Membrane in water
40347
    1TMC1    C1    1   1.952   3.081  11.285  0.5058 -0.1947 -0.1053
    1TMC1    C2    2   1.837   3.151  11.263  0.1678 -0.6269  0.7423
    1TMC1    C3    3   1.829   3.289  11.287  0.0130 -0.3612  0.1307
    1TMC1    C4    4   2.062   3.160  11.312  0.4234  0.7174  0.0499
    1TMC1    C5    5   2.055   3.294  11.316  0.8546 -0.5481  0.4734
    1TMC1    C6    6   1.943   3.367  11.306  0.9299  0.1737 -0.1212
    1TMC1     C    7   1.934   2.959  11.356  0.0864  0.1734 -0.6528
    1TMC1     O    8   1.817   2.921  11.361  0.2115 -0.2069  0.3430
    1TMC1     H    9   1.735   3.114  11.262 -0.7185  1.7804  2.4242
    1TMC1    H1   10   2.160   3.115  11.322 -0.6055 -1.1472  1.8597
    1TMC1    H2   11   1.944   3.473  11.331 -0.9076  0.5973 -1.8547
    1TMC1    C7   12   2.171   3.366  11.362 -0.2439 -0.3921  0.1136
    1TMC1    C8   13   1.699   3.341  11.320 -0.0985  0.8148 -0.5341
    1TMC1    O1   14   2.264   3.316  11.420 -0.4874 -0.6906 -0.3493
    1TMC1    O2   15   1.605   3.271  11.354  0.2555 -0.1579  0.6320
    1TMC1    O3   16   2.194   3.483  11.292 -0.2944 -0.0266 -0.6165
    1TMC1    H3   17   2.125   3.515  11.229  1.7220  2.1250 -1.7437
    1TMC1    O5   18   1.681   3.460  11.251  0.3607  0.0105  0.1426
    1TMC1    H5   19   1.765   3.507  11.234 -0.5306  1.5438 -0.0146
    2MPD2     C   20   2.076   2.651  11.734 -0.7239 -0.9585 -0.2254
    2MPD2    C1   21   1.950   2.689  11.686 -0.2419 -0.1200 -1.0152
    2MPD2    C2   22   1.942   2.771  11.579 -0.0993 -0.1661  0.3796
    2MPD2    C3   23   2.054   2.832  11.526  0.5791  0.5124  0.3725
    2MPD2    C4   24   2.178   2.792  11.575 -0.1592 -0.0015  0.2515
    2MPD2    C5   25   2.188   2.702  11.673  0.4072  0.4067 -0.2460
    2MPD2     H   26   1.842   2.776  11.536  1.1876 -0.4837 -2.6706
    2MPD2    H1   27   2.270   2.828  11.529 -0.4266  2.3619  1.5990
    2MPD2    H2   28   2.090   2.578  11.813 -1.0438 -3.0065 -2.0574
    2MPD2    H3   29   2.288   2.674  11.703  0.3662 -1.3555 -1.7952
    2MPD2     N   30   2.048   2.921  11.417  1.0231 -0.4144  0.1056
    2MPD2    H5   31   2.133   2.956  11.374  1.3177 -0.6309  0.5047
    2MPD2    N1   32   1.829   2.647  11.757  0.2814  0.0552 -0.2205
    2MPD2    H7   33   1.745   2.688  11.717  1.1135 -0.3332 -2.3756
    3TMC1    C1   34   1.295   3.979  10.372  0.0085 -0.4179  0.4114
    3TMC1    C2   35   1.297   3.849  10.313 -0.2188  1.2784 -0.7743
    3TMC1    C3   36   1.419   3.804  10.272  0.5249 -0.3319  0.7580
    3TMC1    C4   37   1.409   4.054  10.398 -0.6552 -0.2548 -0.7062
    3TMC1    C5   38   1.531   3.999  10.363  0.1090  0.0806  0.2017
    3TMC1    C6   39   1.532   3.877  10.294 -0.5010  0.1556  0.2120
    3TMC1     C   40   1.160   4.015  10.420  0.1167  0.2862  0.3219
    3TMC1     O   41   1.070   3.937  10.381  0.2063 -0.7352  0.1731
    3TMC1     H   42   1.211   3.788  10.287 -0.5995  1.8147 -0.7820
    3TMC1    H1   43   1.404   4.154  10.439  0.7145 -0.7480  0.6700
    3TMC1    H2   44   1.630   3.846  10.261 -0.1988  0.2758  0.9787
    3TMC1    C7   45   1.645   4.083  10.346  0.1916 -0.0677 -0.2461
    3TMC1    C8   46   1.448   3.670  10.225 -0.1358 -0.3149  1.0185
    3TMC1    O1   47   1.758   4.041  10.322 -0.6348 -0.2376 -0.2721
    3TMC1    O2   48   1.557   3.612  10.222  0.2406 -0.2903  0.5370
    3TMC1    O3   49   1.607   4.209  10.316  0.2910 -0.9444 -0.1371
    3TMC1    H3   50   1.688   4.265  10.313 -0.4339  0.0239 -1.7031
    3TMC1    O5   51   1.335   3.606  10.186  0.1141  0.4219 -0.1945
    3TMC1    H5   52   1.246   3.643  10.203 -0.4389 -0.7136 -0.5773
    4MPD2     C   53   0.815   4.317  10.648 -0.3054  0.4216 -0.0572
    4MPD2    C1   54   0.929   4.393  10.619  0.4484  0.5755  1.1753
    4MPD2    C2   55   1.041   4.327  10.569  0.1323 -0.1512 -0.2803
    4MPD2    C3   56   1.037   4.196  10.536 -0.6036 -0.4563  0.6382
    4MPD2    C4   57   0.920   4.121  10.564 -0.1095 -0.1269  0.4526
    4MPD2    C5   58   0.813   4.185  10.616  0.3034 -0.8625  1.1259
    4MPD2     H   59   1.135   4.377  10.548 -0.4290  0.5758 -1.0556
    4MPD2    H1   60   0.912   4.015  10.542  0.7501  0.3437 -2.0906
    4MPD2    H2   61   0.719   4.361  10.675 -1.5615 -2.3376 -0.0628
    4MPD2    H3   62   0.715   4.140  10.614 -1.2783  2.6634 -1.5072
    4MPD2     N   63   1.150   4.142  10.474  0.0403 -0.2700  0.2822
    4MPD2    H5   64   1.232   4.202  10.469 -0.1353  0.0248  0.9792
    4MPD2    N1   65   0.938   4.529  10.648 -0.3174 -0.0908 -0.5926
    4MPD2    H7   66   1.017   4.580  10.610 -1.0207  0.6780 -1.0241
    5TCq1    O1   67   1.196   2.002  11.192  0.0134 -0.2630 -0.3741
    5TCq1    C1   68   1.277   1.980  11.087  0.0236 -0.6200 -0.2316
    5TCq1    O2   69   1.283   2.059  10.997  0.5767 -0.5756  0.5036
    5TCq1    C2   70   1.334   1.846  11.085  0.1347  0.7371 -0.6396
    5TCq1    C3   71   1.255   1.740  11.112 -0.6059  0.1035 -0.5409
    5TCq1    C4   72   1.289   1.615  11.069 -0.0539  0.3049 -0.0875
    5TCq1    C5   73   1.394   1.597  10.980  0.1098 -0.2069  0.2961
    5TCq1    C6   74   1.454   1.712  10.939 -0.3377 -0.0293 -0.4740
    5TCq1    C7   75   1.434   1.836  10.988 -0.5732  0.0264  0.2553
    5TCq1    C8   76   1.535   1.704  10.820 -0.3135 -0.5295 -0.4791
    5TCq1    O4   77   1.521   1.798  10.741 -0.6278  0.5307  0.0939
    5TCq1    C9   78   1.217   1.491  11.092  0.3262  0.7087  0.4473
    5TCq1    O5   79   1.241   1.396  11.021 -0.1389 -0.4979 -0.0761
    5TCq1    O6   80   1.121   1.498  11.175  0.4972  0.0761 -0.1034
    5TCq1    H1   81   1.222   1.941  11.264  0.1110 -1.2651 -1.2665
    5TCq1    H2   82   1.174   1.747  11.184 -1.2322  1.8928 -1.4250
    5TCq1    H3   83   1.399   1.504  10.925  0.0898  1.6231 -2.7699
    5TCq1    H4   84   1.485   1.924  10.953  0.4394 -0.7383 -0.1591
    6MPD2     C   85   1.722   1.600  10.613 -0.3877  0.3811 -0.4809
    6MPD2    C1   86   1.652   1.526  10.704 -0.2627 -0.3091  0.0588
    6MPD2    C2   87   1.656   1.389  10.702  0.2520  0.7487  0.1084
    6MPD2    C3   88   1.724   1.321  10.606 -0.3772 -0.0167  0.3221
    6MPD2    C4   89   1.783   1.398  10.509  0.2252  0.2015 -0.3072
    6MPD2    C5   90   1.783   1.533  10.511  0.9280  0.2255  0.8173
    6MPD2     H   91   1.610   1.334  10.783  0.6675 -1.0504 -0.8868
    6MPD2    H1   92   1.837   1.356  10.425  1.4289  0.8703  0.1351
    6MPD2    H2   93   1.722   1.709  10.611 -1.4109  0.4098  0.8362
    6MPD2    H3   94   1.843   1.590  10.441 -0.9884  1.6130  0.2830
    6MPD2     N   95   1.738   1.183  10.617 -0.0731  0.5582 -0.0792
    6MPD2    H5   96   1.673   1.136  10.679 -0.0919 -0.9097 -1.2140
    6MPD2    N1   97   1.578   1.579  10.799  0.3739  0.5876  0.3044
    6MPD2    H7   98   1.561   1.512  10.873 -2.3690 -0.3718 -1.2005
    7TCq1    O1   99   3.185   4.175  13.350 -0.8245  0.1939 -0.0512
    7TCq1    C1  100   3.195   4.067  13.267 -0.0318 -0.2922  0.8887
    7TCq1    O2  101   3.111   4.030  13.185  0.2700  0.0238 -0.1730
    7TCq1    C2  102   3.333   4.051  13.234  0.0010 -0.5005 -0.1214
    7TCq1    C3  103   3.374   4.057  13.107 -0.6217  0.0540  0.4015
    7TCq1    C4  104   3.509   4.045  13.076 -0.1490  0.1620  0.2788
    7TCq1    C5  105   3.603   4.048  13.176 -0.7275 -0.8097 -0.6916
    7TCq1    C6  106   3.559   4.059  13.304 -0.2263  0.1799  0.2589
    7TCq1    C7  107   3.424   4.069  13.333  0.8479  0.0341 -0.2519
    7TCq1    C8  108   3.661   4.083  13.413 -0.4968 -0.1090  0.3654
    7TCq1    O4  109   3.621   4.057  13.527 -0.1105  0.4541 -0.2802
    7TCq1    C9  110   3.557   4.043  12.935  0.0740  0.6340  0.2067
    7TCq1    O5  111   3.476   3.989  12.856  0.3232  0.5729  0.4543
    7TCq1    O6  112   3.682   4.052  12.920 -0.1426 -0.0861 -0.4566
    7TCq1    H1  113   3.267   4.212  13.389  1.6709 -2.6169 -2.5952
    7TCq1    H2  114   3.296   4.056  13.032 -0.4496  1.5035  0.2006
    7TCq1    H3  115   3.709   4.038  13.156 -0.2359  2.5575  0.1899
    7TCq1    H4  116   3.396   4.060  13.438  0.3186 -1.0696 -0.4821
    8MPD2     C  117   4.154   4.127  13.551  0.6197  1.4426  1.3901
    8MPD2    C1  118   4.047   4.082  13.633 -0.3477 -0.7228  0.1405
    8MPD2    C2  119   3.920   4.080  13.568  0.4791 -0.1327 -0.0896
    8MPD2    C3  120   3.905   4.110  13.432 -0.1067  0.6591  0.2080
    8MPD2    C4  121   4.016   4.152  13.363 -0.1243  0.2129  0.2805
    8MPD2    C5  122   4.138   4.165  13.423 -0.4207  0.1645 -0.3285
    8MPD2     H  123   3.831   4.047  13.621 -0.6918  2.1619 -0.6306
    8MPD2    H1  124   4.007   4.187  13.261 -1.1863 -0.2458  0.2106
    8MPD2    H2  125   4.255   4.141  13.587  2.0710 -0.3244 -1.9765
    8MPD2    H3  126   4.226   4.205  13.376  0.0688  1.1080  1.3826
    8MPD2     N  127   3.784   4.115  13.360 -0.5585 -0.0243  0.0585
    8MPD2    H5  128   3.794   4.111  13.259 -0.5623 -0.1217  0.0624
    8MPD2    N1  129   4.069   4.034  13.762  0.0225  0.3647  0.1582
    8MPD2    H7  130   4.169   4.021  13.774  0.4392  1.3500 -2.2381
    9TMC1    C1  131   1.402   4.224  10.990 -0.2792 -0.1214  1.3611
    9TMC1    C2  132   1.467   4.297  11.089 -0.2193 -0.9063  0.5556
    9TMC1    C3  133   1.585   4.353  11.048 -0.5908 -0.1044  0.3186
    9TMC1    C4  134   1.454   4.199  10.871 -0.3947 -0.7589 -0.2861
    9TMC1    C5  135   1.570   4.268  10.835  0.0856  1.1038 -0.1871
    9TMC1    C6  136   1.636   4.344  10.924  0.2080 -1.3242  0.6382
    9TMC1     C  137   1.289   4.143  11.038 -0.0507  0.1571  0.2131
    9TMC1     O  138   1.207   4.096  10.957 -0.0616  0.9013 -0.3936
    9TMC1     H  139   1.421   4.329  11.181  0.5857 -1.2412  1.0773
    9TMC1    H1  140   1.404   4.139  10.796 -0.2550  1.6341 -2.3218
    9TMC1    H2  141   1.740   4.372  10.912  0.2256 -0.8907  1.7849
    9TMC1    C7  142   1.629   4.238  10.715  0.3809 -0.6018  0.7492
    9TMC1    C8  143   1.666   4.410  11.153  0.1033  0.0266  0.3317
    9TMC1    O1  144   1.618   4.124  10.672 -0.5194 -0.2047 -0.0934
    9TMC1    O2  145   1.669   4.359  11.266  0.1752 -0.5569 -0.2048
    9TMC1    O3  146   1.737   4.316  10.695 -0.2822 -0.1228 -0.6328
    9TMC1    H3  147   1.727   4.411  10.720 -0.0549  0.4036 -2.4890
    9TMC1    O5  148   1.689   4.542  11.128  0.4020 -0.5387 -0.0307
    9TMC1    H5  149   1.661   4.575  11.041  0.1589 -0.1909  0.1791
   10MPD2     C  150   1.096   3.995  11.205 -0.7145 -0.0490  0.4572
   10MPD2    C1  151   1.223   4.030  11.246  0.1524 -0.3219 -0.4826
   10MPD2    C2  152   1.271   3.981  11.363  0.4662 -0.0557  0.1907
   10MPD2    C3  153   1.194   3.896  11.437 -0.3190 -0.1187  0.7411
   10MPD2    C4  154   1.065   3.875  11.399  0.7975 -0.6680 -0.3433
   10MPD2    C5  155   1.020   3.919  11.279  0.6584 -0.6548 -0.4987
   10MPD2     H  156   1.356   4.022  11.416 -2.1778  0.8804  3.6858
   10MPD2    H1  157   0.999   3.829  11.472 -0.9165  2.0712 -0.1673
   10MPD2    H2  158   1.050   4.027  11.112 -0.6705 -0.8741  0.1538
   10MPD2    H3  159   0.915   3.904  11.258  0.1117 -0.8589  2.3377
   10MPD2     N  160   1.237   3.831  11.556 -0.4138 -0.1463 -0.4029
   10MPD2    H5  161   1.166   3.782  11.610 -1.5777  2.7182  0.6952
   10MPD2    N1  162   1.303   4.115  11.169 -0.3139 -0.0989  0.0753
   10MPD2    H7  163   1.391   4.136  11.214 -0.0783 -0.8166 -0.0426
   11TCq1    O1  164   1.401   3.471  13.990 -0.8989  0.0470  0.1109
   11TCq1    C1  165   1.361   3.402  13.884  0.3198  0.3115 -0.4360
   11TCq1    O2  166   1.255   3.423  13.832  0.4355 -0.1843  0.1564
   11TCq1    C2  167   1.466   3.313  13.848  0.4767 -0.5534  0.4014
   11TCq1    C3  168   1.558   3.272  13.946 -0.1230  0.7100  0.6845
   11TCq1    C4  169   1.634   3.158  13.928  0.2849  0.8182  0.0929
   11TCq1    C5  170   1.616   3.076  13.815  0.4650  0.1763 -0.2223
   11TCq1    C6  171   1.515   3.124  13.729 -0.0710 -0.5305 -0.3196
   11TCq1    C7  172   1.441   3.236  13.741  0.1303  0.7265  0.0166
   11TCq1    C8  173   1.488   3.049  13.598  0.8204  0.4158 -0.7152
   11TCq1    O4  174   1.394   3.085  13.529  1.0187  0.0659  0.1026
   11TCq1    C9  175   1.705   3.100  14.036 -0.4433  1.0500 -0.0005
   11TCq1    O5  176   1.685   3.141  14.151 -0.0130  0.2541 -0.5329
   11TCq1    O6  177   1.770   2.996  14.002 -0.4483  0.2639  0.1854
   11TCq1    H1  178   1.499   3.471  13.990 -0.9035  1.5531  0.0517
   11TCq1    H2  179   1.569   3.318  14.043 -1.3160  0.4631  0.9417
   11TCq1    H3  180   1.661   2.978  13.817 -1.2061 -0.5955  0.3074
   11TCq1    H4  181   1.344   3.238  13.693  0.2548 -0.8607 -0.2985
   12MPD2     C  182   1.481   2.881  13.362 -0.2992 -0.0007 -0.3011
   12MPD2    C1  183   1.581   2.872  13.455 -1.5755 -0.0703 -0.0719
   12MPD2    C2  184   1.673   2.771  13.435 -0.2987  0.1257  0.4673
   12MPD2    C3  185   1.676   2.677  13.330 -0.1506  0.7062  0.3973
   12MPD2    C4  186   1.576   2.694  13.243  0.0049  0.1015 -0.2583
   12MPD2    C5  187   1.483   2.788  13.267  0.4752 -0.1295 -0.3237
   12MPD2     H  188   1.744   2.767  13.516 -0.2250 -0.8897  0.3522
   12MPD2    H1  189   1.577   2.640  13.149 -1.9350 -3.9564  2.0658
   12MPD2    H2  190   1.401   2.954  13.355  0.2682  0.6899  0.3238
   12MPD2    H3  191   1.407   2.795  13.189 -1.2073  1.6770  1.4696
   12MPD2     N  192   1.774   2.581  13.309 -0.4318  0.4472 -0.7201
   12MPD2    H5  193   1.750   2.510  13.241  1.6901  0.1508 -1.1818
   12MPD2    N1  194   1.579   2.948  13.571 -0.2217 -0.7445 -0.1635
   12MPD2    H7  195   1.647   2.931  13.645 -0.5648 -1.1497  0.0661
   13TCq1    O1  196   1.964   3.890  10.572  0.3712 -0.6016  0.4871
   13TCq1    C1  197   2.030   3.852  10.686  0.2909  0.0872  0.1813
   13TCq1    O2  198   2.151   3.855  10.698  0.4797 -0.4005  0.5560
   13TCq1    C2  199   1.935   3.814  10.783  0.2983  0.7017 -0.3098
   13TCq1    C3  200   1.977   3.724  10.869 -0.0199  0.2483  0.2617
   13TCq1    C4  201   1.890   3.702  10.972 -0.5988  0.3116 -0.2274
   13TCq1    C5  202   1.760   3.747  10.984 -0.0611 -0.9329 -1.0565
   13TCq1    C6  203   1.727   3.843  10.895  0.0613  0.6400  0.1079
   13TCq1    C7  204   1.818   3.877  10.794 -0.3255  0.1148  0.6107
   13TCq1    C8  205   1.586   3.859  10.870 -0.5312  0.0114 -0.2035
   13TCq1    O4  206   1.520   3.884  10.970  0.2706  0.2737  0.2619
   13TCq1    C9  207   1.946   3.627  11.087  0.1401 -0.1768 -0.4650
   13TCq1    O5  208   2.060   3.570  11.077 -0.0971  0.4572  0.0090
   13TCq1    O6  209   1.872   3.624  11.189  0.0678 -0.1865  0.4711
   13TCq1    H1  210   1.866   3.882  10.580  0.2992 -2.4446 -2.2904
   13TCq1    H2  211   2.076   3.679  10.861  0.2942  1.1113 -0.8123
   13TCq1    H3  212   1.698   3.724  11.070  1.3051 -0.9677 -0.0981
   13TCq1    H4  213   1.783   3.957  10.730 -1.2888 -0.3311  0.5766
   14MPD2     C  214   1.388   3.700  10.604 -0.1553 -0.4707 -0.4338
   14MPD2    C1  215   1.419   3.788  10.702 -0.2050  0.4001 -0.4688
   14MPD2    C2  216   1.313   3.853  10.762 -0.4800  0.2815  0.1046
   14MPD2    C3  217   1.182   3.837  10.724 -0.6475 -0.2661 -0.3102
   14MPD2    C4  218   1.149   3.739  10.631  0.1845  0.3189 -0.0227
   14MPD2    C5  219   1.257   3.672  10.566 -0.2501 -0.4908 -0.1726
   14MPD2     H  220   1.331   3.923  10.843  0.0774 -1.1567  1.2109
   14MPD2    H1  221   1.044   3.730  10.603  0.0411  0.3862  0.4794
   14MPD2    H2  222   1.461   3.636  10.556 -1.8824 -2.2869 -0.6511
   14MPD2    H3  223   1.244   3.587  10.500 -0.9182 -2.3556  2.4017
   14MPD2     N  224   1.082   3.919  10.793 -0.0425 -0.2255 -0.0518
   14MPD2    H5  225   1.119   3.989  10.857 -1.4444 -1.2221  1.8489
   14MPD2    N1  226   1.549   3.803  10.749  0.0865  0.2479 -0.8286
   14MPD2    H7  227   1.627   3.789  10.684  1.6729 -0.2954  1.1917
   15TCq1    O1  228   3.377   3.075   1.286  0.0151  0.7628 -0.1939
   15TCq1    C1  229   3.417   2.943   1.276  0.0037  0.8127 -0.1581
   15TCq1    O2  230   3.532   2.903   1.241  0.5817 -0.2744 -0.0136
   15TCq1    C2  231   3.299   2.855   1.279  0.3572  0.2209  0.2251
   15TCq1    C3  232   3.166   2.904   1.277  0.9337 -0.1031  0.3149
   15TCq1    C4  233   3.071   2.815   1.304 -0.3245 -0.7003 -0.0784
   15TCq1    C5  234   3.098   2.687   1.343 -0.1706 -0.0173 -0.0633
   15TCq1    C6  235   3.231   2.648   1.354  0.0893  0.2753 -0.1401
   15TCq1    C7  236   3.328   2.725   1.308  0.2384 -0.5834 -0.1958
   15TCq1    C8  237   3.264   2.507   1.374  0.4337  0.4037 -0.4065
   15TCq1    O4  238   3.381   2.470   1.354  0.5205  0.3296  0.2875
   15TCq1    C9  239   2.935   2.847   1.270 -0.0190 -0.5371  0.0197
   15TCq1    O5  240   2.850   2.782   1.332  0.4448 -0.4283  0.2583
   15TCq1    O6  241   2.913   2.954   1.206  0.6127  0.3030 -0.5535
   15TCq1    H1  242   3.285   3.082   1.318 -0.3205 -0.5244 -0.8848
   15TCq1    H2  243   3.144   3.003   1.238  1.4744 -0.8816 -1.9820
   15TCq1    H3  244   3.014   2.618   1.343 -0.5516  0.4360  2.2124
   15TCq1    H4  245   3.429   2.695   1.335 -0.3177 -1.6227  0.7550
   16MPD2     C  246   3.040   2.219   1.376  0.3036  0.4748  0.3162
   16MPD2    C1  247   3.158   2.281   1.371  0.2956 -0.0284 -0.0366
   16MPD2    C2  248   3.263   2.212   1.322 -0.3671 -0.0536 -0.0771
   16MPD2    C3  249   3.245   2.080   1.280 -0.1279 -0.5547  0.4457
   16MPD2    C4  250   3.126   2.013   1.298  0.4847  0.0169 -0.9977
   16MPD2    C5  251   3.023   2.088   1.350  0.5875 -0.3295  0.7955
   16MPD2     H  252   3.359   2.262   1.311  0.1367 -0.8356  0.7695
   16MPD2    H1  253   3.107   1.908   1.276 -0.7882 -0.3093  1.6773
   16MPD2    H2  254   2.952   2.278   1.399 -1.0190 -1.5653  0.5200
   16MPD2    H3  255   2.922   2.049   1.345  0.9295 -1.1145 -0.0542
   16MPD2     N  256   3.366   2.014   1.235 -0.0336  0.3047 -0.3564
   16MPD2    H5  257   3.447   2.075   1.240  0.6901 -0.7123  0.4324
   16MPD2    N1  258   3.158   2.424   1.392 -0.7026 -1.0168 -0.1298
   16MPD2    H7  259   3.072   2.473   1.415  0.1613 -0.1336  1.2337
   17TMC1    C1  260   0.938   3.313  11.472  0.2474  0.3068  0.4476
   17TMC1    C2  261   0.822   3.343  11.537  0.1863 -0.0693  0.1894
   17TMC1    C3  262   0.759   3.237  11.601 -0.3048 -0.8364  0.4486
   17TMC1    C4  263   0.986   3.182  11.470 -0.2375  0.4936 -0.0213
   17TMC1    C5  264   0.915   3.081  11.535 -0.1638 -0.8475  0.2124
   17TMC1    C6  265   0.802   3.112  11.607  0.4599  0.1668 -0.3650
   17TMC1     C  266   1.006   3.415  11.392 -0.4741 -0.0412 -0.7964
   17TMC1     O  267   0.939   3.516  11.380  0.1633  0.0131  0.0741
   17TMC1     H  268   0.784   3.444  11.528  2.7526  0.8357 -0.3743
   17TMC1    H1  269   1.087   3.158  11.440 -0.0625  0.7777  0.3379
   17TMC1    H2  270   0.758   3.030  11.663 -0.8846  1.3979  0.3934
   17TMC1    C7  271   0.952   2.939  11.538 -0.6442 -0.2661  0.3565
   17TMC1    C8  272   0.619   3.253  11.635 -0.2011  0.1429 -0.1320
   17TMC1    O1  273   0.931   2.857  11.626 -0.0652 -0.6421  0.6917
   17TMC1    O2  274   0.540   3.157  11.655  0.9493  0.5039  0.1130
   17TMC1    O3  275   1.017   2.915  11.423 -0.9510  0.0808 -0.0307
   17TMC1    H3  276   1.004   2.982  11.353 -1.3653 -0.5105 -0.5202
   17TMC1    O5  277   0.606   3.381  11.690 -0.0193 -0.2387 -0.6044
   17TMC1    H5  278   0.692   3.427  11.691 -1.0768  1.8290 -4.2415
   18MPD2     C  279   1.162   3.602  11.205 -0.3013 -0.0598 -0.1455
   18MPD2    C1  280   1.191   3.473  11.231 -0.4536  0.3640  0.0893
   18MPD2    C2  281   1.306   3.430  11.166  0.1737  0.5162 -0.5550
   18MPD2    C3  282   1.376   3.500  11.066 -0.3486  0.1556  0.4483
   18MPD2    C4  283   1.335   3.624  11.034 -0.4945  0.2455  0.5621
   18MPD2    C5  284   1.229   3.670  11.101 -0.6498  0.7159 -0.0361
   18MPD2     H  285   1.336   3.327  11.184  1.1277  0.9959  0.6211
   18MPD2    H1  286   1.385   3.681  10.955  0.0770  1.4769  1.8072
   18MPD2    H2  287   1.083   3.659  11.253  1.0273  2.3450 -0.7874
   18MPD2    H3  288   1.183   3.764  11.072 -1.8355 -0.4693 -1.9851
   18MPD2     N  289   1.482   3.445  10.986 -0.4747 -0.5430 -0.0497
   18MPD2    H5  290   1.545   3.516  10.949 -0.8414  1.0775  2.4982
   18MPD2    N1  291   1.128   3.383  11.322 -0.0321  0.0371 -0.0947
   18MPD2    H7  292   1.181   3.301  11.350 -2.2581 -1.6410 -0.7646
   19TMC2    C1  293   2.816   3.360  14.303  0.0007  0.4778 -0.7213
   19TMC2    C2  294   2.705   3.431  14.345  0.0829 -0.8338  0.6085
   19TMC2    C3  295   2.582   3.369  14.333  0.3324  0.1757  0.2734
   19TMC2    C4  296   2.804   3.228  14.262 -0.0790 -0.4405 -0.1457
   19TMC2    C5  297   2.676   3.179  14.258 -0.0048  0.2830  0.5138
   19TMC2    C6  298   2.564   3.241  14.300 -0.5477 -0.2337  0.2086
   19TMC2     C  299   2.954   3.421  14.303  0.3603  0.1694 -0.0548
   19TMC2     O  300   2.968   3.545  14.313 -0.0518  0.5119 -0.1744
   19TMC2     H  301   2.716   3.535  14.373  0.3942 -0.8725  0.6316
   19TMC2    H1  302   2.884   3.173  14.213 -0.4294  1.8960 -3.3364
   19TMC2    H2  303   2.468   3.192  14.309 -2.0266  2.1112 -2.7123
   19TMC2    C7  304   2.658   3.035  14.219  0.4073 -0.5443  0.1125
   19TMC2    C8  305   2.465   3.457  14.320 -0.2933  0.0657 -0.2199
   19TMC2    O1  306   2.759   2.965  14.199  0.1632 -0.2097  0.4236
   19TMC2    O2  307   2.381   3.465  14.408 -0.4028  0.2162 -0.3728
   19TMC2    O5  308   2.505   3.570  14.264  0.3753 -0.0916 -0.2227
   19TMC2    H5  309   2.563   3.547  14.188  0.1700 -0.0998 -0.3752
   20MPD2     C  310   3.240   3.453  14.251  0.1519 -0.2541  0.0414
   20MPD2    C1  311   3.188   3.341  14.313 -0.0393  0.0839  0.6792
   20MPD2    C2  312   3.280   3.245  14.357 -0.0938  0.0501 -0.1500
   20MPD2    C3  313   3.415   3.266  14.345 -0.0360  0.4535 -0.6046
   20MPD2    C4  314   3.467   3.385  14.301 -0.2042  0.2522  0.2114
   20MPD2    C5  315   3.379   3.475  14.245  0.8088  0.0659  0.6690
   20MPD2     H  316   3.251   3.150  14.401 -1.4683  1.2554  1.5355
   20MPD2    H1  317   3.574   3.403  14.295 -0.2096  0.6142  1.1027
   20MPD2    H2  318   3.173   3.526  14.206  0.8926 -1.2242 -2.5946
   20MPD2    H3  319   3.412   3.569  14.203 -0.3762  1.4051  2.7353
   20MPD2     N  320   3.515   3.171  14.383  0.0548 -0.6208 -0.6319
   20MPD2    H5  321   3.606   3.208  14.407 -0.4385 -1.1575  2.1471
   20MPD2    N1  322   3.049   3.325  14.325 -0.1883  0.1847 -0.1026
   20MPD2    H7  323   3.016   3.232  14.352 -1.9456  0.6586 -0.6369
   21TMC2    C1  324   1.076   3.579  14.620 -0.0300 -0.5121 -0.9261
   21TMC2    C2  325   1.077   3.506  14.505  0.4155  0.1163 -0.0429
   21TMC2    C3  326   0.988   3.546  14.401  0.1281 -0.8647  0.5445
   21TMC2    C4  327   1.006   3.701  14.631 -0.4171  0.3518 -0.2371
   21TMC2    C5  328   0.941   3.746  14.521  0.2439  0.2632 -0.5979
   21TMC2    C6  329   0.922   3.666  14.407 -0.1538  0.8343  0.8623
   21TMC2     C  330   1.152   3.532  14.738 -0.7833 -0.1857 -0.4397
   21TMC2     O  331   1.182   3.414  14.742  0.1046  0.1838  0.1133
   21TMC2     H  332   1.125   3.409  14.506  0.8967  0.3588  0.0589
   21TMC2    H1  333   1.009   3.758  14.723 -1.0940 -0.8732  0.5436
   21TMC2    H2  334   0.854   3.689  14.326  1.7374  0.1928 -0.8865
   21TMC2    C7  335   0.925   3.892  14.513 -0.3651 -0.8293  0.2489
   21TMC2    C8  336   0.968   3.463  14.285 -0.1316 -0.6310  0.2839
   21TMC2    O1  337   0.967   3.947  14.615 -0.4084  0.3470 -0.2939
   21TMC2    O2  338   0.984   3.339  14.284  0.4048  0.1176 -0.4601
   21TMC2    O5  339   0.962   3.530  14.172 -0.2961 -0.2432 -0.3820
   21TMC2    H5  340   0.970   3.626  14.188  0.8720 -0.3503 -0.3337
   22MPD2     C  341   1.462   3.638  15.146 -0.0394 -0.7392  0.9505
   22MPD2    C1  342   1.425   3.515  15.089 -0.5351  0.0657  1.4007
   22MPD2    C2  343   1.335   3.501  14.980 -0.5547  0.3273 -0.7102
   22MPD2    C3  344   1.276   3.621  14.928 -0.2116  0.2486  0.0833
   22MPD2    C4  345   1.305   3.738  14.995 -0.7034 -0.1597  0.3342
   22MPD2    C5  346   1.394   3.751  15.093 -0.7504 -0.8740 -0.2599
   22MPD2     H  347   1.304   3.409  14.933  2.0774 -1.5393  1.1943
   22MPD2    H1  348   1.239   3.819  14.965 -1.5098 -0.4836  1.2226
   22MPD2    H2  349   1.526   3.649  15.232  1.8127 -2.3553 -0.2292
   22MPD2    H3  350   1.412   3.852  15.131 -1.6058 -0.6091 -0.5487
   22MPD2     N  351   1.194   3.635  14.818 -0.1403 -0.2876 -0.4021
   22MPD2    H5  352   1.181   3.732  14.788  1.4251  1.1856  3.6764
   22MPD2    N1  353   1.480   3.392  15.129 -0.1699  0.0576 -0.0514
   22MPD2    H7  354   1.439   3.310  15.085 -2.8271  1.0714  0.5214
   23TMC2    C1  355   2.358   4.234  14.062 -0.0582 -0.1667 -0.1087
   23TMC2    C2  356   2.336   4.367  14.020  0.1303 -0.3332 -0.4859
   23TMC2    C3  357   2.211   4.417  14.000  0.1555  0.1717  0.2114
   23TMC2    C4  358   2.249   4.159  14.085  0.3581 -0.3772 -0.4295
   23TMC2    C5  359   2.128   4.208  14.046 -0.3070 -0.6555  0.6153
   23TMC2    C6  360   2.099   4.339  14.009  0.6953 -0.3413  0.1453
   23TMC2     C  361   2.468   4.204  14.147  0.5763 -0.3963 -0.7345
   23TMC2     O  362   2.452   4.150  14.252  0.1707 -0.0678  0.8727
   23TMC2     H  363   2.417   4.437  14.003 -1.5080  1.7173  0.1514
   23TMC2    H1  364   2.260   4.055  14.112 -1.8373  0.1462  2.4513
   23TMC2    H2  365   2.007   4.365  13.958  0.9872 -0.3392 -0.3775
   23TMC2    C7  366   2.024   4.105  14.030  0.1481 -0.2208 -0.2566
   23TMC2    C8  367   2.195   4.557  13.973  0.9644  0.2710  0.5808
   23TMC2    O1  368   2.064   3.987  14.039 -0.5379 -0.3266 -0.5256
   23TMC2    O2  369   2.282   4.620  13.914  0.0449 -0.0209 -0.1242
   23TMC2    O5  370   2.080   4.605  14.030  0.0524 -0.3050  0.0379
   23TMC2    H5  371   2.035   4.538  14.085 -0.2566  1.7796  2.3158
   24MPD2     C  372   2.960   4.348  14.255 -0.2082  0.1776  0.0901
   24MPD2    C1  373   2.857   4.317  14.343  0.2184 -0.1185 -0.0234
   24MPD2    C2  374   2.728   4.283  14.294 -0.4569 -0.0659 -0.3167
   24MPD2    C3  375   2.703   4.287  14.155 -0.1836  0.0506  0.1857
   24MPD2    C4  376   2.804   4.335  14.076 -0.2257  0.1050 -0.6061
   24MPD2    C5  377   2.931   4.359  14.128  0.0735  0.6670 -1.0088
   24MPD2     H  378   2.654   4.267  14.371  0.2222 -2.2769 -0.1298
   24MPD2    H1  379   2.787   4.347  13.970 -0.3091  1.0507 -0.4891
   24MPD2    H2  380   3.064   4.356  14.284 -0.6338  2.4560  0.9540
   24MPD2    H3  381   3.011   4.400  14.068 -0.4889  1.2684 -1.3502
   24MPD2     N  382   2.584   4.260  14.089 -0.4524 -1.0844 -0.0693
   24MPD2    H5  383   2.575   4.305  13.998  0.6726  1.1203  0.9117
   24MPD2    N1  384   2.877   4.322  14.485 -0.1716 -0.3048 -0.3656
   24MPD2    H7  385   2.798   4.302  14.545 -0.2193 -0.6336 -0.5406
   25TMC2    C1  386   0.845   2.423  11.997  0.0491 -0.2858 -0.0864
   25TMC2    C2  387   0.909   2.540  12.023 -0.8274 -0.2299 -0.2053
   25TMC2    C3  388   0.889   2.590  12.148  0.0941  0.9134  0.6346
   25TMC2    C4  389   0.749   2.375  12.084 -0.5895 -0.4426  0.3815
   25TMC2    C5  390   0.730   2.434  12.202 -0.3072 -0.6203 -0.1918
   25TMC2    C6  391   0.797   2.548  12.240  0.2523  0.1341 -0.6163
   25TMC2     C  392   0.879   2.354  11.869  0.5116  0.6639 -0.2217
   25TMC2     O  393   0.795   2.279  11.829 -0.5112  0.0527  0.5758
   25TMC2     H  394   0.977   2.594  11.958 -0.1002  0.3295  1.0032
   25TMC2    H1  395   0.685   2.290  12.064 -1.6983  0.0363  1.9283
   25TMC2    H2  396   0.783   2.601  12.333  0.1599  0.6978 -0.9511
   25TMC2    C7  397   0.608   2.393  12.272  0.0354 -0.4263  0.9817
   25TMC2    C8  398   0.978   2.708  12.182  0.2501  0.0962 -0.1212
   25TMC2    O1  399   0.580   2.271  12.282 -0.5163 -0.0607  0.4159
   25TMC2    O2  400   1.086   2.714  12.129 -0.7320 -0.2319 -0.1372
   25TMC2    O5  401   0.899   2.803  12.247 -0.6263 -0.4337  0.2586
   25TMC2    H5  402   0.807   2.770  12.253 -0.1378 -2.2051 -2.1557
   26MPD2     C  403   1.170   2.247  11.470 -0.6226  0.1947  0.1683
   26MPD2    C1  404   1.036   2.224  11.488 -0.3983 -0.0642  0.5145
   26MPD2    C2  405   0.985   2.261  11.607 -1.3415 -0.0353 -0.4806
   26MPD2    C3  406   1.059   2.334  11.703 -0.5074  0.2435 -0.1899
   26MPD2    C4  407   1.189   2.363  11.677 -0.1634 -0.4094 -0.1805
   26MPD2    C5  408   1.242   2.316  11.563 -0.6556  0.1263 -0.7387
   26MPD2     H  409   0.880   2.243  11.629 -0.9773 -1.0791  0.3879
   26MPD2    H1  410   1.250   2.417  11.748  1.4259  1.8203 -3.2641
   26MPD2    H2  411   1.214   2.208  11.379 -2.3343  0.0626 -0.6085
   26MPD2    H3  412   1.348   2.334  11.550 -0.4101 -0.0296  1.0759
   26MPD2     N  413   1.002   2.384  11.824  0.2341 -0.0213 -0.5573
   26MPD2    H5  414   1.064   2.436  11.886  0.5232 -1.6915  0.5701
   26MPD2    N1  415   0.964   2.152  11.386 -0.1881 -0.0639  0.0773
   26MPD2    H7  416   1.019   2.106  11.315 -0.8060  1.7781 -1.5975
   27TMC2    C1  417   0.119   4.647  11.943 -0.5055  0.3461  0.1629
   27TMC2    C2  418   0.125   4.708  11.830  0.3047  0.4820 -0.0756
   27TMC2    C3  419   0.172   0.103  11.827  0.0017  0.4707  0.1191
   27TMC2    C4  420   0.145   4.702  12.060  0.1957  0.5475 -0.2752
   27TMC2    C5  421   0.197   0.090  12.059  0.3517  0.6752 -0.0300
   27TMC2    C6  422   0.214   0.165  11.947 -0.3317  0.0600 -0.0778
   27TMC2     C  423   0.063   4.515  11.940 -0.0616  0.5730 -0.1240
   27TMC2     O  424   0.096   4.443  11.850  0.1105  0.3369 -0.4148
   27TMC2     H  425   0.096   4.663  11.735  1.3550 -0.8679  0.2329
   27TMC2    H1  426   0.143   4.648  12.154 -0.6852  3.4079  1.3439
   27TMC2    H2  427   0.243   0.270  11.953 -1.0212  0.2594 -0.2653
   27TMC2    C7  428   0.192   0.155  12.190  0.0168 -0.5350  0.4193
   27TMC2    C8  429   0.158   0.176  11.701 -0.1132 -0.1240 -0.2052
   27TMC2    O1  430   0.244   0.102  12.288 -0.0387 -0.3227 -0.4894
   27TMC2    O2  431   0.082   0.142  11.609  0.2039 -0.2357  0.5003
   27TMC2    O5  432   0.251   0.275  11.695 -0.1289 -0.1438  0.7227
   27TMC2    H5  433   0.322   0.272  11.763  0.9827  2.0556 -0.3568
   28MPD2     C  434   4.492   4.165  12.147 -0.7431  0.4284 -0.5873
   28MPD2    C1  435   4.480   4.281  12.214 -0.0665  0.0409 -0.3917
   28MPD2    C2  436   4.564   4.387  12.180  0.0433 -0.4858 -0.1125
   28MPD2    C3  437   4.660   4.382  12.085 -0.5830  0.1712  0.3744
   28MPD2    C4  438   4.686   4.257  12.036 -0.6401  0.5991 -0.5909
   28MPD2    C5  439   4.598   4.157  12.064 -0.9449  0.4471 -0.4104
   28MPD2     H  440   4.534   4.485  12.216  0.2444  0.3723 -2.2742
   28MPD2    H1  441   0.019   4.241  11.954 -1.4521  0.3019 -1.2151
   28MPD2    H2  442   4.427   4.081  12.167 -1.5979  1.3225  0.3631
   28MPD2    H3  443   4.602   4.063  12.009 -2.2719 -0.2552  0.6939
   28MPD2     N  444   4.720   4.496  12.048 -0.1953 -0.1159  0.4120
   28MPD2    H5  445   4.693   4.585  12.089 -3.0711  0.3549 -2.4402
   28MPD2    N1  446   4.374   4.287  12.307  0.7780  0.0607 -0.2284
   28MPD2    H7  447   4.318   4.204  12.324 -0.9097  1.4314  0.9048
   29TMC2    C1  448   0.005   2.150  14.295  1.3498  0.3835  0.1216
   29TMC2    C2  449   4.713   2.163  14.426 -0.0246 -0.4616  0.5330
   29TMC2    C3  450   0.051   2.258  14.495  0.5530 -0.2033 -0.0909
   29TMC2    C4  451   0.102   2.219  14.232 -0.4051 -0.1494 -0.9147
   29TMC2    C5  452   0.170   2.314  14.304 -0.3116 -0.0352  0.2950
   29TMC2    C6  453   0.148   2.329  14.438 -0.1740 -0.3658  0.1758
   29TMC2     C  454   4.681   2.033  14.231  0.8228 -0.6098 -0.2314
   29TMC2     O  455   0.015   1.978  14.147 -0.4256 -0.1079 -0.1980
   29TMC2     H  456   4.640   2.103  14.478  0.0840 -1.9657 -1.0597
   29TMC2    H1  457   0.112   2.210  14.124 -0.8167  1.1909 -1.0520
   29TMC2    H2  458   0.196   2.412  14.489 -0.6379 -0.7939  1.3095
   29TMC2    C7  459   0.258   2.393  14.224  0.0719 -0.5885 -0.1943
   29TMC2    C8  460   0.036   2.262  14.641 -0.2995  0.1905 -0.3287
   29TMC2    O1  461   0.236   2.389  14.104  0.1310 -0.0520  0.2239
   29TMC2    O2  462   0.122   2.318  14.715 -0.5824  0.1067 -0.6524
   29TMC2    O5  463   4.644   2.296  14.647 -0.3813 -0.3064 -0.5046
   29TMC2    H5  464   4.591   2.281  14.566  1.1855  0.0168 -1.6020
   30MPD2     C  465   4.310   1.680  14.274 -0.3244 -0.5503 -0.3628
   30MPD2    C1  466   4.441   1.664  14.225  0.6983 -0.2619  0.6103
   30MPD2    C2  467   4.531   1.772  14.222  0.4083 -0.5015 -0.1565
   30MPD2    C3  468   4.491   1.889  14.278  0.4962  0.9847  0.4060
   30MPD2    C4  469   4.364   1.898  14.340  0.7698  0.3050 -0.1110
   30MPD2    C5  470   4.277   1.792  14.329 -0.5223 -0.7219  0.9089
   30MPD2     H  471   4.630   1.756  14.181  0.4559 -1.4491  0.3299
   30MPD2    H1  472   4.346   1.984  14.403 -2.7712 -1.6968  1.6490
   30MPD2    H2  473   4.236   1.602  14.263  1.9683 -2.5996 -1.2402
   30MPD2    H3  474   4.175   1.813  14.360  0.0972  2.3484  0.8632
   30MPD2     N  475   4.561   2.002  14.291  0.4978 -0.0422 -0.7417
   30MPD2    H5  476   4.517   2.069  14.352  0.1956 -0.9198 -0.0090
   30MPD2    N1  477   4.492   1.539  14.183  0.0090 -0.0531 -0.2368
   30MPD2    H7  478   4.585   1.535  14.142 -0.5456 -1.6996 -1.3710
   31TMC2    C1  479   2.020   0.646  15.542 -0.5801  0.4164  0.2962
   31TMC2    C2  480   1.884   0.665  15.566 -0.2207  0.2303  0.0991
   31TMC2    C3  481   1.847   0.643  15.695  0.1641  0.0812 -0.2829
   31TMC2    C4  482   2.112   0.603  15.636  0.1159 -0.2922 -0.0335
   31TMC2    C5  483   2.064   0.561  15.757 -0.2339  0.1863  0.4345
   31TMC2    C6  484   1.932   0.583  15.786 -0.1616  0.3020  0.3990
   31TMC2     C  485   2.068   0.695  15.412 -0.0395 -0.0507  0.3128
   31TMC2     O  486   1.992   0.750  15.339  0.1070  0.0853  0.1342
   31TMC2     H  487   1.810   0.703  15.496 -0.7092  0.3035  0.6555
   31TMC2    H1  488   2.218   0.591  15.614 -0.3200 -1.7127 -1.3132
   31TMC2    H2  489   1.895   0.562  15.886 -0.7718 -2.5664 -0.4199
   31TMC2    C7  490   2.160   0.503  15.846 -0.8608 -0.0232 -0.2061
   31TMC2    C8  491   1.707   0.663  15.729  0.2610  0.0177  0.1072
   31TMC2    O1  492   2.267   0.471  15.798  0.3324  0.0745 -0.8662
   31TMC2    O2  493   1.613   0.670  15.657  0.4352  0.3416 -0.2187
   31TMC2    O5  494   1.693   0.675  15.866 -0.1884  0.0071  0.0318
   31TMC2    H5  495   1.778   0.698  15.910  0.4272 -0.1188 -1.0900
   32MPD2     C  496   2.443   0.766  15.079 -0.1121 -0.1666  0.3320
   32MPD2    C1  497   2.328   0.841  15.097 -0.3565 -0.4795 -0.5794
   32MPD2    C2  498   2.243   0.799  15.200  0.5744  0.0825 -0.4465
   32MPD2    C3  499   2.282   0.695  15.288 -0.0702  0.1809  0.0837
   32MPD2    C4  500   2.406   0.638  15.275  0.0395  0.5266  0.1782
   32MPD2    C5  501   2.486   0.673  15.172  0.0596 -0.7647 -0.0462
   32MPD2     H  502   2.161   0.857  15.242  0.6592  0.9937 -1.5203
   32MPD2    H1  503   2.433   0.555  15.340  1.9487  0.2364 -1.0161
   32MPD2    H2  504   2.516   0.777  15.000 -0.3013 -2.4759 -0.1618
   32MPD2    H3  505   2.586   0.634  15.161  0.3354 -0.0261 -0.1494
   32MPD2     N  506   2.196   0.651  15.388  0.4916 -0.7782  0.2272
   32MPD2    H5  507   2.237   0.582  15.449 -1.1934 -3.8137 -2.0808
   32MPD2    N1  508   2.312   0.949  15.008  0.0258 -0.2779 -0.0211
   32MPD2    H7  509   2.375   0.956  14.929  0.0077 -1.6118 -0.1625
   33TMC2    C1  510   1.959   3.855  10.100 -0.2191 -0.0173 -0.0877
   33TMC2    C2  511   1.841   3.844  10.034  0.0340  0.3160  0.3846
   33TMC2    C3  512   1.818   3.931   9.929 -0.4918 -0.2575  0.2637
   33TMC2    C4  513   2.049   3.956  10.079  0.1148 -0.6311 -0.2086
   33TMC2    C5  514   2.025   4.036   9.972 -0.1016 -0.1120 -1.1870
   33TMC2    C6  515   1.908   4.029   9.898  0.0219 -0.1461  0.1790
   33TMC2     C  516   1.969   3.785  10.227  0.4315  0.6720 -0.2728
   33TMC2     O  517   1.863   3.749  10.265  0.0042  0.3181  0.0985
   33TMC2     H  518   1.774   3.761  10.046  0.0496  0.4123  1.1589
   33TMC2    H1  519   2.132   3.969  10.148 -0.9685 -0.1023  1.0001
   33TMC2    H2  520   1.895   4.086   9.806  0.5181 -1.4241 -0.6919
   33TMC2    C7  521   2.128   4.141   9.935  0.0179 -0.1727 -0.5997
   33TMC2    C8  522   1.677   3.965   9.905  0.3489  0.7354  1.2547
   33TMC2    O1  523   2.242   4.118   9.966  0.1169  0.3605 -0.2849
   33TMC2    O2  524   1.644   4.080   9.890 -0.5391  0.6469  0.4678
   33TMC2    O5  525   1.601   3.872   9.965  0.4114 -0.3528 -0.0714
   33TMC2    H5  526   1.641   3.784   9.953 -0.4795 -0.9175  1.1258
   34MPD2     C  527   2.214   3.533  10.592  0.6605  0.7701 -0.0396
   34MPD2    C1  528   2.080   3.541  10.568 -0.2623 -0.9407  0.4268
   34MPD2    C2  529   2.038   3.611  10.460 -0.0289 -0.2099  0.4227
   34MPD2    C3  530   2.128   3.680  10.379 -0.1317  1.0584 -0.2832
   34MPD2    C4  531   2.261   3.671  10.410 -0.2617 -0.4404 -0.5678
   34MPD2    C5  532   2.304   3.595  10.515 -0.5778 -0.0686  0.2519
   34MPD2     H  533   1.930   3.615  10.447  0.0863 -1.2501 -0.9269
   34MPD2    H1  534   2.335   3.718  10.346 -0.8328 -1.0365 -1.6558
   34MPD2    H2  535   2.253   3.468  10.670 -3.4615 -0.6994  0.7912
   34MPD2    H3  536   2.407   3.583  10.547  0.3380 -0.2734 -2.7135
   34MPD2     N  537   2.099   3.759  10.268 -0.2425  0.3857 -0.4420
   34MPD2    H5  538   2.179   3.807  10.228  0.3105  0.2225  0.4760
   34MPD2    N1  539   1.999   3.465  10.651 -0.4541 -0.0109 -0.2327
   34MPD2    H7  540   2.046   3.422  10.730 -2.0153  0.3822  0.9132
   35TMC2    C1  541   2.970   0.052  11.114 -0.2804 -0.4509 -0.2114
   35TMC2    C2  542   2.867   0.117  11.041  1.0330 -0.3099  0.7237
   35TMC2    C3  543   2.741   0.067  11.062 -0.6199  1.2534  0.0038
   35TMC2    C4  544   2.937   4.691  11.211  0.6132  0.0946  0.8110
   35TMC2    C5  545   2.808   4.657  11.228  0.2229 -0.3275 -0.7500
   35TMC2    C6  546   2.704   4.710  11.155  0.3043  0.3554 -0.0178
   35TMC2     C  547   3.103   0.101  11.112  0.3106  0.3319 -0.7043
   35TMC2     O  548   3.122   0.201  11.045  0.0596 -0.1948  0.6341
   35TMC2     H  549   2.893   0.191  10.967  0.1584  1.0449  1.7808
   35TMC2    H1  550   3.006   4.638  11.276  0.7714 -0.1384  0.4571
   35TMC2    H2  551   2.602   4.691  11.187  0.2141  0.1847 -0.4068
   35TMC2    C7  552   2.789   4.540  11.311  0.0499  0.1605 -0.1666
   35TMC2    C8  553   2.621   0.126  10.992  0.0960  0.1379 -0.0789
   35TMC2    O1  554   2.879   4.461  11.325  0.2011 -0.2193 -0.0441
   35TMC2    O2  555   2.514   0.071  10.975  0.0193 -0.2999  0.0041
   35TMC2    O5  556   2.642   0.259  11.011 -0.3496  0.3113  0.3481
   35TMC2    H5  557   2.732   0.287  11.038 -0.2246  0.9336 -0.6973
   36MPD2     C  558   3.586   0.161  11.263  0.2088  0.3141 -0.6793
   36MPD2    C1  559   3.550   0.039  11.307 -0.0100  0.2479  0.1544
   36MPD2    C2  560   3.421   4.725  11.279 -0.3669 -0.9005  0.2962
   36MPD2    C3  561   3.326   0.077  11.215 -0.2817  0.0156  0.2786
   36MPD2    C4  562   3.368   0.204  11.180  0.6265  0.1826  0.3563
   36MPD2    C5  563   3.497   0.249  11.202  0.6244  0.2199  0.6409
   36MPD2     H  564   3.402   4.621  11.303  1.3073 -0.9203  1.5779
   36MPD2    H1  565   3.297   0.272  11.136 -0.7768  0.2594  2.7442
   36MPD2    H2  566   3.679   0.212  11.287 -1.2874  4.4289 -3.6407
   36MPD2    H3  567   3.532   0.332  11.143 -0.2151  0.8323  0.9986
   36MPD2     N  568   3.197   0.032  11.189  0.1900 -0.4055  0.2079
   36MPD2    H5  569   3.174   4.679  11.233 -1.1957 -0.7244 -1.1708
   36MPD2    N1  570   3.641   4.702  11.380  0.4842  0.0993  0.2741
   36MPD2    H7  571   3.717   0.026  11.411  1.2899 -0.1388 -1.2594
   37TMC2    C1  572   0.770   4.425  11.678  0.1293  0.0817 -0.5944
   37TMC2    C2  573   0.681   4.387  11.583 -0.2132 -0.5821 -0.6579
   37TMC2    C3  574   0.710   4.431  11.462  0.2183  0.9540  0.0124
   37TMC2    C4  575   0.871   4.516  11.661 -0.4594 -0.1543 -0.0655
   37TMC2    C5  576   0.891   4.564  11.539  0.0387 -1.0357 -0.7721
   37TMC2    C6  577   0.815   4.518  11.435  0.6159 -0.3204  0.1942
   37TMC2     C  578   0.747   4.353  11.802 -0.2987 -1.2412  0.1458
   37TMC2     O  579   0.674   4.257  11.795  0.4315  0.2512 -0.0091
   37TMC2     H  580   0.607   4.308  11.593 -2.6580  1.7930  0.0496
   37TMC2    H1  581   0.947   4.548  11.732  0.0992  0.4722 -0.9397
   37TMC2    H2  582   0.842   4.538  11.332 -0.0181 -1.2254 -0.1503
   37TMC2    C7  583   0.977   4.680  11.529  0.7421  0.1663 -0.1537
   37TMC2    C8  584   0.645   4.382  11.347  0.0540 -0.6411  0.4029
   37TMC2    O1  585   1.015   4.732  11.632 -0.2102  0.3729  0.4374
   37TMC2    O2  586   0.609   4.269  11.338  0.3077 -0.2001 -0.5122
   37TMC2    O5  587   0.580   4.479  11.283  0.7549 -0.6090  0.3566
   37TMC2    H5  588   0.623   4.567  11.292 -2.3128  0.9259  0.2106
   38MPD2     C  589   0.805   4.350  12.321 -0.2561  0.1144 -0.3196
   38MPD2    C1  590   0.876   4.448  12.260 -0.0291 -0.5139  0.1752
   38MPD2    C2  591   0.875   4.458  12.123  0.2897 -0.6230 -0.4228
   38MPD2    C3  592   0.804   4.379  12.039 -0.1701  0.7376 -0.1727
   38MPD2    C4  593   0.720   4.288  12.097  0.6183  0.2011  0.4067
   38MPD2    C5  594   0.726   4.273  12.237 -0.1074  0.1861 -0.0964
   38MPD2     H  595   0.943   4.529  12.077 -2.3609 -0.4734 -4.0749
   38MPD2    H1  596   0.647   4.236  12.037  0.8814  2.7000 -2.0597
   38MPD2    H2  597   0.804   4.328  12.427  0.2716  0.0386 -0.3282
   38MPD2    H3  598   0.658   4.195  12.270  0.9124 -1.0766 -1.0010
   38MPD2     N  599   0.814   4.411  11.907  0.8308  0.4970  0.3850
   38MPD2    H5  600   0.869   4.490  11.875  2.9099 -0.7477  0.8641
   38MPD2    N1  601   0.957   4.541  12.322  0.2629 -0.0720  1.0290
   38MPD2    H7  602   0.993   4.620  12.269 -0.7354 -0.4518 -0.2030
   39TMC2    C1  603   4.088   1.796   1.329 -0.4987  0.2460 -0.1216
   39TMC2    C2  604   4.070   1.880   1.435  0.7140 -0.3048 -1.0526
   39TMC2    C3  605   4.174   1.965   1.466 -0.3718  0.1433 -0.1526
   39TMC2    C4  606   4.209   1.791   1.256 -0.3282 -0.1360  0.3157
   39TMC2    C5  607   4.308   1.875   1.294 -0.0488  0.9102 -0.1370
   39TMC2    C6  608   4.298   1.969   1.397  0.2326 -0.5961 -0.1686
   39TMC2     C  609   3.984   1.706   1.298  0.4539 -0.4686  0.2119
   39TMC2     O  610   3.872   1.734   1.341  0.2389 -0.0702  0.0064
   39TMC2     H  611   3.985   1.877   1.502  0.1087  0.4602 -1.7987
   39TMC2    H1  612   4.227   1.736   1.164  2.3608 -1.1626  1.4618
   39TMC2    H2  613   4.382   2.028   1.431 -1.4820  1.6739  0.1507
   39TMC2    C7  614   4.443   1.836   1.241 -0.4078 -0.1988  0.4906
   39TMC2    C8  615   4.160   2.074   1.569  0.1459 -0.2619  0.0929
   39TMC2    O1  616   4.462   1.722   1.207  0.5932 -0.6082 -0.1333
   39TMC2    O2  617   4.250   2.123   1.637  0.0485  0.1705  0.0072
   39TMC2    O5  618   4.027   2.105   1.581 -0.1626  0.0225  0.1358
   39TMC2    H5  619   3.973   2.065   1.510  1.1688 -0.2862 -0.7174
   40MPD2     C  620   3.998   1.390   1.120 -0.7658  0.2975  0.3955
   40MPD2    C1  621   3.934   1.499   1.176 -0.3291 -0.0213  0.5062
   40MPD2    C2  622   3.802   1.486   1.200 -0.6026  0.6032  0.6563
   40MPD2    C3  623   3.737   1.371   1.157  0.3903 -0.2969  0.1518
   40MPD2    C4  624   3.806   1.257   1.122 -1.0080 -0.0503 -0.2400
   40MPD2    C5  625   3.940   1.271   1.093  0.0424  0.4415 -0.2000
   40MPD2     H  626   3.745   1.569   1.240 -0.1919  2.4673 -2.6448
   40MPD2    H1  627   3.764   1.166   1.081 -0.2066  0.3538 -1.9514
   40MPD2    H2  628   4.106   1.398   1.117 -0.7427 -0.4384 -0.7132
   40MPD2    H3  629   3.991   1.194   1.036 -0.8265  2.1500 -3.2936
   40MPD2     N  630   3.599   1.364   1.144 -0.1166 -0.4178 -0.6200
   40MPD2    H5  631   3.564   1.286   1.091 -2.6671  0.3938 -0.1471
   40MPD2    N1  632   4.021   1.600   1.231  0.2017  0.4184 -0.4655
   40MPD2    H7  633   4.118   1.583   1.208 -0.0583 -2.7913  0.7970
   41TMC2    C1  634   3.314   4.656  13.291  0.4956 -0.0923  0.2842
   41TMC2    C2  635   3.184   4.667  13.237 -0.2233 -0.3803  0.5064
   41TMC2    C3  636   3.171   4.665  13.100  0.4571  0.6313  0.0362
   41TMC2    C4  637   3.425   4.652  13.212 -0.3695  0.2609  0.7015
   41TMC2    C5  638   3.404   4.664  13.074 -0.1725  0.3074 -0.5646
   41TMC2    C6  639   3.275   4.662  13.013  0.3999  0.2145  0.0920
   41TMC2     C  640   3.339   4.628  13.431 -0.9404  0.9176  0.4959
   41TMC2     O  641   3.442   4.574  13.462 -0.1167  0.3671  0.0769
   41TMC2     H  642   3.101   4.660  13.307 -0.6108 -0.5594  0.0355
   41TMC2    H1  643   3.523   4.633  13.255  0.1257  1.7612  0.2246
   41TMC2    H2  644   3.259   4.678  12.907  3.2524 -0.2040 -0.4104
   41TMC2    C7  645   3.518   4.660  12.978 -0.0573  0.3607 -0.1382
   41TMC2    C8  646   3.068   0.022  13.049  0.3324 -0.0294 -0.6554
   41TMC2    O1  647   3.509   4.608  12.867  0.4626 -0.4084 -0.2416
   41TMC2    O2  648   3.095   0.127  12.993 -0.2700  0.7675  0.5910
   41TMC2    O5  649   2.962   4.721  13.116 -0.0854 -0.7242  0.3154
   41TMC2    H5  650   2.971   4.629  13.147  1.0362 -1.6677 -2.8425
   42MPD2     C  651   3.312   4.591  13.727  0.3817  0.4322 -0.6983
   42MPD2    C1  652   3.233   4.674  13.648 -0.3008 -0.6483  0.4706
   42MPD2    C2  653   3.138   0.013  13.718  0.2735 -0.7410  0.1577
   42MPD2    C3  654   3.131   0.015  13.857  0.0016  0.4015 -0.2365
   42MPD2    C4  655   3.213   4.666  13.925 -0.7543  0.1974 -0.0272
   42MPD2    C5  656   3.295   4.581  13.861 -0.1212 -0.2298 -0.4782
   42MPD2     H  657   3.070   0.077  13.664 -0.7799 -1.5000  0.6081
   42MPD2    H1  658   3.214   4.680  14.032  1.3100 -0.7385  0.0655
   42MPD2    H2  659   3.398   4.537  13.687  2.0939  2.3465  0.3674
   42MPD2    H3  660   3.348   4.509  13.923  2.5858  0.6069 -1.8471
   42MPD2     N  661   3.033   0.092  13.922 -0.4509  0.0359  0.2415
   42MPD2    H5  662   3.024   0.092  14.024  1.0265 -2.0966  0.3726
   42MPD2    N1  663   3.244   4.688  13.512 -0.2800 -0.0506 -0.1430
   42MPD2    H7  664   3.169   0.000  13.463 -1.4636 -1.7343  0.0338
   43TMC2    C1  665   4.536   3.629   0.259 -0.3460 -0.7285 -0.2878
   43TMC2    C2  666   4.443   3.707   0.202  0.3434 -0.4902  0.0187
   43TMC2    C3  667   4.407   3.821   0.265 -0.8550  0.2735  0.4389
   43TMC2    C4  668   4.595   3.666   0.379 -0.6527 -0.3712  0.4191
   43TMC2    C5  669   4.556   3.783   0.431  1.0787  0.6438  0.2183
   43TMC2    C6  670   4.466   3.868   0.375 -0.3993 -0.1648  0.0683
   43TMC2     C  671   4.543   3.489   0.222 -0.3600 -1.0435 -0.2653
   43TMC2     O  672   4.634   3.425   0.266 -0.9434 -0.7875 -0.2421
   43TMC2     H  673   4.382   3.672   0.119  3.2308  1.6019 -2.9586
   43TMC2    H1  674   4.656   3.594   0.433 -1.0584 -0.1058  1.2222
   43TMC2    H2  675   4.434   3.957   0.428  0.6946  1.3542 -1.8085
   43TMC2    C7  676   4.620   3.809   0.561  0.4603 -0.3154  0.2050
   43TMC2    C8  677   4.270   3.856   0.252 -0.2286 -0.0429 -0.3939
   43TMC2    O1  678   4.725   3.760   0.587 -0.1456  0.1366  0.3437
   43TMC2    O2  679   4.200   3.891   0.350 -0.7730 -0.0246  0.2758
   43TMC2    O5  680   4.229   3.858   0.127  0.5613 -0.2918  0.1296
   43TMC2    H5  681   4.297   3.847   0.058  0.2755  1.3333 -0.4272
   44MPD2     C  682   4.361   3.115  17.673  0.1665  0.5016 -0.6526
   44MPD2    C1  683   4.475   3.117   0.006 -0.6542  0.2662  0.4229
   44MPD2    C2  684   4.495   3.224   0.095  0.0038  0.2543  0.3817
   44MPD2    C3  685   4.404   3.326   0.098 -0.5787  0.2776 -0.5951
   44MPD2    C4  686   4.289   3.318   0.022 -0.1119  0.1931 -0.0976
   44MPD2    C5  687   4.264   3.210  17.679 -0.0555 -0.2715 -0.1286
   44MPD2     H  688   4.576   3.233   0.166 -0.4073  0.1712  0.8576
   44MPD2    H1  689   4.222   3.404   0.017 -0.3390  0.1686  2.4749
   44MPD2    H2  690   4.342   3.033  17.604 -0.5464 -0.1762  0.3463
   44MPD2    H3  691   4.180   3.214  17.610 -0.7612  1.4003  0.8412
   44MPD2     N  692   4.428   3.445   0.161  0.2863 -0.2830 -0.0691
   44MPD2    H5  693   4.349   3.509   0.159 -0.1434 -0.8342 -0.5745
   44MPD2    N1  694   4.572   3.014   0.004 -0.4599 -0.1648  0.0910
   44MPD2    H7  695   4.638   3.021   0.081 -0.5180  1.4966  0.0040
   45TMC2    C1  696   0.601   0.303   9.684 -0.7326 -0.0188  0.6403
   45TMC2    C2  697   0.697   0.209   9.674  0.3678 -0.1680 -0.5765
   45TMC2    C3  698   0.827   0.243   9.696 -0.2484  0.1794  0.7885
   45TMC2    C4  699   0.630   0.433   9.707 -0.0946 -0.3915  0.1844
   45TMC2    C5  700   0.761   0.468   9.717 -0.0456  0.4278 -0.4063
   45TMC2    C6  701   0.857   0.371   9.719  0.2233  0.6151  0.1837
   45TMC2     C  702   0.482   0.258   9.618 -0.6179 -0.4656 -1.1750
   45TMC2     O  703   0.491   0.148   9.560  0.6295  0.3822  0.1885
   45TMC2     H  704   0.673   0.104   9.665  1.0067 -0.2916 -0.7813
   45TMC2    H1  705   0.552   0.508   9.719 -0.6927 -1.1377  0.9242
   45TMC2    H2  706   0.961   0.394   9.737  0.0206  0.0990  2.0171
   45TMC2    C7  707   0.792   0.595   9.774 -0.1575 -0.2145 -0.2365
   45TMC2    C8  708   0.928   0.138   9.675 -0.2557 -0.3295 -0.4293
   45TMC2    O1  709   0.699   0.663   9.821 -0.4756 -0.2358 -0.4081
   45TMC2    O2  710   0.901   0.036   9.614 -0.2961 -0.0140  0.7742
   45TMC2    O5  711   1.030   0.150   9.764 -0.4240  0.0000  0.4205
   45TMC2    H5  712   1.038   0.232   9.816 -0.7048  2.3015 -3.2008
   46MPD2     C  713   0.209   0.178   9.574  0.0883  0.2549 -0.1192
   46MPD2    C1  714   0.241   0.311   9.589 -0.0436 -0.2952 -0.6741
   46MPD2    C2  715   0.148   0.408   9.567 -0.5361 -0.3042  0.0237
   46MPD2    C3  716   0.016   0.375   9.528 -0.3397  0.2353 -0.4095
   46MPD2    C4  717   4.721   0.239   9.508  0.1705  0.0516 -0.7121
   46MPD2    C5  718   0.079   0.146   9.527 -0.2566 -0.0439  0.1965
   46MPD2     H  719   0.181   0.511   9.576 -1.7238  0.0715 -0.0070
   46MPD2    H1  720   4.624   0.206   9.474 -0.7877  1.1561  0.9586
   46MPD2    H2  721   0.273   0.096   9.604  0.2660  0.2704 -0.4506
   46MPD2    H3  722   0.049   0.043   9.515  2.0963 -0.6392 -0.6022
   46MPD2     N  723   4.654   0.472   9.509 -0.7053 -0.0380 -0.3592
   46MPD2    H5  724   4.682   0.568   9.525 -1.2372  0.0324  0.1796
   46MPD2    N1  725   0.373   0.347   9.620 -0.2212  0.5854  0.2870
   46MPD2    H7  726   0.385   0.447   9.633  0.2312  0.6365 -0.5653
   47TMC2    C1  727   2.359   1.536   9.130  0.1862 -0.0391 -1.1910
   47TMC2    C2  728   2.362   1.420   9.061 -0.1824  0.1525  0.2670
   47TMC2    C3  729   2.246   1.367   9.017  0.7191  0.6712  0.2186
   47TMC2    C4  730   2.241   1.592   9.170 -0.6747 -0.2858 -0.1478
   47TMC2    C5  731   2.127   1.532   9.128 -0.2397 -0.1973  0.8457
   47TMC2    C6  732   2.130   1.427   9.039  0.2188 -0.4084 -0.7569
   47TMC2     C  733   2.478   1.591   9.191 -0.3196 -0.1862 -0.2440
   47TMC2     O  734   2.472   1.700   9.247  0.0496 -0.5000  0.0282
   47TMC2     H  735   2.456   1.380   9.024 -0.6513  2.6449 -3.6069
   47TMC2    H1  736   2.236   1.672   9.243  1.7471  0.4167 -0.7752
   47TMC2    H2  737   2.040   1.384   8.997 -0.3600 -1.6719  1.7790
   47TMC2    C7  738   2.000   1.539   9.201  0.0833 -0.0991 -0.4523
   47TMC2    C8  739   2.242   1.263   8.918 -0.1577 -0.2952 -0.0623
   47TMC2    O1  740   1.932   1.441   9.197 -0.2751  0.2497  0.1257
   47TMC2    O2  741   2.145   1.258   8.843  0.7578  0.5046 -0.3498
   47TMC2    O5  742   2.286   1.155   8.987  0.3415  0.0704 -0.1173
   47TMC2    H5  743   2.363   1.183   9.042  0.2231 -3.6650  1.9125
   48MPD2     C  744   2.753   1.605   9.302 -0.5340 -0.0227 -0.2985
   48MPD2    C1  745   2.689   1.489   9.270 -0.0040 -0.4173  0.4688
   48MPD2    C2  746   2.754   1.372   9.312 -0.3704 -0.2472 -0.0858
   48MPD2    C3  747   2.877   1.370   9.377 -0.3304  0.2493 -0.2215
   48MPD2    C4  748   2.936   1.493   9.417 -0.2623  0.3185  0.1098
   48MPD2    C5  749   2.871   1.608   9.376  0.3619 -0.5507 -0.5284
   48MPD2     H  750   2.718   1.273   9.286 -2.4942  1.0585 -2.1572
   48MPD2    H1  751   3.033   1.508   9.462 -1.0411  2.1766  1.1925
   48MPD2    H2  752   2.705   1.696   9.266  0.7880  0.2140 -1.4469
   48MPD2    H3  753   2.917   1.699   9.414  0.5038 -0.0056 -2.0165
   48MPD2     N  754   2.938   1.242   9.404  0.0271 -0.3562  0.8873
   48MPD2    H5  755   2.888   1.165   9.360  1.1689 -0.8059  0.3728
   48MPD2    N1  756   2.561   1.486   9.211  0.1128  0.0195 -0.4083
   48MPD2    H7  757   2.533   1.390   9.198 -0.9370  0.0368  1.7319
   49TMC2    C1  758   1.526   3.217   9.956  0.1733  0.2123  0.0044
   49TMC2    C2  759   1.589   3.337   9.987 -0.3942  0.1915  0.1878
   49TMC2    C3  760   1.700   3.380   9.915  0.5986  0.0682 -0.6828
   49TMC2    C4  761   1.592   3.139   9.861 -0.2084 -0.0734 -0.0678
   49TMC2    C5  762   1.700   3.182   9.796  0.3935 -0.0449  0.4365
   49TMC2    C6  763   1.760   3.302   9.824  0.7434  0.1333 -0.6209
   49TMC2     C  764   1.414   3.158  10.032 -0.0234  0.0882  0.3022
   49TMC2     O  765   1.396   3.037  10.014 -0.3607 -0.3070 -0.3134
   49TMC2     H  766   1.542   3.401  10.061  0.2677  1.0488 -0.1297
   49TMC2    H1  767   1.562   3.035   9.851  1.5334 -0.7566  1.9491
   49TMC2    H2  768   1.828   3.346   9.753  0.9203  1.6772  0.5012
   49TMC2    C7  769   1.764   3.092   9.700  0.1669 -0.0559  0.3017
   49TMC2    C8  770   1.721   3.523   9.903 -0.0838 -0.5997 -0.2569
   49TMC2    O1  771   1.692   3.008   9.651 -0.1912  0.2664 -0.1442
   49TMC2    O2  772   1.633   3.602   9.941  0.1815 -0.2948  0.5364
   49TMC2    O5  773   1.849   3.542   9.935 -0.6765  0.2759 -0.3793
   49TMC2    H5  774   1.900   3.458   9.944  0.6892  1.0635 -0.6847
   50MPD2     C  775   1.162   3.091  10.197 -0.1618 -0.1256 -0.0013
   50MPD2    C1  776   1.213   3.217  10.172 -0.4467  1.2813  0.4680
   50MPD2    C2  777   1.144   3.327  10.207  0.6044  0.4240  0.0429
   50MPD2    C3  778   1.029   3.314  10.283  0.3912 -0.1000  0.5082
   50MPD2    C4  779   0.973   3.193  10.300  0.4551  0.0351 -0.2605
   50MPD2    C5  780   1.039   3.087  10.249  0.5080  0.6315  0.2822
   50MPD2     H  781   1.183   3.426  10.188 -1.3369  1.0147 -0.9760
   50MPD2    H1  782   0.882   3.171  10.355 -0.5829  3.5264 -0.5447
   50MPD2    H2  783   1.211   3.001  10.161  1.7644  0.8451  0.1985
   50MPD2    H3  784   0.995   2.989  10.268  0.4809  0.2516 -1.7982
   50MPD2     N  785   0.948   3.420  10.326 -0.4447 -0.0453 -0.2623
   50MPD2    H5  786   0.863   3.401  10.377  0.0307  1.3224  1.0155
   50MPD2    N1  787   1.336   3.246  10.105  0.2050 -0.6895 -0.1871
   50MPD2    H7  788   1.361   3.344  10.092  0.7548 -0.9842 -1.4149
   51TMC2    C1  789   0.550   1.709   1.549 -0.4411 -0.2869  0.2052
   51TMC2    C2  790   0.439   1.729   1.620  0.7303  0.1022  0.2907
   51TMC2    C3  791   0.442   1.827   1.716  0.0887  0.5189 -0.3868
   51TMC2    C4  792   0.669   1.764   1.574  0.8886 -0.6153 -0.4822
   51TMC2    C5  793   0.672   1.851   1.680 -0.6443 -0.0087  0.0993
   51TMC2    C6  794   0.563   1.883   1.754 -0.1091 -0.0860  0.2016
   51TMC2     C  795   0.533   1.641   1.426  0.6946 -0.7195 -0.1147
   51TMC2     O  796   0.633   1.606   1.368 -0.1786  0.5157  0.2268
   51TMC2     H  797   0.347   1.674   1.604  1.6800 -1.3492 -0.2168
   51TMC2    H1  798   0.752   1.761   1.504  0.5307  2.3080 -1.0162
   51TMC2    H2  799   0.575   1.948   1.840 -1.3438  0.8489 -0.3326
   51TMC2    C7  800   0.798   1.926   1.701 -0.8560 -0.4543  0.4988
   51TMC2    C8  801   0.323   1.876   1.781  0.5056  0.1351  0.4251
   51TMC2    O1  802   0.894   1.882   1.641  0.1980  0.4412 -0.6651
   51TMC2    O2  803   0.225   1.815   1.804  0.5621 -0.5447  0.1258
   51TMC2    O5  804   0.344   2.011   1.806 -0.4242  0.4216  0.0382
   51TMC2    H5  805   0.432   2.049   1.789  0.5010 -0.1799  3.5043
   52MPD2     C  806   0.277   1.364   1.088  0.4941  0.9913 -0.0423
   52MPD2    C1  807   0.408   1.351   1.128  0.4936 -0.0418  0.1558
   52MPD2    C2  808   0.463   1.439   1.224  0.2983  0.3933  0.4267
   52MPD2    C3  809   0.378   1.543   1.267 -0.3099  0.4424 -0.6784
   52MPD2    C4  810   0.249   1.557   1.218  0.1601 -0.1466  0.3260
   52MPD2    C5  811   0.202   1.471   1.129  0.3112  0.2337  0.2370
   52MPD2     H  812   0.557   1.421   1.276  0.1832  1.7188  1.0835
   52MPD2    H1  813   0.197   1.651   1.235 -1.1347 -0.5910 -1.2091
   52MPD2    H2  814   0.243   1.305   1.004 -1.0973 -1.4185  2.2930
   52MPD2    H3  815   0.110   1.490   1.075  1.2848  0.0589 -1.4868
   52MPD2     N  816   0.406   1.633   1.375  0.1632 -0.4743  0.4442
   52MPD2    H5  817   0.331   1.692   1.411  1.7476  1.5425  0.4314
   52MPD2    N1  818   0.491   1.248   1.077 -0.1360  0.5779 -0.0602
   52MPD2    H7  819   0.578   1.238   1.128 -0.4655 -1.4299  0.1047
   53TMC2    C1  820   1.526   0.409  11.648 -0.0067  0.3599  0.2727
   53TMC2    C2  821   1.658   0.400  11.640 -0.2025 -0.1427 -0.3323
   53TMC2    C3  822   1.725   0.360  11.748  0.2754  0.0593  0.2360
   53TMC2    C4  823   1.469   0.385  11.765 -0.4090 -0.3398 -0.1140
   53TMC2    C5  824   1.544   0.344  11.872 -0.5069 -0.8493  0.5362
   53TMC2    C6  825   1.677   0.330  11.867 -0.0466  0.3484  0.5894
   53TMC2     C  826   1.456   0.374  11.523 -0.0717  0.8589  0.1140
   53TMC2     O  827   1.495   0.420  11.417  0.3822 -0.0646 -0.7293
   53TMC2     H  828   1.701   0.417  11.542  1.1235  0.5563  0.3722
   53TMC2    H1  829   1.365   0.416  11.769 -1.3134 -3.0480 -2.5525
   53TMC2    H2  830   1.733   0.271  11.938  0.1938  1.9753  1.7698
   53TMC2    C7  831   1.469   0.329  11.997  0.1912  0.0760  0.0757
   53TMC2    C8  832   1.871   0.348  11.741 -0.3641  0.0316 -0.2278
   53TMC2    O1  833   1.344   0.329  11.992 -0.0319  0.2172  0.1705
   53TMC2    O2  834   1.925   0.353  11.630  0.5014 -0.4151  0.1442
   53TMC2    O5  835   1.919   0.407  11.861  0.4710 -0.0378 -0.6591
   53TMC2    H5  836   1.853   0.421  11.932  1.3615  3.4084 -0.5150
   54MPD2     C  837   1.276   0.284  11.299 -0.4485 -0.2043  0.4053
   54MPD2    C1  838   1.277   0.239  11.429  0.2760 -0.2503  0.2989
   54MPD2    C2  839   1.189   0.141  11.458 -0.7226  0.2609 -0.4472
   54MPD2    C3  840   1.100   0.095  11.367 -0.5887 -0.1507 -0.4412
   54MPD2    C4  841   1.083   0.158  11.244  0.1399 -0.8790  0.2080
   54MPD2    C5  842   1.177   0.251  11.207  0.9519  0.4504 -0.0022
   54MPD2     H  843   1.198   0.084  11.549  1.2777  0.9479 -0.2163
   54MPD2    H1  844   0.998   0.139  11.179 -1.6515  1.5891  1.8490
   54MPD2    H2  845   1.347   0.361  11.269  0.2359 -0.4706  1.3644
   54MPD2    H3  846   1.170   0.312  11.117  2.2090 -0.6769 -0.8486
   54MPD2     N  847   1.008   4.725  11.400 -0.4037 -0.5292  0.2842
   54MPD2    H5  848   0.952   4.687  11.324  0.5982  0.7580 -1.0900
   54MPD2    N1  849   1.367   0.271  11.532 -0.2114 -0.3989 -0.0351
   54MPD2    H7  850   1.356   0.231  11.625  0.0854  0.2391  0.2800
   55TMC2    C1  851   2.859   3.292   0.326 -0.0878  0.0059  0.0616
   55TMC2    C2  852   2.981   3.343   0.290 -0.3772  0.4582  0.6383
   55TMC2    C3  853   3.088   3.262   0.333  0.6585  0.1282 -0.0004
   55TMC2    C4  854   2.843   3.183   0.398 -0.8192  0.4124 -0.2102
   55TMC2    C5  855   2.951   3.099   0.419  0.5417  0.1232  0.2603
   55TMC2    C6  856   3.076   3.130   0.383  0.2925  0.6827  0.1377
   55TMC2     C  857   2.734   3.370   0.294  0.9720  0.6719  0.1432
   55TMC2     O  858   2.629   3.342   0.347 -0.0914 -0.7738  0.4636
   55TMC2     H  859   3.000   3.441   0.247  1.1810 -0.1212 -0.0029
   55TMC2    H1  860   2.739   3.153   0.409 -0.3050 -1.3033 -0.1535
   55TMC2    H2  861   3.161   3.065   0.404 -1.3796 -1.8114 -0.8933
   55TMC2    C7  862   2.925   2.975   0.495  0.7904 -0.0796  0.3151
   55TMC2    C8  863   3.215   3.317   0.321  0.3162 -0.0372 -0.7312
   55TMC2    O1  864   3.027   2.911   0.523 -0.2103 -0.2292  0.0107
   55TMC2    O2  865   3.246   3.437   0.338  0.0019 -0.6481  0.2936
   55TMC2    O5  866   3.277   3.226   0.238  0.3499 -0.3641 -0.9314
   55TMC2    H5  867   3.230   3.141   0.220 -1.8377  0.8308 -0.8509
   56MPD2     C  868   2.720   3.638   0.038  0.5809  0.5468  0.0197
   56MPD2    C1  869   2.672   3.556   0.135 -0.6699  0.1499  0.3235
   56MPD2    C2  870   2.547   3.586   0.197 -0.0581  0.4133 -0.0024
   56MPD2    C3  871   2.466   3.684   0.154 -0.6078 -0.7535  0.2819
   56MPD2    C4  872   2.522   3.768   0.053 -0.5834  0.6500  0.4070
   56MPD2    C5  873   2.646   3.746   0.002 -0.5946  0.6365  0.0612
   56MPD2     H  874   2.513   3.523   0.278  1.2397  0.4308  0.5626
   56MPD2    H1  875   2.451   3.840   0.015  0.3078  3.1938  3.5251
   56MPD2    H2  876   2.812   3.614  17.729 -1.0474 -1.6914 -1.8770
   56MPD2    H3  877   2.680   3.819  17.671  1.2470 -2.2389 -1.9790
   56MPD2     N  878   2.340   3.706   0.214 -0.3249 -1.1269 -0.5820
   56MPD2    H5  879   2.330   3.640   0.290 -1.4777 -0.4074 -0.1113
   56MPD2    N1  880   2.763   3.454   0.189  0.0711 -0.2348  0.6833
   56MPD2    H7  881   2.853   3.448   0.143 -0.0623 -2.0686  0.6753
   57TMC2    C1  882   1.884   3.583  12.792 -0.6310 -0.0927  0.0085
   57TMC2    C2  883   1.861   3.700  12.725 -0.7062 -0.1361 -0.3074
   57TMC2    C3  884   1.968   3.782  12.694 -0.0868  0.3790  0.3792
   57TMC2    C4  885   2.014   3.549  12.823 -0.4132  0.0205  0.0481
   57TMC2    C5  886   2.110   3.641  12.794 -0.0699  0.2684  0.0304
   57TMC2    C6  887   2.094   3.756  12.725 -0.4399  0.1186  0.4191
   57TMC2     C  888   1.778   3.545  12.884  0.6742  0.1727  0.0167
   57TMC2     O  889   1.692   3.633  12.894  0.1324  0.5993  0.5611
   57TMC2     H  890   1.757   3.725  12.706 -1.1484 -0.7409  1.3795
   57TMC2    H1  891   2.030   3.461  12.884  0.7050 -1.6129 -2.5816
   57TMC2    H2  892   2.175   3.826  12.708  0.9696 -0.8991  2.8949
   57TMC2    C7  893   2.255   3.597  12.788  1.0991  0.1426 -0.0565
   57TMC2    C8  894   1.933   3.920  12.666 -0.0676 -0.2199  0.5412
   57TMC2    O1  895   2.318   3.631  12.689 -0.2510 -0.0338 -0.5426
   57TMC2    O2  896   1.885   3.951  12.558  0.0419 -0.1799  0.3725
   57TMC2    O5  897   1.909   3.964  12.792  0.2852  0.8949 -0.1821
   57TMC2    H5  898   1.927   3.898  12.862  1.0760 -1.2205 -2.3620
   58MPD2     C  899   1.549   3.306  13.273  0.0206  0.8745  0.2007
   58MPD2    C1  900   1.564   3.442  13.251  0.2315  0.7666 -0.2273
   58MPD2    C2  901   1.645   3.480  13.140  0.6689  0.3235 -0.2685
   58MPD2    C3  902   1.715   3.386  13.061  0.1864 -0.1286  0.1282
   58MPD2    C4  903   1.696   3.254  13.082  0.2311 -0.6513  0.3439
   58MPD2    C5  904   1.614   3.213  13.187 -0.6626  0.2946  0.0713
   58MPD2     H  905   1.645   3.586  13.115 -0.6607  0.1468 -1.0259
   58MPD2    H1  906   1.743   3.185  13.014  0.0633  0.6632 -1.1211
   58MPD2    H2  907   1.494   3.262  13.355  1.5907 -0.5725  0.4975
   58MPD2    H3  908   1.608   3.106  13.200 -1.8987  0.3261 -0.1959
   58MPD2     N  909   1.794   3.424  12.953  0.6241  0.1513 -0.2404
   58MPD2    H5  910   1.865   3.356  12.926  4.3337  3.2081  1.7795
   58MPD2    N1  911   1.489   3.543  13.321 -0.1994  0.8110  0.1563
   58MPD2    H7  912   1.507   3.634  13.280 -1.3545  0.6249 -0.7602
   59TMC2    C1  913   4.076   3.867  12.448 -0.2219 -0.3299 -0.0203
   59TMC2    C2  914   4.033   3.781  12.544 -0.3180  0.1301 -0.6403
   59TMC2    C3  915   3.908   3.718  12.521  0.4437 -0.2826 -0.1048
   59TMC2    C4  916   4.007   3.887  12.331  0.0903 -0.5090 -0.2401
   59TMC2    C5  917   3.890   3.828  12.317  0.0660  0.8155 -0.2761
   59TMC2    C6  918   3.836   3.750  12.413 -0.5708 -0.2318 -0.2833
   59TMC2     C  919   4.214   3.921  12.455  0.6599 -0.3827 -0.0586
   59TMC2     O  920   4.243   4.001  12.365  0.5660 -0.3502  0.3088
   59TMC2     H  921   4.080   3.751  12.637 -0.0904 -0.0881 -0.8243
   59TMC2    H1  922   4.047   3.960  12.261  1.9395 -1.2950  0.0201
   59TMC2    H2  923   3.741   3.703  12.391 -0.3949 -0.4970 -0.4671
   59TMC2    C7  924   3.830   3.810  12.183  0.4987  0.3501 -0.4791
   59TMC2    C8  925   3.879   3.616  12.624 -0.1071  0.1004  0.4567
   59TMC2    O1  926   3.755   3.711  12.172  0.5437 -0.0135 -0.2768
   59TMC2    O2  927   3.971   3.566  12.687 -0.2802  0.7040  0.0758
   59TMC2    O5  928   3.771   3.552  12.584  0.0245  0.4715  0.4794
   59TMC2    H5  929   3.706   3.611  12.541 -1.3777 -1.0284  0.5141
   60MPD2     C  930   4.500   3.968  12.455 -0.1967  0.6372 -0.3116
   60MPD2    C1  931   4.435   3.897  12.557  0.3410 -0.0198 -0.7135
   60MPD2    C2  932   4.511   3.840  12.650 -0.0184 -0.2623  1.1134
   60MPD2    C3  933   4.646   3.854  12.648  0.3583 -0.4542 -0.2318
   60MPD2    C4  934   4.707   3.915  12.544 -0.2075 -0.2290  0.5376
   60MPD2    C5  935   4.636   3.971  12.450 -0.3871  0.3215  0.3196
   60MPD2     H  936   4.455   3.801  12.735 -0.3248  0.6494  1.3320
   60MPD2    H1  937   0.079   3.919  12.533 -0.2684  1.8423  0.7263
   60MPD2    H2  938   4.460   4.027  12.374 -0.1958  0.7493 -0.2296
   60MPD2    H3  939   4.680   4.031  12.371  0.2382 -0.4573  0.0714
   60MPD2     N  940   0.004   3.805  12.748  0.4267 -0.3133  0.3264
   60MPD2    H5  941   0.103   3.823  12.735  0.5161 -0.0624  1.3489
   60MPD2    N1  942   4.298   3.867  12.549  0.2176 -0.0276 -0.2737
   60MPD2    H7  943   4.261   3.803  12.619  1.4903  1.7619  2.0429
   61TMC2    C1  944   3.430   4.477  15.297  0.1952  0.1668 -0.2326
   61TMC2    C2  945   3.466   4.410  15.406 -0.4518 -0.5564 -0.0647
   61TMC2    C3  946   3.519   4.479  15.515  0.3426 -1.3800  0.3087
   61TMC2    C4  947   3.446   4.619  15.292  0.5587  0.5072  0.5577
   61TMC2    C5  948   3.490   4.680  15.403 -0.4831 -0.0143  0.4524
   61TMC2    C6  949   3.537   4.614  15.514 -0.8461  0.5113  0.0097
   61TMC2     C  950   3.416   4.405  15.173  0.0922  0.1019  0.3479
   61TMC2     O  951   3.384   4.290  15.178  0.9933 -0.7197  0.0313
   61TMC2     H  952   3.436   4.306  15.415 -0.9708 -0.4120 -0.0970
   61TMC2    H1  953   3.420   4.676  15.203  0.9904 -2.0075 -1.1950
   61TMC2    H2  954   3.576   4.663  15.602 -1.5720  1.1565 -0.0270
   61TMC2    C7  955   3.494   0.088  15.403  0.6421  0.8561 -1.0681
   61TMC2    C8  956   3.539   4.412  15.639  0.2647 -0.4479  1.0915
   61TMC2    O1  957   3.476   0.134  15.291  0.0647  0.0399 -0.0220
   61TMC2    O2  958   3.529   4.294  15.632 -0.0103 -0.4745  0.0538
   61TMC2    O5  959   3.470   4.488  15.726 -0.0622  0.5555 -0.0938
   61TMC2    H5  960   3.438   4.578  15.703 -2.6044 -0.6885 -1.5258
   62MPD2     C  961   3.353   4.357  14.880 -0.7211  0.0511  0.1925
   62MPD2    C1  962   3.444   4.451  14.934  0.2256 -0.2045 -0.6388
   62MPD2    C2  963   3.510   4.539  14.847  0.0749 -0.3639  0.5284
   62MPD2    C3  964   3.488   4.527  14.711  0.2881 -0.4101  0.0452
   62MPD2    C4  965   3.406   4.431  14.661  0.0758  0.0942  0.0611
   62MPD2    C5  966   3.334   4.355  14.744  1.2283 -0.6383  0.4817
   62MPD2     H  967   3.573   4.617  14.889 -0.8997  0.5383  0.2985
   62MPD2    H1  968   3.397   4.419  14.554 -0.2105 -3.0398  0.4527
   62MPD2    H2  969   3.294   4.288  14.938  0.7835 -2.1674 -0.9126
   62MPD2    H3  970   3.265   4.278  14.709 -1.6097  1.6434  1.0441
   62MPD2     N  971   3.552   4.618  14.621 -0.4365 -0.0939 -0.0934
   62MPD2    H5  972   3.513   4.630  14.529 -1.2921  0.4201  0.3400
   62MPD2    N1  973   3.459   4.484  15.066 -0.1333 -0.2585  0.4414
   62MPD2    H7  974   3.515   4.569  15.074 -1.6100  0.7138  0.4181
   63TMC2    C1  975   2.751   1.228  10.285 -0.0813  0.3710 -0.0885
   63TMC2    C2  976   2.886   1.258  10.316 -0.1437  0.3887  0.4513
   63TMC2    C3  977   2.957   1.346  10.239 -0.1362 -0.0997 -0.2862
   63TMC2    C4  978   2.692   1.297  10.182  0.1371 -0.6572  0.2980
   63TMC2    C5  979   2.766   1.387  10.104 -0.3552  0.1158  0.1892
   63TMC2    C6  980   2.898   1.410  10.133  0.0363 -0.0828 -0.3459
   63TMC2     C  981   2.711   1.090  10.310 -0.1318  0.3168  0.1901
   63TMC2     O  982   2.803   1.010  10.330 -0.2744  0.5521 -1.0181
   63TMC2     H  983   2.933   1.199  10.394 -1.8106  1.2185  2.0900
   63TMC2    H1  984   2.591   1.278  10.146  1.0967 -1.3827 -2.0467
   63TMC2    H2  985   2.967   1.471  10.075 -2.6306  1.1109 -2.2595
   63TMC2    C7  986   2.707   1.448   9.983  0.7420  0.3497  1.0455
   63TMC2    C8  987   3.101   1.327  10.232 -0.5852 -0.6865  0.2123
   63TMC2    O1  988   2.610   1.389   9.934 -0.1538 -0.5703 -0.7276
   63TMC2    O2  989   3.166   1.312  10.128 -0.3797  0.0226 -0.0714
   63TMC2    O5  990   3.141   1.272  10.347 -0.1227 -0.0048 -0.0862
   63TMC2    H5  991   3.101   1.310  10.428  0.2496  0.6302 -0.2014
   64MPD2     C  992   2.324   0.743  10.359 -0.4692  0.2089 -0.1548
   64MPD2    C1  993   2.459   0.719  10.346 -0.3488  0.6691  0.1672
   64MPD2    C2  994   2.541   0.835  10.333  0.0044 -0.2940  0.1527
   64MPD2    C3  995   2.491   0.962  10.337  0.0010 -0.2149  0.5038
   64MPD2    C4  996   2.353   0.984  10.356  0.7782 -0.2010 -0.2609
   64MPD2    C5  997   2.280   0.872  10.371 -0.8112  1.0876  0.4502
   64MPD2     H  998   2.648   0.817  10.338  0.3295  0.6840 -3.4241
   64MPD2    H1  999   2.312   1.084  10.350 -1.5583 -1.1329  0.5273
   64MPD2    H2 1000   2.250   0.666  10.376 -3.7436  3.8031  1.9163
   64MPD2    H3 1001   2.172   0.878  10.374 -0.9153 -0.3995 -0.4446
   64MPD2     N 1002   2.572   1.078  10.312  0.5204  0.0061 -0.1221
   64MPD2    H5 1003   2.524   1.167  10.313 -0.0824 -0.3100 -0.6065
   64MPD2    N1 1004   2.521   0.591  10.353 -0.3615  0.3192 -0.0119
   64MPD2    H7 1005   2.611   0.587  10.307 -0.1961  1.1552  0.2343
   65TMC2    C1 1006   3.862   0.295  15.432 -0.6159 -0.4181 -0.2623
   65TMC2    C2 1007   3.833   0.241  15.309 -0.1945  0.2071 -0.2637
   65TMC2    C3 1008   3.808   0.332  15.213 -0.3420 -0.3960 -0.0548
   65TMC2    C4 1009   3.880   0.428  15.453  0.0287 -0.9187  0.0014
   65TMC2    C5 1010   3.876   0.514  15.347  0.0160  0.7134  0.3727
   65TMC2    C6 1011   3.837   0.462  15.225 -0.0614  0.0737  0.6738
   65TMC2     C 1012   3.885   0.211  15.550  0.6706  0.1827  0.2943
   65TMC2     O 1013   3.891   0.262  15.658  0.2608  0.2787  0.5482
   65TMC2     H 1014   3.822   0.136  15.287 -0.9683 -0.1773  1.9987
   65TMC2    H1 1015   3.916   0.458  15.551 -2.0863  1.6976  0.0101
   65TMC2    H2 1016   3.834   0.523  15.136 -0.1922  0.3184  0.8478
   65TMC2    C7 1017   3.878   0.658  15.353  0.5420  0.1466 -0.3193
   65TMC2    C8 1018   3.787   0.287  15.080 -0.8237 -0.2606 -0.1026
   65TMC2    O1 1019   3.858   0.715  15.247  0.1712 -0.0279 -0.2712
   65TMC2    O2 1020   3.826   0.176  15.046  0.3811 -0.3546 -0.3502
   65TMC2    O5 1021   3.670   0.341  15.030  0.0233  0.4538  0.3034
   65TMC2    H5 1022   3.631   0.415  15.082  2.5977  2.1136 -0.1249
   66MPD2     C 1023   3.928   4.727  15.750  0.2263 -0.2757 -0.3619
   66MPD2    C1 1024   3.904   4.708  15.614  0.0195 -0.7270  0.0689
   66MPD2    C2 1025   3.884   4.579  15.562 -0.2756  0.2160  0.3892
   66MPD2    C3 1026   3.896   4.466  15.638 -0.0780  1.0012 -0.0240
   66MPD2    C4 1027   3.910   4.486  15.774  0.3715  0.1375  0.2622
   66MPD2    C5 1028   3.927   4.613  15.826  0.2506  0.4560 -0.4855
   66MPD2     H 1029   3.864   4.564  15.456  1.5526  1.1966 -0.0957
   66MPD2    H1 1030   3.911   4.402  15.844  5.0495  0.9624  1.2339
   66MPD2    H2 1031   3.941   0.089  15.794 -1.5547  0.2658 -1.0630
   66MPD2    H3 1032   3.937   4.634  15.932 -1.2497  1.0128 -0.4555
   66MPD2     N 1033   3.877   4.332  15.587  0.1620  0.4165  0.1206
   66MPD2    H5 1034   3.896   4.256  15.652 -0.9453 -1.1239 -1.3487
   66MPD2    N1 1035   3.892   0.080  15.518 -0.2826 -0.4885  0.3679
   66MPD2    H7 1036   3.884   0.057  15.419 -0.5414 -0.9233  0.4915
   67TMC2    C1 1037   4.194   3.389  14.309  0.3426  0.3035 -0.0688
   67TMC2    C2 1038   4.245   3.300  14.220 -0.0701  0.0067  0.6368
   67TMC2    C3 1039   4.382   3.296  14.199 -0.3562 -0.3143  0.0246
   67TMC2    C4 1040   4.268   3.464  14.392  0.2550 -0.3223  0.8336
   67TMC2    C5 1041   4.405   3.471  14.364 -0.5070  0.2728  0.7434
   67TMC2    C6 1042   4.463   3.378  14.273  0.0063 -0.7140  1.0838
   67TMC2     C 1043   4.058   3.438  14.281  0.3435 -0.5314 -0.0767
   67TMC2     O 1044   4.011   3.505  14.369  0.1291 -0.3460  0.3111
   67TMC2     H 1045   4.185   3.221  14.177  0.8935  0.7671 -2.0879
   67TMC2    H1 1046   4.215   3.536  14.454 -2.0924  2.5916 -4.6077
   67TMC2    H2 1047   4.570   3.369  14.259  0.3378  3.7011  0.6723
   67TMC2    C7 1048   4.495   3.571  14.417  0.1610 -0.1513 -0.1169
   67TMC2    C8 1049   4.449   3.187  14.141  0.7460 -0.6889 -0.2263
   67TMC2    O1 1050   4.601   3.586  14.367  0.6707 -0.0480 -0.2270
   67TMC2    O2 1051   4.556   3.137  14.165 -0.2709  0.0956 -0.6482
   67TMC2    O5 1052   4.365   3.126  14.055 -0.1420  0.1935 -0.0948
   67TMC2    H5 1053   4.292   3.187  14.031  0.7803  0.3460 -2.5522
   68MPD2     C 1054   3.822   3.552  14.137 -0.3836  0.2737 -0.1982
   68MPD2    C1 1055   3.933   3.507  14.072 -0.6578  0.1574 -0.3683
   68MPD2    C2 1056   3.946   3.535  13.938 -0.2277 -0.2710 -0.1726
   68MPD2    C3 1057   3.846   3.610  13.873  0.6504 -0.0609  0.2100
   68MPD2    C4 1058   3.735   3.649  13.938 -0.3370  0.1011 -0.0843
   68MPD2    C5 1059   3.723   3.621  14.068 -0.7914 -0.4928 -0.1749
   68MPD2     H 1060   4.032   3.490  13.890  1.1493  0.3215  1.7327
   68MPD2    H1 1061   3.652   3.694  13.884  0.6801 -1.2924 -2.7951
   68MPD2    H2 1062   3.804   3.558  14.244  3.9500 -2.4881  0.6639
   68MPD2    H3 1063   3.634   3.652  14.120 -2.2084 -0.8305 -2.3816
   68MPD2     N 1064   3.859   3.635  13.729  0.0514 -0.2002  0.2285
   68MPD2    H5 1065   3.781   3.680  13.682  1.2741 -2.0722 -3.5195
   68MPD2    N1 1066   4.039   3.445  14.144 -0.0306  0.0731  0.1312
   68MPD2    H7 1067   4.109   3.400  14.087 -1.7146 -1.1580 -0.9711
   69TMC2    C1 1068   1.538   0.632  12.453 -0.5386  0.4526  0.1922
   69TMC2    C2 1069   1.405   0.655  12.458 -0.0637  0.1363  1.0075
   69TMC2    C3 1070   1.355   0.716  12.341  0.2122 -0.2477 -0.2626
   69TMC2    C4 1071   1.621   0.634  12.340  0.1790 -0.1027  0.8275
   69TMC2    C5 1072   1.569   0.692  12.239 -0.3059 -0.1692  0.1327
   69TMC2    C6 1073   1.436   0.735  12.233 -0.0946 -0.0826 -0.0806
   69TMC2     C 1074   1.598   0.589  12.578  0.1750 -0.3737  0.1585
   69TMC2     O 1075   1.513   0.554  12.660  0.4322 -0.2483 -0.3921
   69TMC2     H 1076   1.345   0.626  12.543 -3.6469 -0.2212 -1.6696
   69TMC2    H1 1077   1.715   0.581  12.332 -0.6552 -1.6053  0.7367
   69TMC2    H2 1078   1.406   0.806  12.157  1.5743  0.1631 -0.5077
   69TMC2    C7 1079   1.643   0.687  12.113  0.1501 -0.2969  0.2071
   69TMC2    C8 1080   1.222   0.667  12.308  0.4180  0.1437  0.6073
   69TMC2    O1 1081   1.762   0.672  12.110 -0.7222 -0.3101  0.0124
   69TMC2    O2 1082   1.186   0.638  12.197 -0.4632  0.0780 -0.1213
   69TMC2    O5 1083   1.134   0.719  12.397 -0.2854 -0.6413 -0.6130
   69TMC2    H5 1084   1.174   0.766  12.474  2.5939 -1.2318 -1.7599
   70MPD2     C 1085   1.945   0.612  12.728  0.7940 -0.5929  0.2479
   70MPD2    C1 1086   1.813   0.564  12.707 -0.2990 -0.1957  0.3536
   70MPD2    C2 1087   1.775   0.452  12.784  0.5715  0.1310  0.1293
   70MPD2    C3 1088   1.853   0.398  12.891  0.2371 -0.2963  0.0818
   70MPD2    C4 1089   1.976   0.460  12.917 -0.8457  0.3467  0.5433
   70MPD2    C5 1090   2.020   0.557  12.828 -0.2044  0.8576  0.3336
   70MPD2     H 1091   1.676   0.417  12.756  0.3669 -0.6419  1.8085
   70MPD2    H1 1092   2.036   0.425  13.000  0.7212  1.0492 -0.2883
   70MPD2    H2 1093   1.986   0.696  12.673 -0.4736 -0.9513 -1.2541
   70MPD2    H3 1094   2.117   0.601  12.851  1.1239 -0.7712 -2.2264
   70MPD2     N 1095   1.813   0.293  12.980 -0.4420 -0.4122 -0.4701
   70MPD2    H5 1096   1.877   0.260  13.051 -2.1905 -1.5315  0.5909
   70MPD2    N1 1097   1.733   0.610  12.595 -0.3766 -0.2521 -0.0737
   70MPD2    H7 1098   1.787   0.657  12.524  1.9399  0.0965  1.9289
   71TMC2    C1 1099   2.793   1.298   1.330 -0.3345 -0.5497 -0.1476
   71TMC2    C2 1100   2.826   1.293   1.458 -0.8607  0.0333  0.3232
   71TMC2    C3 1101   2.757   1.363   1.550  0.0955 -0.3632  0.1751
   71TMC2    C4 1102   2.691   1.374   1.285  0.7433 -0.4674  0.1929
   71TMC2    C5 1103   2.620   1.441   1.386 -0.0301  0.1539  0.3717
   71TMC2    C6 1104   2.649   1.435   1.520  0.5134 -0.0607  0.4525
   71TMC2     C 1105   2.865   1.203   1.248  0.1216 -0.8878 -0.7425
   71TMC2     O 1106   2.966   1.151   1.287  0.2529  0.0016 -0.0374
   71TMC2     H 1107   2.899   1.223   1.498 -1.4974 -1.1376 -0.5425
   71TMC2    H1 1108   2.678   1.389   1.179  2.2229 -1.0067 -0.0562
   71TMC2    H2 1109   2.607   1.496   1.599  0.4786  3.1064 -1.9897
   71TMC2    C7 1110   2.514   1.533   1.343 -0.0134 -0.2888 -0.2261
   71TMC2    C8 1111   2.822   1.373   1.679  0.9468  0.2694 -1.0673
   71TMC2    O1 1112   2.468   1.598   1.435 -0.8248  0.1696 -0.2484
   71TMC2    O2 1113   2.947   1.384   1.686 -0.0255 -0.1811 -0.0427
   71TMC2    O5 1114   2.736   1.408   1.779 -0.3889  0.2684 -0.4555
   71TMC2    H5 1115   2.641   1.391   1.761 -0.8807  0.6224  1.8340
   72MPD2     C 1116   2.874   0.910   0.841 -0.0811  0.4682 -0.4904
   72MPD2    C1 1117   2.980   0.962   0.917 -0.4119  0.6626  0.4880
   72MPD2    C2 1118   2.949   1.043   1.022  0.4525 -0.9556 -0.0816
   72MPD2    C3 1119   2.821   1.074   1.046  0.0695 -0.1828  0.3892
   72MPD2    C4 1120   2.721   1.011   0.970 -0.7172  0.1165  0.7666
   72MPD2    C5 1121   2.749   0.932   0.868  0.8005 -0.1184 -0.3905
   72MPD2     H 1122   3.029   1.091   1.076 -0.0903  0.5915 -0.6517
   72MPD2    H1 1123   2.621   1.009   1.011 -0.5014  0.4069  1.3080
   72MPD2    H2 1124   2.902   0.835   0.767  2.4536  0.5397  0.4010
   72MPD2    H3 1125   2.676   0.862   0.831  0.2760  1.0808 -1.6182
   72MPD2     N 1126   2.781   1.165   1.144  0.4692 -0.3414 -0.6175
   72MPD2    H5 1127   2.683   1.192   1.143 -0.7548 -4.6606  1.3853
   72MPD2    N1 1128   3.115   0.956   0.867  0.1679  0.6267 -0.1043
   72MPD2    H7 1129   3.187   0.993   0.929  0.2451  0.3192 -0.0099
   73TMC2    C1 1130   3.036   2.709  14.030 -0.4446 -0.8634 -0.4713
   73TMC2    C2 1131   2.959   2.706  14.138  1.0125  0.0655  0.3818
   73TMC2    C3 1132   3.001   2.624  14.241  0.1701  0.3857 -0.0401
   73TMC2    C4 1133   3.136   2.617  14.008  0.2807  0.2144  0.1205
   73TMC2    C5 1134   3.182   2.551  14.118 -0.0029  0.2024 -0.4667
   73TMC2    C6 1135   3.121   2.564  14.239  0.0698 -0.6842 -0.0645
   73TMC2     C 1136   3.069   2.833  13.968 -0.2237  0.0952 -0.9318
   73TMC2     O 1137   3.185   2.842  13.930  0.2937 -0.1022 -0.0890
   73TMC2     H 1138   2.876   2.776  14.135 -0.3788 -1.5348  1.5968
   73TMC2    H1 1139   3.198   2.622  13.919  0.5658 -0.0503  0.3099
   73TMC2    H2 1140   3.162   2.497  14.314 -1.4534 -1.5217  0.0069
   73TMC2    C7 1141   3.323   2.549  14.138 -0.7067 -0.6097 -1.0544
   73TMC2    C8 1142   2.979   2.680  14.370 -0.5377 -0.2734  0.0291
   73TMC2    O1 1143   3.384   2.447  14.175  0.5410  0.0118  0.4971
   73TMC2    O2 1144   3.072   2.731  14.426 -0.5764  0.4943 -0.3581
   73TMC2    O5 1145   2.849   2.719  14.387 -0.3384  0.6293 -0.3749
   73TMC2    H5 1146   2.787   2.667  14.331 -0.2176 -0.4575  0.4781
   74MPD2     C 1147   3.015   3.337  13.904 -0.2703 -0.6583  0.4254
   74MPD2    C1 1148   3.126   3.254  13.913 -0.0845 -0.3112  0.6410
   74MPD2    C2 1149   3.110   3.121  13.917  0.1937 -0.6189  1.0196
   74MPD2    C3 1150   2.985   3.058  13.920  0.0630 -0.1672  0.2508
   74MPD2    C4 1151   2.877   3.140  13.905  0.7622  0.4055  0.7728
   74MPD2    C5 1152   2.893   3.274  13.895 -0.2928  0.3750  0.1509
   74MPD2     H 1153   3.197   3.058  13.905  1.7707  1.6417  0.5392
   74MPD2    H1 1154   2.775   3.104  13.912  0.4119  1.0852 -0.9561
   74MPD2    H2 1155   3.017   3.444  13.916 -1.2672 -0.5600 -0.2546
   74MPD2    H3 1156   2.807   3.337  13.877 -0.2677  0.7805  1.4431
   74MPD2     N 1157   2.964   2.920  13.953  0.0041  0.2412 -0.2642
   74MPD2    H5 1158   2.873   2.890  13.987  0.1561 -0.2575 -0.2896
   74MPD2    N1 1159   3.260   3.312  13.897  0.1618 -0.2629  0.2471
   74MPD2    H7 1160   3.263   3.405  13.856 -0.1096 -1.1065 -1.6971
   75TMC2    C1 1161   3.956   3.692  13.522 -0.2754  0.2257  0.1072
   75TMC2    C2 1162   4.069   3.729  13.451  0.4142  0.3445 -0.4200
   75TMC2    C3 1163   4.057   3.778  13.323 -0.3455  0.1322  0.3309
   75TMC2    C4 1164   3.842   3.676  13.455 -0.3363  0.2216  0.1392
   75TMC2    C5 1165   3.832   3.729  13.327  0.3341  0.0958  0.2015
   75TMC2    C6 1166   3.932   3.784  13.256  0.0714  0.1353  0.2380
   75TMC2     C 1167   3.981   3.633  13.657  0.3698  0.6501 -0.3465
   75TMC2     O 1168   4.092   3.628  13.707  0.4831  0.0405  0.2446
   75TMC2     H 1169   4.158   3.728  13.512  0.8170  2.1741 -0.9639
   75TMC2    H1 1170   3.760   3.624  13.503  0.9161 -1.1540  0.7945
   75TMC2    H2 1171   3.923   3.830  13.159 -0.2218 -0.5875 -0.0757
   75TMC2    C7 1172   3.708   3.723  13.258 -0.2106 -0.2071 -0.6253
   75TMC2    C8 1173   4.164   3.865  13.286 -0.2203  0.4260 -0.2030
   75TMC2    O1 1174   3.709   3.772  13.143 -0.5973  0.1410 -0.3894
   75TMC2    O2 1175   4.269   3.844  13.339  0.1438  0.3696 -0.2366
   75TMC2    O5 1176   4.147   3.903  13.160 -0.2880 -0.0407  0.2332
   75TMC2    H5 1177   4.067   3.954  13.135  0.2909 -0.2595 -2.0326
   76TMC2    C1 1178   3.048   0.120  11.518 -0.0182 -0.0660  0.4933
   76TMC2    C2 1179   3.121   0.229  11.495 -0.1906  0.8513  0.6239
   76TMC2    C3 1180   3.256   0.224  11.524 -0.5694  0.2670 -0.3416
   76TMC2    C4 1181   3.102   0.000  11.554 -0.1130  0.0549  0.0412
   76TMC2    C5 1182   3.234   0.003  11.589 -0.1291 -0.4762 -0.0697
   76TMC2    C6 1183   3.312   0.112  11.572 -0.3802 -0.4543 -0.0457
   76TMC2     C 1184   2.910   0.148  11.535 -0.1878 -0.0729 -0.3706
   76TMC2     O 1185   2.853   0.218  11.453  0.3510 -1.0409 -0.6286
   76TMC2     H 1186   3.070   0.323  11.477  0.3154  1.3128  1.5794
   76TMC2    H1 1187   3.051   4.640  11.556  1.7312 -0.9605 -1.7979
   76TMC2    H2 1188   3.419   0.101  11.575 -0.1374  0.9151 -3.2663
   76TMC2    C7 1189   3.304   4.620  11.624 -0.3178  0.1393  0.2835
   76TMC2    C8 1190   3.332   0.343  11.494  0.5243 -0.5442 -0.0695
   76TMC2    O1 1191   3.263   4.512  11.584 -0.2461 -0.4904 -0.6427
   76TMC2    O2 1192   3.446   0.356  11.535  0.0895  0.0252 -0.1196
   76TMC2    O5 1193   3.264   0.418  11.397  0.4206 -0.1327 -0.1338
   76TMC2    H5 1194   3.323   0.478  11.347 -1.1780  1.7534  0.2530
   77MPD2     C 1195   2.504   0.208  11.843  0.0949 -0.8104 -0.0700
   77MPD2    C1 1196   2.524   0.264  11.718 -0.4105 -0.1910 -0.4699
   77MPD2    C2 1197   2.645   0.240  11.662  0.1022  0.5226 -0.0311
   77MPD2    C3 1198   2.740   0.157  11.720  0.2968 -0.1740  0.1181
   77MPD2    C4 1199   2.715   0.100  11.842 -0.2393  0.8377 -0.2590
   77MPD2    C5 1200   2.599   0.134  11.905  0.2584 -0.0663 -0.3325
   77MPD2     H 1201   2.665   0.288  11.567  1.3242 -0.0577 -0.0741
   77MPD2    H1 1202   2.780   0.024  11.884 -0.8579 -0.0027 -0.8401
   77MPD2    H2 1203   2.417   0.215  11.907 -0.6414  0.2457 -1.2176
   77MPD2    H3 1204   2.578   0.094  12.003 -2.2070 -1.6715 -1.4941
   77MPD2     N 1205   2.865   0.112  11.658  0.9291  0.6545 -0.6263
   77MPD2    H5 1206   2.920   0.051  11.719 -0.2454 -1.6732 -1.8737
   77MPD2    N1 1207   2.442   0.355  11.653  0.3188 -0.3549  0.1360
   77MPD2    H7 1208   2.470   0.386  11.561  2.3004 -1.9657  0.1997
   78TMC2    C1 1209   0.177   2.244   1.557 -0.1325 -0.1032  0.2899
   78TMC2    C2 1210   0.296   2.268   1.495 -0.2640 -0.1150 -0.5248
   78TMC2    C3 1211   0.345   2.158   1.425 -0.3598 -0.3622  0.4457
   78TMC2    C4 1212   0.117   2.120   1.566 -0.0168  0.4637  0.1859
   78TMC2    C5 1213   0.168   2.022   1.484  0.4548  0.2687  0.1513
   78TMC2    C6 1214   0.282   2.037   1.418  0.3372 -0.1937  0.0100
   78TMC2     C 1215   0.119   2.357   1.626 -0.6699 -0.3926  0.1440
   78TMC2     O 1216   0.156   2.468   1.589  0.1816  0.0254  0.1706
   78TMC2     H 1217   0.347   2.363   1.508 -0.3105 -0.1264 -0.2715
   78TMC2    H1 1218   0.015   2.112   1.601  0.4795 -0.1499  1.5183
   78TMC2    H2 1219   0.312   1.961   1.346  1.2193 -1.1280  1.3641
   78TMC2    C7 1220   0.126   1.878   1.497 -0.1198 -0.1895  0.0605
   78TMC2    C8 1221   0.491   2.140   1.406  0.4248 -0.3924  0.1887
   78TMC2    O1 1222   0.203   1.794   1.449 -0.3530  0.3514 -0.1226
   78TMC2    O2 1223   0.554   2.037   1.408 -0.5671 -0.4102  0.4340
   78TMC2    O5 1224   0.550   2.264   1.416  0.3503  0.8613 -0.1203
   78TMC2    H5 1225   0.484   2.327   1.380  0.4906 -0.7155 -3.1057
   79MPD1     C 1226   4.494   2.528   1.952  0.6632  0.1701 -0.1416
   79MPD1    C1 1227   4.557   2.601   1.853 -0.2149 -0.0338 -0.0274
   79MPD1    C2 1228   4.651   2.531   1.770  0.2711 -0.1202 -0.3980
   79MPD1    C3 1229   4.683   2.396   1.796 -0.4191 -0.8867  0.4324
   79MPD1    C4 1230   4.607   2.333   1.889 -0.4129  0.1273 -0.2963
   79MPD1    C5 1231   4.526   2.401   1.970 -0.1471 -0.6897 -0.4485
   79MPD1     H 1232   4.694   2.590   1.690  1.8958 -0.1231  0.4934
   79MPD1    H1 1233   4.607   2.227   1.910  2.6041 -0.5038 -3.5057
   79MPD1    H2 1234   4.428   2.571   2.027  1.5031  0.9504  0.1404
   79MPD1    H3 1235   4.475   2.338   2.043  0.1933  0.5110  0.8140
   79MPD1     N 1236   0.038   2.319   1.722 -0.0630  0.0199 -0.6400
   79MPD1    H5 1237   0.051   2.221   1.745 -0.9151  0.1759  0.5341
   79MPD1    N1 1238   4.525   2.737   1.842  0.5190  0.6535  0.5077
   79MPD1    H6 1239   4.511   2.791   1.927  0.3085  3.8978 -1.5865
   79MPD1    H7 1240   4.586   2.787   1.777  0.3039 -1.2318 -1.1533
   80TMC2    C1 1241   1.601   0.010  11.571  0.2818 -0.0174  0.5720
   80TMC2    C2 1242   1.651   0.062  11.458  0.1554 -0.1841 -0.4849
   80TMC2    C3 1243   1.586   0.044  11.343 -0.2232  0.0598  0.2940
   80TMC2    C4 1244   1.495   4.661  11.572  0.2718 -0.2954  0.7847
   80TMC2    C5 1245   1.433   4.643  11.451 -0.1531 -0.2543  0.1350
   80TMC2    C6 1246   1.470   4.703  11.331  0.1029  0.4040 -0.7183
   80TMC2     C 1247   1.685   0.009  11.687 -0.1191  0.0504 -0.2651
   80TMC2     O 1248   1.794   0.058  11.679 -0.1533 -0.1281  0.2529
   80TMC2     H 1249   1.739   0.125  11.465  1.1912 -1.8026  1.1817
   80TMC2    H1 1250   1.446   4.620  11.660 -0.2935 -0.4673  0.3934
   80TMC2    H2 1251   1.407   4.704  11.242 -0.0824  1.7018 -0.5608
   80TMC2    C7 1252   1.328   4.546  11.441 -0.2340 -0.0050  0.7559
   80TMC2    C8 1253   1.619   0.113  11.221  0.4186 -0.0640  0.4914
   80TMC2    O1 1254   1.289   4.531  11.331 -0.1788  0.3025 -0.3867
   80TMC2    O2 1255   1.541   0.146  11.137 -0.0961 -0.3819  0.3935
   80TMC2    O5 1256   1.749   0.114  11.202  0.0110 -0.3606  0.3769
   80TMC2    H5 1257   1.790   0.056  11.271  0.3850 -0.9579 -0.3460
   81MPD2     C 1258   1.796   4.732  11.972 -0.2119 -0.1518  0.9609
   81MPD2    C1 1259   1.662   4.722  11.940 -0.1277  0.2557  0.4773
   81MPD2    C2 1260   1.567   4.723  12.037 -0.2418  0.1108  0.0089
   81MPD2    C3 1261   1.601   4.733  12.170 -0.0965 -0.3136  0.0555
   81MPD2    C4 1262   1.735   4.727  12.210 -0.2252 -0.6685 -0.4010
   81MPD2    C5 1263   1.833   4.733  12.108  0.3135  0.8601  0.3082
   81MPD2     H 1264   1.465   4.696  12.014 -1.2718  2.4416  1.8421
   81MPD2    H1 1265   1.757   4.732  12.316 -2.1825 -2.1568  0.0767
   81MPD2    H2 1266   1.877   4.732  11.900 -2.1472  0.6480 -1.2127
   81MPD2    H3 1267   1.935   0.011  12.140 -0.0597  0.5133  1.6536
   81MPD2     N 1268   1.496   4.734  12.271 -0.0757 -0.1710 -0.2801
   81MPD2    H5 1269   1.516   0.040  12.361  0.8580 -0.0858 -0.5257
   81MPD2    N1 1270   1.616   4.712  11.804  0.1078  0.4014 -0.0079
   81MPD2    H7 1271   1.516   4.711  11.792  0.1047 -2.8857  0.1783
   82TMC2    C1 1272   4.331   3.754  11.099  0.0795 -0.5302 -0.1328
   82TMC2    C2 1273   4.449   3.791  11.162 -0.3191  0.3724  0.3253
   82TMC2    C3 1274   4.498   3.698  11.256  0.9155 -0.1159 -0.6883
   82TMC2    C4 1275   4.261   3.641  11.126  0.3955 -0.2580  0.7010
   82TMC2    C5 1276   4.313   3.556  11.218 -0.1104 -0.4194  0.1782
   82TMC2    C6 1277   4.438   3.585  11.281  0.4153  0.0315 -0.3271
   82TMC2     C 1278   4.259   3.860  11.033  0.1641  0.7396  0.1943
   82TMC2     O 1279   4.157   3.828  10.978 -0.0349 -0.2537 -0.4984
   82TMC2     H 1280   4.508   3.880  11.143 -0.2646  0.0825 -0.8073
   82TMC2    H1 1281   4.165   3.617  11.082  1.6308 -1.0259 -1.5712
   82TMC2    H2 1282   4.490   3.518  11.348  0.2289  0.9560  0.7397
   82TMC2    C7 1283   4.240   3.442  11.265 -0.3014  0.1977  0.1501
   82TMC2    C8 1284   4.634   3.708  11.312  0.2515 -0.9129 -0.2281
   82TMC2    O1 1285   4.275   3.414  11.376 -0.7993 -0.4571  0.0406
   82TMC2    O2 1286   4.702   3.613  11.341 -0.6320  0.0284 -0.3802
   82TMC2    O5 1287   4.637   3.827  11.376 -0.2058  0.0636  0.3366
   82TMC2    H5 1288   4.570   3.889  11.340 -0.6717 -0.3474  0.4990
   83MPD2     C 1289   4.119   4.349  11.052 -0.4405  0.0063  0.4780
   83MPD2    C1 1290   4.039   4.243  11.029 -0.2903  0.0609 -0.2848
   83MPD2    C2 1291   4.098   4.119  11.034 -0.2551  0.5479 -0.3127
   83MPD2    C3 1292   4.232   4.107  11.062 -0.0399 -0.4262 -0.1202
   83MPD2    C4 1293   4.307   4.223  11.100  0.1216 -0.1470  0.0959
   83MPD2    C5 1294   4.249   4.347  11.091 -0.1360 -0.2461  0.3308
   83MPD2     H 1295   4.047   4.034  10.991  1.4505 -0.9438  0.5795
   83MPD2    H1 1296   4.414   4.218  11.118  0.0906  0.6402  0.4722
   83MPD2    H2 1297   4.069   4.445  11.050 -0.8228 -0.2074 -0.1529
   83MPD2    H3 1298   4.299   4.442  11.101  1.1005 -0.7461 -1.2307
   83MPD2     N 1299   4.300   3.982  11.065  0.9401 -0.6355  0.1977
   83MPD2    H5 1300   4.388   3.988  11.115  0.9574 -1.9797  0.3369
   83MPD2    N1 1301   3.911   4.273  10.979 -0.3535  0.5260 -0.4432
   83MPD2    H7 1302   3.890   4.370  10.959  1.0677  0.8913 -0.1279
   84TMC2    C1 1303   0.677   3.681  10.478 -0.0493 -0.5311 -0.5713
   84TMC2    C2 1304   0.656   3.798  10.419  0.6893 -0.2620  0.2637
   84TMC2    C3 1305   0.743   3.837  10.325  0.0247 -1.0344  0.7495
   84TMC2    C4 1306   0.777   3.594  10.436  0.2839  0.4929  0.0291
   84TMC2    C5 1307   0.860   3.630  10.335 -0.4712 -0.1322 -0.2135
   84TMC2    C6 1308   0.851   3.759  10.283  0.6796  0.4787 -0.1100
   84TMC2     C 1309   0.629   3.677  10.614 -0.1979  0.4355 -0.3989
   84TMC2     O 1310   0.576   3.777  10.654  0.2443 -0.0816 -0.5440
   84TMC2     H 1311   0.572   3.861  10.448  1.0229 -0.5138  1.7535
   84TMC2    H1 1312   0.803   3.510  10.499 -0.4530 -0.2450 -0.6566
   84TMC2    H2 1313   0.920   3.799  10.209  0.5887 -0.1081 -0.5072
   84TMC2    C7 1314   0.971   3.549  10.289 -0.4198  0.5223 -0.3156
   84TMC2    C8 1315   0.728   3.964  10.255  0.3368  0.4241  0.2155
   84TMC2    O1 1316   1.043   3.609  10.215  0.0955  0.5779 -0.2919
   84TMC2    O2 1317   0.621   4.021  10.240 -0.1757 -0.3818  0.4758
   84TMC2    O5 1318   0.852   4.014  10.267 -0.2740 -0.0337  0.0661
   84TMC2    H5 1319   0.923   3.965  10.314  1.5780 -0.6983 -3.4318
   85TMC2    C1 1320   1.809   1.263  16.157  0.5635  0.1754 -0.3956
   85TMC2    C2 1321   1.782   1.394  16.173 -0.1313  0.4398  0.4387
   85TMC2    C3 1322   1.858   1.492  16.119  0.2842  0.5995  0.0150
   85TMC2    C4 1323   1.921   1.237  16.087  0.2218  0.2091 -0.5039
   85TMC2    C5 1324   1.985   1.343  16.020 -0.2944  0.7002  0.2798
   85TMC2    C6 1325   1.955   1.470  16.031 -0.4889 -1.1603  0.2713
   85TMC2     C 1326   1.752   1.159  16.246 -0.9484  0.4379 -0.2578
   85TMC2     O 1327   1.724   1.202  16.362 -0.2500 -0.2177  0.0761
   85TMC2     H 1328   1.707   1.417  16.248  1.9316 -0.4656  2.7741
   85TMC2    H1 1329   1.952   1.133  16.080  0.5839  0.3152 -0.4924
   85TMC2    H2 1330   2.005   1.548  15.975 -0.8219 -0.2262  1.2814
   85TMC2    C7 1331   2.081   1.293  15.924 -0.2239 -0.4369  0.3982
   85TMC2    C8 1332   1.842   1.626  16.169  0.5130  0.3741 -0.4767
   85TMC2    O1 1333   2.150   1.199  15.966 -0.0379  0.0868 -0.4073
   85TMC2    O2 1334   1.908   1.671  16.259 -0.6928 -0.4216 -0.1705
   85TMC2    O5 1335   1.782   1.703  16.075  0.0363 -0.1999  0.2867
   85TMC2    H5 1336   1.742   1.649  16.003 -1.8610  0.3149  0.9556
   86MPD2     C 1337   1.506   0.724  16.336  0.0622 -0.0394 -0.7666
   86MPD2    C1 1338   1.530   0.730  16.201 -0.2678  0.5158 -0.5469
   86MPD2    C2 1339   1.612   0.833  16.160  0.2418  0.8098 -0.3104
   86MPD2    C3 1340   1.648   0.933  16.242  0.3294 -0.6713  1.4084
   86MPD2    C4 1341   1.625   0.928  16.373  0.0502  0.1381  0.9480
   86MPD2    C5 1342   1.555   0.816  16.422 -0.2352 -0.7825 -0.4003
   86MPD2     H 1343   1.645   0.835  16.056 -0.7984  2.4104 -0.5938
   86MPD2    H1 1344   1.652   1.009  16.441  1.7772 -0.2981  0.7628
   86MPD2    H2 1345   1.449   0.647  16.385 -1.3126  1.6763  0.3275
   86MPD2    H3 1346   1.527   0.805  16.526  0.9340  0.4724  0.0487
   86MPD2     N 1347   1.725   1.040  16.187  0.0647  1.0466 -0.0890
   86MPD2    H5 1348   1.752   1.028  16.090  0.9440 -0.1709  0.3042
   86MPD2    N1 1349   1.483   0.629  16.109 -0.0669 -0.8464  0.2482
   86MPD2    H7 1350   1.518   0.646  16.014 -1.3535 -2.2094 -0.4575
   87TMC2    C1 1351   4.724   4.646   0.952  0.5183  0.1987  0.8561
   87TMC2    C2 1352   0.124   4.624   0.920 -1.0346 -0.3515  0.1026
   87TMC2    C3 1353   0.217   4.670   1.010  0.3630 -0.8435  0.2660
   87TMC2    C4 1354   4.689   4.719   1.062  0.1470 -0.0115  0.5509
   87TMC2    C5 1355   0.053   0.023   1.155  0.0466  0.3896  0.0198
   87TMC2    C6 1356   0.185   4.728   1.128 -0.0724 -0.0588 -0.2709
   87TMC2     C 1357   4.620   4.614   0.856  0.5694  0.2324  0.0585
   87TMC2     O 1358   4.651   4.569   0.747  0.2378  0.1503 -0.2225
   87TMC2     H 1359   0.154   4.562   0.836 -2.3763 -3.2334  1.7415
   87TMC2    H1 1360   4.587   0.014   1.084 -0.2311 -1.7884  1.2752
   87TMC2    H2 1361   0.259   0.013   1.204 -0.8404  1.1935  0.1320
   87TMC2    C7 1362   0.008   0.113   1.259  0.1567 -0.4036  0.3651
   87TMC2    C8 1363   0.352   4.627   0.992 -1.1863  0.2198  0.0706
   87TMC2    O1 1364   4.633   0.159   1.248  0.4604 -0.5341 -0.2063
   87TMC2    O2 1365   0.436   4.629   1.081 -0.4810  0.1332 -0.2285
   87TMC2    O5 1366   0.377   4.631   0.859  0.2478  0.5971 -0.0469
   87TMC2    H5 1367   0.299   4.665   0.811  0.4826 -0.7581 -1.4065
   88MPD2     C 1368   0.138   0.209   1.589  0.2066  0.1085 -0.1261
   88MPD2    C1 1369   0.046   0.191   1.488 -0.0629 -0.2638  0.2947
   88MPD2    C2 1370   4.671   0.277   1.501 -0.4461 -0.0087 -0.8912
   88MPD2    C3 1371   4.644   0.360   1.607  0.0722 -0.4501  0.1367
   88MPD2    C4 1372   4.736   0.349   1.716  0.5879  0.0688 -0.2053
   88MPD2    C5 1373   0.111   0.277   1.703 -0.0575 -0.0095 -0.0640
   88MPD2     H 1374   4.600   0.285   1.420 -1.2068 -0.0671 -0.2279
   88MPD2    H1 1375   4.724   0.408   1.806 -1.2663 -0.9914  0.2501
   88MPD2    H2 1376   0.227   0.147   1.596  0.2034  0.4227  2.5567
   88MPD2    H3 1377   0.172   0.258   1.790  1.4735  0.7886 -0.9619
   88MPD2     N 1378   4.530   0.452   1.612 -0.4147  0.2621 -0.5123
   88MPD2    H5 1379   4.509   0.494   1.702  1.1009 -0.3296  0.1095
   88MPD2    N1 1380   0.079   0.111   1.378  0.0564 -0.9455  0.4176
   88MPD2    H7 1381   0.169   0.065   1.388 -0.4201 -2.4556 -2.2387
   89TMC2    C1 1382   0.330   2.332   0.986  0.9680  0.5531 -0.0031
   89TMC2    C2 1383   0.460   2.360   0.954 -0.0328 -0.0001 -0.2036
   89TMC2    C3 1384   0.491   2.477   0.894 -0.6213  0.3051  0.0380
   89TMC2    C4 1385   0.229   2.425   0.976 -0.0127  0.9000  0.0109
   89TMC2    C5 1386   0.266   2.536   0.908  0.3162 -0.0451  0.2796
   89TMC2    C6 1387   0.393   2.575   0.876 -0.4095  0.1403 -0.4924
   89TMC2     C 1388   0.303   2.193   1.012  0.3240 -0.3094 -0.7471
   89TMC2     O 1389   0.390   2.112   0.988 -0.1566  0.2811  0.7130
   89TMC2     H 1390   0.543   2.291   0.958  2.0467  2.4013 -1.3468
   89TMC2    H1 1391   0.127   2.388   0.973  0.1107  0.7425 -1.8113
   89TMC2    H2 1392   0.414   2.666   0.821  1.0563  0.3244  0.3610
   89TMC2    C7 1393   0.156   2.608   0.848  0.0984  0.8291 -0.4074
   89TMC2    C8 1394   0.630   2.501   0.863  0.3249 -0.3549  0.7623
   89TMC2    O1 1395   0.046   2.589   0.888  0.3220 -0.1876  0.0954
   89TMC2    O2 1396   0.715   2.414   0.894 -0.1802 -0.0346  0.2786
   89TMC2    O5 1397   0.624   2.541   0.729  0.4621  0.5798 -0.0396
   89TMC2    H5 1398   0.558   2.603   0.693  0.4067  0.8306  0.4930
   90MPD2     C 1399   4.712   1.817   1.124 -0.0782 -0.7595  0.8199
   90MPD2    C1 1400   4.660   1.931   1.178  0.0092 -0.2691  0.3737
   90MPD2    C2 1401   0.009   2.040   1.169 -0.0694 -0.5515 -0.0135
   90MPD2    C3 1402   0.129   2.047   1.098 -0.3110  0.2763  0.3302
   90MPD2    C4 1403   0.174   1.931   1.042  0.1432  0.4581  0.5419
   90MPD2    C5 1404   0.098   1.819   1.060 -0.3092 -0.0189  0.1195
   90MPD2     H 1405   4.701   2.134   1.199  3.6156  2.0077 -2.6353
   90MPD2    H1 1406   0.256   1.927   0.971  0.3878 -0.8464  0.8936
   90MPD2    H2 1407   4.652   1.726   1.115  1.2107 -1.7098  1.9382
   90MPD2    H3 1408   0.136   1.730   1.012  2.7267  1.6937 -0.6767
   90MPD2     N 1409   0.188   2.173   1.081 -0.8036 -0.4657  0.2396
   90MPD2    H5 1410   0.133   2.250   1.118 -0.5782 -1.0984  1.8833
   90MPD2    N1 1411   4.537   1.941   1.242 -0.3622 -0.1674  0.2375
   90MPD2    H7 1412   4.502   2.032   1.270  0.1924 -0.3333  1.4664
   91TMC2    C1 1413   1.458   1.687  16.809 -0.8067 -0.3689  0.2159
   91TMC2    C2 1414   1.475   1.630  16.930 -0.2684  0.0902  0.5130
   91TMC2    C3 1415   1.380   1.534  16.956  0.0088  0.0082  0.6969
   91TMC2    C4 1416   1.361   1.645  16.720  0.4841 -0.2685 -0.2396
   91TMC2    C5 1417   1.276   1.545  16.752 -0.0757 -0.2373 -0.1507
   91TMC2    C6 1418   1.280   1.490  16.876  0.2904  0.1298  0.7551
   91TMC2     C 1419   1.543   1.802  16.760 -0.4806  0.4769 -0.3726
   91TMC2     O 1420   1.511   1.851  16.651 -0.1518 -0.1867  0.4500
   91TMC2     H 1421   1.540   1.683  16.999 -0.2940  0.4194  0.2786
   91TMC2    H1 1422   1.362   1.685  16.620  1.1882 -0.0024 -0.1241
   91TMC2    H2 1423   1.218   1.409  16.912  0.8459 -0.8980 -0.6250
   91TMC2    C7 1424   1.173   1.489  16.663 -0.0979  0.4704  0.1131
   91TMC2    C8 1425   1.367   1.504  17.095  0.9002  0.4159 -0.0622
   91TMC2    O1 1426   1.126   1.384  16.704 -0.4630 -0.0472 -0.7689
   91TMC2    O2 1427   1.455   1.460  17.169 -0.1088  0.2469  0.3826
   91TMC2    O5 1428   1.242   1.518  17.133  0.5779  0.3442 -0.2273
   91TMC2    H5 1429   1.171   1.543  17.069  0.2681 -0.6499 -0.2735
   92MPD2     C 1430   1.754   2.002  16.693 -0.4133 -0.0589  0.1449
   92MPD2    C1 1431   1.779   1.889  16.780  0.4121 -0.4105  0.2615
   92MPD2    C2 1432   1.904   1.859  16.833  0.8400  0.1558  0.4328
   92MPD2    C3 1433   2.005   1.945  16.810  0.3103  0.0704  0.4107
   92MPD2    C4 1434   1.978   2.059  16.735  0.6071 -0.9000  0.3669
   92MPD2    C5 1435   1.858   2.083  16.679 -0.0969 -0.4056  0.3251
   92MPD2     H 1436   1.899   1.767  16.891 -0.3147 -0.5608 -0.7746
   92MPD2    H1 1437   2.066   2.120  16.717  2.3017 -2.9894  1.4597
   92MPD2    H2 1438   1.658   2.026  16.648 -0.2232  0.1127 -0.1685
   92MPD2    H3 1439   1.848   2.173  16.618 -1.0720 -0.7596 -0.0284
   92MPD2     N 1440   2.142   1.914  16.842  0.2514  0.6096 -0.5710
   92MPD2    H5 1441   2.209   1.990  16.832 -3.0905  3.2622 -2.6719
   92MPD2    N1 1442   1.670   1.798  16.818 -0.1082 -0.0233  0.2405
   92MPD2    H7 1443   1.696   1.722  16.880 -0.9093 -0.7427 -0.3176
   93TMC2    C1 1444   3.662   1.576  14.133 -0.5181  0.0109  0.6708
   93TMC2    C2 1445   3.554   1.652  14.176 -0.9383  0.3051 -0.1861
   93TMC2    C3 1446   3.586   1.776  14.238 -0.7857 -0.7671  0.8243
   93TMC2    C4 1447   3.790   1.623  14.140  0.2845 -0.1457 -0.5671
   93TMC2    C5 1448   3.813   1.743  14.199 -0.0867 -0.0460  0.2243
   93TMC2    C6 1449   3.714   1.823  14.251  0.2648 -0.3120  0.8410
   93TMC2     C 1450   3.643   1.468  14.045  0.4267 -0.0219  0.2486
   93TMC2     O 1451   3.746   1.409  14.011  0.0333  0.3276  0.3350
   93TMC2     H 1452   3.448   1.643  14.154 -1.1491 -0.6346  1.2085
   93TMC2    H1 1453   3.876   1.567  14.107 -0.7515 -1.3608 -1.1728
   93TMC2    H2 1454   3.723   1.918  14.303 -2.0055 -1.3331  3.0446
   93TMC2    C7 1455   3.939   1.811  14.180  0.0384  0.0405 -0.2752
   93TMC2    C8 1456   3.480   1.860  14.301  1.0052  0.1372  0.4491
   93TMC2    O1 1457   4.021   1.766  14.105  0.2733 -0.1843  0.7024
   93TMC2    O2 1458   3.491   1.981  14.330  0.6071 -0.1922 -0.1417
   93TMC2    O5 1459   3.393   1.778  14.356  0.1722 -0.9562 -0.5087
   93TMC2    H5 1460   3.417   1.684  14.367 -2.5233 -1.6793 -0.7774
   94MPD2     C 1461   3.532   1.258  13.866  0.1541  0.4183 -0.8246
   94MPD2    C1 1462   3.458   1.353  13.933  0.6974  0.5821  0.6360
   94MPD2    C2 1463   3.318   1.360  13.927  0.4420  0.0157  0.1216
   94MPD2    C3 1464   3.253   1.287  13.837  0.4342  0.2781 -0.2560
   94MPD2    C4 1465   3.326   1.196  13.763  0.0875  0.1772  0.2636
   94MPD2    C5 1466   3.462   1.180  13.781  0.3213  0.1219  0.4821
   94MPD2     H 1467   3.266   1.425  13.997  1.3893  1.3179 -0.3855
   94MPD2    H1 1468   3.277   1.139  13.685 -1.6778  1.3169  0.5549
   94MPD2    H2 1469   3.639   1.244  13.877 -0.1273 -1.0964 -0.1154
   94MPD2    H3 1470   3.526   1.111  13.726 -1.8348 -0.7941 -0.8689
   94MPD2     N 1471   3.118   1.308  13.795  0.3168  0.1146  0.2676
   94MPD2    H5 1472   3.080   1.251  13.720  3.4589 -0.0204 -1.2240
   94MPD2    N1 1473   3.514   1.454  14.020 -0.1750 -0.1551  0.4461
   94MPD2    H7 1474   3.448   1.519  14.059  0.3640  1.8675 -1.9809
   95TMC2    C1 1475   3.392   3.354  16.034 -0.1989  0.0423 -0.1555
   95TMC2    C2 1476   3.331   3.244  16.092 -0.3886  0.4651  0.1972
   95TMC2    C3 1477   3.324   3.244  16.226  0.3721  0.6836 -0.0642
   95TMC2    C4 1478   3.433   3.467  16.103  0.4605  0.1042 -0.6911
   95TMC2    C5 1479   3.406   3.463  16.241  0.3290 -0.1700  0.4715
   95TMC2    C6 1480   3.359   3.351  16.307 -0.5573 -0.0423  0.4083
   95TMC2     C 1481   3.420   3.346  15.891  0.2045  0.2287 -0.2853
   95TMC2     O 1482   3.409   3.232  15.846 -0.8134  0.7958  0.2998
   95TMC2     H 1483   3.286   3.163  16.036  0.6223 -1.7584  2.6233
   95TMC2    H1 1484   3.492   3.544  16.055  2.1913 -0.0931  1.1233
   95TMC2    H2 1485   3.372   3.349  16.415  1.0533 -0.1797  0.2136
   95TMC2    C7 1486   3.423   3.590  16.316  0.5270  0.2950  0.2134
   95TMC2    C8 1487   3.292   3.117  16.283 -0.3476  0.3581  0.0748
   95TMC2    O1 1488   3.495   3.669  16.266  0.1847 -0.2486  0.1137
   95TMC2    O2 1489   3.246   3.103  16.395 -0.1698 -0.0260  0.4520
   95TMC2    O5 1490   3.373   3.026  16.219  0.0331  0.0201 -0.0425
   95TMC2    H5 1491   3.420   3.036  16.134  0.7808  0.9399  0.4837
   96MPD2     C 1492   3.708   3.490  15.496 -0.0066  0.2646  0.0118
   96MPD2    C1 1493   3.671   3.608  15.563  0.3345  0.3563 -0.4148
   96MPD2    C2 1494   3.585   3.596  15.673 -0.0641  0.0862 -0.5493
   96MPD2    C3 1495   3.543   3.473  15.714 -0.6733 -0.0798  0.1317
   96MPD2    C4 1496   3.578   3.362  15.647  0.0243 -0.3108 -0.0765
   96MPD2    C5 1497   3.666   3.369  15.540  0.5745  0.0504  0.3506
   96MPD2     H 1498   3.548   3.683  15.727 -0.3695 -0.7975  0.6814
   96MPD2    H1 1499   3.541   3.265  15.678 -3.1840  0.4446 -1.5042
   96MPD2    H2 1500   3.770   3.494  15.407  0.3023  1.7685  0.2889
   96MPD2    H3 1501   3.695   3.284  15.480 -2.7120  0.0375 -1.1664
   96MPD2     N 1502   3.477   3.461  15.836  0.0032 -0.1985 -0.9303
   96MPD2    H5 1503   3.478   3.542  15.898 -0.7386 -1.4007  0.6477
   96MPD2    N1 1504   3.711   3.736  15.507 -0.1124  0.2724 -0.0312
   96MPD2    H7 1505   3.762   3.728  15.420  1.8120  1.0688  1.0107
   97TMC2    C1 1506   1.112   1.688   0.045 -1.2460  0.2029 -0.2835
   97TMC2    C2 1507   1.073   1.622  17.674  0.1019 -0.1340 -0.2801
   97TMC2    C3 1508   1.075   1.690  17.556 -0.4483  0.6721 -0.2181
   97TMC2    C4 1509   1.145   1.818   0.044  0.1490 -0.0760 -0.1133
   97TMC2    C5 1510   1.164   1.882  17.665 -0.8855 -0.1494 -0.3039
   97TMC2    C6 1511   1.130   1.815  17.545 -0.3949  0.2547  0.6001
   97TMC2     C 1512   1.092   1.612   0.172 -0.1674 -0.7793 -0.3526
   97TMC2     O 1513   1.027   1.511   0.156  0.0379 -0.1561  0.2315
   97TMC2     H 1514   1.040   1.519  17.671 -0.8639  0.2096 -1.6138
   97TMC2    H1 1515   1.162   1.877   0.134  0.8088  0.5669 -0.6661
   97TMC2    H2 1516   1.181   1.844  17.454  0.7424  0.6089  1.3515
   97TMC2    C7 1517   1.215   2.017  17.661 -0.5944 -0.3546 -1.0297
   97TMC2    C8 1518   1.026   1.626  17.435  0.3718  0.0836 -0.3604
   97TMC2    O1 1519   1.267   2.062   0.020 -0.2635  0.2621  0.0220
   97TMC2    O2 1520   1.031   1.505  17.422 -0.1027 -0.3496 -0.6673
   97TMC2    O5 1521   0.988   1.719  17.347 -0.7349  0.4870  0.2916
   97TMC2    H5 1522   0.990   1.806  17.392  1.3168  1.6433 -2.0505
   98MPD2     C 1523   1.030   1.601   0.674  0.1360 -0.2615 -0.7375
   98MPD2    C1 1524   0.972   1.523   0.581  0.4083 -0.5358 -0.4539
   98MPD2    C2 1525   1.008   1.547   0.448  0.2574  0.3827  0.1580
   98MPD2    C3 1526   1.112   1.635   0.419 -0.0058 -0.2723 -0.0057
   98MPD2    C4 1527   1.165   1.718   0.514 -0.2121  0.0454 -0.2759
   98MPD2    C5 1528   1.120   1.699   0.638  0.4800 -0.0053 -0.0391
   98MPD2     H 1529   0.949   1.498   0.372 -0.7294 -0.1794  1.2848
   98MPD2    H1 1530   1.237   1.798   0.507 -0.9511  0.6290 -1.2148
   98MPD2    H2 1531   0.997   1.598   0.778  2.0807 -4.7030 -0.2534
   98MPD2    H3 1532   1.152   1.766   0.717 -0.7947  0.1702  0.3414
   98MPD2     N 1533   1.146   1.668   0.285  0.9369 -0.1506  0.0557
   98MPD2    H5 1534   1.213   1.742   0.265 -0.4544  0.8221 -1.0476
   98MPD2    N1 1535   0.860   1.450   0.623 -0.4207  0.2586  0.1813
   98MPD2    H7 1536   0.826   1.461   0.718 -0.1950 -0.5035  0.3526
   99TMC2    C1 1537   4.220   4.028   1.277 -0.2380 -0.2616  0.9457
   99TMC2    C2 1538   4.253   4.118   1.386 -0.0074 -0.2506  0.4433
   99TMC2    C3 1539   4.163   4.215   1.400 -0.4736  0.9430 -0.7728
   99TMC2    C4 1540   4.107   4.017   1.205 -0.0286  0.1589  0.4564
   99TMC2    C5 1541   4.021   4.124   1.235  0.4365  0.6519  0.8227
   99TMC2    C6 1542   4.048   4.217   1.328 -0.3554  0.6804  0.0903
   99TMC2     C 1543   4.341   3.963   1.224  0.0187  0.8611  0.5099
   99TMC2     O 1544   4.417   3.931   1.313 -0.5593 -0.3139 -0.0075
   99TMC2     H 1545   4.346   4.131   1.439 -0.6805  1.8707  1.0947
   99TMC2    H1 1546   4.100   3.955   1.116  1.6566  0.4646  0.1023
   99TMC2    H2 1547   3.967   4.280   1.362  0.9305  1.3215  1.9684
   99TMC2    C7 1548   3.887   4.124   1.181 -0.0164 -0.3879  0.6732
   99TMC2    C8 1549   4.168   4.284   1.529  0.0230  0.8187  0.2847
   99TMC2    O1 1550   3.816   4.229   1.186 -0.2043 -0.6435 -0.4166
   99TMC2    O2 1551   4.263   4.353   1.566 -0.3229  0.2399  0.5730
   99TMC2    O5 1552   4.062   4.251   1.599 -0.2867 -0.1798  0.1593
   99TMC2    H5 1553   3.999   4.194   1.551  1.2346  0.0682 -2.1364
  100MPD2     C 1554   4.589   3.899   1.073 -0.1504 -0.7681  0.7196
  100MPD2    C1 1555   4.464   3.922   1.012 -0.1585  0.6334  0.3745
  100MPD2    C2 1556   4.455   3.917   0.875 -0.1311  0.2183 -0.1234
  100MPD2    C3 1557   4.564   3.887   0.796  0.2630  0.0832 -0.0352
  100MPD2    C4 1558   4.686   3.862   0.860 -0.5228 -0.4015  0.4278
  100MPD2    C5 1559   4.702   3.872   0.993 -0.1080 -0.3004 -0.2294
  100MPD2     H 1560   4.356   3.924   0.830 -0.7574 -1.5425  0.9724
  100MPD2    H1 1561   0.040   3.844   0.801 -1.6907  1.4125 -1.9048
  100MPD2    H2 1562   4.606   3.911   1.180 -0.2926  0.7126  0.5700
  100MPD2    H3 1563   0.059   3.859   1.047 -0.3790 -0.2807  0.2377
  100MPD2     N 1564   4.540   3.874   0.656 -0.0207 -0.4997 -0.2972
  100MPD2    H5 1565   4.444   3.898   0.634  0.0780  1.2864  1.1941
  100MPD2    N1 1566   4.350   3.949   1.086  0.5750  0.2193 -0.6033
  100MPD2    H7 1567   4.266   3.968   1.032 -0.2226  2.0533  1.2475
  101TMC2    C1 1568   0.322   4.485  13.322  0.3665  0.1482  0.6556
  101TMC2    C2 1569   0.293   4.480  13.457 -0.3498  0.6775  0.1681
  101TMC2    C3 1570   0.273   4.605  13.519  0.3859  0.3112  0.4746
  101TMC2    C4 1571   0.339   4.594  13.250 -0.5028  0.1995  0.5806
  101TMC2    C5 1572   0.329   4.712  13.316 -0.1007 -0.4775  0.0995
  101TMC2    C6 1573   0.303   4.717  13.452  0.1478  0.0237  0.1329
  101TMC2     C 1574   0.359   4.358  13.267  0.5598  0.1600  0.7241
  101TMC2     O 1575   0.348   4.260  13.337  0.0200 -0.4314  0.9069
  101TMC2     H 1576   0.270   4.387  13.508 -3.3895  2.0757  1.3707
  101TMC2    H1 1577   0.337   4.593  13.142 -0.6840  1.3538  0.5675
  101TMC2    H2 1578   0.291   0.071  13.512 -1.0280  0.7350 -1.1579
  101TMC2    C7 1579   0.302   0.100  13.244  0.0191  0.1085  0.2968
  101TMC2    C8 1580   0.248   4.607  13.666  0.3527  0.5801 -0.9509
  101TMC2    O1 1581   0.245   0.189  13.302 -0.0940  0.2489 -0.3328
  101TMC2    O2 1582   0.182   4.693  13.721  0.1633 -0.2905  0.0501
  101TMC2    O5 1583   0.287   4.488  13.725  0.0440 -0.0104 -0.1843
  101TMC2    H5 1584   0.350   4.435  13.672 -0.2267  0.1432 -0.6579
  102MPD2     C 1585   0.564   4.299  12.969  0.7083  0.4133 -0.4873
  102MPD2    C1 1586   0.474   4.264  13.067  0.3893 -0.1641  0.1934
  102MPD2    C2 1587   0.418   4.140  13.074  0.0809 -0.0823  0.8428
  102MPD2    C3 1588   0.450   4.052  12.978 -0.1300 -0.0066  0.3712
  102MPD2    C4 1589   0.546   4.077  12.878 -0.0654  0.1952  0.8206
  102MPD2    C5 1590   0.600   4.199  12.878  0.3487  0.0915  0.1877
  102MPD2     H 1591   0.346   4.121  13.153  1.7168 -1.0038  2.1176
  102MPD2    H1 1592   0.586   4.010  12.803  0.1750  0.5254  0.6540
  102MPD2    H2 1593   0.616   4.392  12.945 -1.3987  1.5923 -0.4792
  102MPD2    H3 1594   0.679   4.221  12.807  2.0919 -0.8932  1.8229
  102MPD2     N 1595   0.382   3.932  12.995 -0.2125  0.7689 -0.1385
  102MPD2    H5 1596   0.314   3.931  13.071 -0.7598  1.6040 -0.6193
  102MPD2    N1 1597   0.430   4.371  13.146  0.0092  0.2118  0.2595
  102MPD2    H7 1598   0.468   4.460  13.113  0.1569 -0.4483 -1.3743
  103TMC2    C1 1599   3.856   4.716  12.158 -0.4854 -0.2602 -0.2144
  103TMC2    C2 1600   3.930   0.092  12.135 -0.4088 -0.4346 -0.1176
  103TMC2    C3 1601   3.992   0.145  12.239 -0.4456  0.6568  0.4798
  103TMC2    C4 1602   3.844   4.656  12.286 -0.1958  0.5612  0.1175
  103TMC2    C5 1603   3.917   4.708  12.388  0.2392  0.2892 -0.0554
  103TMC2    C6 1604   3.995   0.087  12.363  0.3333 -0.0850  0.7121
  103TMC2     C 1605   3.740   4.698  12.079 -0.3824  0.0252  0.1396
  103TMC2     O 1606   3.707   0.067  12.017 -0.4632 -0.2294  0.0442
  103TMC2     H 1607   3.930   0.145  12.041 -1.3675  1.0659  0.7333
  103TMC2    H1 1608   3.787   4.565  12.300  0.0796  0.2539 -0.7198
  103TMC2    H2 1609   4.031   0.147  12.446  0.9548 -1.1940  1.2400
  103TMC2    C7 1610   3.863   4.692  12.522  0.7237 -0.2643  0.4015
  103TMC2    C8 1611   4.066   0.275  12.218 -0.5925 -0.2470  0.2959
  103TMC2    O1 1612   3.766   4.620  12.527 -0.1891 -0.3095 -0.1114
  103TMC2    O2 1613   4.036   0.344  12.124  0.3244  0.2661  1.0046
  103TMC2    O5 1614   4.200   0.252  12.247  0.2144  0.2777  0.6470
  103TMC2    H5 1615   4.208   0.170  12.301 -1.7064  0.4808  1.2387
  104MPD2     C 1616   3.611   4.377  11.965 -0.1663 -0.3998  0.1008
  104MPD2    C1 1617   3.623   4.516  11.975 -0.1943 -0.5040  0.3059
  104MPD2    C2 1618   3.556   4.595  11.887 -0.0496 -0.0824  0.2301
  104MPD2    C3 1619   3.473   4.547  11.795 -0.3347  0.3928 -0.3134
  104MPD2    C4 1620   3.465   4.410  11.780  0.5847  0.0801 -0.1579
  104MPD2    C5 1621   3.526   4.325  11.873 -0.2060  0.6726  0.1773
  104MPD2     H 1622   3.574   4.701  11.881 -0.3012 -0.0125  0.7270
  104MPD2    H1 1623   3.411   4.358  11.701  1.2174 -1.2725  0.2954
  104MPD2    H2 1624   3.668   4.318  12.036  2.3647 -0.1449 -1.7517
  104MPD2    H3 1625   3.505   4.219  11.866  0.5646  0.5660 -0.5098
  104MPD2     N 1626   3.400   4.643  11.720  0.2442 -0.0731 -0.2395
  104MPD2    H5 1627   3.408   0.006  11.743  0.2066  0.0860 -0.9309
  104MPD2    N1 1628   3.718   4.563  12.061  0.3043  0.2178  0.2401
  104MPD2    H7 1629   3.787   4.495  12.091  1.4544  1.9922  1.6227
  105TMC2    C1 1630   4.342   4.307   0.163 -0.2245 -1.1587  0.6262
  105TMC2    C2 1631   4.243   4.293   0.065  0.2260 -0.0889  0.1990
  105TMC2    C3 1632   4.146   4.378   0.065  0.1145 -0.4824 -0.5035
  105TMC2    C4 1633   4.318   4.391   0.272  0.2302 -0.2515  0.1526
  105TMC2    C5 1634   4.204   4.462   0.277 -0.2794 -0.2296 -0.0961
  105TMC2    C6 1635   4.117   4.451   0.176  0.7322  0.4149  0.2485
  105TMC2     C 1636   4.456   4.224   0.156  0.0578 -0.3693  0.2060
  105TMC2     O 1637   4.476   4.150   0.255  0.0507 -0.3911  0.2445
  105TMC2     H 1638   4.259   4.209  17.741 -1.5863 -1.2443  1.2725
  105TMC2    H1 1639   4.401   4.389   0.342 -1.7806  0.8406  2.5290
  105TMC2    H2 1640   4.030   4.515   0.169 -0.1739 -0.8124  0.4383
  105TMC2    C7 1641   4.157   4.531   0.393  0.3944 -0.5705 -0.4075
  105TMC2    C8 1642   4.068   4.385  17.691  0.1076 -0.2316  0.9207
  105TMC2    O1 1643   4.036   4.554   0.403 -0.6079 -0.9616 -0.0244
  105TMC2    O2 1644   4.131   4.375  17.590  0.3020 -0.2747  0.4475
  105TMC2    O5 1645   3.962   4.307  17.722 -0.5911  0.3589  0.4578
  105TMC2    H5 1646   3.926   4.330   0.069 -0.2404  3.1124 -0.1139
  106MPD2     C 1647   0.054   3.929  17.655 -0.5776  0.4191  0.0516
  106MPD2    C1 1648   4.722   4.009  17.565 -0.0491  0.3554  0.0554
  106MPD2    C2 1649   4.626   4.107  17.607  0.3161  0.8449  0.5696
  106MPD2    C3 1650   4.601   4.123  17.735 -0.5749 -0.3172 -0.1774
  106MPD2    C4 1651   4.669   4.039   0.080 -0.8808 -0.6739 -0.5213
  106MPD2    C5 1652   0.006   3.926   0.041 -1.0127 -0.1258  0.1200
  106MPD2     H 1653   4.597   4.183  17.534  1.1314  1.4389  0.8660
  106MPD2    H1 1654   4.658   4.053   0.187 -0.0747 -1.1081 -0.3775
  106MPD2    H2 1655   0.117   3.848  17.620  1.2208  1.9237 -0.2017
  106MPD2    H3 1656   0.054   3.860   0.112 -3.4035 -2.0787 -0.0924
  106MPD2     N 1657   4.497   4.216   0.027  0.7923  0.1149 -0.7852
  106MPD2    H5 1658   4.464   4.281  17.698  1.6114 -0.0570 -1.3287
  106MPD2    N1 1659   0.008   4.010  17.425  0.4200  0.3456 -0.6239
  106MPD2    H7 1660   4.693   4.081  17.374 -0.9441 -2.2559 -2.8934
  107TMC2    C1 1661   0.247   3.723  11.519  0.0768 -0.5297  0.7311
  107TMC2    C2 1662   0.181   3.830  11.474  0.8083 -0.2319 -1.0444
  107TMC2    C3 1663   0.209   3.864  11.347 -0.3804  0.4231  0.5143
  107TMC2    C4 1664   0.334   3.641  11.445 -0.1196  0.0045 -0.1798
  107TMC2    C5 1665   0.367   3.690  11.323  1.2031 -0.1994 -0.2994
  107TMC2    C6 1666   0.300   3.796  11.269 -0.2121 -0.8032  0.1133
  107TMC2     C 1667   0.200   3.675  11.650  0.1007  0.5179 -0.3438
  107TMC2     O 1668   0.139   3.753  11.720 -0.1490  0.2070 -0.1628
  107TMC2     H 1669   0.110   3.879  11.539  2.3235 -0.5210  0.8011
  107TMC2    H1 1670   0.388   3.568  11.505 -1.4862  0.7941  1.9969
  107TMC2    H2 1671   0.318   3.832  11.169  0.1740  0.6103  0.6867
  107TMC2    C7 1672   0.426   3.593  11.238 -0.6035 -0.0796  0.2877
  107TMC2    C8 1673   0.145   3.975  11.274 -0.2387  0.2819 -0.3000
  107TMC2    O1 1674   0.453   3.491  11.294  0.0639  0.6871 -0.1586
  107TMC2    O2 1675   0.147   3.987  11.157 -0.5897  0.2291 -0.6866
  107TMC2    O5 1676   0.102   4.070  11.360 -0.2473  0.0240 -0.0554
  107TMC2    H5 1677   0.115   4.057  11.456 -0.9543  0.1233  0.0590
  108MPD2     C 1678   0.223   3.330  11.768 -0.3161  0.2647  0.1701
  108MPD2    C1 1679   0.181   3.460  11.775 -0.1162  0.1513  0.3139
  108MPD2    C2 1680   0.123   3.507  11.892 -0.5889 -0.0379 -0.0993
  108MPD2    C3 1681   0.120   3.421  12.001 -0.0911  0.3227 -0.0002
  108MPD2    C4 1682   0.181   3.302  12.001 -0.1968 -0.1894 -0.0397
  108MPD2    C5 1683   0.230   3.256  11.882  1.2801  0.0046 -0.0826
  108MPD2     H 1684   0.081   3.607  11.895 -0.8088 -0.0926 -1.6099
  108MPD2    H1 1685   0.182   3.237  12.087  2.1933 -1.4218 -1.0055
  108MPD2    H2 1686   0.275   3.298  11.679  0.5422  3.0629 -0.3417
  108MPD2    H3 1687   0.278   3.158  11.886  0.5346 -0.3369  0.5293
  108MPD2     N 1688   0.066   3.459  12.126 -0.1317  0.0663 -0.1039
  108MPD2    H5 1689   0.085   3.403  12.208  1.9401  0.0851 -0.5801
  108MPD2    N1 1690   0.210   3.542  11.664 -0.4436  0.1375 -0.1153
  108MPD2    H7 1691   0.255   3.485  11.593 -1.1922 -1.5645  0.7467
  109TMC2    C1 1692   4.421   0.803   0.236 -0.4700 -1.1499 -0.5794
  109TMC2    C2 1693   4.396   0.683   0.175  0.4977 -0.5615 -0.1984
  109TMC2    C3 1694   4.495   0.631   0.102  0.1637 -0.6938  0.8922
  109TMC2    C4 1695   4.539   0.867   0.226  1.2528 -0.3584  0.6796
  109TMC2    C5 1696   4.640   0.804   0.159  0.0784 -0.5104  0.5484
  109TMC2    C6 1697   4.620   0.685   0.097 -0.0796  0.6634 -0.4222
  109TMC2     C 1698   4.335   0.833   0.349 -0.7708  0.1969 -0.6969
  109TMC2     O 1699   4.218   0.842   0.319 -0.2407 -0.0750  0.1252
  109TMC2     H 1700   4.302   0.630   0.184  0.1309  0.3677  1.4130
  109TMC2    H1 1701   4.553   0.961   0.278  0.9218 -0.3051  0.6756
  109TMC2    H2 1702   4.693   0.638   0.031  0.1831 -0.7139  0.8543
  109TMC2    C7 1703   0.033   0.847   0.205 -0.4391 -0.5173 -0.4551
  109TMC2    C8 1704   4.474   0.518   0.021 -0.3126 -0.2694 -0.4617
  109TMC2    O1 1705   0.055   0.965   0.223 -0.2601  0.1922  0.9207
  109TMC2    O2 1706   4.551   0.492  17.673  0.2323 -0.3596  0.2908
  109TMC2    O5 1707   4.431   0.430   0.111 -0.3763  0.6489 -0.0985
  109TMC2    H5 1708   4.418   0.467   0.200 -3.5036 -0.3940 -0.1262
  110MPD2     C 1709   4.281   1.075   0.805  0.1928 -0.1368  0.0508
  110MPD2    C1 1710   4.416   1.045   0.787  0.2026 -0.7873 -0.4367
  110MPD2    C2 1711   4.458   0.970   0.677  0.3782 -0.9393  0.2324
  110MPD2    C3 1712   4.358   0.941   0.582 -0.8515 -0.0567 -0.1191
  110MPD2    C4 1713   4.225   0.973   0.602  0.0250 -0.3882 -0.4706
  110MPD2    C5 1714   4.179   1.042   0.710  0.3178 -0.2690 -0.5149
  110MPD2     H 1715   4.560   0.952   0.645  0.2521 -0.3596 -0.4978
  110MPD2    H1 1716   4.163   0.962   0.514 -3.6331 -1.8869  2.3078
  110MPD2    H2 1717   4.252   1.130   0.894 -1.6941 -2.1634  0.6873
  110MPD2    H3 1718   4.082   1.089   0.714  0.4996 -0.0622  1.4744
  110MPD2     N 1719   4.402   0.876   0.461  0.6784 -0.4570  0.1542
  110MPD2    H5 1720   4.501   0.858   0.463  0.6984 -0.1538  1.7489
  110MPD2    N1 1721   4.503   1.084   0.888  0.3872 -0.4098  0.3208
  110MPD2    H7 1722   4.462   1.141   0.962  1.4243  0.4939  0.2193
  111TMC2    C1 1723   0.519   0.623  11.460 -0.1337 -0.3609  0.1958
  111TMC2    C2 1724   0.565   0.524  11.384 -0.0507 -0.4415  0.2786
  111TMC2    C3 1725   0.642   0.433  11.439 -0.1148  0.4894 -0.4792
  111TMC2    C4 1726   0.561   0.647  11.589  0.0510  0.9164  0.3768
  111TMC2    C5 1727   0.633   0.546  11.640  0.0665  0.2494 -0.4694
  111TMC2    C6 1728   0.678   0.436  11.570 -0.0321  0.6515  0.3999
  111TMC2     C 1729   0.438   0.719  11.397 -0.1581 -0.2744 -0.0054
  111TMC2     O 1730   0.468   0.743  11.277  0.2560  0.3020 -0.4929
  111TMC2     H 1731   0.526   0.509  11.284 -0.3666  1.3391  0.1416
  111TMC2    H1 1732   0.523   0.736  11.638 -1.2184  1.7747 -2.1789
  111TMC2    H2 1733   0.738   0.364  11.625  0.8021  1.7277  0.9150
  111TMC2    C7 1734   0.697   0.564  11.766 -0.3671  0.4106 -0.4278
  111TMC2    C8 1735   0.648   0.307  11.371  0.5837 -0.4054 -0.5274
  111TMC2    O1 1736   0.728   0.456  11.816  0.0868 -0.2000  0.0683
  111TMC2    O2 1737   0.550   0.250  11.320 -0.3419  0.2425 -0.2245
  111TMC2    O5 1738   0.758   0.242  11.409 -0.0505  0.1743  0.6831
  111TMC2    H5 1739   0.824   0.300  11.454  0.8827 -0.0938 -0.3307
  112MPD2     C 1740   0.148   1.142  11.409 -0.3695  0.0208 -0.0473
  112MPD2    C1 1741   0.225   1.090  11.306  0.1770  0.2392  0.3083
  112MPD2    C2 1742   0.293   0.974  11.324 -0.0557 -0.1776  0.8604
  112MPD2    C3 1743   0.293   0.919  11.453 -0.4967 -0.0863  0.4919
  112MPD2    C4 1744   0.212   0.967  11.555  0.1673  0.0743 -0.0182
  112MPD2    C5 1745   0.133   1.072  11.527 -0.4085  0.3737 -0.6288
  112MPD2     H 1746   0.340   0.926  11.240 -1.0310  2.1003 -1.0066
  112MPD2    H1 1747   0.203   0.922  11.653  3.1608 -1.6336 -0.4982
  112MPD2    H2 1748   0.074   1.221  11.401 -1.1719 -0.7612 -0.3883
  112MPD2    H3 1749   0.068   1.113  11.604 -2.0110 -0.5082 -1.5000
  112MPD2     N 1750   0.355   0.794  11.478  0.6555 -0.1969  0.5358
  112MPD2    H5 1751   0.345   0.757  11.572  0.4445  0.2239  0.6755
  112MPD2    N1 1752   0.225   1.148  11.173  0.7046  0.1704  0.0945
  112MPD2    H7 1753   0.267   1.096  11.096 -0.6256 -0.7323 -0.0180
  113TMC2    C1 1754   3.050   3.141   0.770  0.6296  0.2196 -0.9206
  113TMC2    C2 1755   2.928   3.186   0.806 -0.8284  0.3733  0.3404
  113TMC2    C3 1756   2.839   3.101   0.864 -0.5526  0.4892  0.2399
  113TMC2    C4 1757   3.096   3.021   0.822  0.1695  0.1048  0.1634
  113TMC2    C5 1758   3.009   2.936   0.880  0.0819 -1.1500  0.5797
  113TMC2    C6 1759   2.875   2.974   0.903 -0.3016 -0.2120 -0.4567
  113TMC2     C 1760   3.151   3.236   0.730  0.5373 -0.0473  0.1878
  113TMC2     O 1761   3.135   3.355   0.753  0.4066 -0.1138  0.5587
  113TMC2     H 1762   2.898   3.283   0.768 -1.6124  0.0607  0.1601
  113TMC2    H1 1763   3.199   2.988   0.818 -0.3471 -1.4518 -0.4252
  113TMC2    H2 1764   2.805   2.914   0.959 -0.0145  0.0605  0.1991
  113TMC2    C7 1765   3.057   2.804   0.911  1.1774  0.4054 -0.2964
  113TMC2    C8 1766   2.726   3.157   0.932  0.5693  0.0896 -0.0209
  113TMC2    O1 1767   3.176   2.783   0.895  0.6031 -0.4951  0.3478
  113TMC2    O2 1768   2.681   3.264   0.887  0.2957 -0.2102 -0.0150
  113TMC2    O5 1769   2.757   3.142   1.067  0.2106 -0.0389 -0.3413
  113TMC2    H5 1770   2.808   3.059   1.076  0.5038 -0.0375 -1.9784
  114MPD2     C 1771   3.630   3.346   0.573 -1.0676  0.0163  0.0729
  114MPD2    C1 1772   3.530   3.430   0.603  0.1734 -0.5417 -0.6551
  114MPD2    C2 1773   3.401   3.382   0.635  0.2114  0.2834  0.3823
  114MPD2    C3 1774   3.378   3.242   0.644  0.1050  0.1494 -0.2219
  114MPD2    C4 1775   3.491   3.158   0.620 -0.4271  0.5728  0.0292
  114MPD2    C5 1776   3.614   3.207   0.595 -0.3763 -0.3406  0.1557
  114MPD2     H 1777   3.324   3.456   0.650  0.7010  0.6663  0.9918
  114MPD2    H1 1778   3.491   3.050   0.617  0.8658  0.5358  1.8089
  114MPD2    H2 1779   3.733   3.378   0.564 -0.7321 -1.0668 -0.0340
  114MPD2    H3 1780   3.689   3.136   0.564  1.0482  0.5672  1.5274
  114MPD2     N 1781   3.255   3.180   0.664 -0.2429  0.3027  0.1550
  114MPD2    H5 1782   3.254   3.079   0.651  1.1780  0.4334 -0.9600
  114MPD2    N1 1783   3.550   3.567   0.621  0.0764 -0.3885  0.0270
  114MPD2    H7 1784   3.465   3.619   0.640  2.2048  2.5420  1.4485
  115TMC2    C1 1785   4.332   1.111  17.717  0.0330  0.1775 -0.1982
  115TMC2    C2 1786   4.462   1.080  17.696 -0.2225 -0.6223 -0.8665
  115TMC2    C3 1787   4.544   1.169  17.640  0.6458  0.1777  0.7200
  115TMC2    C4 1788   4.288   1.241  17.688 -0.7826 -0.5806 -0.6431
  115TMC2    C5 1789   4.376   1.334  17.634 -0.1903  0.5533 -0.3303
  115TMC2    C6 1790   4.505   1.299  17.607 -0.0724  0.4908 -0.2333
  115TMC2     C 1791   4.246   0.995  17.720  0.3926 -0.6917 -0.0559
  115TMC2     O 1792   4.297   0.886  17.694 -0.0475 -0.3146  0.2537
  115TMC2     H 1793   4.504   0.984  17.721 -1.6726 -0.7568  1.1112
  115TMC2    H1 1794   4.193   1.273  17.730 -1.6814 -1.4783 -1.9976
  115TMC2    H2 1795   4.582   1.368  17.577 -2.1165  2.5909 -0.6592
  115TMC2    C7 1796   4.328   1.463  17.593 -0.7853  0.6954  0.3357
  115TMC2    C8 1797   4.683   1.132  17.626  0.3383 -0.7534  0.1945
  115TMC2    O1 1798   4.215   1.493  17.627  0.4214  0.0539  0.1693
  115TMC2    O2 1799   4.718   1.017  17.603  0.5193 -0.3505  0.9742
  115TMC2    O5 1800   0.027   1.229  17.668  0.4788 -0.0648 -0.7041
  115TMC2    H5 1801   4.717   1.299  17.719 -0.3938  1.5658 -3.7205
  116MPD2     C 1802   3.758   0.821  17.727  0.0397 -0.0184 -0.8172
  116MPD2    C1 1803   3.865   0.769  17.659  0.0805 -0.0137 -0.1314
  116MPD2    C2 1804   3.992   0.828  17.683 -0.1461  0.1679 -0.3375
  116MPD2    C3 1805   3.999   0.949   0.011 -0.3870 -0.0724 -0.1407
  116MPD2    C4 1806   3.884   1.000   0.072 -0.2615 -0.6125  0.3332
  116MPD2    C5 1807   3.762   0.934   0.062 -0.3692  0.0925 -0.5418
  116MPD2     H 1808   4.079   0.794  17.628 -0.1791  0.1898 -0.4036
  116MPD2    H1 1809   3.887   1.095   0.125 -0.2917 -1.2817  1.5204
  116MPD2    H2 1810   3.664   0.768  17.719 -0.1018 -0.3838  2.9350
  116MPD2    H3 1811   3.680   0.995   0.095 -0.7886 -0.8202  0.1212
  116MPD2     N 1812   4.117   1.027   0.018 -0.1903  0.5682  0.3111
  116MPD2    H5 1813   4.093   1.117   0.059 -2.3855 -0.0381  0.3621
  116MPD2    N1 1814   3.830   0.684  17.553  0.2528  0.8270  0.2949
  116MPD2    H7 1815   3.731   0.670  17.539  0.4063 -0.6471  0.7047
  117TMC2    C1 1816   2.535   2.124  14.196 -0.4893  0.2994 -0.1907
  117TMC2    C2 1817   2.575   2.084  14.320 -0.2305  0.4325  0.6745
  117TMC2    C3 1818   2.647   2.177  14.395 -0.9848  0.0686  0.0144
  117TMC2    C4 1819   2.571   2.250  14.142  0.2443 -0.0025  0.0011
  117TMC2    C5 1820   2.624   2.343  14.226  0.5662 -0.3439 -0.0331
  117TMC2    C6 1821   2.653   2.310  14.358 -0.1131  0.4524  0.0361
  117TMC2     C 1822   2.495   2.027  14.093  0.5638 -0.1250  0.1147
  117TMC2     O 1823   2.531   1.911  14.117  0.1473  0.0585 -0.3131
  117TMC2     H 1824   2.566   1.979  14.347 -0.4676  0.6354  1.3794
  117TMC2    H1 1825   2.583   2.274  14.037 -0.0908 -3.3752 -0.8207
  117TMC2    H2 1826   2.696   2.390  14.418 -2.6715  2.0634 -0.2941
  117TMC2    C7 1827   2.628   2.493  14.189  0.4666  0.2100 -0.6821
  117TMC2    C8 1828   2.651   2.155  14.538  0.2687  0.3653 -0.1131
  117TMC2    O1 1829   2.709   2.562  14.246 -0.0074 -0.3139 -0.6575
  117TMC2    O2 1830   2.659   2.249  14.614  0.1896  0.1463 -0.3190
  117TMC2    O5 1831   2.641   2.026  14.576  0.8109 -0.4969  0.0904
  117TMC2    H5 1832   2.628   1.959  14.505  3.2212 -0.5256 -0.3121
  118MPD2     C 1833   2.327   2.677  14.060 -0.7206 -0.3085  0.1522
  118MPD2    C1 1834   2.455   2.658  14.116  0.4562  0.2059 -0.2413
  118MPD2    C2 1835   2.525   2.775  14.152  0.1372  0.2358 -0.3897
  118MPD2    C3 1836   2.468   2.901  14.134  0.1007 -0.7230 -0.2350
  118MPD2    C4 1837   2.343   2.913  14.077  0.4017 -0.1004 -1.0348
  118MPD2    C5 1838   2.269   2.800  14.049 -0.0819  0.1429 -0.1866
  118MPD2     H 1839   2.624   2.783  14.197 -0.1010  0.4758  0.0961
  118MPD2    H1 1840   2.296   3.009  14.060  0.3666 -0.0582 -0.6994
  118MPD2    H2 1841   2.266   2.590  14.040 -4.1431  2.4035 -1.1747
  118MPD2    H3 1842   2.170   2.797  14.005 -0.2254 -0.9758  0.2062
  118MPD2     N 1843   2.532   3.015  14.177 -0.1623 -0.5297 -0.4230
  118MPD2    H5 1844   2.476   3.100  14.171 -3.0514 -2.4469 -0.7485
  118MPD2    N1 1845   2.505   2.528  14.137  0.0296 -0.2141  0.1660
  118MPD2    H7 1846   2.446   2.448  14.113 -0.2772  0.1045 -0.1446
  119TMC2    C1 1847   1.003   3.748  12.930  0.4525 -0.1523 -0.2519
  119TMC2    C2 1848   1.033   3.716  12.801 -0.1044 -0.5466  0.5886
  119TMC2    C3 1849   0.945   3.640  12.741 -0.4289  0.3355  0.2081
  119TMC2    C4 1850   0.902   3.698  13.000 -0.0915 -0.3430  0.5794
  119TMC2    C5 1851   0.809   3.621  12.931 -0.8511  0.4192 -0.6151
  119TMC2    C6 1852   0.832   3.594  12.799 -0.6682  0.9420 -0.2367
  119TMC2     C 1853   1.101   3.821  13.005 -0.3765 -0.1267 -0.1674
  119TMC2     O 1854   1.057   3.866  13.113  0.3094  0.2355 -0.3716
  119TMC2     H 1855   1.091   3.775  12.731  0.0345 -0.1119  1.0685
  119TMC2    H1 1856   0.898   3.725  13.105  0.3439  0.3036  0.4336
  119TMC2    H2 1857   0.762   3.537  12.739 -0.6569 -0.4434  1.0773
  119TMC2    C7 1858   0.686   3.568  12.988 -1.0495  0.2892  1.0224
  119TMC2    C8 1859   0.951   3.635  12.605  0.0058  0.3379  0.0520
  119TMC2    O1 1860   0.597   3.530  12.912  0.1350 -0.2356  0.0689
  119TMC2    O2 1861   1.052   3.606  12.549 -0.0826 -0.2358  0.0650
  119TMC2    O5 1862   0.829   3.647  12.553  0.5586 -0.2036 -0.4155
  119TMC2    H5 1863   0.761   3.693  12.606  0.9523 -2.0201  1.6877
  120MPD2     C 1864   1.597   3.964  13.099  0.2956  0.1490  0.0028
  120MPD2    C1 1865   1.484   3.956  13.185 -0.2448  0.4842  0.5436
  120MPD2    C2 1866   1.357   3.906  13.139 -0.5909  0.2645  0.6601
  120MPD2    C3 1867   1.348   3.871  13.007  0.0762  0.0500 -0.7049
  120MPD2    C4 1868   1.457   3.873  12.924  0.2056  0.0836 -0.1707
  120MPD2    C5 1869   1.581   3.916  12.973 -0.2924  0.3361  0.1487
  120MPD2     H 1870   1.269   3.897  13.201  0.3395 -1.4186  1.7372
  120MPD2    H1 1871   1.448   3.829  12.825  2.3618 -2.1456  0.5980
  120MPD2    H2 1872   1.698   3.987  13.131  0.8013 -1.0366 -0.7438
  120MPD2    H3 1873   1.660   3.918  12.900  1.4357  2.3343  2.0462
  120MPD2     N 1874   1.227   3.828  12.948  0.2081  0.2076  0.2042
  120MPD2    H5 1875   1.234   3.796  12.852 -0.5229 -0.5670  0.4190
  120MPD2    N1 1876   1.509   3.997  13.322  0.5382  0.0772  0.2542
  120MPD2    H7 1877   1.594   4.052  13.331  1.3724 -1.4343  1.7459
  121TMC2    C1 1878   2.570   0.627  14.409 -0.1528  0.4968 -0.2115
  121TMC2    C2 1879   2.557   0.677  14.536  0.3148 -0.1096  0.1808
  121TMC2    C3 1880   2.458   0.630  14.624 -0.2451  0.8932 -0.3455
  121TMC2    C4 1881   2.487   0.528  14.369 -0.8975  0.3103  0.0596
  121TMC2    C5 1882   2.386   0.480  14.453 -0.1565 -0.1512  0.0214
  121TMC2    C6 1883   2.365   0.532  14.577  0.4202  0.0713  0.0231
  121TMC2     C 1884   2.686   0.671  14.339 -0.1115  0.4160  0.0278
  121TMC2     O 1885   2.773   0.737  14.399 -0.0956  0.4392 -0.5104
  121TMC2     H 1886   2.631   0.748  14.572  0.4985  0.2565 -0.9088
  121TMC2    H1 1887   2.491   0.488  14.268 -0.9811  0.2939  0.0625
  121TMC2    H2 1888   2.275   0.504  14.630  0.6832  0.7291  0.8120
  121TMC2    C7 1889   2.301   0.372  14.410 -0.3915  0.4128 -0.1641
  121TMC2    C8 1890   2.404   0.723  14.716  0.5164 -0.2272  0.0539
  121TMC2    O1 1891   2.361   0.292  14.338 -0.2070  0.6126 -0.2452
  121TMC2    O2 1892   2.285   0.723  14.743 -0.4688  0.5333  0.4813
  121TMC2    O5 1893   2.504   0.807  14.759  0.2047  0.5808  0.3945
  121TMC2    H5 1894   2.589   0.760  14.750  0.0085  0.1956  0.5176
  122MPD2     C 1895   2.897   0.632  14.155  0.3606 -0.2849  0.6388
  122MPD2    C1 1896   2.770   0.664  14.116  0.6423  0.0293  0.0505
  122MPD2    C2 1897   2.745   0.689  13.984 -0.3045 -0.2235  0.3541
  122MPD2    C3 1898   2.850   0.708  13.894  0.5758 -0.2850 -0.6135
  122MPD2    C4 1899   2.983   0.680  13.936  0.1246  0.0428  0.1184
  122MPD2    C5 1900   3.001   0.637  14.065  0.7656  0.3231 -0.2129
  122MPD2     H 1901   2.640   0.712  13.966  0.9615  1.6385 -4.7531
  122MPD2    H1 1902   3.057   0.669  13.858 -0.9193 -1.5287 -0.6568
  122MPD2    H2 1903   2.920   0.608  14.258 -0.0049 -2.5167  0.2192
  122MPD2    H3 1904   3.100   0.605  14.096 -0.0319 -1.7916  0.1443
  122MPD2     N 1905   2.835   0.745  13.755 -0.7620  0.9648 -0.2175
  122MPD2    H5 1906   2.922   0.751  13.703  0.1211 -3.0668  0.7700
  122MPD2    N1 1907   2.665   0.660  14.205 -0.0510 -0.0711  0.6884
  122MPD2    H7 1908   2.570   0.650  14.169  0.0869 -1.2882  0.6656
  123TMC2    C1 1909   0.549   4.350  10.244  0.8503 -0.0412 -0.0513
  123TMC2    C2 1910   0.514   4.453  10.326  0.1316  0.4356  0.9227
  123TMC2    C3 1911   0.604   4.534  10.386 -0.6816  0.2158 -0.2810
  123TMC2    C4 1912   0.684   4.329  10.218 -0.1725  0.0521  0.0291
  123TMC2    C5 1913   0.775   4.414  10.272  0.2705  0.3250  0.3149
  123TMC2    C6 1914   0.735   4.521  10.349 -0.5227 -0.2975  0.3791
  123TMC2     C 1915   0.459   4.311  10.133  0.2869 -0.0085  0.4946
  123TMC2     O 1916   0.401   4.408  10.088  0.1856  0.1312 -0.0905
  123TMC2     H 1917   0.412   4.486  10.341 -0.2291 -0.3904  0.3573
  123TMC2    H1 1918   0.714   4.251  10.149  1.9683  1.3475 -0.5014
  123TMC2    H2 1919   0.803   4.595  10.388 -1.5491  0.5526  0.5426
  123TMC2    C7 1920   0.915   4.414  10.232 -0.2280 -1.1579 -0.5455
  123TMC2    C8 1921   0.568   4.658  10.450 -0.4681 -0.5605 -0.0330
  123TMC2    O1 1922   0.972   4.523  10.242  0.4421  0.5586 -0.2484
  123TMC2    O2 1923   0.619   0.031  10.417 -0.3046  0.7130  0.2192
  123TMC2    O5 1924   0.462   4.636  10.530 -0.0537 -0.6696  0.1590
  123TMC2    H5 1925   0.455   4.543  10.558 -2.6741 -0.0656  1.4691
  124MPD2     C 1926   0.322   4.031   9.723  0.1868 -0.2084  0.9286
  124MPD2    C1 1927   0.392   3.953   9.812  0.2815 -0.2241  0.3597
  124MPD2    C2 1928   0.449   4.004   9.928 -0.3636  0.1984 -0.1143
  124MPD2    C3 1929   0.428   4.140   9.954 -0.3337  0.2289 -0.2252
  124MPD2    C4 1930   0.360   4.220   9.868 -0.0374  0.0201  0.1303
  124MPD2    C5 1931   0.313   4.168   9.753  0.1105 -0.2172 -0.3866
  124MPD2     H 1932   0.499   3.942  10.001 -1.8542  3.3223  3.6056
  124MPD2    H1 1933   0.323   4.319   9.887  3.2626  1.0052  1.4918
  124MPD2    H2 1934   0.281   3.991   9.631  1.6492 -1.0443  0.6398
  124MPD2    H3 1935   0.255   4.230   9.686  2.0580  0.5317 -1.3805
  124MPD2     N 1936   0.477   4.187  10.083  0.6894 -0.3391  0.0925
  124MPD2    H5 1937   0.531   4.124  10.141  0.6771  0.0491  0.5197
  124MPD2    N1 1938   0.398   3.815   9.778  0.7082  0.2335 -0.5484
  124MPD2    H7 1939   0.372   3.795   9.682  2.8737  0.9044 -1.2844
  125TMC2    C1 1940   1.277   1.348   9.611 -0.4744  0.1069  0.6599
  125TMC2    C2 1941   1.228   1.361   9.739 -0.0750  0.4816 -0.2176
  125TMC2    C3 1942   1.244   1.491   9.796 -0.9831 -0.4698  0.1810
  125TMC2    C4 1943   1.363   1.445   9.555 -0.8874  0.2502 -0.2689
  125TMC2    C5 1944   1.384   1.564   9.627  0.5566 -0.4992 -0.6316
  125TMC2    C6 1945   1.331   1.584   9.749 -0.6827 -0.1275 -0.0999
  125TMC2     C 1946   1.310   1.211   9.568 -0.0564 -0.3422  0.1762
  125TMC2     O 1947   1.266   1.115   9.636 -0.6579 -0.1256 -0.1589
  125TMC2     H 1948   1.176   1.274   9.778  0.8536  0.0208 -0.0047
  125TMC2    H1 1949   1.414   1.430   9.461  1.7047 -1.5801  1.4218
  125TMC2    H2 1950   1.347   1.678   9.802 -2.2493  1.0825 -1.7534
  125TMC2    C7 1951   1.456   1.668   9.571  0.6945 -0.7777  0.0988
  125TMC2    C8 1952   1.163   1.531   9.912 -0.1260 -0.5144 -0.2877
  125TMC2    O1 1953   1.426   1.780   9.609  0.1158  0.0888  0.6729
  125TMC2    O2 1954   1.190   1.621   9.988 -0.2203 -0.3307 -0.8305
  125TMC2    O5 1955   1.050   1.454   9.916  0.0087 -0.2189  0.1013
  125TMC2    H5 1956   1.061   1.378   9.855  0.0917  0.5085 -0.8006
  126MPD1     C 1957   1.434   0.849   9.222 -0.4409  0.1828 -0.0345
  126MPD1    C1 1958   1.391   0.956   9.146  0.1719  0.0670  0.2827
  126MPD1    C2 1959   1.361   1.074   9.217  0.2866 -0.8547  0.3500
  126MPD1    C3 1960   1.356   1.074   9.358  0.1199 -0.4722 -0.1920
  126MPD1    C4 1961   1.398   0.957   9.423 -0.3488 -0.3957  0.6182
  126MPD1    C5 1962   1.434   0.849   9.353 -0.0625 -0.3257  0.1291
  126MPD1     H 1963   1.322   1.160   9.164 -0.3267 -0.1201  2.0063
  126MPD1    H1 1964   1.402   0.939   9.530  0.0050 -0.9061  0.5172
  126MPD1    H2 1965   1.466   0.758   9.173  3.9373  1.4790  0.4272
  126MPD1    H3 1966   1.457   0.761   9.412 -0.8799 -1.4071 -1.1878
  126MPD1     N 1967   1.331   1.195   9.431  0.8430 -0.2914  0.2286
  126MPD1    H5 1968   1.329   1.277   9.372  2.0729 -1.5903 -1.6366
  126MPD1    N1 1969   1.406   0.952   9.007  0.1269 -0.4478 -0.1807
  126MPD1    H6 1970   1.404   0.862   8.960  2.1546 -0.5475 -0.1012
  126MPD1    H7 1971   1.329   1.001   8.962  0.1556 -0.1862  0.0570
  127TMC2    C1 1972   2.826   0.022   9.573  0.9298  0.2837 -0.2126
  127TMC2    C2 1973   2.910   4.678   9.647  0.2461 -0.1867 -0.6088
  127TMC2    C3 1974   2.850   4.573   9.709 -0.1982 -0.1627  0.8185
  127TMC2    C4 1975   2.689   4.736   9.563 -0.2277 -0.1089  0.2263
  127TMC2    C5 1976   2.643   4.630   9.630 -0.4013 -0.0872  0.2798
  127TMC2    C6 1977   2.722   4.542   9.701  0.6477  0.5477 -0.8822
  127TMC2     C 1978   2.880   0.141   9.506  0.0813  0.2892  0.3001
  127TMC2     O 1979   2.998   0.175   9.535 -0.2382  0.0632  0.6366
  127TMC2     H 1980   3.016   4.698   9.654  0.5703 -1.7087 -1.1689
  127TMC2    H1 1981   2.620   0.076   9.530  1.6329  1.5939  0.2465
  127TMC2    H2 1982   2.684   4.458   9.758 -2.5807  1.9071 -1.0244
  127TMC2    C7 1983   2.497   4.612   9.623 -0.4213 -0.0199 -0.8885
  127TMC2    C8 1984   2.942   4.479   9.779 -0.2392 -0.2256 -0.2602
  127TMC2    O1 1985   2.434   4.689   9.552 -0.0215 -0.0231 -0.3244
  127TMC2    O2 1986   3.036   4.424   9.719 -0.1272 -0.1761  0.0183
  127TMC2    O5 1987   2.889   4.460   9.898  0.0551 -0.0079  0.2097
  127TMC2    H5 1988   2.820   4.527   9.914 -2.3264 -2.0470 -1.6034
  128MPD2     C 1989   2.800   0.304   9.198 -0.1543 -0.6537 -0.3828
  128MPD2    C1 1990   2.846   0.293   9.326 -1.0216  0.2761  0.4745
  128MPD2    C2 1991   2.919   0.405   9.377 -0.4146 -1.2140  0.0224
  128MPD2    C3 1992   2.922   0.527   9.310 -0.1409 -1.2673 -0.0200
  128MPD2    C4 1993   2.866   0.535   9.186  0.0398  0.4020  0.6191
  128MPD2    C5 1994   2.818   0.420   9.124 -0.5983  0.0313  0.3687
  128MPD2     H 1995   2.958   0.388   9.477  0.5341 -1.5855 -0.4124
  128MPD2    H1 1996   2.865   0.619   9.117  0.6083  1.8334  2.3723
  128MPD2    H2 1997   2.740   0.224   9.155 -1.5611 -0.4733  1.2407
  128MPD2    H3 1998   2.766   0.424   9.028 -0.4888 -0.4634  0.2918
  128MPD2     N 1999   2.983   0.633   9.376 -0.3449  0.0028 -0.7545
  128MPD2    H5 2000   3.031   0.607   9.462 -0.1731  0.0736 -0.8270
  128MPD2    N1 2001   2.809   0.178   9.397 -0.1653 -0.3856  0.3128
  128MPD2    H7 2002   2.737   0.120   9.356 -0.6602 -0.9246  1.9134
  129TMC2    C1 2003   1.259   0.227   0.532 -0.2097 -0.9667  0.2569
  129TMC2    C2 2004   1.320   0.121   0.462 -0.5244 -0.1796 -0.0137
  129TMC2    C3 2005   1.398   0.035   0.529  0.2535  0.1373  0.5856
  129TMC2    C4 2006   1.277   0.230   0.667 -0.0765  0.5037 -0.3031
  129TMC2    C5 2007   1.351   0.138   0.727 -1.2654  1.1131 -0.0478
  129TMC2    C6 2008   1.413   0.037   0.664 -0.4896  0.1595  0.8148
  129TMC2     C 2009   1.138   0.284   0.475  0.1241 -0.2324 -0.4972
  129TMC2     O 2010   1.083   0.225   0.383  0.3487 -0.2699 -0.3225
  129TMC2     H 2011   1.301   0.103   0.357  0.3489  1.1120 -0.3983
  129TMC2    H1 2012   1.236   0.313   0.722 -2.9160 -0.2799 -1.2341
  129TMC2    H2 2013   1.455   4.682   0.707  0.5725  0.3180  0.1036
  129TMC2    C7 2014   1.322   0.119   0.866  0.3621 -0.1976 -0.2095
  129TMC2    C8 2015   1.465   4.669   0.459  0.7114  0.4493  0.1014
  129TMC2    O1 2016   1.223   0.171   0.914 -0.3416 -0.1033  0.7421
  129TMC2    O2 2017   1.488   4.559   0.506  0.6677 -0.5448 -0.1789
  129TMC2    O5 2018   1.501   4.714   0.341 -0.5069 -0.1627 -0.6461
  129TMC2    H5 2019   1.509   0.076   0.346  0.6338 -0.3191  0.4409
  130MPD2     C 2020   0.864   0.404   0.442 -0.2481  0.0275  0.4678
  130MPD2    C1 2021   0.958   0.451   0.535  1.1697 -0.3003  0.4887
  130MPD2    C2 2022   0.921   0.547   0.631 -0.5288 -0.0407 -0.1535
  130MPD2    C3 2023   0.785   0.578   0.641  0.0462 -1.5234 -0.9208
  130MPD2    C4 2024   0.697   0.523   0.553 -0.6781 -0.1094  1.0194
  130MPD2    C5 2025   0.732   0.442   0.451 -0.9345 -0.1514  0.6804
  130MPD2     H 2026   0.989   0.606   0.690 -0.9107  1.0264 -0.7819
  130MPD2    H1 2027   0.594   0.555   0.549 -1.1404 -1.8139 -0.9627
  130MPD2    H2 2028   0.888   0.323   0.374 -0.6972 -0.4114  0.8340
  130MPD2    H3 2029   0.662   0.410   0.375 -2.2514  2.1214  0.9284
  130MPD2     N 2030   0.755   0.677   0.736  0.5103 -0.0288 -1.1544
  130MPD2    H5 2031   0.830   0.727   0.782 -1.1293  0.2941  1.1810
  130MPD2    N1 2032   1.087   0.394   0.543  0.4704 -0.3518  0.0743
  130MPD2    H7 2033   1.149   0.424   0.617 -2.1436  0.1861  2.0815
  131TMC2    C1 2034   0.981   4.282   9.774  0.2598 -0.4158 -0.1425
  131TMC2    C2 2035   0.878   4.350   9.837 -0.2690  0.3670 -0.9889
  131TMC2    C3 2036   0.899   4.477   9.867  0.3859 -0.2876  0.2939
  131TMC2    C4 2037   1.093   4.353   9.728 -0.8141  0.1669  0.1344
  131TMC2    C5 2038   1.112   4.485   9.756 -0.4542 -0.3919  0.1812
  131TMC2    C6 2039   1.007   4.545   9.824 -0.1621 -0.3741  0.8264
  131TMC2     C 2040   0.948   4.146   9.738 -0.0154 -0.3206 -0.1151
  131TMC2     O 2041   0.845   4.104   9.790  0.6484  0.1104 -0.1158
  131TMC2     H 2042   0.781   4.311   9.865 -0.4038 -1.0388 -3.3932
  131TMC2    H1 2043   1.180   4.299   9.696 -0.5507  0.5699  0.1663
  131TMC2    H2 2044   1.019   4.650   9.850  1.1709 -0.6956  1.5149
  131TMC2    C7 2045   1.249   4.544   9.757 -0.0784  0.1754  0.7523
  131TMC2    C8 2046   0.778   4.561   9.868  0.9056  0.2547 -0.4919
  131TMC2    O1 2047   1.338   4.477   9.703 -0.2601 -0.9346 -0.0719
  131TMC2    O2 2048   0.712   4.571   9.970  0.3895 -0.1359 -0.4951
  131TMC2    O5 2049   0.727   4.518   9.750 -0.2089  0.1309  0.3385
  131TMC2    H5 2050   0.801   4.493   9.691 -0.0325  2.2504 -0.3322
  132MPD2     C 2051   1.118   3.910   9.506  0.2468 -0.3229  0.0550
  132MPD2    C1 2052   1.026   3.953   9.605  0.7817 -0.4167  0.1983
  132MPD2    C2 2053   0.932   3.862   9.649 -0.7250  0.8838  0.1985
  132MPD2    C3 2054   0.927   3.730   9.600 -0.2530  0.1209 -0.3777
  132MPD2    C4 2055   1.018   3.696   9.500  0.0619 -0.5906 -0.2957
  132MPD2    C5 2056   1.112   3.783   9.454  0.5726  0.1925  0.6385
  132MPD2     H 2057   0.863   3.891   9.727  0.1953  1.4840  0.7819
  132MPD2    H1 2058   1.018   3.591   9.472  0.1887 -0.6370 -0.1208
  132MPD2    H2 2059   1.201   3.970   9.471 -0.1032 -0.8825 -1.7080
  132MPD2    H3 2060   1.187   3.746   9.386  0.0301  0.8799 -0.3217
  132MPD2     N 2061   0.824   3.655   9.654 -0.0808 -0.2135  0.0625
  132MPD2    H5 2062   0.757   3.710   9.708  1.8861  1.9421  0.3187
  132MPD2    N1 2063   1.040   4.085   9.659 -0.2301 -0.5123  0.5653
  132MPD2    H7 2064   1.118   4.142   9.626 -1.4541  1.3712  0.8962
  133TMC2    C1 2065   0.320   1.327   9.778 -0.4537 -0.6643  0.6660
  133TMC2    C2 2066   0.418   1.246   9.824  0.2923  0.8414 -0.0633
  133TMC2    C3 2067   0.525   1.306   9.888  0.3946  0.2365  0.1438
  133TMC2    C4 2068   0.324   1.458   9.803  0.2556 -0.5056  0.8611
  133TMC2    C5 2069   0.422   1.517   9.881  0.7566 -0.2501 -0.8706
  133TMC2    C6 2070   0.528   1.442   9.920  0.4982 -0.2859  0.2332
  133TMC2     C 2071   0.217   1.260   9.707 -0.8420 -0.8577  0.1084
  133TMC2     O 2072   0.182   1.144   9.738  0.0422 -0.5312 -0.1486
  133TMC2     H 2073   0.410   1.144   9.789 -0.0068  0.6573  0.5489
  133TMC2    H1 2074   0.243   1.517   9.762 -0.8213 -2.2658  0.4329
  133TMC2    H2 2075   0.610   1.473   9.984 -0.5679  1.2442  0.8263
  133TMC2    C7 2076   0.422   1.659   9.890  0.1100  0.2397  0.0472
  133TMC2    C8 2077   0.630   1.229   9.942  0.5198 -0.3727  0.1634
  133TMC2    O1 2078   0.325   1.727   9.855 -0.3185  0.5344  0.3400
  133TMC2    O2 2079   0.747   1.261   9.927 -0.8664  0.4033  0.1877
  133TMC2    O5 2080   0.582   1.108   9.989 -0.1324  0.3367  0.0107
  133TMC2    H5 2081   0.486   1.119  10.008 -0.9797 -2.1415 -2.8056
  134MPD2     C 2082   0.051   1.401   9.400 -0.0692 -0.5060  0.4905
  134MPD2    C1 2083   0.076   1.299   9.502  0.4955 -0.5202 -0.5147
  134MPD2    C2 2084   0.007   1.180   9.493 -0.6778 -0.4132  0.3133
  134MPD2    C3 2085   4.636   1.162   9.402  0.9314 -0.4172 -0.5354
  134MPD2    C4 2086   4.603   1.267   9.325  0.1717 -0.0169 -0.0358
  134MPD2    C5 2087   4.676   1.380   9.326 -0.0116  0.2126 -0.4480
  134MPD2     H 2088   0.025   1.095   9.557  1.4679  0.4610  0.8497
  134MPD2    H1 2089   4.516   1.252   9.262 -0.6688 -0.0544  1.1262
  134MPD2    H2 2090   0.117   1.487   9.402 -2.7890  1.5798 -0.3482
  134MPD2    H3 2091   4.635   1.465   9.274 -0.0880  0.9862  0.8594
  134MPD2     N 2092   4.566   1.035   9.388 -0.4909  0.2637 -0.3936
  134MPD2    H5 2093   4.493   1.024   9.319 -0.8870  1.3122 -0.1498
  134MPD2    N1 2094   0.172   1.335   9.598 -0.3093 -0.5115 -0.3169
  134MPD2    H7 2095   0.210   1.428   9.583 -0.7182 -0.5059 -1.2968
  135TMC2    C1 2096   1.812   1.976   9.679  0.1428  0.4764  0.1513
  135TMC2    C2 2097   1.729   1.995   9.791 -0.0238 -0.0110  0.2378
  135TMC2    C3 2098   1.679   1.882   9.840  0.3592  0.2613  0.0604
  135TMC2    C4 2099   1.865   1.856   9.645 -0.6251 -0.1280  0.4427
  135TMC2    C5 2100   1.822   1.746   9.717 -0.6363 -0.5176  0.5733
  135TMC2    C6 2101   1.725   1.755   9.818  0.0332 -0.0358 -0.4494
  135TMC2     C 2102   1.855   2.097   9.612  0.0406 -0.0468  0.0814
  135TMC2     O 2103   1.791   2.202   9.629 -0.6323 -0.2723  0.0343
  135TMC2     H 2104   1.705   2.095   9.825 -0.0298  0.9260 -2.5604
  135TMC2    H1 2105   1.932   1.837   9.562 -0.4134  2.0291  0.1283
  135TMC2    H2 2106   1.676   1.677   9.875 -0.1793  0.3548 -0.0970
  135TMC2    C7 2107   1.896   1.625   9.693 -0.7520 -0.5992  0.4325
  135TMC2    C8 2108   1.553   1.896   9.918 -0.4013 -0.2294  0.3949
  135TMC2    O1 2109   1.988   1.624   9.608 -0.2141 -0.0016 -0.1965
  135TMC2    O2 2110   1.496   1.815   9.990  0.2152 -0.6716  0.3425
  135TMC2    O5 2111   1.491   2.005   9.878  0.5779 -0.1248  0.0069
  135TMC2    H5 2112   1.527   2.046   9.796  0.1904  0.4097  0.1020
  136MPD2     C 2113   1.988   2.300   9.434  0.3833  0.1894  0.0142
  136MPD2    C1 2114   2.018   2.166   9.439  0.0493 -0.2519 -0.0904
  136MPD2    C2 2115   2.089   2.111   9.341 -0.3057 -0.3904 -0.0038
  136MPD2    C3 2116   2.142   2.179   9.237 -0.5852  0.7679  0.1182
  136MPD2    C4 2117   2.130   2.317   9.240 -0.1631  0.3225 -0.1289
  136MPD2    C5 2118   2.043   2.373   9.330 -0.2371  0.1330  0.3512
  136MPD2     H 2119   2.091   2.003   9.343  2.4148 -0.3025  1.8353
  136MPD2    H1 2120   2.175   2.377   9.162 -0.4679 -0.7416 -1.1293
  136MPD2    H2 2121   1.932   2.352   9.511  0.3326 -1.0704  0.8423
  136MPD2    H3 2122   2.026   2.480   9.321 -0.2783  0.0723 -0.2701
  136MPD2     N 2123   2.192   2.120   9.119 -0.7472  0.2638  0.0938
  136MPD2    H5 2124   2.224   2.185   9.048  1.3487 -0.5346  0.3001
  136MPD2    N1 2125   1.956   2.069   9.524  0.0041 -0.7902  0.5493
  136MPD2    H7 2126   1.998   1.977   9.518  1.6294  0.1086 -1.7864
  137TMC2    C1 2127   1.772   1.002   9.257  0.2392  0.2704  0.9729
  137TMC2    C2 2128   1.713   1.066   9.154 -0.0752  0.1336  0.3173
  137TMC2    C3 2129   1.652   1.187   9.169  0.0823  0.2382  0.6133
  137TMC2    C4 2130   1.772   1.057   9.384 -0.3984  0.8253  0.0850
  137TMC2    C5 2131   1.708   1.182   9.397 -0.4490 -0.0515 -0.4060
  137TMC2    C6 2132   1.645   1.242   9.288  0.0908  0.1323 -0.0593
  137TMC2     C 2133   1.850   0.886   9.212  0.2441 -0.4803 -0.2240
  137TMC2     O 2134   1.847   0.867   9.091 -0.4358 -0.5160  0.2923
  137TMC2     H 2135   1.699   1.013   9.061 -4.6395  0.8213  0.5753
  137TMC2    H1 2136   1.834   1.010   9.460 -2.6537  0.8030  1.9123
  137TMC2    H2 2137   1.600   1.341   9.292 -2.2764 -0.9646  0.4882
  137TMC2    C7 2138   1.679   1.230   9.528  1.1151 -0.0168 -0.5526
  137TMC2    C8 2139   1.600   1.254   9.052  0.7496  0.3005  0.4752
  137TMC2    O1 2140   1.666   1.350   9.544 -0.2590  0.1174  0.3517
  137TMC2    O2 2141   1.523   1.346   9.079  0.0836 -0.2034  0.1661
  137TMC2    O5 2142   1.691   1.250   8.957  0.3797  0.5471  0.1582
  137TMC2    H5 2143   1.747   1.171   8.971 -0.0192 -0.2718 -2.9215
  138MPD2     C 2144   2.012   0.635   9.186 -0.3056 -0.9767  0.0596
  138MPD2    C1 2145   1.995   0.708   9.307  0.8426  0.2304  0.1428
  138MPD2    C2 2146   2.055   0.651   9.419 -0.2787 -0.3126 -0.1642
  138MPD2    C3 2147   2.126   0.534   9.418 -0.1265  0.0988  0.2602
  138MPD2    C4 2148   2.140   0.465   9.304  0.1678 -0.1269  0.3209
  138MPD2    C5 2149   2.089   0.522   9.183  0.0182  0.5789  0.1687
  138MPD2     H 2150   2.026   0.701   9.510 -2.5471 -0.1633 -0.9756
  138MPD2    H1 2151   2.199   0.374   9.308 -0.6793 -0.6262  1.2687
  138MPD2    H2 2152   1.975   0.671   9.090 -1.0120  0.4756  0.8776
  138MPD2    H3 2153   2.109   0.477   9.086 -1.5278  1.0026 -0.3421
  138MPD2     N 2154   2.175   0.494   9.543 -0.6406 -0.7654 -0.1108
  138MPD2    H5 2155   2.162   0.559   9.620  0.9054 -0.5279 -0.0363
  138MPD2    N1 2156   1.911   0.825   9.317  0.8524  0.8883  0.0776
  138MPD2    H7 2157   1.890   0.859   9.411  0.0821 -0.3456  0.3482
  139TMC2    C1 2158   2.703   3.207  13.507 -0.4127 -0.3557 -0.6085
  139TMC2    C2 2159   2.785   3.295  13.443 -0.0766  0.5815  0.1398
  139TMC2    C3 2160   2.729   3.385  13.361 -0.3380  0.6965 -0.6225
  139TMC2    C4 2161   2.569   3.193  13.478 -0.1503 -0.9490  0.0197
  139TMC2    C5 2162   2.517   3.281  13.392 -0.4490  0.9016 -0.5170
  139TMC2    C6 2163   2.591   3.373  13.324  0.0042 -0.1319  0.3208
  139TMC2     C 2164   2.772   3.091  13.534  0.5571 -0.0937  0.5673
  139TMC2     O 2165   2.885   3.071  13.486  0.0763  0.4052 -0.0901
  139TMC2     H 2166   2.891   3.296  13.463  0.3062  0.5304 -1.9190
  139TMC2    H1 2167   2.508   3.126  13.536 -1.4600 -0.1742 -0.4697
  139TMC2    H2 2168   2.549   3.422  13.237  0.6177 -0.8784 -0.3969
  139TMC2    C7 2169   2.371   3.295  13.377  0.7984  0.7777  0.7063
  139TMC2    C8 2170   2.816   3.486  13.311 -0.1231  0.2552 -0.0669
  139TMC2    O1 2171   2.325   3.388  13.309 -0.2989 -0.0292  0.3398
  139TMC2    O2 2172   2.934   3.497  13.339 -0.2116 -0.2990  0.3897
  139TMC2    O5 2173   2.770   3.536  13.189 -0.3163  0.1089 -0.3368
  139TMC2    H5 2174   2.672   3.542  13.187 -0.2368  1.0797 -1.2081
  140MPD2     C 2175   2.660   2.849  13.788  0.5135  0.3147  0.1237
  140MPD2    C1 2176   2.745   2.900  13.692  0.1947  0.0743 -1.1640
  140MPD2    C2 2177   2.845   2.822  13.641 -0.3971  0.2062 -0.5740
  140MPD2    C3 2178   2.869   2.699  13.703 -0.0741  0.5302 -0.4623
  140MPD2    C4 2179   2.791   2.662  13.820  0.3033  0.0318  1.1022
  140MPD2    C5 2180   2.692   2.739  13.851  0.9251  0.2573 -0.1675
  140MPD2     H 2181   2.910   2.864  13.566  0.9757 -2.1098 -0.6809
  140MPD2    H1 2182   2.803   2.570  13.876  3.2588 -0.0522  0.3266
  140MPD2    H2 2183   2.566   2.898  13.812  0.2566  0.5913 -1.4188
  140MPD2    H3 2184   2.623   2.702  13.926  0.1228  0.1903 -0.9461
  140MPD2     N 2185   2.952   2.615  13.634  0.1141  0.4174 -0.3107
  140MPD2    H5 2186   2.985   2.653  13.546 -1.9854 -2.8173 -2.4778
  140MPD2    N1 2187   2.717   3.022  13.636 -0.1492 -0.4663  0.4616
  140MPD2    H7 2188   2.644   3.077  13.680 -0.0475  0.3932 -0.4345
  141TMC2    C1 2189   2.840   0.225  13.945  0.8985  0.5672 -0.1670
  141TMC2    C2 2190   2.703   0.210  13.918 -0.2665  0.2632  0.3160
  141TMC2    C3 2191   2.613   0.238  14.013 -0.2252 -0.3183  0.3115
  141TMC2    C4 2192   2.887   0.259  14.072 -0.8548 -0.2161  0.5953
  141TMC2    C5 2193   2.795   0.279  14.168 -0.9862 -0.4483  0.1370
  141TMC2    C6 2194   2.657   0.274  14.136 -0.7684  0.2194 -0.2015
  141TMC2     C 2195   2.922   0.146  13.859  0.0628  0.2526 -0.4933
  141TMC2     O 2196   2.865   0.089  13.766 -0.5383  0.4307  0.0870
  141TMC2     H 2197   2.654   0.181  13.825 -1.1237 -0.9822  1.1679
  141TMC2    H1 2198   2.994   0.273  14.089 -0.9907  0.3646  0.9768
  141TMC2    H2 2199   2.583   0.316  14.203  0.2660  1.4787  0.1344
  141TMC2    C7 2200   2.824   0.335  14.295  0.5946 -0.0619 -0.2211
  141TMC2    C8 2201   2.491   0.297  13.949  0.1845  0.2305  1.0051
  141TMC2    O1 2202   2.732   0.367  14.366 -0.3880  0.7026  0.2953
  141TMC2    O2 2203   2.499   0.362  13.845  0.3942 -0.5606 -0.0741
  141TMC2    O5 2204   2.393   0.304  14.043 -0.1544  0.3854 -0.1468
  141TMC2    H5 2205   2.401   0.234  14.111  0.0223  2.1465  1.6149
  142TMC2    C1 2206   1.160   3.555   9.782  0.6407 -0.1777 -0.0779
  142TMC2    C2 2207   1.273   3.557   9.707  0.0062 -0.7873  0.2135
  142TMC2    C3 2208   1.347   3.669   9.708  0.4994 -0.1159  0.4571
  142TMC2    C4 2209   1.124   3.661   9.865  0.5118 -0.5591 -0.8396
  142TMC2    C5 2210   1.200   3.774   9.862 -0.2076  0.2692  0.2832
  142TMC2    C6 2211   1.328   3.769   9.800  0.4236 -0.3222 -1.4104
  142TMC2     C 2212   1.110   3.417   9.807  0.1077 -0.0010 -0.0772
  142TMC2     O 2213   1.174   3.332   9.749  0.1908  0.0571 -0.2997
  142TMC2     H 2214   1.289   3.488   9.625  0.4119 -1.9113  1.2500
  142TMC2    H1 2215   1.026   3.652   9.909 -0.0307 -0.6789 -2.0547
  142TMC2    H2 2216   1.386   3.860   9.792 -2.1994  1.5666  0.9133
  142TMC2    C7 2217   1.158   3.888   9.944  0.2511 -0.3090 -0.4263
  142TMC2    C8 2218   1.476   3.645   9.647  0.0467  0.3490 -0.1189
  142TMC2    O1 2219   1.039   3.884   9.973 -0.6288  0.5310 -0.3936
  142TMC2    O2 2220   1.531   3.533   9.636  0.2141 -0.1160  0.1100
  142TMC2    O5 2221   1.546   3.759   9.660 -0.5110 -0.8356 -0.1726
  142TMC2    H5 2222   1.486   3.837   9.662  0.5395  0.0264 -2.0008
  143MPD2     C 2223   0.807   3.031   9.973 -0.1505  0.5186 -0.6763
  143MPD2    C1 2224   0.934   3.027   9.923 -0.0943 -0.1953 -0.2078
  143MPD2    C2 2225   1.003   3.150   9.896  0.1878  0.0110  0.3941
  143MPD2    C3 2226   0.951   3.270   9.931 -0.5992 -0.1853  0.2003
  143MPD2    C4 2227   0.829   3.265   9.991 -0.5405  0.2601  0.1202
  143MPD2    C5 2228   0.757   3.155  10.017  0.7865  0.3430  0.7911
  143MPD2     H 2229   1.103   3.143   9.855  0.0208  3.0038 -0.5041
  143MPD2    H1 2230   0.774   3.351  10.026  1.0447  1.9998 -1.6882
  143MPD2    H2 2231   0.749   2.943   9.998  0.8096  0.4242  1.2342
  143MPD2    H3 2232   0.655   3.159  10.055  0.8387 -0.4505  1.0155
  143MPD2     N 2233   1.009   3.397   9.901  0.0149 -0.5166  0.4973
  143MPD2    H5 2234   0.962   3.478   9.939 -0.5532 -0.2112 -0.8496
  143MPD2    N1 2235   0.990   2.898   9.904 -0.0967 -0.1612  0.4539
  143MPD2    H7 2236   0.944   2.812   9.931 -0.7184 -0.7940 -2.6628
  144TMC2    C1 2237   3.888   2.319   0.768  0.3027 -0.1718  0.2643
  144TMC2    C2 2238   4.006   2.270   0.725 -0.5726 -0.3990  0.2284
  144TMC2    C3 2239   4.128   2.324   0.758 -0.8320  0.3363  0.3951
  144TMC2    C4 2240   3.891   2.424   0.861 -0.6104 -0.8124  0.0925
  144TMC2    C5 2241   4.015   2.473   0.899 -1.2644 -0.8345  0.5103
  144TMC2    C6 2242   4.132   2.427   0.845  0.7349  0.5611 -0.5308
  144TMC2     C 2243   3.764   2.258   0.710  0.2902 -0.3158 -0.1429
  144TMC2     O 2244   3.775   2.148   0.658 -0.2128 -0.2144  0.0128
  144TMC2     H 2245   4.010   2.198   0.644  1.3721 -0.3968  0.3368
  144TMC2    H1 2246   3.803   2.474   0.900 -0.4636 -1.1584  0.8720
  144TMC2    H2 2247   4.222   2.468   0.888  0.2596  1.3077 -0.2522
  144TMC2    C7 2248   4.030   2.587   0.985 -0.6219 -0.2177 -0.5275
  144TMC2    C8 2249   4.238   2.302   0.666 -0.0419  0.4190 -0.3050
  144TMC2    O1 2250   4.131   2.597   1.051 -0.1396  0.3556  0.8559
  144TMC2    O2 2251   4.244   2.195   0.603  0.1589 -0.1288  0.9182
  144TMC2    O5 2252   4.241   2.420   0.604 -0.1356  0.3236 -0.1969
  144TMC2    H5 2253   4.216   2.497   0.660 -1.3290  0.0782 -0.3883
  145MPD2     C 2254   3.331   2.307   0.446 -0.3713  0.1728 -0.2135
  145MPD2    C1 2255   3.415   2.206   0.456 -0.7993 -0.0670  0.6255
  145MPD2    C2 2256   3.527   2.218   0.533 -0.5911  0.7782 -0.0853
  145MPD2    C3 2257   3.546   2.328   0.619  0.2834 -0.2876  0.3304
  145MPD2    C4 2258   3.454   2.433   0.608 -0.5102  0.7804 -0.5801
  145MPD2    C5 2259   3.352   2.422   0.513  0.6382 -0.7605  0.3234
  145MPD2     H 2260   3.604   2.143   0.523  0.6909  1.5908  3.7342
  145MPD2    H1 2261   3.461   2.518   0.676  0.5321  1.3915 -1.4587
  145MPD2    H2 2262   3.244   2.310   0.382 -0.1524  0.9907 -0.4687
  145MPD2    H3 2263   3.284   2.504   0.491  0.6795 -0.5481  0.9923
  145MPD2     N 2264   3.662   2.349   0.694  0.0082 -0.4006  0.1274
  145MPD2    H5 2265   3.681   2.444   0.722  1.2607 -1.3595  2.5081
  145MPD2    N1 2266   3.401   2.090   0.372 -0.2761 -0.1191  0.2406
  145MPD2    H7 2267   3.464   2.012   0.388  0.4927  0.7247  1.2148
  146TMC2    C1 2268   0.424   1.004  12.629 -0.1694  0.0234 -0.1888
  146TMC2    C2 2269   0.386   1.035  12.502 -0.3850 -0.0331 -1.0268
  146TMC2    C3 2270   0.462   0.989  12.403 -0.8163  0.1358  0.6349
  146TMC2    C4 2271   0.529   0.923  12.659 -0.5887  0.1673 -0.3193
  146TMC2    C5 2272   0.599   0.876  12.553  0.0545  0.1898  0.7120
  146TMC2    C6 2273   0.578   0.913  12.427  0.0509  0.0780  1.0828
  146TMC2     C 2274   0.338   1.075  12.727 -0.0279 -0.3410 -0.3774
  146TMC2     O 2275   0.248   1.145  12.687  0.2020  0.3098 -0.3402
  146TMC2     H 2276   0.312   1.107  12.471  0.2527  0.4410 -1.4518
  146TMC2    H1 2277   0.565   0.925  12.761  0.4135  2.7946 -0.7341
  146TMC2    H2 2278   0.651   0.882  12.354  0.7167  0.1779  1.6993
  146TMC2    C7 2279   0.735   0.833  12.583 -0.1787  0.6233  0.1030
  146TMC2    C8 2280   0.451   1.060  12.275 -0.5174 -0.1782 -0.9592
  146TMC2    O1 2281   0.821   0.864  12.508  0.1584 -0.3617 -0.1745
  146TMC2    O2 2282   0.392   1.167  12.277 -0.1542  0.6149 -0.2143
  146TMC2    O5 2283   0.455   0.973  12.170 -0.1420 -0.1676 -0.0886
  146TMC2    H5 2284   0.469   0.879  12.195 -1.2103  0.3763  2.5162
  147MPD2     C 2285   1.065   0.543  12.828  1.1117  0.9652 -0.5814
  147MPD2    C1 2286   0.939   0.510  12.882  0.7987 -0.7009 -0.3744
  147MPD2    C2 2287   0.834   0.583  12.833 -1.2186 -0.5642  0.0095
  147MPD2    C3 2288   0.852   0.685  12.737 -0.0804 -0.1206  0.5774
  147MPD2    C4 2289   0.980   0.726  12.705  0.2920  0.6460  0.1776
  147MPD2    C5 2290   1.088   0.652  12.748 -0.4476  0.3308 -0.2227
  147MPD2     H 2291   0.730   0.562  12.855 -0.2221 -2.1861  3.2359
  147MPD2    H1 2292   1.001   0.820  12.655  0.3689  0.8134  0.5248
  147MPD2    H2 2293   1.150   0.484  12.860  1.2327  1.6181  0.3002
  147MPD2    H3 2294   1.193   0.667  12.725 -0.6759  2.5552  0.2449
  147MPD2     N 2295   0.736   0.750  12.695  0.3484 -1.0215  0.3831
  147MPD2    H5 2296   0.649   0.720  12.739 -0.9682  0.4351 -1.2487
  147MPD2    N1 2297   0.929   0.407  12.978 -0.4516  0.1396 -0.0642
  147MPD2    H7 2298   1.009   0.347  12.999 -0.1978 -0.1185 -1.8308
  148TMC2    C1 2299   0.100   0.456  10.466 -0.2672  0.6566 -0.7971
  148TMC2    C2 2300   0.234   0.461  10.436  1.0098 -0.3131 -1.0359
  148TMC2    C3 2301   0.309   0.361  10.487 -0.4035 -0.4213  0.4437
  148TMC2    C4 2302   0.045   0.347  10.533 -0.3828  0.4759 -0.0853
  148TMC2    C5 2303   0.127   0.260  10.594  0.3184  0.3587 -0.0300
  148TMC2    C6 2304   0.265   0.264  10.576  0.7418  0.2126  0.1012
  148TMC2     C 2305   0.010   0.535  10.383  0.1809  0.0138  0.4825
  148TMC2     O 2306   0.042   0.653  10.362  0.0581  0.4538  0.4422
  148TMC2     H 2307   0.275   0.537  10.370 -1.5479  0.2372 -1.9608
  148TMC2    H1 2308   4.673   0.336  10.538 -0.0194 -3.2308 -0.2716
  148TMC2    H2 2309   0.333   0.196  10.627  0.3693  0.4957  0.9793
  148TMC2    C7 2310   0.070   0.128  10.620 -0.1412  0.0671 -0.2400
  148TMC2    C8 2311   0.444   0.347  10.435 -0.1699 -0.4984  0.4093
  148TMC2    O1 2312   4.700   0.093  10.566 -0.2133 -0.4684  0.1133
  148TMC2    O2 2313   0.508   0.442  10.398  0.1141 -0.5555  0.1882
  148TMC2    O5 2314   0.436   0.237  10.355 -0.3093  0.4955  0.0641
  148TMC2    H5 2315   0.367   0.174  10.385 -0.5113  1.0715  0.8035
  149MPD2     C 2316   4.493   0.642  10.262  0.3381  0.0140  0.1632
  149MPD2    C1 2317   4.532   0.512  10.264  0.3347 -0.0024 -0.7096
  149MPD2    C2 2318   4.451   0.419  10.199  0.7917  0.3877  0.0388
  149MPD2    C3 2319   4.322   0.447  10.149  0.3257  0.6374 -0.4875
  149MPD2    C4 2320   4.286   0.578  10.159 -0.0078 -0.0220  0.5836
  149MPD2    C5 2321   4.377   0.677  10.202 -0.2401 -0.5461 -0.1135
  149MPD2     H 2322   4.493   0.320  10.210 -0.3357 -0.3914 -2.7149
  149MPD2    H1 2323   4.189   0.607  10.121 -0.0024  0.0303  0.6097
  149MPD2    H2 2324   4.556   0.724  10.293  2.7565 -1.9390  0.4041
  149MPD2    H3 2325   4.346   0.780  10.217 -0.0242 -0.2272 -1.8381
  149MPD2     N 2326   4.233   0.347  10.105  0.5899  1.0366 -0.2766
  149MPD2    H5 2327   4.134   0.365  10.087  0.3409  0.7808  0.8595
  149MPD2    N1 2328   4.647   0.461  10.326  0.0755  0.1994  0.3367
  149MPD2    H7 2329   4.657   0.361  10.334  3.4263  0.3873 -1.3564
  150TMC2    C1 2330   2.368   3.620  12.087 -0.5349 -0.3241  0.0972
  150TMC2    C2 2331   2.340   3.726  12.006  0.3767  0.6577  0.2234
  150TMC2    C3 2332   2.436   3.819  11.987  0.9969 -0.1425 -0.3288
  150TMC2    C4 2333   2.493   3.609  12.149  0.1203 -0.0389 -0.2272
  150TMC2    C5 2334   2.592   3.704  12.122 -0.5636 -0.5727 -0.7200
  150TMC2    C6 2335   2.557   3.819  12.052 -0.7916  0.1365 -0.0488
  150TMC2     C 2336   2.270   3.511  12.105  0.2378 -0.0049 -0.2584
  150TMC2     O 2337   2.312   3.405  12.142  0.5894  0.2794  0.1350
  150TMC2     H 2338   2.266   3.717  11.928 -1.0182  1.3341  1.4706
  150TMC2    H1 2339   2.524   3.509  12.178 -2.2169 -0.1154  2.0833
  150TMC2    H2 2340   2.638   3.890  12.042  0.7585 -1.8057 -1.3190
  150TMC2    C7 2341   2.735   3.692  12.159  0.5612  0.3432  0.4327
  150TMC2    C8 2342   2.416   3.927  11.892  0.0893 -0.2953 -0.7497
  150TMC2    O1 2343   2.810   3.765  12.094  0.2549  0.7206 -0.1242
  150TMC2    O2 2344   2.507   4.001  11.859 -0.2245 -0.1015  0.7109
  150TMC2    O5 2345   2.283   3.957  11.886  0.9111 -0.1569  0.5372
  150TMC2    H5 2346   2.219   3.896  11.928 -0.7734  0.5085 -1.0559
  151MPD2     C 2347   1.825   3.288  12.013 -0.0150 -0.4571 -0.4320
  151MPD2    C1 2348   1.813   3.420  11.981  0.0007  0.4905 -0.0688
  151MPD2    C2 2349   1.918   3.507  12.007 -0.1837  0.1993 -0.3439
  151MPD2    C3 2350   2.037   3.455  12.046 -0.0666  0.6698  0.2024
  151MPD2    C4 2351   2.049   3.320  12.072 -1.1031 -0.5753  0.3164
  151MPD2    C5 2352   1.944   3.230  12.050 -0.4903  0.3147 -0.3604
  151MPD2     H 2353   1.912   3.615  12.001 -2.3455  0.1617  1.4693
  151MPD2    H1 2354   2.137   3.270  12.110 -1.1390 -0.0852  1.0386
  151MPD2    H2 2355   1.738   3.225  11.999 -2.2864  2.9118 -1.5638
  151MPD2    H3 2356   1.946   3.125  12.078  1.4370 -0.6948 -4.4377
  151MPD2     N 2357   2.145   3.550  12.060 -0.5311 -0.2928 -0.5487
  151MPD2    H5 2358   2.130   3.643  12.023 -0.1492  1.0775  2.8063
  151MPD2    N1 2359   1.687   3.458  11.924  0.5290  0.0213 -0.1574
  151MPD2    H7 2360   1.615   3.388  11.907 -0.8891  1.4726 -0.0339
  152TMC2    C1 2361   1.869   3.561  12.378 -0.1055 -0.4257 -0.2078
  152TMC2    C2 2362   1.903   3.451  12.440  0.9583 -0.3872  0.4251
  152TMC2    C3 2363   2.035   3.441  12.481 -0.4078  0.1966  0.1634
  152TMC2    C4 2364   1.945   3.672  12.378  0.0725 -0.6887  0.5873
  152TMC2    C5 2365   2.082   3.656  12.406  0.1668 -0.0026 -0.2705
  152TMC2    C6 2366   2.135   3.539  12.457  0.3670 -1.0338  0.3096
  152TMC2     C 2367   1.732   3.587  12.346  0.3804  0.2602 -0.1224
  152TMC2     O 2368   1.703   3.706  12.345  0.3245 -0.6254  0.5513
  152TMC2     H 2369   1.825   3.377  12.456 -1.2183  2.4489  2.9801
  152TMC2    H1 2370   1.917   3.757  12.317  1.2443 -0.2117  0.6970
  152TMC2    H2 2371   2.236   3.513  12.487  0.4781 -1.4538 -0.4338
  152TMC2    C7 2372   2.176   3.763  12.367  0.0885 -0.5250  0.7159
  152TMC2    C8 2373   2.092   3.307  12.507  0.4614  0.2308 -0.4884
  152TMC2    O1 2374   2.138   3.846  12.284 -0.1118  0.3395  0.2417
  152TMC2    O2 2375   2.208   3.272  12.496 -0.2932 -0.0571 -0.2078
  152TMC2    O5 2376   1.999   3.239  12.581 -0.3061 -0.2023 -0.0006
  152TMC2    H5 2377   1.912   3.279  12.603 -0.9218 -0.4153 -2.0914
  153MPD2     C 2378   1.487   3.359  12.189 -0.1095 -0.4148  0.4759
  153MPD2    C1 2379   1.538   3.480  12.232 -0.3785  0.0734  0.7394
  153MPD2    C2 2380   1.470   3.592  12.220 -0.0222  0.2421 -0.0942
  153MPD2    C3 2381   1.341   3.591  12.162  0.1532 -0.0857  0.5167
  153MPD2    C4 2382   1.294   3.479  12.116 -0.5112 -0.3408  0.4992
  153MPD2    C5 2383   1.368   3.362  12.122 -0.3870  0.1868 -0.2406
  153MPD2     H 2384   1.506   3.689  12.252  1.7450 -0.6392  0.6065
  153MPD2    H1 2385   1.198   3.481  12.067  0.0052  1.8183 -0.4380
  153MPD2    H2 2386   1.546   3.268  12.191  1.3188  0.4992 -0.8003
  153MPD2    H3 2387   1.331   3.270  12.079 -2.1622  0.5298  0.5676
  153MPD2     N 2388   1.265   3.712  12.164  0.3665  0.5065  0.0719
  153MPD2    H5 2389   1.305   3.787  12.218  3.2492 -0.3867 -0.8196
  153MPD2    N1 2390   1.662   3.478  12.300 -0.6781  0.1744 -0.2772
  153MPD2    H7 2391   1.707   3.387  12.304  0.8893  1.0057  0.8159
  154TMC2    C1 2392   3.358   0.045  17.733  0.6740  0.0315  0.8985
  154TMC2    C2 2393   3.241   0.050  17.662 -0.5280  0.3412  0.1726
  154TMC2    C3 2394   3.208   4.676  17.589 -0.5963 -0.1318  0.1075
  154TMC2    C4 2395   3.443   4.678  17.711  0.1429 -0.5723 -0.5395
  154TMC2    C5 2396   3.407   4.571  17.639 -0.0502 -0.0458  0.9981
  154TMC2    C6 2397   3.288   4.566  17.568 -0.2537  1.3433 -0.1211
  154TMC2     C 2398   3.381   0.120   0.113  0.0014  0.3876 -0.0264
  154TMC2     O 2399   3.457   0.064   0.189  0.5491  0.5572 -0.0674
  154TMC2     H 2400   3.170   0.129  17.684  0.3063  1.0685  0.2434
  154TMC2    H1 2401   3.537   4.665   0.023  1.0501  0.0428 -1.9917
  154TMC2    H2 2402   3.259   4.481  17.508 -0.5362  0.2155  1.6020
  154TMC2    C7 2403   3.476   4.445  17.649 -0.1531  0.0138 -0.0513
  154TMC2    C8 2404   3.076   4.684  17.520  0.1233 -0.3373  0.4476
  154TMC2    O1 2405   3.599   4.447  17.665 -0.2154  0.2603 -0.7803
  154TMC2    O2 2406   3.022   0.055  17.494 -0.9833  0.0884  0.7723
  154TMC2    O5 2407   3.024   4.562  17.505  0.0604  0.4587  0.4214
  154TMC2    H5 2408   3.064   4.485  17.550 -0.5087 -0.4834 -0.7147
  155MPD2     C 2409   3.197   0.413   0.223  0.0845 -0.1314 -0.3407
  155MPD2    C1 2410   3.290   0.314   0.235 -0.2166  0.3891  0.0028
  155MPD2    C2 2411   3.333   0.280   0.357  0.5024  0.1909 -0.4877
  155MPD2    C3 2412   3.298   0.357   0.465 -0.2202  0.5910  0.5342
  155MPD2    C4 2413   3.216   0.466   0.453  0.0286  0.2048 -0.0553
  155MPD2    C5 2414   3.159   0.493   0.328 -0.1854 -0.1196  0.6215
  155MPD2     H 2415   3.379   0.184   0.378 -0.9493 -0.0111  1.7354
  155MPD2    H1 2416   3.190   0.528   0.538 -0.3742  1.0647 -0.7953
  155MPD2    H2 2417   3.165   0.441   0.123  2.3502 -1.1511 -1.3454
  155MPD2    H3 2418   3.094   0.580   0.322  2.0210  1.5167  0.5505
  155MPD2     N 2419   3.345   0.313   0.596 -0.1472 -0.1628 -0.4335
  155MPD2    H5 2420   3.406   0.233   0.597  0.0173 -0.0377 -0.9468
  155MPD2    N1 2421   3.304   0.231   0.123  0.1394 -0.5898 -0.5056
  155MPD2    H7 2422   3.256   0.265   0.041  1.8742 -0.8967 -1.6469
  156TMC2    C1 2423   1.954   1.115  11.790 -0.2732 -0.4815  0.1495
  156TMC2    C2 2424   1.866   1.052  11.865 -0.9819  0.3678  0.7835
  156TMC2    C3 2425   1.732   1.083  11.854  0.0744  0.9695  0.3805
  156TMC2    C4 2426   1.918   1.219  11.714  0.2257  0.1113  0.1755
  156TMC2    C5 2427   1.788   1.254  11.706  0.5778 -0.4305  0.6940
  156TMC2    C6 2428   1.688   1.187  11.783  0.3544  0.1061 -0.0439
  156TMC2     C 2429   2.097   1.112  11.828  0.5917 -0.5860 -0.7721
  156TMC2     O 2430   2.160   1.208  11.785 -0.4798 -0.7924  0.3636
  156TMC2     H 2431   1.914   0.990  11.940  0.8531  2.1645  1.0984
  156TMC2    H1 2432   1.985   1.281  11.656  1.2913 -1.4744 -0.2756
  156TMC2    H2 2433   1.583   1.211  11.794  0.1005  0.1234 -2.4271
  156TMC2    C7 2434   1.754   1.386  11.638  0.6683 -0.2859 -0.1083
  156TMC2    C8 2435   1.641   1.035  11.961  0.0033  0.0367 -0.5411
  156TMC2    O1 2436   1.833   1.484  11.630  0.1538  0.1736 -0.5006
  156TMC2    O2 2437   1.520   1.043  11.944  0.6811  0.1103 -0.3294
  156TMC2    O5 2438   1.707   1.024  12.081  0.2065 -0.0570 -0.1960
  156TMC2    H5 2439   1.799   1.056  12.073  0.6095 -1.1819 -0.0587
  157MPD2     C 2440   2.291   0.853  12.013  0.2070  0.2631  1.2456
  157MPD2    C1 2441   2.258   0.981  11.970  0.6012 -0.1205 -0.3177
  157MPD2    C2 2442   2.338   1.084  12.010 -0.2109 -0.0950 -0.0605
  157MPD2    C3 2443   2.451   1.064  12.090  0.2450 -0.4165  0.3461
  157MPD2    C4 2444   2.479   0.935  12.133 -0.3117 -0.2093 -0.2797
  157MPD2    C5 2445   2.404   0.829  12.092 -1.0035 -1.1094  0.0039
  157MPD2     H 2446   2.309   1.188  11.997  0.8148  0.1863 -0.1407
  157MPD2    H1 2447   2.550   0.906  12.209 -2.0069 -0.3052  1.2895
  157MPD2    H2 2448   2.228   0.769  11.984 -1.8383  1.3946  2.4339
  157MPD2    H3 2449   2.425   0.732  12.136  0.5941 -0.9558 -0.4432
  157MPD2     N 2450   2.531   1.177  12.124  0.1849 -0.3361  0.8790
  157MPD2    H5 2451   2.508   1.266  12.081  1.4701 -0.5097 -0.1845
  157MPD2    N1 2452   2.140   1.002  11.901 -0.3545  0.4235  0.1933
  157MPD2    H7 2453   2.079   0.921  11.895  0.5338 -0.3640  1.8266
  158TMC2    C1 2454   2.391   4.537  13.565 -0.4887 -0.2559  0.1157
  158TMC2    C2 2455   2.411   4.599  13.446 -0.4472  0.5380 -1.1189
  158TMC2    C3 2456   2.302   4.651  13.384  0.0566 -0.1383 -0.0832
  158TMC2    C4 2457   2.264   4.524  13.614 -0.7573  0.0497 -0.1678
  158TMC2    C5 2458   2.161   4.584  13.549  0.4472 -0.3603 -0.5058
  158TMC2    C6 2459   2.178   4.647  13.432  0.6207  0.5406  0.4459
  158TMC2     C 2460   2.501   4.484  13.639 -0.7504  0.9585 -0.5116
  158TMC2     O 2461   2.477   4.446  13.750 -0.1191  0.2509  0.2525
  158TMC2     H 2462   2.509   4.600  13.399  0.9305  1.9547  1.7339
  158TMC2    H1 2463   2.250   4.466  13.704 -0.3893  1.0832  0.5550
  158TMC2    H2 2464   2.095   4.681  13.371 -0.1963 -0.0929  1.1998
  158TMC2    C7 2465   2.027   4.548  13.592 -0.2612 -0.0238 -0.1368
  158TMC2    C8 2466   2.318   0.005  13.269  0.2445 -0.3487 -0.6398
  158TMC2    O1 2467   1.933   4.630  13.583 -0.3363  0.4581 -0.1486
  158TMC2    O2 2468   2.232   0.048  13.200  0.0477  0.0720 -0.1035
  158TMC2    O5 2469   2.408   0.086  13.327  0.3146  0.0650 -0.3682
  158TMC2    H5 2470   2.422   0.050  13.417  0.2276  1.6732  0.2803
  159MPD2     C 2471   2.955   4.298  13.748  0.9170  0.2770 -0.8473
  159MPD2    C1 2472   2.828   4.236  13.752  0.0399 -0.4810  0.3755
  159MPD2    C2 2473   2.726   4.313  13.704  0.9398 -0.0204  0.3008
  159MPD2    C3 2474   2.740   4.436  13.638 -0.0371 -0.1894 -0.1927
  159MPD2    C4 2475   2.866   4.486  13.625  0.1573  0.4060 -0.0352
  159MPD2    C5 2476   2.974   4.421  13.682 -0.0739  0.1769 -0.1922
  159MPD2     H 2477   2.623   4.280  13.718  0.9695 -0.9100 -1.6475
  159MPD2    H1 2478   2.889   4.581  13.578  3.1119  0.0562  0.6970
  159MPD2    H2 2479   3.044   4.247  13.782 -1.3938 -1.3816  2.7324
  159MPD2    H3 2480   3.074   4.460  13.668  0.2450 -1.0084 -1.1737
  159MPD2     N 2481   2.627   4.503  13.587  0.5276  0.2818 -0.8882
  159MPD2    H5 2482   2.642   4.574  13.516  0.3476  1.2905  0.0701
  159MPD2    N1 2483   2.814   4.112  13.819 -0.5969  0.2486  0.3768
  159MPD2    H7 2484   2.898   4.074  13.861 -1.6779 -1.9547  0.5336
  160TMC2    C1 2485   1.652   2.445   1.128  0.1687  0.2624 -0.1049
  160TMC2    C2 2486   1.570   2.393   1.219 -0.6130 -0.5423 -0.6390
  160TMC2    C3 2487   1.628   2.354   1.337  0.1412 -0.4794 -0.1530
  160TMC2    C4 2488   1.780   2.466   1.151  0.2352  0.9954  0.0697
  160TMC2    C5 2489   1.831   2.433   1.273  0.1585 -0.0378 -0.4877
  160TMC2    C6 2490   1.766   2.360   1.361 -0.2150  0.4447  0.2158
  160TMC2     C 2491   1.594   2.515   1.008  0.2890  0.3960  0.8533
  160TMC2     O 2492   1.661   2.611   0.972 -0.4572 -0.2982  0.1383
  160TMC2     H 2493   1.469   2.359   1.198  0.9902 -4.8545 -1.3075
  160TMC2    H1 2494   1.838   2.523   1.080  0.2766  1.3539  0.3943
  160TMC2    H2 2495   1.823   2.326   1.447  1.0374 -1.0882 -1.2179
  160TMC2    C7 2496   1.966   2.477   1.309 -0.1375 -0.4892 -0.3897
  160TMC2    C8 2497   1.544   2.293   1.443  0.0088 -0.8981  0.2242
  160TMC2    O1 2498   2.032   2.426   1.399  0.2815 -0.4017  0.4892
  160TMC2    O2 2499   1.428   2.261   1.415  0.0129 -0.1416  0.2439
  160TMC2    O5 2500   1.592   2.323   1.564  0.2748  0.4214  0.4085
  160TMC2    H5 2501   1.678   2.370   1.570  1.6742 -2.0192 -0.5970
  161MPD2     C 2502   1.259   2.471   0.864  0.3418  0.0071 -0.1920
  161MPD2    C1 2503   1.382   2.532   0.893 -0.3202 -0.6411 -0.1401
  161MPD2    C2 2504   1.408   2.663   0.847  0.0777 -0.0078  0.5510
  161MPD2    C3 2505   1.304   2.732   0.788 -0.2208 -0.3744 -0.2483
  161MPD2    C4 2506   1.187   2.667   0.765 -0.2254  0.6923 -0.0324
  161MPD2    C5 2507   1.162   2.534   0.786  0.3290 -0.9508 -0.0606
  161MPD2     H 2508   1.499   2.720   0.862 -0.2261  1.0986 -1.7636
  161MPD2    H1 2509   1.100   2.724   0.733 -0.9560 -0.2263  0.2996
  161MPD2    H2 2510   1.243   2.366   0.883  0.4672 -0.2227 -1.3503
  161MPD2    H3 2511   1.067   2.489   0.757 -0.4622 -0.1869  1.3999
  161MPD2     N 2512   1.316   2.870   0.764  0.1555 -1.3079  0.1233
  161MPD2    H5 2513   1.236   2.910   0.717  1.8512  1.2236 -0.5890
  161MPD2    N1 2514   1.478   2.462   0.970  0.1322 -0.4801 -0.1537
  161MPD2    H7 2515   1.450   2.370   1.002 -1.3181  0.6280  1.7604
  162TMC2    C1 2516   4.611   0.294   0.854  0.6625 -0.4016 -0.4490
  162TMC2    C2 2517   4.499   0.250   0.923 -0.1973  0.1900  0.0148
  162TMC2    C3 2518   4.474   0.308   1.047  0.9373  0.0990  0.1147
  162TMC2    C4 2519   4.706   0.364   0.919 -0.0694 -0.0641 -0.2688
  162TMC2    C5 2520   4.687   0.398   1.049 -0.4952  0.1669 -0.7263
  162TMC2    C6 2521   4.568   0.389   1.114  0.3693  0.4202 -0.5717
  162TMC2     C 2522   4.636   0.257   0.719 -0.6317  0.2308 -0.2277
  162TMC2     O 2523   0.013   0.271   0.682 -0.5893  0.0162 -0.4843
  162TMC2     H 2524   4.420   0.189   0.881  1.9980 -1.9167 -1.0325
  162TMC2    H1 2525   0.060   0.390   0.864 -1.7024  1.5874 -2.1230
  162TMC2    H2 2526   4.579   0.390   1.221  1.6524 -2.9390 -0.6615
  162TMC2    C7 2527   0.067   0.442   1.131 -1.0680 -0.6916  0.8713
  162TMC2    C8 2528   4.358   0.270   1.123  0.3602 -0.3405  0.1993
  162TMC2    O1 2529   0.041   0.518   1.223  0.1599 -0.6451  0.4603
  162TMC2    O2 2530   4.265   0.205   1.077  0.2075 -0.0002 -0.4084
  162TMC2    O5 2531   4.340   0.382   1.201 -0.1857 -0.6908 -0.2950
  162TMC2    H5 2532   4.426   0.419   1.228  0.0602 -0.6287 -1.1923
  163MPD2     C 2533   4.499   0.091   0.265  0.0402  0.5788 -0.7088
  163MPD2    C1 2534   4.622   0.085   0.319 -0.1590 -0.1390  0.0499
  163MPD2    C2 2535   4.631   0.119   0.454  0.0415 -0.4679 -0.6321
  163MPD2    C3 2536   4.518   0.155   0.524 -0.1727  0.3394  0.7399
  163MPD2    C4 2537   4.393   0.155   0.467 -0.0996  0.2622 -0.4524
  163MPD2    C5 2538   4.393   0.123   0.341 -0.2783 -0.5925 -0.0764
  163MPD2     H 2539   4.724   0.110   0.508 -0.4149 -0.0579  0.2280
  163MPD2    H1 2540   4.300   0.172   0.522 -0.9380 -3.0257 -0.8124
  163MPD2    H2 2541   4.481   0.058   0.164  0.8176 -0.3098 -0.5561
  163MPD2    H3 2542   4.299   0.118   0.288 -0.1410 -0.8356 -0.3015
  163MPD2     N 2543   4.520   0.219   0.654 -0.0904  0.6161  0.3023
  163MPD2    H5 2544   4.431   0.241   0.698 -0.6557  0.0724 -0.5729
  163MPD2    N1 2545   4.734   0.050   0.235  0.2039 -0.3234  0.0809
  163MPD2    H7 2546   4.728   0.049   0.134 -0.6660 -1.4959  0.1380
  164TMC2    C1 2547   0.862   0.012  10.703  0.8764  0.7205 -0.6411
  164TMC2    C2 2548   0.988   0.056  10.715 -0.1800  1.1298  0.4066
  164TMC2    C3 2549   0.995   0.187  10.729 -0.4579  0.6876  0.3645
  164TMC2    C4 2550   0.748   0.089  10.702 -0.2061  0.1007 -0.1107
  164TMC2    C5 2551   0.760   0.226  10.698  0.2339 -0.5302  0.8812
  164TMC2    C6 2552   0.890   0.278  10.717  1.0126  0.2400  0.3718
  164TMC2     C 2553   0.845   4.601  10.721  0.1596  0.5713  0.7378
  164TMC2     O 2554   0.739   4.567  10.766  0.0554  0.0413  0.2056
  164TMC2     H 2555   1.073   4.730  10.740 -0.3457 -0.0389 -1.8631
  164TMC2    H1 2556   0.654   0.036  10.697 -0.5382  0.5214  1.6925
  164TMC2    H2 2557   0.914   0.383  10.718  0.7348  0.2751  2.5306
  164TMC2    C7 2558   0.644   0.313  10.713  0.1422  1.0321 -0.4192
  164TMC2    C8 2559   1.129   0.240  10.763 -0.9575 -0.5533  0.1652
  164TMC2    O1 2560   0.534   0.259  10.723  0.4699  0.4062 -0.1029
  164TMC2    O2 2561   1.229   0.169  10.745 -0.3295  0.2054 -0.6233
  164TMC2    O5 2562   1.110   0.318  10.872 -0.1340 -0.2008 -0.0460
  164TMC2    H5 2563   1.016   0.334  10.895 -0.9322 -3.1025 -1.2426
  165TMC2    C1 2564   1.476   2.003   1.775 -0.3095 -0.4213 -0.6990
  165TMC2    C2 2565   1.541   2.012   1.897  0.8055 -0.0996  0.6377
  165TMC2    C3 2566   1.672   1.961   1.898  0.5347 -0.2863 -0.7971
  165TMC2    C4 2567   1.532   1.962   1.658 -0.0031  0.5790  0.7032
  165TMC2    C5 2568   1.664   1.910   1.664  0.4261 -0.5431  0.6695
  165TMC2    C6 2569   1.730   1.914   1.786  0.3732  0.2981  0.2523
  165TMC2     C 2570   1.333   2.000   1.776 -0.0794  0.1304 -0.2719
  165TMC2     O 2571   1.264   1.946   1.693  0.4553 -0.1733  0.2427
  165TMC2     H 2572   1.494   2.028   1.993  0.5527 -1.7890  0.7952
  165TMC2    H1 2573   1.474   1.978   1.568 -0.2798  1.5273  1.0489
  165TMC2    H2 2574   1.835   1.888   1.781  0.0684 -0.4414 -2.2558
  165TMC2    C7 2575   1.750   1.916   1.545 -0.5314 -0.0588  0.1668
  165TMC2    C8 2576   1.749   1.955   2.018  0.1462 -0.5947  0.8481
  165TMC2    O1 2577   1.858   1.870   1.569 -0.3801 -0.2917 -0.0891
  165TMC2    O2 2578   1.869   1.966   2.017 -0.3616 -0.4437  0.4812
  165TMC2    O5 2579   1.669   1.938   2.124  0.0534 -0.1358  0.0631
  165TMC2    H5 2580   1.581   1.907   2.094  2.0934 -3.1178 -2.8016
  166MPD2     C 2581   0.887   2.206   1.930  0.4041  0.0966 -0.1189
  166MPD2    C1 2582   0.906   2.088   1.850 -0.2438 -0.1363  0.4205
  166MPD2    C2 2583   1.033   2.053   1.827 -0.7372 -0.1144  0.5882
  166MPD2    C3 2584   1.147   2.116   1.888  0.1571  0.2145  0.4039
  166MPD2    C4 2585   1.118   2.219   1.975 -0.1786 -1.2155 -0.6162
  166MPD2    C5 2586   0.990   2.273   1.991  0.1092 -0.2560 -0.0234
  166MPD2     H 2587   1.057   1.953   1.792  1.0342  0.2792  0.7152
  166MPD2    H1 2588   1.196   2.274   2.027 -0.2353 -0.8311 -0.9372
  166MPD2    H2 2589   0.788   2.249   1.947  1.4512  2.1658  0.7484
  166MPD2    H3 2590   0.972   2.367   2.042 -0.0137 -0.9192  1.1590
  166MPD2     N 2591   1.282   2.083   1.874  0.0133 -0.3312  0.6236
  166MPD2    H5 2592   1.350   2.127   1.935 -0.3627  0.5207  0.4294
  166MPD2    N1 2593   0.794   2.019   1.800  0.6021  0.0169  0.1692
  166MPD2    H7 2594   0.709   2.052   1.844  1.0596  1.3126  0.0703
  167TMC2    C1 2595   4.687   0.131  12.868  0.3724 -0.6422 -0.4109
  167TMC2    C2 2596   4.632   0.146  12.990  0.5154 -0.2564 -0.1988
  167TMC2    C3 2597   4.674   0.067  13.094 -0.1700  0.0591  0.8499
  167TMC2    C4 2598   0.041   0.028  12.833 -0.1500 -0.5006  0.8779
  167TMC2    C5 2599   0.071   4.682  12.939  0.0242 -0.8740 -0.9786
  167TMC2    C6 2600   0.027   4.706  13.069 -1.1425  0.3614 -0.6407
  167TMC2     C 2601   4.662   0.237  12.777  0.2094  0.5684 -0.4486
  167TMC2     O 2602   4.629   0.345  12.818 -0.2687  0.3476 -0.1870
  167TMC2     H 2603   4.547   0.214  12.998  0.1464 -0.6040 -1.2109
  167TMC2    H1 2604   0.067   0.002  12.731  1.0949  0.4174  0.9697
  167TMC2    H2 2605   0.036   4.632  13.147 -2.4224  1.4689  0.5699
  167TMC2    C7 2606   0.105   4.547  12.905 -0.0173 -0.5794 -0.2336
  167TMC2    C8 2607   4.595   0.046  13.211 -0.5356 -0.0326  0.1699
  167TMC2    O1 2608   0.091   4.465  12.997 -0.0257  0.0040  0.2438
  167TMC2    O2 2609   4.555   4.672  13.248 -0.1160  0.5348 -0.3634
  167TMC2    O5 2610   4.549   0.163  13.248  0.4507 -0.7233  0.3478
  167TMC2    H5 2611   4.609   0.236  13.224 -0.4647  0.3023  1.1951
  168MPD2     C 2612   4.669   0.427  12.538 -0.3914  0.7648  0.6651
  168MPD2    C1 2613   4.723   0.301  12.540 -0.5752  0.1100 -0.5448
  168MPD2    C2 2614   0.052   0.253  12.426 -0.5737  0.0887  0.0063
  168MPD2    C3 2615   0.059   0.330  12.308  0.7495  0.1371 -0.1176
  168MPD2    C4 2616   0.007   0.457  12.307 -0.7811 -0.9452 -0.1598
  168MPD2    C5 2617   4.680   0.500  12.422  0.4883 -0.1692 -0.1890
  168MPD2     H 2618   0.073   0.147  12.422  0.8264  0.4191 -1.1289
  168MPD2    H1 2619   0.019   0.521  12.220  0.2126 -0.3848  0.3906
  168MPD2    H2 2620   4.622   0.474  12.623  0.2909  0.1253  1.3968
  168MPD2    H3 2621   4.652   0.604  12.434 -0.2200 -0.5571  1.5322
  168MPD2     N 2622   0.128   0.279  12.192  0.3219 -0.5383  0.5093
  168MPD2    H5 2623   0.103   0.326  12.106 -1.3990  0.5435  1.5956
  168MPD2    N1 2624   4.719   0.210  12.651 -0.6193  0.4110  0.5433
  168MPD2    H7 2625   0.037   0.124  12.642 -2.6391 -0.5364 -2.2681
  169MPD1     C 2626   1.921   0.315   8.912 -0.4421 -0.4680  0.0290
  169MPD1    C1 2627   1.999   0.219   8.848 -0.5243  0.4007 -0.9967
  169MPD1    C2 2628   2.065   0.132   8.931 -0.0086  0.7887 -0.3248
  169MPD1    C3 2629   2.038   0.134   9.072  0.6933 -0.2435  0.0767
  169MPD1    C4 2630   1.951   0.226   9.125 -0.3718  0.2081  0.1692
  169MPD1    C5 2631   1.896   0.320   9.043  0.2760  0.2410  0.1352
  169MPD1     H 2632   2.137   0.063   8.889  1.1522 -0.0291  2.9523
  169MPD1    H1 2633   1.925   0.225   9.230  4.0107  0.7705  1.2440
  169MPD1    H2 2634   1.881   0.397   8.854  3.4551  0.1277 -1.8042
  169MPD1    H3 2635   1.839   0.399   9.090 -0.5971 -0.0427 -0.4468
  169MPD1     N 2636   2.096   0.032   9.152 -0.3414 -0.7267  0.2052
  169MPD1    H5 2637   2.177   4.721   9.113  0.2898  1.6961 -1.3961
  169MPD1    N1 2638   1.993   0.197   8.711 -0.6884 -0.6387 -0.6579
  169MPD1    H6 2639   2.062   0.130   8.677 -1.7899 -1.5717 -1.0500
  169MPD1    H7 2640   1.995   0.288   8.665  1.3266 -1.0781 -1.4621
  170MPD1     C 2641   0.984   1.017  13.815 -0.3348  0.2841 -0.5378
  170MPD1    C1 2642   1.083   1.099  13.854 -0.7708  0.4805 -0.4754
  170MPD1    C2 2643   1.088   1.224  13.804  0.5304  0.0353 -0.0776
  170MPD1    C3 2644   1.002   1.271  13.708 -0.0866 -0.5257 -0.4649
  170MPD1    C4 2645   0.910   1.180  13.661  0.6712 -0.1124  0.0525
  170MPD1    C5 2646   0.898   1.058  13.720 -0.2234 -0.5108 -0.1330
  170MPD1     H 2647   1.170   1.286  13.837 -1.2197  2.5755 -0.4996
  170MPD1    H1 2648   0.838   1.191  13.581 -1.1731 -0.5205  1.6808
  170MPD1    H2 2649   0.975   0.914  13.850  3.7718 -0.2656 -1.1417
  170MPD1    H3 2650   0.815   0.996  13.688  0.9674 -2.2578  0.2104
  170MPD1     N 2651   1.034   1.396  13.651 -0.1355  0.1198  0.4818
  170MPD1    H5 2652   1.101   1.453  13.702  0.3992 -1.2295  1.2850
  170MPD1    N1 2653   1.183   1.053  13.940 -0.1294  0.2209  1.2672
  170MPD1    H6 2654   1.147   0.995  14.015 -2.1525 -0.3054 -0.1134
  170MPD1    H7 2655   1.253   1.120  13.973  2.8885 -1.1994 -2.1987
  171MPD1     C 2656   4.182   2.871  14.916 -0.9294 -0.1303 -0.9164
  171MPD1    C1 2657   4.124   2.856  15.034 -0.1131 -0.2722 -0.1028
  171MPD1    C2 2658   4.187   2.781  15.133  0.1913 -0.5979 -0.1934
  171MPD1    C3 2659   4.314   2.734  15.108  0.2896 -0.3776 -0.6154
  171MPD1    C4 2660   4.373   2.748  14.982  0.2486 -0.1393  0.1755
  171MPD1    C5 2661   4.303   2.812  14.891 -0.2404  0.0045  0.7552
  171MPD1     H 2662   4.133   2.767  15.226  0.4567  3.3380  0.5847
  171MPD1    H1 2663   4.474   2.709  14.972  0.3092  0.1210 -0.2648
  171MPD1    H2 2664   4.124   2.915  14.836  1.9629  2.0465 -1.8621
  171MPD1    H3 2665   4.348   2.819  14.792 -2.1070 -1.8650 -0.2513
  171MPD1     N 2666   4.392   2.675  15.214  0.1243  0.5827 -0.2495
  171MPD1    H5 2667   4.488   2.652  15.192 -0.1253 -1.4213  0.7710
  171MPD1    N1 2668   3.988   2.882  15.052 -0.2448  0.4843 -0.2000
  171MPD1    H6 2669   3.961   2.896  15.149  3.4217  0.4814  0.8285
  171MPD1    H7 2670   3.950   2.951  14.988 -0.8105 -0.3928 -0.8181
  172MPD1     C 2671   3.772   1.728  17.581  0.0409  0.1860 -0.2511
  172MPD1    C1 2672   3.726   1.724  17.712  0.5711 -0.8102  0.4023
  172MPD1    C2 2673   3.767   1.829   0.056 -0.0287 -0.3861  0.9008
  172MPD1    C3 2674   3.842   1.935   0.010  0.5322  0.4549  0.3433
  172MPD1    C4 2675   3.896   1.928  17.629 -0.1302  0.1235 -0.6767
  172MPD1    C5 2676   3.854   1.827  17.546  0.4310 -0.2891  0.2431
  172MPD1     H 2677   3.719   1.827   0.153 -3.0217  2.5873 -0.5129
  172MPD1    H1 2678   3.947   2.018  17.595  0.9739 -0.0531  0.5214
  172MPD1    H2 2679   3.748   1.657  17.503 -1.8930  0.3480  0.1883
  172MPD1    H3 2680   3.891   1.813  17.445  0.8046 -2.4691  0.6734
  172MPD1     N 2681   3.887   2.040   0.091 -0.4808 -0.0522 -0.5159
  172MPD1    H5 2682   3.948   2.107   0.045  0.9140 -0.3879  0.8529
  172MPD1    N1 2683   3.650   1.615   0.009  0.2236  0.6180 -0.2975
  172MPD1    H6 2684   3.607   1.567  17.673 -0.3262 -0.2254  0.5393
  172MPD1    H7 2685   3.572   1.656   0.061 -2.2161 -3.0553 -1.1265
  173MPD1     C 2686   0.249   1.522  13.466  0.1494 -0.0463  0.5713
  173MPD1    C1 2687   0.282   1.648  13.516 -0.2391 -0.5322  0.1788
  173MPD1    C2 2688   0.302   1.665  13.651 -0.0376 -0.4506 -0.0918
  173MPD1    C3 2689   0.292   1.560  13.734  0.3512  0.3449 -0.4711
  173MPD1    C4 2690   0.261   1.430  13.684 -0.6617 -0.0814 -0.5191
  173MPD1    C5 2691   0.242   1.411  13.549 -0.1947 -0.0058  0.3781
  173MPD1     H 2692   0.321   1.763  13.695 -0.7198 -0.5037  0.3258
  173MPD1    H1 2693   0.244   1.344  13.746  1.2994  1.1065  1.6449
  173MPD1    H2 2694   0.239   1.504  13.359  0.3973  0.4443  0.4642
  173MPD1    H3 2695   0.226   1.312  13.508  0.3091  0.5481 -1.1456
  173MPD1     N 2696   0.326   1.588  13.863  0.7929 -0.0492  0.5633
  173MPD1    H5 2697   0.350   1.685  13.878 -0.6997  0.5482 -0.9001
  173MPD1    N1 2698   0.271   1.765  13.442  0.2875  0.1085 -0.4069
  173MPD1    H6 2699   0.300   1.748  13.346  0.3308  1.8168 -0.7052
  173MPD1    H7 2700   0.332   1.836  13.483 -1.9024  0.9436  1.3895
  174MPD1     C 2701   0.956   2.125  13.971 -0.2107  0.3652  0.2494
  174MPD1    C1 2702   0.967   2.068  14.094  0.5642  0.2421 -0.7137
  174MPD1    C2 2703   0.877   1.971  14.128  0.2887  0.1154  0.8557
  174MPD1    C3 2704   0.772   1.932  14.042 -0.9915  0.0972 -0.0707
  174MPD1    C4 2705   0.763   2.002  13.926 -0.3482 -0.2404 -0.7032
  174MPD1    C5 2706   0.852   2.094  13.892 -0.2018  0.1644 -0.0225
  174MPD1     H 2707   0.892   1.919  14.222 -1.0305  0.2157  1.1268
  174MPD1    H1 2708   0.677   1.991  13.861  0.0299  0.0700 -1.2601
  174MPD1    H2 2709   1.021   2.209  13.947  0.2273 -0.1532 -0.3973
  174MPD1    H3 2710   0.835   2.146  13.798  0.7278 -1.3073 -1.0076
  174MPD1     N 2711   0.665   1.845  14.073 -0.1146 -0.4391 -0.2954
  174MPD1    H5 2712   0.602   1.830  13.994 -1.1548 -1.0952  0.6512
  174MPD1    N1 2713   1.056   2.115  14.192  0.7245 -0.0797 -0.1699
  174MPD1    H6 2714   1.138   2.161  14.153 -0.1830  0.9809 -0.8638
  174MPD1    H7 2715   1.088   2.037  14.249  0.4630 -0.1462 -0.1130
  175MPD1     C 2716   3.162   2.739  15.382 -0.5317  0.6361  0.0943
  175MPD1    C1 2717   3.239   2.638  15.431 -0.5341  0.0486 -0.8194
  175MPD1    C2 2718   3.248   2.626  15.569  0.1018  0.2995  0.4425
  175MPD1    C3 2719   3.174   2.705  15.656  0.5529 -0.2301 -0.2149
  175MPD1    C4 2720   3.078   2.789  15.601  0.3878 -0.2531  0.4171
  175MPD1    C5 2721   3.074   2.806  15.465 -0.2108  0.0464  0.0604
  175MPD1     H 2722   3.317   2.556  15.617 -0.4205 -1.5269 -1.4661
  175MPD1    H1 2723   3.009   2.860  15.645  0.3907  0.1706 -0.2493
  175MPD1    H2 2724   3.159   2.763  15.276 -3.6451 -2.3624 -0.5075
  175MPD1    H3 2725   3.011   2.886  15.427  0.4458 -0.3646 -1.8880
  175MPD1     N 2726   3.180   2.688  15.794  0.2145 -0.2175 -0.0252
  175MPD1    H5 2727   3.108   2.744  15.839  0.5643  0.2110  0.0005
  175MPD1    N1 2728   3.327   2.576  15.342 -0.0396 -0.3453  0.3690
  175MPD1    H6 2729   3.329   2.475  15.359 -1.0456 -0.2033  1.3501
  175MPD1    H7 2730   3.290   2.593  15.249  2.5273 -0.4607 -0.6733
  176MPD1     C 2731   1.337   0.485  17.488  0.4320 -0.1613  0.4188
  176MPD1    C1 2732   1.327   0.606  17.555  0.0046  0.0265 -0.6227
  176MPD1    C2 2733   1.206   0.664  17.583 -0.0108  0.3418 -0.1074
  176MPD1    C3 2734   1.089   0.614  17.529 -0.0918 -0.3978 -0.0809
  176MPD1    C4 2735   1.103   0.503  17.449 -0.0940  0.5009 -0.2354
  176MPD1    C5 2736   1.221   0.436  17.433 -0.9603 -0.7728  0.1066
  176MPD1     H 2737   1.198   0.746  17.653  0.2695  0.9208 -0.7533
  176MPD1    H1 2738   1.014   0.456  17.410  1.4723 -2.0038 -0.8010
  176MPD1    H2 2739   1.431   0.433  17.475  0.7632  0.3441  0.7625
  176MPD1    H3 2740   1.215   0.337  17.388  1.7576 -0.5349 -0.7824
  176MPD1     N 2741   0.965   0.680  17.552  0.5682 -0.2119  0.3875
  176MPD1    H5 2742   0.957   0.746  17.629  2.7215  0.3535  0.1518
  176MPD1    N1 2743   1.437   0.649  17.621  0.1293 -0.0692  0.1048
  176MPD1    H6 2744   1.433   0.751  17.632 -2.0282 -0.0878 -0.5590
  176MPD1    H7 2745   1.527   0.640  17.574  0.0936 -2.1262  0.4227
  177MPD1     C 2746   3.596   0.920  10.110  0.4925 -0.0154  0.3971
  177MPD1    C1 2747   3.572   1.042  10.050  0.1784  0.6889 -0.2413
  177MPD1    C2 2748   3.482   1.045   9.942 -0.6157 -0.3231  0.1510
  177MPD1    C3 2749   3.425   0.926   9.889 -0.1772 -0.2681 -0.0674
  177MPD1    C4 2750   3.450   0.808   9.954 -0.4025  0.0650 -0.3035
  177MPD1    C5 2751   3.537   0.809  10.062 -0.0417  0.0655 -0.3655
  177MPD1     H 2752   3.456   1.139   9.895  1.6986  0.4535  0.4106
  177MPD1    H1 2753   3.425   0.710   9.916  0.4103 -0.3496  0.2533
  177MPD1    H2 2754   3.672   0.911  10.186  1.3049 -1.7436 -0.6271
  177MPD1    H3 2755   3.549   0.711  10.107 -0.0525  0.0162 -0.4691
  177MPD1     N 2756   3.348   0.943   9.774  0.1434  0.2779  0.1849
  177MPD1    H5 2757   3.353   1.038   9.739 -4.5231  0.2239 -0.6091
  177MPD1    N1 2758   3.642   1.153  10.099 -0.1444 -0.2232 -0.2253
  177MPD1    H6 2759   3.650   1.164  10.200  1.0186  0.2818 -0.3724
  177MPD1    H7 2760   3.613   1.243  10.062 -0.0228  0.4266  1.2247
  178MPD1     C 2761   0.638   1.366  17.640 -0.0443  0.2241 -0.7215
  178MPD1    C1 2762   0.760   1.383  17.700 -0.1683 -0.2512  0.7660
  178MPD1    C2 2763   0.867   1.315  17.642 -0.3430 -0.3026 -0.1654
  178MPD1    C3 2764   0.844   1.216  17.544  0.4194  0.6679  0.4754
  178MPD1    C4 2765   0.719   1.196  17.493 -0.7614  0.1944  0.7024
  178MPD1    C5 2766   0.626   1.277  17.540 -1.2120  0.0329 -0.0337
  178MPD1     H 2767   0.966   1.347  17.672  0.5361 -0.5543 -2.7911
  178MPD1    H1 2768   0.684   1.118  17.426 -0.4583  0.6522  0.0096
  178MPD1    H2 2769   0.551   1.426  17.663  0.4377  0.4729  0.5118
  178MPD1    H3 2770   0.525   1.263  17.501 -1.4444  0.3717  0.4440
  178MPD1     N 2771   0.958   1.138  17.502 -0.3429  0.4672  0.1888
  178MPD1    H5 2772   1.034   1.136  17.570  0.3720 -2.6970 -0.6740
  178MPD1    N1 2773   0.788   1.495   0.032 -0.3110  0.0808 -0.4190
  178MPD1    H6 2774   0.714   1.516   0.099 -0.8077  3.1710 -1.9615
  178MPD1    H7 2775   0.872   1.488   0.090 -0.3775 -1.0507 -0.4587
  179MPD1     C 2776   4.675   4.038  15.744 -0.1649 -1.0978 -0.1586
  179MPD1    C1 2777   0.064   4.094  15.751  0.1610  0.4423  0.1659
  179MPD1    C2 2778   0.169   4.019  15.789  0.1670  0.0273 -0.9706
  179MPD1    C3 2779   0.144   3.883  15.806 -0.4470 -0.5982  0.5713
  179MPD1    C4 2780   0.018   3.829  15.789  0.2182  0.6454 -0.7698
  179MPD1    C5 2781   4.651   3.902  15.759 -0.4856 -0.4261 -0.0082
  179MPD1     H 2782   0.267   4.062  15.805 -0.8091  2.1906 -0.8663
  179MPD1    H1 2783   4.721   3.728  15.810  0.5241  1.1785  2.1762
  179MPD1    H2 2784   4.590   4.103  15.727  1.6715  1.4369  0.1722
  179MPD1    H3 2785   4.552   3.860  15.742  0.2126 -1.8825 -0.5303
  179MPD1     N 2786   0.244   3.783  15.803  0.1568 -0.1140  0.5228
  179MPD1    H5 2787   0.214   3.686  15.802 -0.3435  0.0580 -1.8977
  179MPD1    N1 2788   0.078   4.231  15.748 -0.3646  0.2527  0.1623
  179MPD1    H6 2789   0.010   4.289  15.701  0.5861  3.2307  2.4645
  179MPD1    H7 2790   0.168   4.257  15.708 -0.4525 -1.3312 -1.0557
  180MPD1     C 2791   0.922   0.731  15.596  0.4788 -0.5556  0.2862
  180MPD1    C1 2792   0.794   0.697  15.592 -0.7251  0.1326  0.4829
  180MPD1    C2 2793   0.742   0.659  15.467 -0.0679 -0.2057  0.0785
  180MPD1    C3 2794   0.816   0.662  15.350  0.0984  0.1897  0.2043
  180MPD1    C4 2795   0.944   0.703  15.356  0.5773  0.2393 -0.3476
  180MPD1    C5 2796   0.994   0.735  15.479 -0.0571  0.4410 -0.0470
  180MPD1     H 2797   0.635   0.645  15.460 -0.3157  1.4513  0.4576
  180MPD1    H1 2798   1.012   0.701  15.272  0.6586 -1.9076 -0.2324
  180MPD1    H2 2799   0.969   0.765  15.687 -1.7380 -0.9216  1.5605
  180MPD1    H3 2800   1.095   0.775  15.478 -0.1900  0.7615 -0.4536
  180MPD1     N 2801   0.751   0.621  15.228  0.2147 -0.6743  0.1068
  180MPD1    H5 2802   0.657   0.583  15.231  0.2653 -0.9679 -2.6880
  180MPD1    N1 2803   0.715   0.720  15.704 -0.2101 -0.0762  0.0309
  180MPD1    H6 2804   0.764   0.723  15.794  1.6453 -0.6243 -0.9649
  180MPD1    H7 2805   0.642   0.649  15.706 -0.2110 -0.0870 -0.4994
  181MPD1     C 2806   2.402   2.512  10.543 -0.0330  0.2682 -0.1935
  181MPD1    C1 2807   2.474   2.614  10.596  0.1672  0.7247  0.6016
  181MPD1    C2 2808   2.554   2.689  10.513  0.5767  0.2793 -0.6155
  181MPD1    C3 2809   2.581   2.651  10.381  0.7172 -0.3913  0.3195
  181MPD1    C4 2810   2.519   2.532  10.338 -0.4238  0.5739 -0.0524
  181MPD1    C5 2811   2.424   2.468  10.416  0.7905  0.7361  0.4419
  181MPD1     H 2812   2.603   2.776  10.555  1.2517 -0.1495 -0.5070
  181MPD1    H1 2813   2.540   2.505  10.235  1.9484  0.9167  0.3407
  181MPD1    H2 2814   2.338   2.448  10.604  1.2945 -1.4807 -0.6231
  181MPD1    H3 2815   2.379   2.377  10.380 -0.9609  1.1113  1.6752
  181MPD1     N 2816   2.692   2.697  10.302 -1.0061 -0.1497  0.3476
  181MPD1    H5 2817   2.703   2.669  10.205  2.1227 -0.2704  0.7092
  181MPD1    N1 2818   2.456   2.641  10.731  0.0331  0.0539  0.0001
  181MPD1    H6 2819   2.539   2.685  10.770  0.2605 -2.2778  2.1271
  181MPD1    H7 2820   2.429   2.561  10.788 -1.3425  1.8994  1.9538
  182MPD1     C 2821   3.646   2.544   1.118  0.4898 -0.2620  0.5876
  182MPD1    C1 2822   3.672   2.407   1.120  0.3718  0.8825  0.4420
  182MPD1    C2 2823   3.584   2.336   1.040 -0.1059 -0.1467 -0.3897
  182MPD1    C3 2824   3.466   2.393   0.981 -0.3572  0.0123 -0.4244
  182MPD1    C4 2825   3.444   2.529   0.988  0.0358  0.3795  0.2168
  182MPD1    C5 2826   3.540   2.598   1.052 -0.1019  0.2217 -0.0780
  182MPD1     H 2827   3.608   2.234   1.014 -0.3285 -0.4219  0.4827
  182MPD1    H1 2828   3.357   2.563   0.932  0.3760  0.8111 -0.0466
  182MPD1    H2 2829   3.705   2.613   1.177  0.0744  2.3762 -2.0659
  182MPD1    H3 2830   3.536   2.707   1.046 -1.2522  0.1176 -1.2503
  182MPD1     N 2831   3.373   2.313   0.903 -0.1344 -0.7497 -0.3884
  182MPD1    H5 2832   3.285   2.354   0.874  1.6248  2.6678 -0.9271
  182MPD1    N1 2833   3.795   2.351   1.158 -0.0359  0.2687  0.3392
  182MPD1    H6 2834   3.840   2.404   1.232 -0.8176 -0.6760  1.4960
  182MPD1    H7 2835   3.793   2.251   1.177 -1.8764 -0.2447 -2.5274
  183MPD1     C 2836   3.044   2.197   8.980  0.3694  0.4772  0.1777
  183MPD1    C1 2837   2.929   2.255   9.036  0.2600  0.6434 -0.3513
  183MPD1    C2 2838   2.949   2.358   9.123 -0.4133 -0.0597  0.8459
  183MPD1    C3 2839   3.072   2.385   9.171  0.8928  0.1621  0.1230
  183MPD1    C4 2840   3.179   2.312   9.127  0.4497 -0.0329 -0.0115
  183MPD1    C5 2841   3.166   2.215   9.032  0.5866 -0.0981 -0.0863
  183MPD1     H 2842   2.857   2.409   9.150 -0.0568  0.2591  1.4698
  183MPD1    H1 2843   3.279   2.331   9.165 -0.3127  2.1634  0.8306
  183MPD1    H2 2844   3.028   2.132   8.895  0.0923  0.0935  0.5230
  183MPD1    H3 2845   3.250   2.167   8.984  0.5016  1.2959 -1.6212
  183MPD1     N 2846   3.082   2.481   9.281  0.6990  0.0630 -0.0647
  183MPD1    H5 2847   2.996   2.532   9.301 -0.3817 -1.3326 -1.0974
  183MPD1    N1 2848   2.801   2.223   8.979 -0.0542  0.6216 -0.4059
  183MPD1    H6 2849   2.729   2.257   9.043 -0.1414  1.4042 -0.9174
  183MPD1    H7 2850   2.794   2.122   8.973  0.2691  0.4534  2.2368
  184MPD1     C 2851   2.915   0.036   9.998  0.2885 -0.4140  0.0418
  184MPD1    C1 2852   2.784   0.043   9.957  0.0680  0.0820 -0.1007
  184MPD1    C2 2853   2.740   0.142   9.862 -0.1201  0.4138 -0.2362
  184MPD1    C3 2854   2.825   0.248   9.843  0.3174 -0.5318 -0.0104
  184MPD1    C4 2855   2.954   0.258   9.906  0.0026 -0.2789  0.0517
  184MPD1    C5 2856   2.993   0.143   9.967  0.0210  0.2488 -0.1530
  184MPD1     H 2857   2.645   0.127   9.812 -1.4093 -0.6254  2.5229
  184MPD1    H1 2858   3.022   0.338   9.880 -0.8280 -0.3899 -2.4974
  184MPD1    H2 2859   2.959   4.690  10.053 -0.5404 -0.9668 -0.1277
  184MPD1    H3 2860   3.094   0.129  10.006 -0.1829 -0.2486  0.1967
  184MPD1     N 2861   2.799   0.362   9.761  0.1252  0.0944 -0.1133
  184MPD1    H5 2862   2.877   0.422   9.737  1.8808 -2.7119 -1.5542
  184MPD1    N1 2863   2.696   4.675   9.987 -0.1872 -0.3188 -0.3341
  184MPD1    H6 2864   2.600   4.702   9.967 -1.4610 -2.8176  2.3714
  184MPD1    H7 2865   2.702   4.645  10.085  1.3863 -2.1924 -0.9829
  185MPD1     C 2866   2.332   0.378   8.856 -0.0525  0.1088 -0.3015
  185MPD1    C1 2867   2.371   0.508   8.873  0.0917  0.5046 -1.2683
  185MPD1    C2 2868   2.431   0.540   8.989 -0.4383 -0.4741 -0.5130
  185MPD1    C3 2869   2.437   0.449   9.096 -0.7875  0.7678 -0.5300
  185MPD1    C4 2870   2.392   0.317   9.079 -0.0653 -0.0576  0.3572
  185MPD1    C5 2871   2.346   0.285   8.956  0.2758 -0.1893  0.0655
  185MPD1     H 2872   2.472   0.639   9.003 -0.3859 -0.1206 -3.1339
  185MPD1    H1 2873   2.405   0.251   9.164 -0.1462 -1.8085 -1.0136
  185MPD1    H2 2874   2.297   0.343   8.759  1.0683  2.4561 -1.5775
  185MPD1    H3 2875   2.313   0.183   8.938  4.2987 -1.4090 -0.3018
  185MPD1     N 2876   2.478   0.480   9.229  0.2064 -0.0176 -0.5269
  185MPD1    H5 2877   2.477   0.398   9.289  0.2021  0.3489 -0.0369
  185MPD1    N1 2878   2.389   0.588   8.761 -0.7253 -0.4969  0.7331
  185MPD1    H6 2879   2.316   0.580   8.690  0.8126  0.1210 -0.9009
  185MPD1    H7 2880   2.384   0.688   8.779 -2.7487 -0.4107 -0.3189
  186MPD1     C 2881   0.683   0.221  15.668  0.3630  0.4794  0.1383
  186MPD1    C1 2882   0.819   0.242  15.678  0.2798  0.0667  0.2331
  186MPD1    C2 2883   0.895   0.130  15.710 -0.0925 -0.4076  0.2902
  186MPD1    C3 2884   0.839   0.013  15.759  0.5815  0.3347 -0.0157
  186MPD1    C4 2885   0.699   0.006  15.770  0.4521 -0.0903  0.2293
  186MPD1    C5 2886   0.626   0.113  15.725 -0.5908 -0.5063  0.8393
  186MPD1     H 2887   1.001   0.139  15.692 -0.2462  0.9007  0.0417
  186MPD1    H1 2888   0.641   4.666  15.820  0.3603  0.7622  1.4023
  186MPD1    H2 2889   0.617   0.300  15.633  0.7979  0.3649 -0.9677
  186MPD1    H3 2890   0.519   0.104  15.734 -0.8177  1.5934  0.4228
  186MPD1     N 2891   0.906   4.634  15.800  0.3574 -0.1217 -0.4601
  186MPD1    H5 2892   0.843   4.560  15.829  1.9828 -1.0703  0.6738
  186MPD1    N1 2893   0.882   0.353  15.617 -0.5234 -0.3250 -0.0183
  186MPD1    H6 2894   0.975   0.373  15.655 -1.3992  1.8485  1.0363
  186MPD1    H7 2895   0.828   0.439  15.612  0.6108  0.3656 -0.5243
  187MPD1     C 2896   0.712   1.961  17.556  0.6311 -0.2459  0.1335
  187MPD1    C1 2897   0.727   1.829  17.579 -0.9874 -0.4903 -1.0006
  187MPD1    C2 2898   0.696   1.747  17.474 -0.2542 -0.0073  0.0667
  187MPD1    C3 2899   0.658   1.799  17.349 -0.9794 -0.0478 -0.2078
  187MPD1    C4 2900   0.671   1.937  17.325 -0.8231  0.1406 -0.7709
  187MPD1    C5 2901   0.695   2.018  17.431  1.2040  0.1435  0.1345
  187MPD1     H 2902   0.684   1.640  17.488  0.0968  0.2007  1.9766
  187MPD1    H1 2903   0.639   1.979  17.231  2.0714  0.1776 -1.7418
  187MPD1    H2 2904   0.716   2.031  17.639  0.8613  1.0885 -0.9977
  187MPD1    H3 2905   0.702   2.126  17.417  0.8994  0.1201 -0.1962
  187MPD1     N 2906   0.617   1.725  17.240 -0.0098 -0.0807  0.0081
  187MPD1    H5 2907   0.595   1.780  17.158 -0.8014 -0.4679 -0.0410
  187MPD1    N1 2908   0.732   1.782  17.712 -0.1097  0.1033 -0.8830
  187MPD1    H6 2909   0.788   1.844   0.028  0.3801 -1.1812  0.0489
  187MPD1    H7 2910   0.762   1.685  17.719  0.7877  0.3169 -1.8325
  188MPD1     C 2911   0.244   1.627  10.208  0.2682 -0.0814 -0.7038
  188MPD1    C1 2912   0.324   1.519  10.235  0.5116  0.8931 -0.6944
  188MPD1    C2 2913   0.291   1.392  10.185 -0.4939 -0.4735  0.9792
  188MPD1    C3 2914   0.181   1.371  10.101  0.3519 -0.0862  0.5695
  188MPD1    C4 2915   0.094   1.484  10.095  0.6397 -0.1877 -0.1008
  188MPD1    C5 2916   0.125   1.605  10.143 -0.0099 -0.1067 -0.2627
  188MPD1     H 2917   0.367   1.319  10.210 -0.6862 -0.7144  0.8533
  188MPD1    H1 2918   0.014   1.475  10.023  0.2322 -1.5703  0.5410
  188MPD1    H2 2919   0.262   1.723  10.256  0.9218 -1.0540  1.0004
  188MPD1    H3 2920   0.050   1.682  10.126  1.0709  0.9074 -0.4412
  188MPD1     N 2921   0.143   1.249  10.048  0.3272  0.0197  0.0312
  188MPD1    H5 2922   0.051   1.247  10.005  0.7854 -0.1659 -0.9372
  188MPD1    N1 2923   0.431   1.537  10.323  0.2363 -0.0893 -0.4852
  188MPD1    H6 2924   0.471   1.630  10.308  0.3693  0.0214  0.5269
  188MPD1    H7 2925   0.511   1.475  10.318  0.3209 -0.1368  1.4577
  189MPD1     C 2926   2.178   2.481   0.524  0.1854 -0.8510 -0.4011
  189MPD1    C1 2927   2.125   2.392   0.442  0.0017 -0.0642  0.1481
  189MPD1    C2 2928   2.030   2.432   0.350  0.1791 -0.2670 -0.0453
  189MPD1    C3 2929   1.989   2.569   0.342  0.2642 -0.7864 -0.2025
  189MPD1    C4 2930   2.049   2.665   0.420  0.0568  0.0263  0.0450
  189MPD1    C5 2931   2.148   2.617   0.506  0.0448 -0.0183  0.5500
  189MPD1     H 2932   1.984   2.358   0.285 -1.7493  0.6545  0.2736
  189MPD1    H1 2933   2.043   2.773   0.411 -1.4688 -0.0769 -0.1863
  189MPD1    H2 2934   2.249   2.450   0.600 -1.3513 -1.1227  0.9066
  189MPD1    H3 2935   2.190   2.689   0.576 -1.0217  0.8109  0.3337
  189MPD1     N 2936   1.890   2.599   0.247  0.7148 -0.0636  0.4629
  189MPD1    H5 2937   1.852   2.523   0.191  0.8604  1.1982 -1.3410
  189MPD1    N1 2938   2.164   2.261   0.451 -0.3763  0.6122 -0.0383
  189MPD1    H6 2939   2.095   2.201   0.405 -0.1240  0.1263  0.2165
  189MPD1    H7 2940   2.147   2.243   0.550 -0.7552  0.9555 -0.0387
  190MPD1     C 2941   0.668   0.136  15.095 -0.0911  0.2451 -0.4234
  190MPD1    C1 2942   0.652   0.205  15.215  0.5733  0.0982 -0.9784
  190MPD1    C2 2943   0.759   0.265  15.270 -0.0691 -0.1199  0.2231
  190MPD1    C3 2944   0.882   0.264  15.206  0.2556  0.4347  0.1684
  190MPD1    C4 2945   0.895   0.208  15.078 -0.9435  1.4683 -0.2929
  190MPD1    C5 2946   0.790   0.141  15.027 -0.0213 -0.5703 -0.0137
  190MPD1     H 2947   0.754   0.312  15.368 -0.5448 -0.3773  0.3226
  190MPD1    H1 2948   0.979   0.224  15.011 -0.1946 -1.3559 -0.0374
  190MPD1    H2 2949   0.591   0.080  15.043 -0.2536 -0.1850  0.2695
  190MPD1    H3 2950   0.801   0.097  14.929 -2.6054  2.0383 -1.4702
  190MPD1     N 2951   0.985   0.331  15.273 -0.4059  0.4039  0.3457
  190MPD1    H5 2952   0.971   0.353  15.372  0.8523 -0.8241  0.7830
  190MPD1    N1 2953   0.527   0.203  15.274  0.5509 -0.2755 -0.3805
  190MPD1    H6 2954   0.507   0.294  15.316  1.5021  0.2578 -1.0825
  190MPD1    H7 2955   0.457   0.188  15.201  0.3080 -2.0555  0.2398
  191MPD1     C 2956   4.590   1.884  13.484 -1.0118  0.2187 -0.4725
  191MPD1    C1 2957   4.663   1.952  13.392  0.9939  0.3043 -0.3872
  191MPD1    C2 2958   4.608   2.070  13.338  0.3018 -0.5319 -0.1781
  191MPD1    C3 2959   4.488   2.115  13.377 -0.2801  0.9558  1.1105
  191MPD1    C4 2960   4.413   2.052  13.479  0.9156  0.5113  0.1987
  191MPD1    C5 2961   4.467   1.932  13.527 -0.2438 -0.2877 -0.2222
  191MPD1     H 2962   4.657   2.133  13.264 -2.6449  1.0860 -0.7356
  191MPD1    H1 2963   4.310   2.083  13.496  0.9565  1.7957 -2.0104
  191MPD1    H2 2964   4.611   1.788  13.530  0.4554  1.5061  1.5858
  191MPD1    H3 2965   4.429   1.872  13.608 -1.3995  2.2349  1.1059
  191MPD1     N 2966   4.442   2.225  13.306  0.0426 -0.0123 -0.4593
  191MPD1    H5 2967   4.498   2.256  13.227 -1.0709  1.0073 -0.8588
  191MPD1    N1 2968   0.040   1.885  13.344  0.0263  0.3404 -0.0632
  191MPD1    H6 2969   0.094   1.955  13.293  3.2115 -0.4681  2.2306
  191MPD1    H7 2970   0.097   1.833  13.410 -1.1439 -2.5732 -1.3825
  192MPD1     C 2971   3.649   3.016  13.290 -0.1759 -0.3416  0.6529
  192MPD1    C1 2972   3.697   2.937  13.391 -0.1468 -0.3346 -0.0780
  192MPD1    C2 2973   3.803   2.846  13.365 -0.4861 -0.3098  0.3792
  192MPD1    C3 2974   3.848   2.832  13.235 -0.2488  0.6141  0.2033
  192MPD1    C4 2975   3.801   2.916  13.136  0.2690  0.3077  0.0688
  192MPD1    C5 2976   3.688   2.992  13.159  0.4420  0.6279 -0.7497
  192MPD1     H 2977   3.845   2.798  13.452  0.4048 -0.3518 -0.0730
  192MPD1    H1 2978   3.838   2.897  13.036 -1.4758 -0.4629 -0.4317
  192MPD1    H2 2979   3.563   3.077  13.314 -0.7203 -1.1558  0.8016
  192MPD1    H3 2980   3.651   3.058  13.081 -0.9223 -0.5605 -1.1049
  192MPD1     N 2981   3.955   2.742  13.197 -0.6845 -0.1293 -0.0900
  192MPD1    H5 2982   3.996   2.774  13.110  1.1361 -0.3239  0.6957
  192MPD1    N1 2983   3.654   2.955  13.519 -0.0358 -0.2019 -0.1832
  192MPD1    H6 2984   3.563   3.001  13.525 -0.8041 -1.8399  0.6698
  192MPD1    H7 2985   3.655   2.874  13.580 -0.5972 -1.2313 -1.5276
  193MPD1     C 2986   4.449   2.485  17.514  0.8611  0.4676 -0.2818
  193MPD1    C1 2987   4.504   2.427  17.407  0.6607 -0.5609  0.3977
  193MPD1    C2 2988   4.534   2.508  17.296  0.2858  0.4938 -0.3435
  193MPD1    C3 2989   4.482   2.639  17.282 -0.5228 -0.0344 -0.2026
  193MPD1    C4 2990   4.412   2.689  17.388  0.4627 -0.1307 -0.2782
  193MPD1    C5 2991   4.401   2.614  17.505  0.4668  0.2180  0.0594
  193MPD1     H 2992   4.590   2.461  17.216 -1.4483 -4.8151  1.5353
  193MPD1    H1 2993   4.358   2.783  17.381  0.0404 -0.2500  1.3488
  193MPD1    H2 2994   4.447   2.435  17.610 -0.0274  0.7345 -0.1668
  193MPD1    H3 2995   4.352   2.661  17.589  0.6253 -1.3277  1.0255
  193MPD1     N 2996   4.506   2.722  17.164  0.0282 -0.9850  0.5231
  193MPD1    H5 2997   4.470   2.816  17.174  0.8944 -0.2126 -3.5376
  193MPD1    N1 2998   4.568   2.302  17.416  0.6666  0.0483 -0.1528
  193MPD1    H6 2999   4.553   2.248  17.331 -0.3852  1.9074 -1.1465
  193MPD1    H7 3000   4.516   2.245  17.482 -0.1099  1.9335  0.8508
  194MPD1     C 3001   2.930   0.284  16.888  0.3023 -0.4573 -0.6666
  194MPD1    C1 3002   2.989   0.251  17.003  0.2219  0.5481 -0.0993
  194MPD1    C2 3003   2.967   0.131  17.067  0.0519 -0.6049 -0.5666
  194MPD1    C3 3004   2.867   0.048  17.017  0.0738  0.4760 -0.4638
  194MPD1    C4 3005   2.805   0.088  16.908 -0.1529  0.4621 -0.1071
  194MPD1    C5 3006   2.837   0.201  16.844  0.1468  0.0402  0.5382
  194MPD1     H 3007   3.033   0.105  17.149 -2.6575 -0.6468  1.5792
  194MPD1    H1 3008   2.739   0.017  16.859 -0.1573  0.1579  0.3455
  194MPD1    H2 3009   2.943   0.376  16.833 -0.4468 -0.6866 -1.2261
  194MPD1    H3 3010   2.801   0.217  16.743  0.9105 -0.7144  0.1420
  194MPD1     N 3011   2.852   4.649  17.059 -0.3762  0.0951 -0.2619
  194MPD1    H5 3012   2.774   4.592  17.028 -0.8345 -0.0014  1.0548
  194MPD1    N1 3013   3.088   0.341  17.054 -0.1414  0.2867 -0.2386
  194MPD1    H6 3014   3.087   0.436  17.018  1.2994  0.5567  0.4203
  194MPD1    H7 3015   3.074   0.350  17.155  1.6476  0.4041  0.0016
  195MPD1     C 3016   4.674   2.174   0.335 -0.4084 -0.6547 -0.2406
  195MPD1    C1 3017   4.554   2.122   0.388  0.1885  0.3946 -0.0279
  195MPD1    C2 3018   4.542   1.988   0.400  0.0241  0.3998 -0.3383
  195MPD1    C3 3019   4.650   1.903   0.386 -0.0501 -0.2618  0.8891
  195MPD1    C4 3020   0.031   1.955   0.336  0.1448 -0.3303  0.2257
  195MPD1    C5 3021   0.044   2.087   0.315  0.5023  0.5773 -0.3242
  195MPD1     H 3022   4.441   1.951   0.418 -0.1146  0.6275 -0.6533
  195MPD1    H1 3023   0.116   1.888   0.324  1.0904  1.2912 -2.2218
  195MPD1    H2 3024   4.695   2.278   0.311 -1.3765 -0.6083 -0.8816
  195MPD1    H3 3025   0.138   2.122   0.274 -0.8236  1.7226 -2.4089
  195MPD1     N 3026   4.650   1.760   0.393  0.0346 -0.1829 -0.0007
  195MPD1    H5 3027   4.725   1.718   0.340 -0.8058 -1.0750 -0.4907
  195MPD1    N1 3028   4.450   2.213   0.403 -0.3851  0.6351 -0.3318
  195MPD1    H6 3029   4.476   2.309   0.424  1.0049 -0.1065  1.3300
  195MPD1    H7 3030   4.385   2.195   0.479 -0.5048  0.9654 -0.3546
  196MPD1     C 3031   3.817   0.266   0.518  0.3362 -0.2935 -0.8410
  196MPD1    C1 3032   3.714   0.319   0.439  0.1551  0.2499 -0.4271
  196MPD1    C2 3033   3.648   0.432   0.482 -0.0594  0.1438  0.5847
  196MPD1    C3 3034   3.679   0.501   0.599  0.6919 -0.1549 -0.4508
  196MPD1    C4 3035   3.770   0.435   0.680 -0.8681  0.1860  0.1306
  196MPD1    C5 3036   3.843   0.326   0.637 -0.0044 -0.3770  0.7404
  196MPD1     H 3037   3.561   0.455   0.421 -0.1470 -2.0108 -0.1025
  196MPD1    H1 3038   3.799   0.478   0.775  0.0279 -1.1383  0.4554
  196MPD1    H2 3039   3.861   0.171   0.488 -1.8617 -2.0845  1.6360
  196MPD1    H3 3040   3.914   0.279   0.704 -2.1221 -2.1518  1.7500
  196MPD1     N 3041   3.617   0.620   0.631 -0.1391  0.3466  0.4735
  196MPD1    H5 3042   3.636   0.660   0.723 -0.1686  2.6747 -0.5446
  196MPD1    N1 3043   3.672   0.237   0.328 -0.7244 -0.6345  0.1358
  196MPD1    H6 3044   3.604   0.283   0.268 -0.8285  0.7475  1.2960
  196MPD1    H7 3045   3.748   0.201   0.271  0.8773  2.3168  0.4085
  197MPD1     C 3046   2.797   3.793  17.370  0.5672 -0.7093 -0.5453
  197MPD1    C1 3047   2.798   3.786  17.232  0.1359  0.2548  0.2215
  197MPD1    C2 3048   2.909   3.735  17.167  0.2642 -0.2276  0.3802
  197MPD1    C3 3049   3.029   3.723  17.237  0.2668  0.3707  0.0760
  197MPD1    C4 3050   3.031   3.762  17.373 -0.2422 -0.6075 -0.2772
  197MPD1    C5 3051   2.912   3.782  17.439 -0.7514  0.0422 -0.2899
  197MPD1     H 3052   2.904   3.718  17.060  0.2881 -1.9747  0.6500
  197MPD1    H1 3053   3.124   3.767  17.430 -0.4400 -1.6633  0.1321
  197MPD1    H2 3054   2.705   3.810  17.425 -0.5826 -0.0955 -2.6303
  197MPD1    H3 3055   2.923   3.808  17.544 -0.6926  0.8525 -0.4987
  197MPD1     N 3056   3.142   3.678  17.170 -0.0211  0.1389  0.4142
  197MPD1    H5 3057   3.226   3.688  17.227  0.0773  1.5124  0.0017
  197MPD1    N1 3058   2.678   3.801  17.160 -0.0185 -0.8285  0.2381
  197MPD1    H6 3059   2.629   3.885  17.190  1.0430  0.2472 -1.0228
  197MPD1    H7 3060   2.696   3.808  17.060 -0.9855 -0.2509  0.1062
  198MPD1     C 3061   0.650   2.002  15.137  0.1206 -0.1406  0.6690
  198MPD1    C1 3062   0.746   1.898  15.137 -0.2324  0.5881 -0.2537
  198MPD1    C2 3063   0.774   1.829  15.250  0.0824 -0.5222 -0.3156
  198MPD1    C3 3064   0.703   1.858  15.368  0.1127 -0.0076  0.3795
  198MPD1    C4 3065   0.616   1.962  15.371 -0.3512 -0.4142  0.5657
  198MPD1    C5 3066   0.590   2.032  15.257  0.1586  0.2681 -0.5029
  198MPD1     H 3067   0.831   1.737  15.251  0.0231 -0.5360  1.7746
  198MPD1    H1 3068   0.559   1.985  15.460 -0.5915 -0.7077  0.4878
  198MPD1    H2 3069   0.640   2.059  15.046 -2.4376 -0.5401  0.6897
  198MPD1    H3 3070   0.531   2.122  15.263 -2.6485 -1.7311  2.1839
  198MPD1     N 3071   0.740   1.791  15.483 -0.3020 -0.0120 -0.0515
  198MPD1    H5 3072   0.815   1.724  15.481 -0.9094 -0.7352  1.4187
  198MPD1    N1 3073   0.812   1.867  15.017 -0.0644 -0.1876  0.5887
  198MPD1    H6 3074   0.804   1.936  14.944  1.5540  0.9963  1.5306
  198MPD1    H7 3075   0.909   1.835  15.027  0.7313  2.7492  2.4833
  199MPD1     C 3076   2.933   3.336  10.310  0.6463 -0.1491  1.1906
  199MPD1    C1 3077   2.935   3.421  10.200 -0.0575  0.1714  0.3524
  199MPD1    C2 3078   2.816   3.465  10.139  0.0609 -0.7331  0.3963
  199MPD1    C3 3079   2.690   3.421  10.187 -0.5703 -0.1673  0.0890
  199MPD1    C4 3080   2.690   3.334  10.293 -0.3573  0.4374  0.1430
  199MPD1    C5 3081   2.808   3.300  10.353 -1.0855 -0.2545  0.5022
  199MPD1     H 3082   2.830   3.524  10.050  3.2362  0.5128  1.7352
  199MPD1    H1 3083   2.603   3.291  10.342 -0.1851 -1.0240 -0.8292
  199MPD1    H2 3084   3.014   3.303  10.373  0.8140 -3.3481 -0.6562
  199MPD1    H3 3085   2.803   3.234  10.439 -0.7048 -1.4335 -0.3746
  199MPD1     N 3086   2.573   3.444  10.119  0.4307  0.2199 -0.3506
  199MPD1    H5 3087   2.493   3.395  10.158  0.0668  0.5966 -0.6107
  199MPD1    N1 3088   3.053   3.481  10.160  0.2437 -0.2880  0.3234
  199MPD1    H6 3089   3.060   3.488  10.058  0.0094  1.3997  0.4191
  199MPD1    H7 3090   3.139   3.434  10.188  0.3772 -1.3553 -1.8400
  200MPD1     C 3091   1.652   2.546  16.562 -0.3808  0.2299  0.3568
  200MPD1    C1 3092   1.764   2.502  16.514  0.0290 -0.7622 -0.9438
  200MPD1    C2 3093   1.762   2.469  16.377 -0.2212  0.0275 -0.3950
  200MPD1    C3 3094   1.657   2.489  16.289  0.1194  0.4436  0.2241
  200MPD1    C4 3095   1.544   2.560  16.345  0.2045 -0.0003  0.6972
  200MPD1    C5 3096   1.545   2.582  16.482  0.1004  0.7946  0.6488
  200MPD1     H 3097   1.839   2.411  16.327  0.2473  1.6577 -1.5980
  200MPD1    H1 3098   1.458   2.589  16.285  1.1215 -0.8312 -1.0035
  200MPD1    H2 3099   1.647   2.565  16.669  4.1679  1.0219  0.4000
  200MPD1    H3 3100   1.457   2.617  16.535 -0.4792  1.5979 -0.8648
  200MPD1     N 3101   1.684   2.452  16.154  0.1484  0.4595  0.4875
  200MPD1    H5 3102   1.760   2.386  16.142  1.1648  1.5767  0.7455
  200MPD1    N1 3103   1.862   2.441  16.595  0.4976  0.0898  0.1433
  200MPD1    H6 3104   1.950   2.443  16.544  1.9411  1.5313  2.6677
  200MPD1    H7 3105   1.878   2.484  16.686  0.7397  1.6736 -0.6445
  201MPD1     C 3106   3.600   1.973  13.896  0.1691  0.4691  0.0336
  201MPD1    C1 3107   3.735   1.971  13.881  0.0150 -0.3792  0.4987
  201MPD1    C2 3108   3.795   1.857  13.825 -0.0123 -0.7214 -0.0322
  201MPD1    C3 3109   3.722   1.742  13.785 -0.1363  0.0327 -0.6270
  201MPD1    C4 3110   3.587   1.746  13.813  0.3236 -0.1123  0.3571
  201MPD1    C5 3111   3.531   1.866  13.856  0.0821 -0.0956 -0.2029
  201MPD1     H 3112   3.902   1.861  13.814 -0.0627  0.5261 -0.0163
  201MPD1    H1 3113   3.511   1.670  13.797  0.0388  0.2898 -0.2263
  201MPD1    H2 3114   3.542   2.062  13.918 -0.2319  0.7759 -2.2419
  201MPD1    H3 3115   3.424   1.865  13.873 -0.1193  0.1373 -1.4636
  201MPD1     N 3116   3.796   1.627  13.752  0.0468 -0.2450  0.4813
  201MPD1    H5 3117   3.897   1.629  13.757  0.0236  0.0812  0.8292
  201MPD1    N1 3118   3.807   2.086  13.907 -0.1755 -0.3214  0.6938
  201MPD1    H6 3119   3.906   2.065  13.917  0.3004  2.4210  1.7289
  201MPD1    H7 3120   3.773   2.142  13.985 -3.0468  2.1393 -2.3199
  202MPD1     C 3121   4.703   2.084  10.502 -0.0877 -0.2221  0.3237
  202MPD1    C1 3122   4.708   2.209  10.454  0.0023  0.3921 -0.3811
  202MPD1    C2 3123   4.616   2.242  10.356  0.0101 -0.1576  0.4539
  202MPD1    C3 3124   4.520   2.157  10.312  0.0573  0.3886  0.8291
  202MPD1    C4 3125   4.504   2.039  10.385  0.0388  0.5370 -0.2554
  202MPD1    C5 3126   4.597   2.003  10.478  0.1500 -0.0694 -0.0660
  202MPD1     H 3127   4.636   2.332  10.299  0.6463 -0.6367 -0.0813
  202MPD1    H1 3128   4.415   1.977  10.375 -0.9759  1.9405  0.0354
  202MPD1    H2 3129   0.041   2.045  10.571  0.7289  1.6005  0.4721
  202MPD1    H3 3130   4.599   1.905  10.526  2.1567  1.4185  2.9017
  202MPD1     N 3131   4.425   2.179  10.214 -0.3032 -1.0822 -0.3060
  202MPD1    H5 3132   4.380   2.097  10.177 -1.9953 -0.5697  0.6308
  202MPD1    N1 3133   0.094   2.267  10.461  0.4263  0.3076 -0.0019
  202MPD1    H6 3134   0.083   2.368  10.467  0.6773  0.4463 -1.9097
  202MPD1    H7 3135   0.135   2.236  10.549 -3.8143 -0.0696  1.8521
  203MPD1     C 3136   2.437   2.431  12.614 -0.3692  0.3092  0.5272
  203MPD1    C1 3137   2.493   2.365  12.504  0.3447  0.5619 -0.9044
  203MPD1    C2 3138   2.557   2.241  12.539 -0.3739 -0.0755  0.3365
  203MPD1    C3 3139   2.579   2.201  12.670  0.4336  0.2350  0.0485
  203MPD1    C4 3140   2.525   2.279  12.772  0.0247  0.0852  0.4993
  203MPD1    C5 3141   2.453   2.387  12.742 -0.0945 -0.1565  0.2199
  203MPD1     H 3142   2.598   2.183  12.458 -0.1198  1.3234 -0.5356
  203MPD1    H1 3143   2.539   2.257  12.878  0.5158 -0.2449  0.3613
  203MPD1    H2 3144   2.372   2.517  12.606 -2.5218 -1.4253 -0.5547
  203MPD1    H3 3145   2.424   2.447  12.827  0.2338 -0.1980  0.3598
  203MPD1     N 3146   2.649   2.079  12.687 -0.5019  0.1901  0.2669
  203MPD1    H5 3147   2.668   2.025  12.603 -0.6299  0.1408  0.2706
  203MPD1    N1 3148   2.464   2.406  12.374 -0.1892 -0.0193 -0.1664
  203MPD1    H6 3149   2.455   2.506  12.359  1.3487  0.1009 -0.2768
  203MPD1    H7 3150   2.528   2.365  12.307  1.1708  0.8694  0.5871
  204MPD1     C 3151   2.376   4.051  17.421  0.5885 -0.1623 -0.1617
  204MPD1    C1 3152   2.411   3.999  17.296  0.3005  0.3936  0.2501
  204MPD1    C2 3153   2.398   3.867  17.270 -0.9030  0.6032  0.5150
  204MPD1    C3 3154   2.344   3.778  17.364 -0.7521 -0.6948  0.1381
  204MPD1    C4 3155   2.321   3.827  17.490 -0.0961 -0.3362 -0.5915
  204MPD1    C5 3156   2.336   3.959  17.513  0.2846  0.0912 -1.0223
  204MPD1     H 3157   2.409   3.837  17.167  1.8605  1.3773  0.5852
  204MPD1    H1 3158   2.280   3.766  17.570 -2.0408  2.0019  0.2278
  204MPD1    H2 3159   2.387   4.157  17.441  1.5210 -0.8972  3.2090
  204MPD1    H3 3160   2.308   3.996  17.611  1.2638 -2.4986  0.2348
  204MPD1     N 3161   2.335   3.644  17.323 -0.2232 -0.5529  0.6429
  204MPD1    H5 3162   2.371   3.609  17.235  0.4057  3.1195 -0.5354
  204MPD1    N1 3163   2.405   4.093  17.188 -0.1166 -0.4084  0.1202
  204MPD1    H6 3164   2.430   4.190  17.208 -2.6499  0.1545  0.5283
  204MPD1    H7 3165   2.471   4.069  17.114 -1.3867 -0.6555 -0.9435
  205MPD1     C 3166   2.016   2.136  17.118 -0.7601  0.0521 -0.1182
  205MPD1    C1 3167   2.072   2.037  17.200 -0.3546  0.2184  0.6737
  205MPD1    C2 3168   2.169   2.079  17.298  0.1086  0.1878  0.3282
  205MPD1    C3 3169   2.219   2.210  17.297  0.6388 -0.1053 -0.1007
  205MPD1    C4 3170   2.168   2.296  17.205  0.7905 -0.0808 -0.2138
  205MPD1    C5 3171   2.063   2.267  17.124 -0.8952  0.4114  0.3408
  205MPD1     H 3172   2.212   2.003  17.363 -0.2219  0.1863  0.5475
  205MPD1    H1 3173   2.210   2.396  17.193 -0.8451  0.9634  2.5863
  205MPD1    H2 3174   1.936   2.116  17.048 -0.3403  2.4607 -1.2719
  205MPD1    H3 3175   2.023   2.341  17.056 -0.3769 -0.4369 -0.8999
  205MPD1     N 3176   2.329   2.259  17.377 -0.0643  0.4450  0.0609
  205MPD1    H5 3177   2.350   2.359  17.372  1.1581  0.0955 -1.6768
  205MPD1    N1 3178   2.011   1.915  17.212  0.2145 -0.4726 -0.7503
  205MPD1    H6 3179   2.082   1.847  17.240 -1.8980 -1.7697  1.4325
  205MPD1    H7 3180   1.965   1.888  17.126 -1.5433 -0.6055  0.2498
  206MPD1     C 3181   3.195   4.254  16.546  0.3713 -0.0794  0.5479
  206MPD1    C1 3182   3.220   4.374  16.492  0.1372  0.0213  0.1181
  206MPD1    C2 3183   3.122   4.441  16.423  0.2112  0.3082  0.1736
  206MPD1    C3 3184   3.006   4.378  16.386 -0.4531  0.1165 -0.1145
  206MPD1    C4 3185   2.988   4.250  16.428 -0.5039 -0.5066  0.6075
  206MPD1    C5 3186   3.081   4.193  16.513  0.0600 -0.3558  0.3583
  206MPD1     H 3187   3.137   4.539  16.380 -0.9890  0.9814  1.3134
  206MPD1    H1 3188   2.897   4.193  16.411 -0.7888  0.0851  0.1738
  206MPD1    H2 3189   3.263   4.211  16.618  0.8105 -0.6537 -0.2104
  206MPD1    H3 3190   3.062   4.094  16.553 -0.8249  0.2402  1.4358
  206MPD1     N 3191   2.914   4.437  16.305  0.2900 -0.3407  0.1910
  206MPD1    H5 3192   2.829   4.386  16.284  0.5537 -0.9720  0.6633
  206MPD1    N1 3193   3.345   4.432  16.524  0.1264  0.3006  0.1336
  206MPD1    H6 3194   3.381   4.499  16.456  2.3552 -1.2058 -0.1626
  206MPD1    H7 3195   3.419   4.362  16.529  0.7426  0.9220 -0.3895
  207MPD1     C 3196   1.675   2.516   9.258  0.5748 -0.2776  0.7665
  207MPD1    C1 3197   1.640   2.408   9.337  1.3606  0.2141 -0.0842
  207MPD1    C2 3198   1.543   2.424   9.432 -0.2359 -0.7396  0.9645
  207MPD1    C3 3199   1.501   2.551   9.463 -0.3968  0.0450 -0.0614
  207MPD1    C4 3200   1.546   2.661   9.389  0.1671 -0.1803 -0.9213
  207MPD1    C5 3201   1.634   2.642   9.282  0.3663  0.1850  0.5690
  207MPD1     H 3202   1.501   2.340   9.486 -2.5996 -0.6788 -0.8279
  207MPD1    H1 3203   1.523   2.765   9.409  2.5682  0.0462  0.7119
  207MPD1    H2 3204   1.747   2.511   9.177  0.0992 -0.4884  0.3623
  207MPD1    H3 3205   1.674   2.727   9.227  0.9166 -0.4584 -0.0209
  207MPD1     N 3206   1.397   2.585   9.557  0.4450  0.7259  0.1469
  207MPD1    H5 3207   1.393   2.686   9.567 -2.2316  0.8184 -1.7850
  207MPD1    N1 3208   1.681   2.281   9.300 -0.3898  0.0023 -0.4150
  207MPD1    H6 3209   1.778   2.284   9.270 -0.3302 -2.3234 -0.4777
  207MPD1    H7 3210   1.682   2.210   9.373  1.5459  0.6295  0.1439
  208MPD1     C 3211   2.971   1.634  17.027  0.3107  0.6158  0.2902
  208MPD1    C1 3212   2.945   1.720  17.130 -0.1341 -0.0334  0.0668
  208MPD1    C2 3213   2.986   1.697  17.265 -0.1129  0.3153 -0.7692
  208MPD1    C3 3214   3.028   1.571  17.301  0.0703  0.9137 -0.1794
  208MPD1    C4 3215   3.034   1.473  17.203  0.3519 -1.0460 -1.0695
  208MPD1    C5 3216   3.018   1.510  17.071  0.5824  0.6867 -0.2294
  208MPD1     H 3217   2.977   1.771  17.344 -1.8792 -1.9703  1.1572
  208MPD1    H1 3218   3.075   1.373  17.210 -1.0814 -1.5569 -0.0666
  208MPD1    H2 3219   2.974   1.660  16.922 -1.6111 -0.7193 -0.0876
  208MPD1    H3 3220   3.033   1.431  16.997 -0.9075  1.6297 -1.5431
  208MPD1     N 3221   3.053   1.540  17.438 -0.0232 -0.4598  0.1838
  208MPD1    H5 3222   3.013   1.610  17.500  0.5707 -1.0114  1.1858
  208MPD1    N1 3223   2.896   1.849  17.103  0.4594 -0.1505  0.0338
  208MPD1    H6 3224   2.832   1.844  17.025 -0.9726  1.7200  1.0936
  208MPD1    H7 3225   2.859   1.890  17.189  1.6941  0.6263  0.1904
  209MPD1     C 3226   0.532   1.346  10.876 -0.2226  0.0989  0.7437
  209MPD1    C1 3227   0.562   1.435  10.971  0.5192 -0.2110 -0.1046
  209MPD1    C2 3228   0.603   1.562  10.925 -0.1975 -0.4477  0.0188
  209MPD1    C3 3229   0.627   1.588  10.791 -0.1335  0.0889 -0.5078
  209MPD1    C4 3230   0.591   1.497  10.699  0.3641  0.2878 -0.5378
  209MPD1    C5 3231   0.545   1.375  10.739 -0.1066  0.3622  0.5619
  209MPD1     H 3232   0.626   1.638  10.998 -2.1238  0.2625 -0.0946
  209MPD1    H1 3233   0.592   1.516  10.592  0.6820 -0.4468 -0.6634
  209MPD1    H2 3234   0.499   1.244  10.887  2.8954 -1.1943 -1.9370
  209MPD1    H3 3235   0.525   1.299  10.665  0.7550  0.6494  0.0436
  209MPD1     N 3236   0.671   1.723  10.767 -0.0990  0.0416  0.0150
  209MPD1    H5 3237   0.683   1.783  10.848  0.4451 -1.1845  0.8407
  209MPD1    N1 3238   0.513   1.420  11.102 -0.0969 -0.2549  0.1310
  209MPD1    H6 3239   0.515   1.328  11.146  2.0717 -0.1425  0.2675
  209MPD1    H7 3240   0.561   1.479  11.169 -0.9544  1.4185 -0.7131
  210MPD1     C 3241   0.489   2.516  11.216  0.1087  0.4181 -0.9441
  210MPD1    C1 3242   0.544   2.397  11.247 -0.7263  0.4427 -0.0407
  210MPD1    C2 3243   0.603   2.330  11.132 -0.0199  0.5924 -1.0171
  210MPD1    C3 3244   0.596   2.385  11.004  0.8272 -0.2571  0.2102
  210MPD1    C4 3245   0.543   2.513  10.973  0.3070 -0.9070  0.2433
  210MPD1    C5 3246   0.487   2.575  11.086  0.8846 -0.1218 -0.0275
  210MPD1     H 3247   0.643   2.231  11.149  0.8214  0.8927 -1.2342
  210MPD1    H1 3248   0.549   2.560  10.876 -0.7407 -0.0449  0.5905
  210MPD1    H2 3249   0.453   2.586  11.291  1.0347 -0.1326  0.0179
  210MPD1    H3 3250   0.452   2.677  11.075  0.1853 -0.3587  0.0152
  210MPD1     N 3251   0.628   2.310  10.885  0.0764 -0.8430 -0.0976
  210MPD1    H5 3252   0.630   2.359  10.797 -2.8583 -1.2212 -0.3750
  210MPD1    N1 3253   0.529   2.338  11.380  0.6342 -0.2340 -0.1734
  210MPD1    H6 3254   0.516   2.412  11.449 -0.7326 -1.5508  0.9894
  210MPD1    H7 3255   0.615   2.288  11.400  0.0219 -1.4534 -0.5670
  211MPD1     C 3256   2.762   1.297  17.520 -0.1653  0.5075  0.3494
  211MPD1    C1 3257   2.673   1.381  17.583 -0.1961 -0.0344  0.1301
  211MPD1    C2 3258   2.605   1.463  17.502  0.5865 -0.1948  0.3556
  211MPD1    C3 3259   2.610   1.471  17.367  0.1368  0.2015 -0.2147
  211MPD1    C4 3260   2.689   1.383  17.306 -0.6746  0.7666 -0.2514
  211MPD1    C5 3261   2.774   1.307  17.380 -0.3803 -0.6236 -0.9677
  211MPD1     H 3262   2.550   1.543  17.551  3.8468  2.5859 -0.4723
  211MPD1    H1 3263   2.700   1.382  17.198  1.2367 -1.5001 -0.0381
  211MPD1    H2 3264   2.831   1.234  17.574  2.3643  0.7386 -2.6856
  211MPD1    H3 3265   2.854   1.250  17.334  1.7634  1.4968  0.1299
  211MPD1     N 3266   2.544   1.574  17.291  0.1258 -0.1479 -0.5371
  211MPD1    H5 3267   2.494   1.644  17.344  1.3488  1.1080 -1.0402
  211MPD1    N1 3268   2.684   1.393  17.721  0.1293  0.2255 -0.5886
  211MPD1    H6 3269   2.684   1.301   0.023 -1.0414  1.0839  1.2168
  211MPD1    H7 3270   2.596   1.428   0.015  0.2264  0.1993 -0.3209
  212MPD1     C 3271   2.222   0.011  16.486  0.4041  0.1726  0.8368
  212MPD1    C1 3272   2.157   0.084  16.582 -0.2267 -0.0523 -0.2811
  212MPD1    C2 3273   2.037   0.039  16.627 -0.3049  0.5226  0.9682
  212MPD1    C3 3274   1.982   4.653  16.588 -0.0766  0.3828 -0.2749
  212MPD1    C4 3275   2.052   4.582  16.497 -0.7701  0.2309 -0.7136
  212MPD1    C5 3276   2.177   4.623  16.453 -0.1687 -0.2737 -0.6124
  212MPD1     H 3277   1.982   0.096  16.701 -0.9964 -0.2380  1.0378
  212MPD1    H1 3278   2.022   4.483  16.463 -0.6389 -1.1748  3.2927
  212MPD1    H2 3279   2.317   0.047  16.449  0.7142 -0.1094  1.3531
  212MPD1    H3 3280   2.235   4.569  16.378 -3.5633 -0.3914 -3.1358
  212MPD1     N 3281   1.850   4.607  16.628 -1.1584  0.1061 -0.4317
  212MPD1    H5 3282   1.810   4.528  16.578 -1.2013 -0.4930  0.5441
  212MPD1    N1 3283   2.216   0.211  16.617 -0.0449  0.0541  0.2698
  212MPD1    H6 3284   2.218   0.229  16.717 -0.5138  1.9886 -0.0771
  212MPD1    H7 3285   2.312   0.211  16.584  0.6778  2.9489  2.4742
  213MPD1     C 3286   4.700   0.794  16.040  0.0979 -0.7961 -0.0577
  213MPD1    C1 3287   4.631   0.703  15.958  0.6073  0.5974 -0.3447
  213MPD1    C2 3288   4.612   0.743  15.827  0.6534 -0.4342  0.5553
  213MPD1    C3 3289   4.681   0.852  15.772 -0.4280  0.8310 -0.3731
  213MPD1    C4 3290   0.036   0.927  15.853  0.3475 -0.0118  0.2707
  213MPD1    C5 3291   0.038   0.896  15.983 -0.4514 -0.4926  0.0965
  213MPD1     H 3292   4.536   0.699  15.764  1.3062  0.2751 -0.7193
  213MPD1    H1 3293   0.097   1.010  15.819 -1.8174  1.1820 -0.7096
  213MPD1    H2 3294   4.723   0.768  16.142  0.2396  1.2255  0.4228
  213MPD1    H3 3295   0.116   0.945  16.041 -0.3139 -1.9210  1.1123
  213MPD1     N 3296   4.664   0.877  15.634 -0.1526  0.0060  0.1606
  213MPD1    H5 3297   4.613   0.802  15.588 -1.3822  0.6726  0.4336
  213MPD1    N1 3298   4.546   0.611  16.013 -0.3925  0.0683  0.9501
  213MPD1    H6 3299   4.585   0.575  16.100 -1.5172 -0.5960  1.1868
  213MPD1    H7 3300   4.517   0.530  15.958  1.5976 -1.2790  1.9026
  214MPD1     C 3301   4.148   0.348  15.212  0.4625  0.7176 -0.2092
  214MPD1    C1 3302   4.160   0.444  15.112 -0.1798  0.0652 -0.2987
  214MPD1    C2 3303   4.223   0.566  15.145 -0.0157  0.1254 -0.4535
  214MPD1    C3 3304   4.292   0.587  15.260 -0.3168 -0.4701  0.3180
  214MPD1    C4 3305   4.272   0.489  15.361  0.2869 -0.1881  0.0141
  214MPD1    C5 3306   4.207   0.372  15.337  0.0100 -0.4585 -0.5595
  214MPD1     H 3307   4.243   0.625  15.057 -0.5576  3.1511  1.4766
  214MPD1    H1 3308   4.312   0.515  15.458  3.1933  2.8248 -1.9862
  214MPD1    H2 3309   4.090   0.258  15.192  0.4841  0.4416  0.9613
  214MPD1    H3 3310   4.196   0.304  15.421 -1.5100  1.4682  0.8000
  214MPD1     N 3311   4.377   0.694  15.290 -0.3957 -0.4788 -0.2555
  214MPD1    H5 3312   4.406   0.700  15.387 -0.0172  1.5670 -0.4995
  214MPD1    N1 3313   4.117   0.406  14.986  0.0201  0.2357  0.0513
  214MPD1    H6 3314   4.117   0.307  14.960  0.9317  0.4439 -0.7422
  214MPD1    H7 3315   4.144   0.475  14.916  1.3382  1.2772  1.5927
  215MPD1     C 3316   0.368   1.781  10.604  0.4701 -0.4512  0.0819
  215MPD1    C1 3317   0.312   1.758  10.730  0.7622  0.6707 -0.0213
  215MPD1    C2 3318   0.301   1.863  10.820 -0.4791 -0.5219  0.5029
  215MPD1    C3 3319   0.316   1.997  10.776 -0.6315 -0.4106 -0.2406
  215MPD1    C4 3320   0.351   2.015  10.642 -0.1666 -0.5085  0.1909
  215MPD1    C5 3321   0.386   1.909  10.569  0.2358 -0.8883 -0.6977
  215MPD1     H 3322   0.274   1.838  10.922  0.4250 -0.1390  0.8366
  215MPD1    H1 3323   0.368   2.116  10.604 -0.6102  0.3346  2.2207
  215MPD1    H2 3324   0.383   1.706  10.527 -1.0505  1.7414 -2.3347
  215MPD1    H3 3325   0.416   1.919  10.465  0.8939 -1.7384 -0.5923
  215MPD1     N 3326   0.280   2.100  10.873  0.1299  0.0640 -0.2670
  215MPD1    H5 3327   0.247   2.064  10.962  0.8464  2.8442  1.1193
  215MPD1    N1 3328   0.304   1.626  10.775  0.3962 -0.1871  0.2999
  215MPD1    H6 3329   0.271   1.640  10.871 -0.0164  1.1011 -0.0320
  215MPD1    H7 3330   0.398   1.588  10.785  0.4629  0.0528  0.5893
  216MPD1     C 3331   1.595   0.544  17.297 -0.0414  0.0543  0.5072
  216MPD1    C1 3332   1.689   0.499  17.387 -0.1290  0.5647  0.8767
  216MPD1    C2 3333   1.725   0.367  17.376  0.3569 -0.2624  0.0539
  216MPD1    C3 3334   1.662   0.279  17.286  0.0875  0.1796 -0.0869
  216MPD1    C4 3335   1.572   0.330  17.196 -0.4792  0.4570  0.6015
  216MPD1    C5 3336   1.548   0.463  17.199  0.1437 -0.5986 -0.4318
  216MPD1     H 3337   1.791   0.332  17.454 -1.6792 -1.7920  1.1074
  216MPD1    H1 3338   1.534   0.263  17.120  0.0705 -0.2186  0.9164
  216MPD1    H2 3339   1.560   0.646  17.292 -2.7704 -0.9822 -1.2247
  216MPD1    H3 3340   1.485   0.502  17.120 -1.2409  1.2663  1.6070
  216MPD1     N 3341   1.711   0.143  17.285 -0.7253  0.3900  0.6024
  216MPD1    H5 3342   1.776   0.112  17.357 -2.5393 -2.8717  0.8259
  216MPD1    N1 3343   1.723   0.586  17.496 -0.3299  0.0540 -0.4056
  216MPD1    H6 3344   1.740   0.683  17.474  0.9180 -0.1715 -0.4277
  216MPD1    H7 3345   1.809   0.556  17.541  1.4596  0.9669 -3.1669
  217MPD1     C 3346   2.014   2.457   8.326  0.0571 -0.5389  0.0280
  217MPD1    C1 3347   2.113   2.369   8.294 -0.0937 -0.1108  0.3894
  217MPD1    C2 3348   2.144   2.277   8.394 -0.6209  0.4410 -0.7849
  217MPD1    C3 3349   2.078   2.263   8.509  0.7896 -0.6070  0.4234
  217MPD1    C4 3350   1.969   2.349   8.534  0.2706  0.0932 -0.3626
  217MPD1    C5 3351   1.939   2.449   8.442  0.1800 -0.0746 -0.2230
  217MPD1     H 3352   2.228   2.212   8.373  0.2448  1.6999 -1.1969
  217MPD1    H1 3353   1.912   2.339   8.626  1.4063  1.4661  0.4764
  217MPD1    H2 3354   1.965   2.520   8.253  0.0914 -0.2077  0.2917
  217MPD1    H3 3355   1.850   2.509   8.453  1.3214  1.7432 -0.8863
  217MPD1     N 3356   2.105   2.166   8.609  0.4449  0.0258  0.0684
  217MPD1    H5 3357   2.044   2.168   8.689  0.3210 -0.2738 -0.0214
  217MPD1    N1 3358   2.155   2.371   8.158 -0.7067 -0.1283 -0.5949
  217MPD1    H6 3359   2.250   2.341   8.142 -1.0589 -1.3707 -0.3005
  217MPD1    H7 3360   2.134   2.459   8.111 -1.2307 -0.8576 -1.7098
  218MPD1     C 3361   4.392   0.921  12.145  0.7334  0.3796 -0.3965
  218MPD1    C1 3362   4.479   1.016  12.191  0.3227  0.2252  0.3720
  218MPD1    C2 3363   4.433   1.097  12.294 -0.4028  0.2506 -0.3120
  218MPD1    C3 3364   4.300   1.096  12.340 -0.7506 -0.2646 -0.9202
  218MPD1    C4 3365   4.210   1.018  12.278  0.5604 -0.1892 -0.0334
  218MPD1    C5 3366   4.261   0.930  12.180 -0.3349 -0.1252 -0.1854
  218MPD1     H 3367   4.492   1.167  12.351 -1.6135  0.3070  0.8770
  218MPD1    H1 3368   4.103   1.021  12.293  0.6331 -2.1051  0.9325
  218MPD1    H2 3369   4.423   0.857  12.063  0.8672  1.7648 -1.4229
  218MPD1    H3 3370   4.189   0.877  12.119 -0.8813  1.0292 -0.5529
  218MPD1     N 3371   4.273   1.182  12.449 -0.4658  0.1893 -0.4852
  218MPD1    H5 3372   4.353   1.222  12.498  0.0949  1.3106 -2.3021
  218MPD1    N1 3373   4.611   1.020  12.149 -0.1359  0.1798 -0.2828
  218MPD1    H6 3374   4.627   0.994  12.052  1.9637 -1.6193  0.5595
  218MPD1    H7 3375   4.652   1.112  12.166  1.8050 -0.9379  1.0440
  219MPD1     C 3376   3.796   1.666  13.300 -0.4795 -0.7130 -0.6140
  219MPD1    C1 3377   3.731   1.617  13.187 -0.8080  0.3872 -0.8374
  219MPD1    C2 3378   3.803   1.556  13.087  0.1695  0.1851 -0.3641
  219MPD1    C3 3379   3.940   1.551  13.094  0.0316 -0.3804  0.6360
  219MPD1    C4 3380   4.005   1.601  13.206  0.3783  0.4451 -0.6691
  219MPD1    C5 3381   3.931   1.651  13.305  0.1841  0.3532  0.3637
  219MPD1     H 3382   3.754   1.521  12.997  0.1218 -2.3604  0.6414
  219MPD1    H1 3383   4.111   1.614  13.226  0.4303  0.8371 -1.2067
  219MPD1    H2 3384   3.749   1.711  13.387  1.1844  0.4143 -0.2981
  219MPD1    H3 3385   3.991   1.666  13.393  2.5486  0.3440 -1.2633
  219MPD1     N 3386   4.030   1.511  12.991 -0.1039 -0.3490 -0.1390
  219MPD1    H5 3387   4.126   1.542  13.003 -0.6389  0.7717  1.1261
  219MPD1    N1 3388   3.596   1.652  13.181 -0.1511  0.8765  0.1600
  219MPD1    H6 3389   3.538   1.603  13.113 -0.7461 -0.0159  1.3265
  219MPD1    H7 3390   3.555   1.668  13.273  1.7577 -2.0156  1.5032
  220MPD1     C 3391   3.831   3.513  10.155 -0.0452 -0.2198  0.0054
  220MPD1    C1 3392   3.918   3.510  10.265 -0.2291  0.5033  0.1323
  220MPD1    C2 3393   3.984   3.394  10.286  0.3401  0.5320  0.4524
  220MPD1    C3 3394   3.982   3.288  10.198 -0.5662 -0.3968  0.2028
  220MPD1    C4 3395   3.909   3.297  10.084 -0.8821 -0.4275 -0.2976
  220MPD1    C5 3396   3.830   3.407  10.063  0.1699  0.0505  0.1179
  220MPD1     H 3397   4.053   3.386  10.369 -1.5924  2.5335  2.2353
  220MPD1    H1 3398   3.895   3.215  10.014 -0.0658 -0.7204 -0.1194
  220MPD1    H2 3399   3.766   3.597  10.133 -0.9871 -0.5617  1.5049
  220MPD1    H3 3400   3.779   3.421   9.969  2.3421 -0.4717 -1.1516
  220MPD1     N 3401   4.068   3.186  10.240 -0.2071  0.3027 -0.9226
  220MPD1    H5 3402   4.122   3.203  10.325  0.1640 -1.8671 -0.7055
  220MPD1    N1 3403   3.897   3.602  10.365 -0.0918 -0.2341 -0.2442
  220MPD1    H6 3404   3.974   3.610  10.430 -1.6834  2.9864  1.2428
  220MPD1    H7 3405   3.869   3.686  10.314  0.1929  0.4797  0.7894
  221MPD1     C 3406   2.013   1.193  17.274 -0.2429 -0.2518  0.3979
  221MPD1    C1 3407   2.001   1.172  17.138 -0.3598 -0.7210  0.8332
  221MPD1    C2 3408   2.111   1.175  17.057  0.8263 -0.4016  1.1060
  221MPD1    C3 3409   2.235   1.210  17.104  0.1351 -0.5215  0.2943
  221MPD1    C4 3410   2.244   1.234  17.239 -0.3532 -0.6982 -0.1986
  221MPD1    C5 3411   2.138   1.219  17.319  0.0079  0.6064 -0.0697
  221MPD1     H 3412   2.104   1.146  16.953  0.1983  1.2329  0.6866
  221MPD1    H1 3413   2.346   1.253  17.270 -0.6068  1.4417 -0.6734
  221MPD1    H2 3414   1.933   1.190  17.347  0.9307 -0.3769  1.6814
  221MPD1    H3 3415   2.144   1.228  17.427 -0.4213  1.9619 -0.1580
  221MPD1     N 3416   2.357   1.220  17.033 -0.2578 -0.1884  0.2657
  221MPD1    H5 3417   2.433   1.261  17.086 -1.7295  1.3027  1.2397
  221MPD1    N1 3418   1.872   1.126  17.097  0.4016 -0.1059 -0.4555
  221MPD1    H6 3419   1.865   1.141  16.997  0.0974 -0.1538 -0.4415
  221MPD1    H7 3420   1.791   1.162  17.148 -0.0056 -0.6778 -0.7029
  222MPD1     C 3421   1.219   4.446  17.490 -0.2725  0.6223 -0.3989
  222MPD1    C1 3422   1.292   4.560  17.462 -0.1632  1.1150  0.2790
  222MPD1    C2 3423   1.293   4.667  17.544  0.4176 -0.6318  0.8165
  222MPD1    C3 3424   1.210   4.669  17.659 -0.6466 -0.5625 -0.5637
  222MPD1    C4 3425   1.130   4.560  17.681  0.3004 -0.4159  0.0045
  222MPD1    C5 3426   1.140   4.449  17.601 -0.1074 -0.3178 -0.0016
  222MPD1     H 3427   1.351   0.018  17.516 -0.8961  0.0700  0.2276
  222MPD1    H1 3428   1.062   4.563   0.024 -1.2091 -1.8744 -1.1566
  222MPD1    H2 3429   1.207   4.368  17.416 -0.3116 -0.7874  1.0879
  222MPD1    H3 3430   1.081   4.364  17.632  1.8031 -1.9221 -0.7727
  222MPD1     N 3431   1.197   0.045  17.737 -0.3647 -0.2035 -0.3332
  222MPD1    H5 3432   1.114   0.050   0.053  1.0575 -0.5863  1.7189
  222MPD1    N1 3433   1.391   4.548  17.356  0.8211  0.2365  0.0986
  222MPD1    H6 3434   1.419   4.640  17.321 -1.7839  1.6873  1.7820
  222MPD1    H7 3435   1.361   4.482  17.285 -2.3975 -1.2800  2.8301
  223MPD1     C 3436   0.459   0.458  17.557  0.1171 -0.0896  0.2513
  223MPD1    C1 3437   0.538   0.356  17.505 -0.7278 -0.1412 -0.0919
  223MPD1    C2 3438   0.667   0.337  17.560  0.0656  0.7193 -0.8046
  223MPD1    C3 3439   0.709   0.404  17.668  0.1502  0.9261  0.0528
  223MPD1    C4 3440   0.630   0.498  17.727  0.7013  1.1911 -0.3850
  223MPD1    C5 3441   0.502   0.518  17.672 -1.4003 -0.0246  0.2482
  223MPD1     H 3442   0.727   0.255  17.521 -0.2234  0.8007 -1.4220
  223MPD1    H1 3443   0.650   0.550   0.078  0.9663  0.1591  0.1270
  223MPD1    H2 3444   0.365   0.487  17.513  0.3668 -0.1940 -0.3534
  223MPD1    H3 3445   0.433   0.588  17.719  0.2329  2.0505 -0.4474
  223MPD1     N 3446   0.847   0.386  17.704 -0.9496  0.2737 -0.0726
  223MPD1    H5 3447   0.895   0.306  17.664 -3.6052 -1.0389 -0.6941
  223MPD1    N1 3448   0.509   0.314  17.381 -0.0013  0.1155  0.5741
  223MPD1    H6 3449   0.551   0.225  17.359  0.9767  1.3291 -2.5217
  223MPD1    H7 3450   0.408   0.310  17.367  0.3135 -0.4171 -1.6014
  224MPD1     C 3451   2.211   1.959   9.695 -0.1969 -0.1313 -0.2370
  224MPD1    C1 3452   2.253   1.900   9.572 -0.2921 -0.7535 -0.6024
  224MPD1    C2 3453   2.360   1.943   9.502  0.2751  0.3626  0.1003
  224MPD1    C3 3454   2.440   2.045   9.559 -0.7729 -0.7746 -0.1486
  224MPD1    C4 3455   2.396   2.100   9.686  0.4137  0.5693  0.3016
  224MPD1    C5 3456   2.280   2.065   9.753  0.7046 -0.5223 -0.7060
  224MPD1     H 3457   2.386   1.903   9.405  0.0937  1.6180 -0.4626
  224MPD1    H1 3458   2.449   2.184   9.729  0.3601  1.3615 -1.1628
  224MPD1    H2 3459   2.115   1.926   9.731 -0.3977  0.7879  0.0395
  224MPD1    H3 3460   2.244   2.111   9.844  3.0400  1.2879 -0.6910
  224MPD1     N 3461   2.565   2.089   9.511  0.8593  0.8447  0.4389
  224MPD1    H5 3462   2.619   2.155   9.567  0.1292  3.1627 -1.5796
  224MPD1    N1 3463   2.172   1.804   9.515  0.1136  0.0201 -0.2180
  224MPD1    H6 3464   2.127   1.739   9.579 -1.3705  0.5435 -0.7080
  224MPD1    H7 3465   2.215   1.756   9.436  1.5580  1.1796 -0.1285
  225MPD1     C 3466   4.612   3.113  12.120  0.2193  0.3892 -1.2783
  225MPD1    C1 3467   4.550   3.011  12.055 -0.1759  0.3237 -0.2152
  225MPD1    C2 3468   4.454   2.951  12.124  0.9349 -0.2598 -0.1312
  225MPD1    C3 3469   4.395   3.015  12.234  0.1982 -0.4715  0.2339
  225MPD1    C4 3470   4.436   3.138  12.274  0.0698 -0.1901 -0.5215
  225MPD1    C5 3471   4.558   3.181  12.228  0.0402  0.2428  0.3279
  225MPD1     H 3472   4.413   2.859  12.083 -1.8358  0.9536 -0.0905
  225MPD1    H1 3473   4.381   3.191  12.352  1.0000 -0.0090  0.0144
  225MPD1    H2 3474   4.707   3.150  12.082  0.9860 -1.2594 -0.9865
  225MPD1    H3 3475   4.609   3.261  12.280 -1.2647  1.4087 -0.1772
  225MPD1     N 3476   4.279   2.979  12.292  0.0597  0.0355 -0.4553
  225MPD1    H5 3477   4.263   3.029  12.379 -0.8706 -1.8636  0.4920
  225MPD1    N1 3478   4.615   2.947  11.944 -0.0696  0.5588  0.3639
  225MPD1    H6 3479   4.556   2.894  11.880 -1.6262  1.5726  0.9655
  225MPD1    H7 3480   4.673   3.004  11.883 -0.7717  0.6559 -0.2156
  226MPD1     C 3481   1.614   2.891  10.655  0.0573  0.3177 -0.2176
  226MPD1    C1 3482   1.651   2.768  10.607 -0.4740  0.2863  0.1139
  226MPD1    C2 3483   1.771   2.751  10.540 -0.9425  0.1692  0.4346
  226MPD1    C3 3484   1.843   2.862  10.503  0.1836 -0.1843  0.1589
  226MPD1    C4 3485   1.801   2.984  10.544 -1.2203 -0.0222 -0.0785
  226MPD1    C5 3486   1.689   2.997  10.618 -0.1786  0.3392 -0.1300
  226MPD1     H 3487   1.805   2.654  10.507  2.1070  1.1232  0.7364
  226MPD1    H1 3488   1.862   3.069  10.516  0.1427 -0.8918  0.2907
  226MPD1    H2 3489   1.518   2.911  10.702 -1.6389 -0.5334 -3.3742
  226MPD1    H3 3490   1.652   3.097  10.637 -0.2903  0.1125  0.8634
  226MPD1     N 3491   1.958   2.831  10.423  0.0361  0.2482 -0.6100
  226MPD1    H5 3492   1.978   2.732  10.412  0.9071  0.6621 -2.8190
  226MPD1    N1 3493   1.567   2.659  10.622  0.1554  0.2468  0.2063
  226MPD1    H6 3494   1.542   2.660  10.720 -2.5963  1.9516 -0.5093
  226MPD1    H7 3495   1.618   2.573  10.602 -0.2616  0.6904 -2.7587
  227MPD1     C 3496   1.947   2.087  10.065  0.2275  0.5415  0.2745
  227MPD1    C1 3497   1.861   2.191  10.086 -0.1168 -0.6582 -0.1579
  227MPD1    C2 3498   1.903   2.322  10.101 -0.9613 -0.3410 -0.0642
  227MPD1    C3 3499   2.039   2.341  10.116  0.2239 -0.4292 -0.4510
  227MPD1    C4 3500   2.129   2.231  10.121 -0.1971 -0.0044 -0.2437
  227MPD1    C5 3501   2.082   2.104  10.079  0.7182  0.3376  0.6336
  227MPD1     H 3502   1.841   2.409  10.082  0.9447  0.6268 -1.7640
  227MPD1    H1 3503   2.234   2.254  10.134 -0.5197  0.6304  1.1532
  227MPD1    H2 3504   1.912   1.987  10.041  1.1339  0.3851 -0.4154
  227MPD1    H3 3505   2.155   2.023  10.076 -0.5187 -0.8161  1.5536
  227MPD1     N 3506   2.076   2.474  10.123 -0.1442 -0.3032  0.6202
  227MPD1    H5 3507   2.007   2.542  10.154  0.1760  1.1521 -1.8043
  227MPD1    N1 3508   1.727   2.163  10.080 -0.1904 -0.1081 -0.6920
  227MPD1    H6 3509   1.699   2.071  10.112  0.8924 -0.7950 -1.7399
  227MPD1    H7 3510   1.658   2.232  10.110 -1.0953 -0.8323 -1.1215
  228MPD1     C 3511   1.524   0.091  13.439  0.3930 -0.7319  0.0349
  228MPD1    C1 3512   1.494   0.193  13.348 -0.4147  0.0057 -0.5905
  228MPD1    C2 3513   1.369   0.187  13.289 -0.7266 -0.5060  0.1494
  228MPD1    C3 3514   1.282   0.087  13.320  0.0139  0.1103 -0.0990
  228MPD1    C4 3515   1.322   4.719  13.401  0.2866 -0.0461  0.5895
  228MPD1    C5 3516   1.444   4.717  13.460  0.0540 -1.1395  0.2703
  228MPD1     H 3517   1.337   0.272  13.229 -0.9134  0.3019  1.4076
  228MPD1    H1 3518   1.256   4.635  13.422  0.8290 -0.8977 -1.0987
  228MPD1    H2 3519   1.623   0.089  13.483  0.2456  1.5558  0.4562
  228MPD1    H3 3520   1.480   4.634  13.520 -0.9100 -0.6122  1.5744
  228MPD1     N 3521   1.159   0.097  13.255  0.4784  0.5290  0.0231
  228MPD1    H5 3522   1.144   0.175  13.192  1.9726 -0.0523 -1.0222
  228MPD1    N1 3523   1.592   0.293  13.313 -0.8652 -0.0576 -0.1406
  228MPD1    H6 3524   1.561   0.370  13.255 -1.7501  0.6037  1.1985
  228MPD1    H7 3525   1.646   0.329  13.392  0.6642 -1.4944 -0.5351
  229MPD1     C 3526   1.575   4.442  14.874  0.1312  0.1472 -0.3406
  229MPD1    C1 3527   1.487   4.472  14.774  0.4707 -0.4011 -0.2361
  229MPD1    C2 3528   1.357   4.426  14.773 -0.7893  0.7932  0.1327
  229MPD1    C3 3529   1.311   4.364  14.885 -0.9100 -0.0579 -0.5133
  229MPD1    C4 3530   1.388   4.363  15.004 -0.3860  0.4571  0.3595
  229MPD1    C5 3531   1.519   4.385  14.985 -0.9569 -0.2783 -0.6796
  229MPD1     H 3532   1.294   4.438  14.686 -1.4877  3.5731  1.0304
  229MPD1    H1 3533   1.357   4.320  15.099  1.2396 -0.6214  0.4028
  229MPD1    H2 3534   1.680   4.468  14.867  0.4602 -0.5739  1.8926
  229MPD1    H3 3535   1.585   4.374  15.070 -1.3890 -1.7605 -0.5399
  229MPD1     N 3536   1.196   4.282  14.889  0.5369 -0.0276  0.9285
  229MPD1    H5 3537   1.185   4.238  14.980  0.8270 -3.2119 -0.5664
  229MPD1    N1 3538   1.533   4.535  14.659  0.1407  0.0727  0.2561
  229MPD1    H6 3539   1.618   4.590  14.673 -1.0595  1.5790  1.6038
  229MPD1    H7 3540   1.467   4.595  14.611  0.6704 -0.4021 -1.0752
  230MPD1     C 3541   0.224   3.984  14.506 -0.0931  0.2192  0.7837
  230MPD1    C1 3542   0.260   3.896  14.601 -0.0759 -0.2641 -0.5318
  230MPD1    C2 3543   0.372   3.933  14.677  0.9735 -0.0073 -0.0175
  230MPD1    C3 3544   0.449   4.045  14.654  0.4131  0.2334 -0.6635
  230MPD1    C4 3545   0.411   4.123  14.545 -0.2104  0.2274  0.5821
  230MPD1    C5 3546   0.300   4.095  14.474  0.2744 -0.0104 -0.1257
  230MPD1     H 3547   0.398   3.869  14.760 -1.3637  0.1128  0.8161
  230MPD1    H1 3548   0.471   4.210  14.520 -0.7682  0.6912  0.8527
  230MPD1    H2 3549   0.142   3.974  14.436  0.1525  0.4655  0.4638
  230MPD1    H3 3550   0.265   4.165  14.399  1.4385  0.2551 -0.4083
  230MPD1     N 3551   0.554   4.073  14.745  0.0868 -0.0410 -0.2866
  230MPD1    H5 3552   0.572   3.999  14.811 -0.0848  0.1587 -0.0194
  230MPD1    N1 3553   0.166   3.798  14.654 -0.0207 -0.6035 -0.1907
  230MPD1    H6 3554   0.092   3.770  14.589  0.5907 -0.9903 -0.7200
  230MPD1    H7 3555   0.208   3.712  14.689 -0.7093 -1.2736 -0.9875
  231MPD1     C 3556   3.608   1.161  14.742  0.6355  0.2070  0.3597
  231MPD1    C1 3557   3.655   1.063  14.660  0.2830  0.0077 -0.6130
  231MPD1    C2 3558   3.792   1.040  14.653  0.7771  0.1723  0.2970
  231MPD1    C3 3559   3.881   1.110  14.729  0.1190  0.4323 -0.0477
  231MPD1    C4 3560   3.835   1.219  14.798 -0.4687 -0.3449  0.4795
  231MPD1    C5 3561   3.698   1.247  14.802  1.0751  0.0782 -0.1355
  231MPD1     H 3562   3.836   0.959  14.597 -0.1832  0.4438 -0.8753
  231MPD1    H1 3563   3.898   1.292  14.847 -1.8663  1.1093  0.1041
  231MPD1    H2 3564   3.502   1.175  14.763  0.0940 -1.0618 -1.5595
  231MPD1    H3 3565   3.660   1.332  14.857  0.4287 -1.7598  2.2560
  231MPD1     N 3566   4.018   1.074  14.731  0.1464 -0.0934  0.2876
  231MPD1    H5 3567   4.046   1.001  14.667 -0.3903  0.4763 -0.6145
  231MPD1    N1 3568   3.566   0.975  14.593  0.1761  0.3337 -0.2760
  231MPD1    H6 3569   3.602   0.952  14.500  0.5718  2.2107 -0.6030
  231MPD1    H7 3570   3.474   1.017  14.577  0.4983  1.1059 -0.1215
  232MPD1     C 3571   0.825   3.351   0.054 -0.4489 -0.0541 -0.3362
  232MPD1    C1 3572   0.743   3.416  17.717  0.3761 -0.5355  0.4233
  232MPD1    C2 3573   0.720   3.351  17.594 -0.4258 -0.0721  0.4646
  232MPD1    C3 3574   0.787   3.240  17.545 -0.3835 -0.1756 -0.0257
  232MPD1    C4 3575   0.869   3.173  17.633  0.1056  0.0227  0.3900
  232MPD1    C5 3576   0.895   3.235   0.014  0.4308 -0.1664 -0.3126
  232MPD1     H 3577   0.642   3.389  17.528  0.4240 -1.8679 -1.5696
  232MPD1    H1 3578   0.929   3.088  17.604  0.5936  0.8046 -0.8761
  232MPD1    H2 3579   0.830   3.387   0.157 -0.7123  1.2369 -0.7740
  232MPD1    H3 3580   0.973   3.194   0.077 -0.6790 -2.2536 -0.3161
  232MPD1     N 3581   0.767   3.197  17.409 -0.0019 -0.8676  0.1771
  232MPD1    H5 3582   0.708   3.256  17.352 -0.2128 -1.1374  0.1169
  232MPD1    N1 3583   0.670   3.528   0.023  0.3380 -0.0204  0.1792
  232MPD1    H6 3584   0.612   3.576  17.697 -1.2147 -1.3075  0.5956
  232MPD1    H7 3585   0.723   3.590   0.083 -0.5312 -0.4778  1.4363
  233MPD1     C 3586   2.003   3.168  17.628 -0.2808 -0.4646 -0.7386
  233MPD1    C1 3587   2.085   3.175  17.739 -0.4393  0.1242  0.0884
  233MPD1    C2 3588   2.122   3.051   0.049 -0.0521 -0.1660  0.4251
  233MPD1    C3 3589   2.113   2.929  17.727 -0.1895 -0.1267 -0.2835
  233MPD1    C4 3590   2.033   2.922  17.615 -0.4945  0.0198 -0.4686
  233MPD1    C5 3591   1.976   3.044  17.580  0.2768 -0.2032 -0.0716
  233MPD1     H 3592   2.172   3.047   0.145  0.8164  1.7108  0.0395
  233MPD1    H1 3593   2.023   2.833  17.555 -0.5195 -0.2541 -0.0574
  233MPD1    H2 3594   1.956   3.257  17.588 -0.4298 -0.8260 -1.3636
  233MPD1    H3 3595   1.910   3.032  17.495  1.2070  0.8727 -0.9543
  233MPD1     N 3596   2.165   2.809   0.031 -0.0992 -0.2962  0.5491
  233MPD1    H5 3597   2.151   2.728  17.713  0.7616 -0.1051  0.0765
  233MPD1    N1 3598   2.092   3.293   0.069 -0.7175  0.3854  0.3896
  233MPD1    H6 3599   2.075   3.376   0.014  0.7626 -0.5599 -1.5163
  233MPD1    H7 3600   2.181   3.306   0.117 -0.1182 -3.1037  0.2372
  234MPD1     C 3601   3.333   0.488   8.990  0.0662 -0.1998 -0.4270
  234MPD1    C1 3602   3.425   0.584   8.943 -0.0243 -0.6267 -0.3496
  234MPD1    C2 3603   3.381   0.712   8.921  0.1918 -0.5961  0.0096
  234MPD1    C3 3604   3.241   0.737   8.928 -0.2275 -0.4521  0.3022
  234MPD1    C4 3605   3.155   0.638   8.961 -0.1509 -0.2979  0.2976
  234MPD1    C5 3606   3.199   0.515   8.994 -0.2914 -0.3580 -0.5342
  234MPD1     H 3607   3.453   0.790   8.902  0.2212 -0.6807 -0.2177
  234MPD1    H1 3608   3.049   0.654   8.978  0.0376  0.4611  0.7285
  234MPD1    H2 3609   3.363   0.391   9.028 -1.3779 -1.2519 -1.9381
  234MPD1    H3 3610   3.135   0.435   9.031  0.7649 -0.5907  0.7960
  234MPD1     N 3611   3.199   0.864   8.895 -0.3487  0.1802 -0.1349
  234MPD1    H5 3612   3.270   0.931   8.866  1.5159 -1.6284  0.1837
  234MPD1    N1 3613   3.563   0.556   8.952 -0.6681 -0.9646 -0.0248
  234MPD1    H6 3614   3.577   0.455   8.959  0.2634 -0.6847  2.0953
  234MPD1    H7 3615   3.609   0.584   8.866  0.2372 -0.0118  0.7715
  235MPD1     C 3616   0.525   2.716   9.816 -0.1815  0.1431  0.4293
  235MPD1    C1 3617   0.593   2.774   9.709 -0.0559  0.0557  0.0440
  235MPD1    C2 3618   0.584   2.913   9.690 -0.0016 -0.5209 -0.2571
  235MPD1    C3 3619   0.512   2.996   9.776 -0.2559 -0.6499 -0.3344
  235MPD1    C4 3620   0.454   2.934   9.883  0.8031 -0.3542 -0.2927
  235MPD1    C5 3621   0.462   2.803   9.905 -0.2364 -0.7201  0.1927
  235MPD1     H 3622   0.638   2.963   9.611  1.2060 -0.6915  0.4557
  235MPD1    H1 3623   0.419   2.992   9.969  1.2004  1.4378 -1.3377
  235MPD1    H2 3624   0.512   2.613   9.849 -0.1467  0.1629  0.5044
  235MPD1    H3 3625   0.424   2.773  10.002  1.0899  0.4579  1.0780
  235MPD1     N 3626   0.512   3.132   9.755 -0.3220  0.7017 -0.4462
  235MPD1    H5 3627   0.573   3.156   9.677 -1.7162  2.3143 -1.0379
  235MPD1    N1 3628   0.655   2.696   9.610 -0.0165  0.0066  0.2893
  235MPD1    H6 3629   0.677   2.603   9.648 -0.5457 -0.4518 -0.5329
  235MPD1    H7 3630   0.743   2.738   9.579  0.7564 -2.2511 -0.6777
  236MPD1     C 3631   3.378   4.662   9.757 -0.3713  0.1762 -0.4663
  236MPD1    C1 3632   3.458   0.043   9.737  0.4006 -0.4062 -0.7293
  236MPD1    C2 3633   3.573   0.060   9.818  0.1111 -0.5404  0.1600
  236MPD1    C3 3634   3.610   4.696   9.912 -0.1493  0.1407  0.1281
  236MPD1    C4 3635   3.533   4.582   9.927  0.6817  0.5960  0.3100
  236MPD1    C5 3636   3.419   4.562   9.853 -0.2316  0.2643  0.6031
  236MPD1     H 3637   3.636   0.148   9.821 -2.7516  1.4280  2.5495
  236MPD1    H1 3638   3.543   4.506  10.004  1.8272  0.5848  0.1484
  236MPD1    H2 3639   3.286   4.630   9.710 -0.4129 -0.2248 -0.1172
  236MPD1    H3 3640   3.363   4.470   9.867 -1.2473  0.3580 -2.8545
  236MPD1     N 3641   3.724   4.713   9.991  0.0640 -0.2956  0.0474
  236MPD1    H5 3642   3.741   4.642  10.062  1.3583 -0.1131 -0.0893
  236MPD1    N1 3643   3.416   0.145   9.641 -0.4240 -0.1289  0.3269
  236MPD1    H6 3644   3.498   0.196   9.609  0.1759  0.0769  2.2185
  236MPD1    H7 3645   3.364   0.111   9.560  1.2521  0.8110 -1.1375
  237MPD1     C 3646   0.057   1.938  14.743 -0.5069  0.0464  1.0472
  237MPD1    C1 3647   4.713   1.873  14.653  0.3793 -0.1006 -0.8016
  237MPD1    C2 3648   4.575   1.897  14.660  0.3191 -0.9575  0.8671
  237MPD1    C3 3649   4.523   1.947  14.779  0.3998 -0.7153  0.4491
  237MPD1    C4 3650   4.605   2.000  14.877  0.3721 -0.1753 -0.5592
  237MPD1    C5 3651   0.005   2.003  14.856  0.3617  0.3450 -0.1093
  237MPD1     H 3652   4.511   1.874  14.576 -1.2088  0.1375  1.7400
  237MPD1    H1 3653   4.561   2.063  14.953  0.1931 -0.3881 -0.4868
  237MPD1    H2 3654   0.165   1.933  14.732 -0.8815  2.9221 -3.9024
  237MPD1    H3 3655   0.069   2.062  14.920 -0.9674  2.1519 -0.4178
  237MPD1     N 3656   4.386   1.958  14.800 -0.3388  0.4047  0.1271
  237MPD1    H5 3657   4.364   2.012  14.884  0.9051  0.1591  0.6017
  237MPD1    N1 3658   0.031   1.825  14.536 -0.1925 -0.3460 -0.3118
  237MPD1    H6 3659   4.694   1.760  14.504 -0.0262 -1.6567  1.9482
  237MPD1    H7 3660   0.120   1.776  14.532  0.6760  1.3160 -1.2712
  238MPD1     C 3661   1.294   1.061  15.625 -0.1009 -0.6227 -0.1950
  238MPD1    C1 3662   1.341   1.083  15.497  0.6180 -0.6963  0.2386
  238MPD1    C2 3663   1.261   1.069  15.389 -0.6801  0.6573  0.4616
  238MPD1    C3 3664   1.131   1.050  15.399  0.2414 -0.0462 -0.3342
  238MPD1    C4 3665   1.080   1.052  15.525 -1.1725  0.5825 -0.5426
  238MPD1    C5 3666   1.160   1.050  15.631 -0.2557 -0.3660 -0.0225
  238MPD1     H 3667   1.299   1.068  15.287 -0.5040 -0.6494  0.5339
  238MPD1    H1 3668   0.972   1.062  15.537 -0.9426  2.4559  0.0220
  238MPD1    H2 3669   1.354   1.043  15.714  0.8536 -0.0382 -0.7210
  238MPD1    H3 3670   1.120   1.040  15.732 -0.5138  0.1588 -0.0705
  238MPD1     N 3671   1.047   1.025  15.286 -0.0451  0.2065 -0.2445
  238MPD1    H5 3672   0.951   1.005  15.311  0.0355  1.3281  0.9796
  238MPD1    N1 3673   1.480   1.088  15.477  0.0208  0.3288 -0.2749
  238MPD1    H6 3674   1.531   1.132  15.553 -1.3282  0.5234  0.5083
  238MPD1    H7 3675   1.495   1.150  15.398  0.2987 -0.8006 -1.1070
  239MPD1     C 3676   1.157   2.959  14.607 -0.2064 -0.0996 -0.3647
  239MPD1    C1 3677   1.110   3.021  14.498  0.3386 -0.0121 -0.8314
  239MPD1    C2 3678   1.064   2.940  14.393 -0.0427  0.1363  0.4479
  239MPD1    C3 3679   1.050   2.799  14.401 -0.6001 -0.5421  0.1955
  239MPD1    C4 3680   1.095   2.740  14.514  0.3035 -0.0128  0.0731
  239MPD1    C5 3681   1.141   2.821  14.619 -0.1768 -0.5810 -0.6224
  239MPD1     H 3682   1.025   2.979  14.300  1.3066  0.6194  0.0706
  239MPD1    H1 3683   1.100   2.633  14.529 -4.1534 -0.3150 -0.5669
  239MPD1    H2 3684   1.205   3.020  14.682 -0.4243 -1.0376  0.5475
  239MPD1    H3 3685   1.185   2.783  14.710  0.3813  1.7397  0.0833
  239MPD1     N 3686   0.994   2.730  14.289  0.0139 -0.5307  0.0238
  239MPD1    H5 3687   0.973   2.781  14.204  0.7206 -0.9595 -0.4066
  239MPD1    N1 3688   1.120   3.163  14.479  0.3669  0.1950 -0.3327
  239MPD1    H6 3689   1.125   3.211  14.569 -0.5361  1.1856 -0.8129
  239MPD1    H7 3690   1.056   3.215  14.420  0.0720  2.1168  1.6555
  240MPD1     C 3691   1.325   1.936  14.133 -0.2638  0.2348 -0.7135
  240MPD1    C1 3692   1.311   1.966  14.265  0.1393 -0.4506  0.8083
  240MPD1    C2 3693   1.230   1.880  14.332  0.0517 -0.0368  0.7642
  240MPD1    C3 3694   1.144   1.784  14.274 -0.1507  0.2264 -0.1465
  240MPD1    C4 3695   1.162   1.765  14.143 -0.3617 -0.3462  0.4649
  240MPD1    C5 3696   1.259   1.837  14.076  0.3380  0.3592  0.1552
  240MPD1     H 3697   1.223   1.895  14.439 -1.4530 -0.7790  0.7627
  240MPD1    H1 3698   1.118   1.691  14.077 -2.7776 -0.3416  2.0424
  240MPD1    H2 3699   1.404   1.981  14.073 -0.1283  1.3639  0.3122
  240MPD1    H3 3700   1.279   1.821  13.970  0.7986 -1.0733  0.4570
  240MPD1     N 3701   1.051   1.711  14.352 -0.2695 -0.6375 -0.5268
  240MPD1    H5 3702   1.056   1.745  14.448  0.8079  4.0601 -2.2518
  240MPD1    N1 3703   1.390   2.063  14.329 -0.2339  0.2796 -0.5374
  240MPD1    H6 3704   1.359   2.098  14.419 -0.2990  0.9208 -0.8082
  240MPD1    H7 3705   1.402   2.139  14.262 -2.4443 -0.7438 -2.0851
  241MPD1     C 3706   0.845   1.301  15.247 -0.5020 -0.2041 -0.0815
  241MPD1    C1 3707   0.950   1.364  15.183 -0.1225 -1.1242 -0.4607
  241MPD1    C2 3708   0.933   1.418  15.052  0.0689  0.3322  0.2344
  241MPD1    C3 3709   0.820   1.385  14.977  0.5180 -0.0288  0.5489
  241MPD1    C4 3710   0.715   1.317  15.041 -0.0290 -0.2538  0.1474
  241MPD1    C5 3711   0.730   1.273  15.168  0.1656 -0.7578  0.3392
  241MPD1     H 3712   1.018   1.470  15.010  1.8479 -1.0327  2.1142
  241MPD1    H1 3713   0.631   1.284  14.981 -0.3141  0.8661 -0.0651
  241MPD1    H2 3714   0.850   1.270  15.351 -1.1001  1.6349  0.5014
  241MPD1    H3 3715   0.641   1.230  15.212 -1.3201  0.8628 -1.0801
  241MPD1     N 3716   0.798   1.437  14.843  0.3458  0.4436  0.1097
  241MPD1    H5 3717   0.705   1.445  14.804 -0.3426 -1.6247  1.3107
  241MPD1    N1 3718   1.068   1.386  15.252 -0.6147 -0.0588  0.8610
  241MPD1    H6 3719   1.151   1.379  15.193 -1.6444  0.8609 -0.6900
  241MPD1    H7 3720   1.078   1.330  15.336 -0.9592 -1.6938 -0.2034
  242MPD1     C 3721   0.091   0.018  15.676 -0.3858  0.5237 -0.2816
  242MPD1    C1 3722   0.001   4.727  15.579 -0.1601  0.4254  0.0729
  242MPD1    C2 3723   0.046   4.676  15.459  0.3992 -1.4494  0.0374
  242MPD1    C3 3724   0.172   4.686  15.420 -0.1970 -0.6626  0.7498
  242MPD1    C4 3725   0.265   0.003  15.510 -0.0987 -0.3609 -0.0081
  242MPD1    C5 3726   0.222   0.022  15.642 -0.5742 -0.3078  0.9529
  242MPD1     H 3727   4.709   4.637  15.388  0.2751  2.6564 -2.0434
  242MPD1    H1 3728   0.373   0.005  15.495 -0.0138 -0.8825  0.5301
  242MPD1    H2 3729   0.065   0.037  15.780  1.5940  1.0151  0.1163
  242MPD1    H3 3730   0.295   0.049  15.717 -0.6947 -0.9220  1.2924
  242MPD1     N 3731   0.224   4.648  15.289 -0.1299  0.2347  0.3308
  242MPD1    H5 3732   0.324   4.666  15.280 -0.2965  1.4779  1.0195
  242MPD1    N1 3733   4.602   4.710  15.615  0.1643 -1.0348 -0.2456
  242MPD1    H6 3734   4.537   0.001  15.540  0.9821 -1.4434 -1.0931
  242MPD1    H7 3735   4.581   0.050  15.680  0.7390 -0.3022 -0.9165
  243MPD1     C 3736   2.209   4.527  16.996 -0.6500 -0.7015  0.1908
  243MPD1    C1 3737   2.173   4.431  17.089  0.2445 -0.0926  0.4532
  243MPD1    C2 3738   2.181   4.299  17.047  0.0555  1.0823  0.2270
  243MPD1    C3 3739   2.200   4.269  16.918  0.3970  0.6476  0.5216
  243MPD1    C4 3740   2.223   4.372  16.819  0.4789  0.1819 -0.1497
  243MPD1    C5 3741   2.229   4.502  16.867 -1.2530 -0.0566  0.0188
  243MPD1     H 3742   2.176   4.214  17.114 -0.3627  0.5889 -0.4292
  243MPD1    H1 3743   2.243   4.358  16.713  1.9368 -1.3529  0.3170
  243MPD1    H2 3744   2.222   4.632  17.020 -0.7359 -0.6483  0.0085
  243MPD1    H3 3745   2.239   4.578  16.790  1.2383  0.7665  1.1421
  243MPD1     N 3746   2.190   4.137  16.881 -0.3329 -0.1439 -0.0688
  243MPD1    H5 3747   2.193   4.069  16.956 -1.4996 -0.5503 -0.3870
  243MPD1    N1 3748   2.183   4.482  17.218  0.1150 -0.1300  0.2187
  243MPD1    H6 3749   2.145   4.429  17.296 -0.8248 -0.2311 -0.3206
  243MPD1    H7 3750   2.161   4.579  17.239 -0.0963 -0.3409  0.9876
  244MPD1     C 3751   1.902   3.550  17.424  0.6999 -0.1103 -0.0427
  244MPD1    C1 3752   1.929   3.683  17.435  0.1400 -0.2760 -0.2340
  244MPD1    C2 3753   1.985   3.737  17.314  0.2474  0.5801 -0.4164
  244MPD1    C3 3754   2.029   3.661  17.206 -0.1001  0.2947  0.0663
  244MPD1    C4 3755   2.002   3.527  17.209  0.4086  0.3133  0.7630
  244MPD1    C5 3756   1.939   3.473  17.318  0.6635 -0.4383 -0.0965
  244MPD1     H 3757   1.997   3.844  17.299  0.1749  0.4615 -1.2810
  244MPD1    H1 3758   2.013   3.461  17.124 -0.1729  0.0980  0.8513
  244MPD1    H2 3759   1.860   3.495  17.507  2.7997 -1.2003  0.3129
  244MPD1    H3 3760   1.915   3.368  17.307 -1.5318  0.1940 -1.4197
  244MPD1     N 3761   2.081   3.722  17.089  0.1527 -0.0868  0.1392
  244MPD1    H5 3762   2.079   3.824  17.094 -1.0179 -0.2161  2.7684
  244MPD1    N1 3763   1.873   3.755  17.539  0.3453 -0.3390  0.5126
  244MPD1    H6 3764   1.851   3.700  17.623 -0.6844 -1.3506 -0.4196
  244MPD1    H7 3765   1.921   3.841  17.563  0.6083 -0.9243  2.1368
  245MPD1     C 3766   4.575   3.322  13.790  0.2734  0.1855 -0.5701
  245MPD1    C1 3767   4.466   3.355  13.708  0.3043  0.0077 -0.1801
  245MPD1    C2 3768   4.373   3.450  13.756  0.3237 -0.2992  0.2025
  245MPD1    C3 3769   4.395   3.518  13.873  0.0017  0.1134 -0.1468
  245MPD1    C4 3770   4.515   3.498  13.944 -0.2233  0.3732  0.6192
  245MPD1    C5 3771   4.606   3.399  13.904 -0.3421  0.2213 -0.6841
  245MPD1     H 3772   4.286   3.475  13.697  0.8511  1.1982  0.0436
  245MPD1    H1 3773   4.553   3.555  14.028  0.6076  2.7719 -1.3777
  245MPD1    H2 3774   4.653   3.249  13.768  0.2466 -0.0419  0.0901
  245MPD1    H3 3775   4.692   3.373  13.964 -0.1283 -0.3158 -1.2109
  245MPD1     N 3776   4.292   3.613  13.905  0.1505 -0.0564 -0.4310
  245MPD1    H5 3777   4.212   3.613  13.842 -1.6548  1.5836  1.9133
  245MPD1    N1 3778   4.424   3.267  13.604  0.5842 -0.0011  0.6658
  245MPD1    H6 3779   4.373   3.316  13.531  0.4319 -0.3193  0.5624
  245MPD1    H7 3780   4.511   3.239  13.560 -0.4133 -1.0848 -0.6051
  246MPD1     C 3781   0.674   2.114   9.907 -0.0105  0.2139  0.1174
  246MPD1    C1 3782   0.759   2.010   9.945 -0.8990  0.1309 -0.6733
  246MPD1    C2 3783   0.716   1.880   9.945  0.4269  0.0471 -0.5057
  246MPD1    C3 3784   0.585   1.851   9.910  0.2843 -0.3149 -0.7322
  246MPD1    C4 3785   0.499   1.959   9.892 -0.1947 -0.8507 -0.2190
  246MPD1    C5 3786   0.545   2.088   9.876  0.6868  0.0313  0.2317
  246MPD1     H 3787   0.784   1.796   9.959  1.0563  0.5226 -0.7444
  246MPD1    H1 3788   0.397   1.933   9.866  0.2051 -0.6908 -1.9278
  246MPD1    H2 3789   0.704   2.218   9.906 -0.6945  0.4029 -0.4399
  246MPD1    H3 3790   0.467   2.163   9.869  0.5434 -0.0359  1.1149
  246MPD1     N 3791   0.549   1.710   9.912  0.5206 -0.5458  0.1578
  246MPD1    H5 3792   0.622   1.640   9.918 -0.4620 -1.4408  1.6985
  246MPD1    N1 3793   0.891   2.036   9.996 -0.4229  0.0495 -0.0305
  246MPD1    H6 3794   0.913   2.132   9.968  2.2691 -0.6745 -0.4297
  246MPD1    H7 3795   0.968   1.981   9.958  0.6697  0.8530  0.9904
  247MPD1     C 3796   3.286   3.933  16.659  0.9013  0.3747 -0.0600
  247MPD1    C1 3797   3.397   3.931  16.574 -0.5259  0.3927  0.5836
  247MPD1    C2 3798   3.417   3.822  16.493 -0.3606 -0.0230  0.1142
  247MPD1    C3 3799   3.327   3.718  16.500 -0.6711  0.3800 -0.4332
  247MPD1    C4 3800   3.226   3.718  16.592 -0.5808  0.1620  0.0520
  247MPD1    C5 3801   3.200   3.830  16.666  0.8617  0.3864  0.0936
  247MPD1     H 3802   3.505   3.818  16.430  0.6459 -0.9169  1.5774
  247MPD1    H1 3803   3.164   3.630  16.608 -0.2461 -0.4987 -2.2614
  247MPD1    H2 3804   3.256   4.024  16.709  2.7126 -0.0660  1.7903
  247MPD1    H3 3805   3.110   3.817  16.725  0.6682 -1.1990 -0.5410
  247MPD1     N 3806   3.331   3.608  16.414  0.1795  0.0548 -0.1955
  247MPD1    H5 3807   3.251   3.547  16.427  1.6827 -1.9139 -0.1765
  247MPD1    N1 3808   3.472   4.047  16.566  0.1870 -0.6979 -0.3870
  247MPD1    H6 3809   3.555   4.031  16.509  0.9899  1.4548  0.1710
  247MPD1    H7 3810   3.500   4.079  16.658  0.8014  1.5957 -1.3934
  248MPD1     C 3811   3.530   3.946  17.700 -0.1564 -1.0855  0.1854
  248MPD1    C1 3812   3.394   3.964  17.691  0.4865 -0.3219  0.6897
  248MPD1    C2 3813   3.346   4.094  17.679  0.0892  0.1212  0.2951
  248MPD1    C3 3814   3.436   4.198  17.661 -0.0114  0.1548 -0.5477
  248MPD1    C4 3815   3.571   4.167  17.646 -0.6432  0.3318 -1.1024
  248MPD1    C5 3816   3.613   4.047  17.665 -0.4614  0.1216  0.6390
  248MPD1     H 3817   3.239   4.109  17.685 -0.0720 -0.4013 -1.2525
  248MPD1    H1 3818   3.650   4.236  17.619 -1.1083  0.9276 -0.9362
  248MPD1    H2 3819   3.574   3.850  17.722 -2.1159 -2.0005  0.1181
  248MPD1    H3 3820   3.718   4.024  17.650 -1.1277 -1.0615 -2.1547
  248MPD1     N 3821   3.389   4.336  17.651  0.4384 -0.2989 -0.0729
  248MPD1    H5 3822   3.289   4.350  17.646  0.4124  0.1478  1.5814
  248MPD1    N1 3823   3.311   3.866  17.741 -0.7397 -0.0261  0.8552
  248MPD1    H6 3824   3.218   3.855  17.702 -0.0579 -3.0360  0.0808
  248MPD1    H7 3825   3.363   3.782  17.718 -0.5549  0.5836 -1.0195
  249MPD1     C 3826   2.126   2.901   9.391 -0.9118  0.3977  0.1435
  249MPD1    C1 3827   2.184   3.005   9.456 -0.0347  0.5674  0.4424
  249MPD1    C2 3828   2.104   3.074   9.551 -0.5277 -0.7173  0.0847
  249MPD1    C3 3829   1.981   3.036   9.586 -0.6882 -0.1224 -0.1816
  249MPD1    C4 3830   1.940   2.915   9.530  0.1650 -0.2444 -0.5113
  249MPD1    C5 3831   2.011   2.851   9.435 -0.4479  0.1719 -0.0631
  249MPD1     H 3832   2.144   3.165   9.594 -0.2238 -0.0893 -1.5072
  249MPD1    H1 3833   1.850   2.867   9.568  0.4014 -1.1767 -1.1188
  249MPD1    H2 3834   2.171   2.845   9.309 -1.1581  0.6577 -0.1717
  249MPD1    H3 3835   1.980   2.759   9.386  1.0702  1.1080 -2.7702
  249MPD1     N 3836   1.895   3.118   9.667 -0.1143 -0.0071  0.5053
  249MPD1    H5 3837   1.940   3.200   9.706  0.4151 -0.2089  0.3085
  249MPD1    N1 3838   2.296   3.073   9.403  0.5648  0.5916  0.4322
  249MPD1    H6 3839   2.369   3.007   9.378  0.4434  0.9137 -0.7563
  249MPD1    H7 3840   2.334   3.135   9.474  1.5907  0.2277  0.2005
  250MPD2     C 3841   2.483   2.324  13.400  0.2889 -0.5583  0.1804
  250MPD2    C1 3842   2.416   2.413  13.323 -0.0505  0.8112 -0.1021
  250MPD2    C2 3843   2.332   2.373  13.221 -0.2556 -0.0343 -0.6617
  250MPD2    C3 3844   2.318   2.237  13.190 -0.0439 -0.3503 -0.2677
  250MPD2    C4 3845   2.378   2.145  13.271  0.0419 -0.2895 -0.0258
  250MPD2    C5 3846   2.463   2.188  13.370 -0.1417  0.0009  0.4120
  250MPD2     H 3847   2.275   2.445  13.163  2.3282  1.0709 -1.8231
  250MPD2    H1 3848   2.376   2.038  13.251  0.1252 -0.5502  1.3113
  250MPD2    H2 3849   2.566   2.349  13.464  1.1503 -2.4524 -0.1881
  250MPD2    H3 3850   2.502   2.111  13.436 -0.4133 -1.1994 -0.8151
  250MPD2     N 3851   2.261   2.189  13.068 -1.2666 -0.1091 -0.1053
  250MPD2    H5 3852   2.277   2.089  13.061  2.9507  0.7090 -1.8738
  250MPD2    N1 3853   2.453   2.547  13.350 -0.3279 -0.4677 -0.0481
  250MPD2    H7 3854   2.517   2.562  13.427 -1.4383 -1.5712  1.0878
  251TMC3    C1 3855   2.480   2.778  13.312 -0.3759  0.3127  0.5393
  251TMC3    C2 3856   2.441   2.883  13.235 -0.2443  0.0529 -0.1821
  251TMC3    C3 3857   2.530   2.964  13.185  1.4069  0.6460  0.2893
  251TMC3    C4 3858   2.612   2.760  13.340  0.0164  0.3322  0.5943
  251TMC3    C5 3859   2.701   2.851  13.293 -0.4948  1.2467 -0.3197
  251TMC3    C6 3860   2.665   2.959  13.216 -0.7407  0.9650 -0.4416
  251TMC3     C 3861   2.401   2.657  13.289  0.9384  0.3967 -0.1135
  251TMC3     O 3862   2.310   2.664  13.204  0.2542  0.4192 -0.4655
  251TMC3     H 3863   2.335   2.896  13.214 -0.0953  0.1011 -0.9287
  251TMC3    H1 3864   2.644   2.671  13.391  1.5909 -0.6494 -2.1106
  251TMC3    H2 3865   2.728   3.043  13.190  2.3518 -0.9466  0.8212
  251TMC3    C7 3866   2.839   2.802  13.301  0.8622 -0.2744  0.0976
  251TMC3    C8 3867   2.484   3.076  13.101 -0.2347  0.4971  0.1224
  251TMC3    O1 3868   2.853   2.698  13.363 -0.2399 -0.3603  0.1163
  251TMC3    O2 3869   2.367   3.086  13.079 -0.1073  0.8938 -0.4702
  252TMC3    C1 3870   2.120   4.607   9.329 -0.2409 -0.0109  0.1104
  252TMC3    C2 3871   2.238   4.578   9.266  0.3292  0.0067 -0.9621
  252TMC3    C3 3872   2.290   4.452   9.292  0.0525  0.2458  0.0095
  252TMC3    C4 3873   2.055   4.515   9.406  0.4721  0.4277 -0.2417
  252TMC3    C5 3874   2.098   4.387   9.414  0.5897  0.9382 -0.4954
  252TMC3    C6 3875   2.219   4.354   9.363  0.1486 -0.6540  0.1902
  252TMC3     C 3876   2.042   4.716   9.274 -0.3161  0.3901 -0.3365
  252TMC3     O 3877   1.936   0.008   9.329  0.2356  0.0738  0.5563
  252TMC3     H 3878   2.306   4.659   9.242  0.8466 -1.4476 -4.3449
  252TMC3    H1 3879   1.950   4.529   9.428  0.2973 -1.7582  0.2550
  252TMC3    H2 3880   2.250   4.250   9.361  1.5463 -0.2435  0.4460
  252TMC3    C7 3881   2.010   4.282   9.445  0.5555  0.6677 -1.0243
  252TMC3    C8 3882   2.433   4.439   9.304 -0.1537 -0.1960  0.1118
  252TMC3    O1 3883   1.891   4.304   9.426 -0.2917 -0.4280  0.3891
  252TMC3    O2 3884   2.495   4.519   9.237  0.0573  0.5551 -0.8736
  253MPD2     C 3885   3.647   2.271  15.194  0.7879 -0.3913  0.2052
  253MPD2    C1 3886   3.527   2.221  15.183 -0.4388 -0.0661  0.3422
  253MPD2    C2 3887   3.455   2.206  15.301  0.5495  0.0067  0.1377
  253MPD2    C3 3888   3.490   2.271  15.416 -0.8805 -0.1701 -0.0773
  253MPD2    C4 3889   3.615   2.331  15.421  0.0712  0.0140  0.3026
  253MPD2    C5 3890   3.690   2.327  15.310  0.8744  0.8217 -0.4969
  253MPD2     H 3891   3.356   2.163  15.299 -0.5019  2.5372 -1.5938
  253MPD2    H1 3892   3.657   2.372  15.512 -1.0134 -0.6975  1.1349
  253MPD2    H2 3893   3.705   2.305  15.109 -2.5320 -0.4342 -2.0594
  253MPD2    H3 3894   3.786   2.378  15.309  0.6775  1.2667  2.6333
  253MPD2     N 3895   3.410   2.284  15.535  0.1287  0.3872  0.1058
  253MPD2    H5 3896   3.460   2.330  15.610 -0.0014 -2.0129  1.6547
  253MPD2    N1 3897   3.464   2.182  15.057  0.0474 -0.3409 -0.5703
  253MPD2    H7 3898   3.366   2.156  15.067  0.2597 -2.1857 -3.1284
  254TMC3    C1 3899   3.225   2.251  15.667  0.0779  0.8137 -0.1879
  254TMC3    C2 3900   3.088   2.280  15.685  0.7113  0.1726 -0.6892
  254TMC3    C3 3901   3.039   2.296  15.813  0.2327 -0.7635  0.0933
  254TMC3    C4 3902   3.305   2.239  15.778 -0.1945  0.2161  0.9214
  254TMC3    C5 3903   3.249   2.245  15.910  0.0332 -0.5375  0.9506
  254TMC3    C6 3904   3.117   2.265  15.925  0.4115  0.5253 -0.1240
  254TMC3     C 3905   3.278   2.269  15.536  0.0008 -1.0241 -0.4813
  254TMC3     O 3906   3.209   2.257  15.435  0.2132  0.5323  0.3193
  254TMC3     H 3907   3.023   2.303  15.601 -0.9902  1.2945  0.9515
  254TMC3    H1 3908   3.413   2.237  15.771 -0.0840  2.2147  2.0476
  254TMC3    H2 3909   3.088   2.276  16.028  1.6020 -0.5597  0.3223
  254TMC3    C7 3910   3.322   2.238  16.036 -0.0714 -0.3129  0.0848
  254TMC3    C8 3911   2.920   2.370  15.848  0.5837  0.1317 -0.4929
  254TMC3    O1 3912   3.263   2.201  16.140 -0.0066 -0.2394 -0.1765
  254TMC3    O2 3913   2.882   2.369  15.963 -0.0553 -0.2792  0.1650
  255MPD2     C 3914   1.829   0.200  10.131  0.2786 -0.1238 -0.3033
  255MPD2    C1 3915   1.933   0.289  10.108 -0.2363 -0.7889 -0.5981
  255MPD2    C2 3916   2.050   0.235  10.060  0.6306 -0.0659 -0.1100
  255MPD2    C3 3917   2.060   0.102  10.014  0.3055  0.1618 -0.8260
  255MPD2    C4 3918   1.951   0.023  10.014 -0.0629  0.6185 -0.1127
  255MPD2    C5 3919   1.839   0.070  10.079  0.0620 -0.9390 -0.0771
  255MPD2     H 3920   2.138   0.298  10.061 -0.2374  1.1332  0.6389
  255MPD2    H1 3921   1.947   4.659   9.974 -0.8480  0.2251  0.9405
  255MPD2    H2 3922   1.738   0.243  10.171  0.4511  1.7401 -1.9482
  255MPD2    H3 3923   1.756   0.002  10.090 -1.3249  0.9824  1.4486
  255MPD2     N 3924   2.180   0.033   9.981 -0.0671 -0.0020 -0.9121
  255MPD2    H5 3925   2.172   4.667   9.986  0.2958 -0.0752 -1.7491
  255MPD2    N1 3926   1.905   0.425  10.144 -0.9388 -0.1327  0.0546
  255MPD2    H7 3927   1.809   0.454  10.159 -0.3060  1.1350  1.6034
  256TMC3    C1 3928   1.956   0.663  10.171  0.8932  0.7425 -0.3827
  256TMC3    C2 3929   1.999   0.762  10.080 -0.1115 -0.0264 -0.6146
  256TMC3    C3 3930   1.930   0.877  10.070  0.4985  0.5933  0.4869
  256TMC3    C4 3931   1.835   0.679  10.234  0.8525 -0.2901 -0.7647
  256TMC3    C5 3932   1.768   0.795  10.214  0.4392  0.9738 -0.2884
  256TMC3    C6 3933   1.808   0.893  10.126  0.3141 -0.5414 -0.5661
  256TMC3     C 3934   1.999   0.526  10.129 -0.8962  0.1239 -0.3318
  256TMC3     O 3935   2.114   0.526  10.075 -0.1287 -0.1721  0.0029
  256TMC3     H 3936   2.096   0.741  10.036 -0.8895  1.1100 -2.8687
  256TMC3    H1 3937   1.800   0.613  10.312 -0.1174  0.2222 -0.7774
  256TMC3    H2 3938   1.753   0.986  10.118 -0.2817 -0.7252  1.2954
  256TMC3    C7 3939   1.649   0.810  10.295 -0.4479  0.0142 -0.2126
  256TMC3    C8 3940   1.973   0.952   9.954 -0.7165  0.4394 -0.9374
  256TMC3    O1 3941   1.597   0.709  10.346  0.0019  0.7477  0.3852
  256TMC3    O2 3942   2.029   0.891   9.866 -0.4932  0.1645  0.7520
  257MPD2     C 3943   0.617   2.268  13.391  0.0990  0.3301 -0.4697
  257MPD2    C1 3944   0.647   2.196  13.282 -0.6581  0.1041  0.7018
  257MPD2    C2 3945   0.729   2.084  13.283  0.6371  0.5821 -0.2037
  257MPD2    C3 3946   0.797   2.049  13.406 -0.4323 -0.3924 -0.3906
  257MPD2    C4 3947   0.754   2.114  13.521 -0.2620 -0.4572  0.2542
  257MPD2    C5 3948   0.672   2.216  13.506  0.2895  0.7601 -0.5581
  257MPD2     H 3949   0.731   2.028  13.189  2.1559 -0.8505  0.6723
  257MPD2    H1 3950   0.777   2.073  13.619 -1.6585 -0.2888  0.6588
  257MPD2    H2 3951   0.560   2.360  13.394  1.2896  1.0272  0.9213
  257MPD2    H3 3952   0.653   2.263  13.601 -0.0397 -0.4272 -0.0349
  257MPD2     N 3953   0.900   1.954  13.415  0.1836 -0.2860  0.4606
  257MPD2    H5 3954   0.945   1.939  13.505 -1.0582  0.1524  1.1504
  257MPD2    N1 3955   0.586   2.233  13.161  0.0386 -0.1501 -0.5403
  257MPD2    H7 3956   0.529   2.317  13.164 -0.6124 -0.6927  2.5369
  258TMC3    C1 3957   1.013   1.761  13.364 -0.0968 -0.7697 -0.6643
  258TMC3    C2 3958   0.956   1.640  13.402 -0.7761 -0.0670 -0.8059
  258TMC3    C3 3959   1.026   1.568  13.495  0.3510 -0.6288  0.2841
  258TMC3    C4 3960   1.121   1.815  13.424  0.0522 -0.0672  0.0597
  258TMC3    C5 3961   1.198   1.733  13.506  0.3753  0.0304  0.4526
  258TMC3    C6 3962   1.147   1.607  13.541  0.6635  0.3201  0.2542
  258TMC3     C 3963   0.922   1.856  13.312  0.0645  0.2819 -0.5567
  258TMC3     O 3964   0.861   1.826  13.211 -0.0710 -0.0652  0.3508
  258TMC3     H 3965   0.871   1.606  13.342  0.4718 -1.7192 -1.6554
  258TMC3    H1 3966   1.153   1.918  13.410 -0.3527  0.1802  0.9613
  258TMC3    H2 3967   1.207   1.537  13.598  2.2680 -0.5120 -2.4575
  258TMC3    C7 3968   1.318   1.787  13.559 -0.1147  1.1479 -0.0497
  258TMC3    C8 3969   0.977   1.445  13.535  0.4534 -0.1042  0.2022
  258TMC3    O1 3970   1.357   1.895  13.511 -0.5657 -0.0616  0.6476
  258TMC3    O2 3971   0.911   1.383  13.456 -0.3592 -0.2568 -0.0250
  259MPD2     C 3972   4.686   4.482   0.119 -0.4178  0.5266 -0.3606
  259MPD2    C1 3973   0.027   4.386   0.185  0.3448 -0.0915  0.3637
  259MPD2    C2 3974   0.116   4.317   0.110 -0.2872 -0.0690 -0.4488
  259MPD2    C3 3975   0.146   4.328  17.720 -0.1165  0.0650  0.1620
  259MPD2    C4 3976   0.068   4.423  17.657  0.0533 -0.1124  0.3242
  259MPD2    C5 3977   4.712   4.496  17.731  0.5988  0.8205  0.6768
  259MPD2     H 3978   0.175   4.233   0.145 -2.3960 -0.7269  1.4925
  259MPD2    H1 3979   0.074   4.436  17.549  2.4527 -0.7487  0.3726
  259MPD2    H2 3980   4.606   4.545   0.156 -0.5235 -1.1310  2.1925
  259MPD2    H3 3981   4.664   4.574  17.673 -3.1180 -2.1273 -0.2425
  259MPD2     N 3982   0.249   4.250  17.660 -0.5244  0.2109 -0.3240
  259MPD2    H5 3983   0.292   4.180  17.719  1.4139  1.3355 -0.3788
  259MPD2    N1 3984   4.727   4.353   0.318  0.1839 -0.5074  0.3988
  259MPD2    H7 3985   4.665   4.410   0.375  1.7809 -1.1434  2.7853
  260TMC3    C1 3986   0.377   4.136  17.488 -0.3072  0.9254  0.7228
  260TMC3    C2 3987   0.389   4.115  17.355  0.2522  0.1725 -0.2517
  260TMC3    C3 3988   0.458   4.007  17.314  0.1612  0.6849  0.3427
  260TMC3    C4 3989   0.454   4.072  17.583  0.3319 -0.0439 -0.7521
  260TMC3    C5 3990   0.531   3.965  17.539 -0.1930 -0.1530  0.1565
  260TMC3    C6 3991   0.524   3.926  17.406  0.3810  0.2963 -0.2900
  260TMC3     C 3992   0.271   4.238  17.525 -0.6521  0.7221  0.6341
  260TMC3     O 3993   0.200   4.282  17.439 -0.0054 -0.0954 -0.4151
  260TMC3     H 3994   0.333   4.178  17.287 -1.2038 -1.4209 -0.5267
  260TMC3    H1 3995   0.463   4.112  17.683  0.8384 -1.1892 -0.3286
  260TMC3    H2 3996   0.596   3.849  17.385 -0.9470 -1.4420  1.5262
  260TMC3    C7 3997   0.542   3.848  17.624  0.2244  0.8797  0.1336
  260TMC3    C8 3998   0.430   3.955  17.183 -0.5230  0.2721 -0.6528
  260TMC3    O1 3999   0.612   3.755  17.582  0.1961  0.3462 -0.2806
  260TMC3    O2 4000   0.343   4.015  17.119  0.3010 -0.2506  0.5371
  261MPD2     C 4001   1.669   2.465  12.717  0.4900  0.3468 -0.2321
  261MPD2    C1 4002   1.726   2.381  12.630 -0.1409  0.6360 -0.1697
  261MPD2    C2 4003   1.698   2.388  12.495  0.2646  0.9044 -0.1291
  261MPD2    C3 4004   1.597   2.472  12.445 -0.4252 -0.0443 -0.1311
  261MPD2    C4 4005   1.542   2.558  12.533 -0.0518  0.2848  0.3732
  261MPD2    C5 4006   1.576   2.557  12.668 -0.0508 -0.1586  0.5174
  261MPD2     H 4007   1.753   2.330  12.421  0.4833 -0.2803  0.9651
  261MPD2    H1 4008   1.472   2.633  12.497  2.1248  0.6845 -2.9564
  261MPD2    H2 4009   1.684   2.462  12.825  0.5238  2.0293 -0.1948
  261MPD2    H3 4010   1.522   2.616  12.741 -1.1675 -1.8758  1.0703
  261MPD2     N 4011   1.583   2.486  12.308  0.0541 -0.9845  0.5211
  261MPD2    H5 4012   1.631   2.420  12.248 -1.9537  0.5234 -2.7281
  261MPD2    N1 4013   1.833   2.300  12.684  0.9736 -0.0591 -0.3866
  261MPD2    H7 4014   1.854   2.327  12.779  0.8602 -0.0567 -0.3625
  262TMC3    C1 4015   1.532   2.576  12.100  0.0215  0.4194  0.5333
  262TMC3    C2 4016   1.430   2.626  12.027  0.1423  0.4620 -0.9599
  262TMC3    C3 4017   1.455   2.646  11.894 -0.0507 -1.0121 -0.6943
  262TMC3    C4 4018   1.655   2.547  12.059 -0.6769 -0.9392 -0.2019
  262TMC3    C5 4019   1.679   2.567  11.925  0.2087  0.5861 -0.4109
  262TMC3    C6 4020   1.587   2.623  11.841  0.0453 -0.6146 -0.1719
  262TMC3     C 4021   1.505   2.576  12.240  0.2799 -0.6660  0.7814
  262TMC3     O 4022   1.407   2.642  12.279 -0.1209 -0.0239 -0.0831
  262TMC3     H 4023   1.327   2.617  12.059 -0.0189  1.5245 -1.1684
  262TMC3    H1 4024   1.741   2.512  12.114  0.3073  0.9386 -0.5562
  262TMC3    H2 4025   1.601   2.632  11.734 -0.9113  0.8409 -0.1822
  262TMC3    C7 4026   1.814   2.591  11.882  0.7382 -0.1538  0.7398
  262TMC3    C8 4027   1.398   2.767  11.836 -0.0781  0.3733  0.4116
  262TMC3    O1 4028   1.912   2.563  11.956  0.3366 -0.1181  0.9288
  262TMC3    O2 4029   1.460   2.814  11.742 -0.0194 -0.0979 -0.2853
  263MPD2     C 4030   2.311   1.549  11.355 -0.1019  0.3707  0.8125
  263MPD2    C1 4031   2.383   1.655  11.401 -0.3055 -0.7696 -0.9841
  263MPD2    C2 4032   2.406   1.765  11.319  0.2063  1.0995 -0.2573
  263MPD2    C3 4033   2.385   1.757  11.180 -0.8443  0.1358  0.2167
  263MPD2    C4 4034   2.326   1.641  11.134  0.1370  0.0432  0.7647
  263MPD2    C5 4035   2.287   1.534  11.220 -0.6021  0.1201  0.0437
  263MPD2     H 4036   2.443   1.860  11.357  1.7604  0.3423  0.1498
  263MPD2    H1 4037   2.300   1.636  11.029  0.9578 -0.2740  0.5767
  263MPD2    H2 4038   2.280   1.477  11.429 -1.1519  0.6424  0.6255
  263MPD2    H3 4039   2.220   1.456  11.184  0.7039 -1.1572  0.3587
  263MPD2     N 4040   2.432   1.860  11.103  0.1237 -0.7166  0.4558
  263MPD2    H5 4041   2.470   1.937  11.157 -2.8399 -1.3680  3.3962
  263MPD2    N1 4042   2.428   1.635  11.532 -0.2628 -0.0077  0.4350
  263MPD2    H7 4043   2.429   1.543  11.575 -0.4778 -0.9883 -1.6269
  264TMC3    C1 4044   2.490   1.973  10.905  0.3636  0.2450  0.3946
  264TMC3    C2 4045   2.482   2.095  10.967  0.1624  0.0688  0.2483
  264TMC3    C3 4046   2.502   2.210  10.889  0.3441 -0.0740  0.4390
  264TMC3    C4 4047   2.535   1.958  10.773 -0.4257  0.6108 -0.3148
  264TMC3    C5 4048   2.559   2.074  10.706  0.3418  0.5550  0.4970
  264TMC3    C6 4049   2.545   2.198  10.755  0.2810  0.2562 -0.0574
  264TMC3     C 4050   2.468   1.845  10.967 -0.5099 -0.5533  1.0369
  264TMC3     O 4051   2.472   1.752  10.891  0.2858 -0.1390 -0.0909
  264TMC3     H 4052   2.461   2.096  11.074  2.9030 -0.3935  0.7884
  264TMC3    H1 4053   2.549   1.865  10.719  0.6006  1.7184 -1.9693
  264TMC3    H2 4054   2.565   2.292  10.706  1.2969 -1.1524 -2.3142
  264TMC3    C7 4055   2.667   2.052  10.608  0.6145 -0.2978 -0.2452
  264TMC3    C8 4056   2.552   2.332  10.942 -0.9177  0.3993 -0.3854
  264TMC3    O1 4057   2.754   1.964  10.626  0.1571  0.3371  0.5176
  264TMC3    O2 4058   2.633   2.392  10.871 -0.0413  0.8203  0.0315
  265MPD2     C 4059   0.114   2.049  15.589  0.4033  0.8577 -0.2996
  265MPD2    C1 4060   0.106   2.141  15.487  0.1838  0.5671 -0.1926
  265MPD2    C2 4061   0.153   2.107  15.357 -0.7670 -0.2135 -0.0221
  265MPD2    C3 4062   0.200   1.976  15.338  0.0285 -0.8982  0.3459
  265MPD2    C4 4063   0.207   1.880  15.443 -0.1264  0.4709  0.1766
  265MPD2    C5 4064   0.169   1.919  15.567 -0.6065 -0.4608 -0.1768
  265MPD2     H 4065   0.139   2.180  15.278  1.6810 -1.3835 -1.5407
  265MPD2    H1 4066   0.240   1.777  15.429  0.9861  0.7118  1.0506
  265MPD2    H2 4067   0.073   2.066  15.688  0.9890 -2.5016  0.5050
  265MPD2    H3 4068   0.166   1.841  15.642 -1.4377 -0.3549 -0.1012
  265MPD2     N 4069   0.237   1.938  15.211 -0.0988  0.2439 -0.5202
  265MPD2    H5 4070   0.247   1.838  15.197 -1.6003 -0.1770  1.3789
  265MPD2    N1 4071   0.029   2.261  15.514 -0.1053 -0.4375  0.8481
  265MPD2    H7 4072   4.719   2.270  15.604 -2.2260  0.1912 -0.2925
  266TMC3    C1 4073   4.638   2.469  15.479 -0.1882 -0.0410  0.4523
  266TMC3    C2 4074   4.651   2.534  15.604 -1.1144 -0.0901 -0.3077
  266TMC3    C3 4075   4.567   2.634  15.637 -0.5307 -0.5638 -0.3312
  266TMC3    C4 4076   4.556   2.525  15.383  0.1590 -0.1403 -0.2445
  266TMC3    C5 4077   4.471   2.624  15.428 -0.3055 -0.1821 -0.1579
  266TMC3    C6 4078   4.472   2.677  15.548  0.2560  0.3510 -0.6455
  266TMC3     C 4079   4.736   2.369  15.433 -0.2113  0.2586  0.3182
  266TMC3     O 4080   0.038   2.390  15.318 -0.3907  0.6374 -0.1950
  266TMC3     H 4081   4.717   2.504  15.685  0.0369  0.6583 -0.9718
  266TMC3    H1 4082   4.557   2.482  15.284 -4.0380 -1.4204  0.2344
  266TMC3    H2 4083   4.398   2.751  15.577 -0.2330  0.2689 -1.6941
  266TMC3    C7 4084   4.352   2.660  15.344  0.4855  0.4644 -0.0674
  266TMC3    C8 4085   4.552   2.669  15.773 -0.4368  0.1518  0.2212
  266TMC3    O1 4086   4.241   2.654  15.388  0.7463  0.1727  0.1217
  266TMC3    O2 4087   4.508   2.580  15.840 -0.4206  0.4996  0.0978
  267MPD2     C 4088   1.867   4.435   0.288 -0.1271 -0.3660 -0.1678
  267MPD2    C1 4089   1.928   4.352   0.199  0.2253  0.1676 -0.4382
  267MPD2    C2 4090   1.901   4.376   0.063  0.0513  0.6289 -0.1151
  267MPD2    C3 4091   1.813   4.474   0.018 -0.0340  0.2116  0.2154
  267MPD2    C4 4092   1.750   4.556   0.111 -0.2019 -0.0015  0.1996
  267MPD2    C5 4093   1.780   4.534   0.248 -0.3994 -0.1161  0.3009
  267MPD2     H 4094   1.946   4.314  17.728  1.0496  1.2616 -0.0446
  267MPD2    H1 4095   1.678   4.633   0.086 -0.1516 -0.7215 -2.1441
  267MPD2    H2 4096   1.889   4.432   0.394  2.5668  2.1587 -0.6501
  267MPD2    H3 4097   1.738   4.605   0.319 -0.2267  0.1529  0.1351
  267MPD2     N 4098   1.770   4.487  17.622  0.2088 -0.0113  0.4218
  267MPD2    H5 4099   1.705   4.561  17.601  0.3155  0.8574  3.1410
  267MPD2    N1 4100   2.009   4.254   0.256  0.1536  0.5321  1.0258
  267MPD2    H7 4101   2.023   4.252   0.356  0.2567  1.4226  1.0298
  268TMC3    C1 4102   2.188   4.096   0.273 -0.4571 -0.4143  0.5741
  268TMC3    C2 4103   2.317   4.105   0.227  0.3292  0.6525  0.3746
  268TMC3    C3 4104   2.411   4.080   0.324 -0.2630  0.2276 -0.0705
  268TMC3    C4 4105   2.151   4.051   0.397 -0.6748 -0.3218  0.0080
  268TMC3    C5 4106   2.249   4.017   0.484  0.1472  0.5718 -0.1545
  268TMC3    C6 4107   2.378   4.039   0.451 -0.1350  0.9345  0.6113
  268TMC3     C 4108   2.089   4.166   0.191  0.0183 -0.2354 -0.1678
  268TMC3     O 4109   2.092   4.149   0.071 -0.1329 -0.3355  0.7125
  268TMC3     H 4110   2.342   4.152   0.133 -4.1864 -1.1028 -1.6727
  268TMC3    H1 4111   2.045   4.046   0.419 -0.1810  1.8584  2.8967
  268TMC3    H2 4112   2.456   4.017   0.523  1.2997 -0.4697 -1.3540
  268TMC3    C7 4113   2.230   3.941   0.610  0.2078 -0.9670  0.0082
  268TMC3    C8 4114   2.558   4.071   0.295  0.3081  0.0928  0.4035
  268TMC3    O1 4115   2.325   3.884   0.659  0.6885  1.0406 -0.1150
  268TMC3    O2 4116   2.635   4.015   0.372  0.0320  0.0616 -0.1279
  269MPD2     C 4117   2.707   2.641  15.287 -0.7116 -0.1640 -0.2314
  269MPD2    C1 4118   2.602   2.689  15.367  0.1913 -0.2696  0.3193
  269MPD2    C2 4119   2.582   2.823  15.372  0.4311  0.6250  0.2632
  269MPD2    C3 4120   2.669   2.909  15.305  0.1201  0.7165  0.4533
  269MPD2    C4 4121   2.763   2.859  15.223  0.2139 -0.0648  0.2004
  269MPD2    C5 4122   2.775   2.726  15.220  0.1105 -0.6151  0.6538
  269MPD2     H 4123   2.503   2.864  15.434  0.1178  0.8488 -0.2824
  269MPD2    H1 4124   2.821   2.918  15.152  1.8698 -1.9575 -0.0341
  269MPD2    H2 4125   2.719   2.534  15.281  2.0798 -0.0142  2.5024
  269MPD2    H3 4126   2.849   2.683  15.154 -0.3364  1.5908 -1.3013
  269MPD2     N 4127   2.648   3.051  15.321 -0.1860  0.0826 -0.0560
  269MPD2    H5 4128   2.581   3.087  15.388  1.0311  0.5700  0.8927
  269MPD2    N1 4129   2.524   2.592  15.437  0.2627 -0.8080 -0.0932
  269MPD2    H7 4130   2.570   2.501  15.439  0.6729 -0.6172 -0.6297
  270TMC3    C1 4131   2.347   2.499  15.558  0.1847 -0.1685 -0.4068
  270TMC3    C2 4132   2.228   2.461  15.500 -0.0157  0.1096  0.2623
  270TMC3    C3 4133   2.202   2.327  15.512  0.5161 -0.0807  0.1523
  270TMC3    C4 4134   2.436   2.424  15.626 -0.8423 -0.0405 -1.1667
  270TMC3    C5 4135   2.409   2.294  15.632 -0.8037  0.0271 -0.4792
  270TMC3    C6 4136   2.300   2.243  15.570 -0.3835 -0.0047 -0.5425
  270TMC3     C 4137   2.407   2.622  15.500 -0.3651  0.5060  0.0724
  270TMC3     O 4138   2.334   2.721  15.494 -0.0070  0.1656  0.2347
  270TMC3     H 4139   2.164   2.541  15.465 -0.2946  0.1543  0.8689
  270TMC3    H1 4140   2.527   2.477  15.653 -0.4291 -0.2432 -2.1485
  270TMC3    H2 4141   2.282   2.137  15.583  1.0125 -0.2712 -0.7571
  270TMC3    C7 4142   2.534   2.220  15.645  0.1375  0.5018 -0.7672
  270TMC3    C8 4143   2.106   2.245  15.440  0.2681  0.3533  0.1003
  270TMC3    O1 4144   2.630   2.259  15.715  0.5068  0.7967 -0.0857
  270TMC3    O2 4145   2.123   2.125  15.441  0.2030 -0.3781 -0.2822
  271MPD2     C 4146   1.802   2.031  13.560 -0.5342  0.5915 -0.2073
  271MPD2    C1 4147   1.792   2.122  13.664  0.3218 -0.8071 -0.3232
  271MPD2    C2 4148   1.715   2.236  13.641 -0.0376  0.0487 -0.2579
  271MPD2    C3 4149   1.645   2.262  13.522 -0.2324  0.3685  0.4351
  271MPD2    C4 4150   1.651   2.167  13.427  0.4104  0.4097  0.2570
  271MPD2    C5 4151   1.735   2.059  13.445 -0.6141 -0.0081  0.0788
  271MPD2     H 4152   1.720   2.305  13.724 -3.5710  0.6018 -0.5064
  271MPD2    H1 4153   1.594   2.178  13.336 -1.2403  0.8427  1.3426
  271MPD2    H2 4154   1.856   1.937  13.560 -0.1961  0.7933 -2.0788
  271MPD2    H3 4155   1.742   1.986  13.365  1.3862 -1.0722  1.2104
  271MPD2     N 4156   1.559   2.371  13.504  0.3940  0.4008  1.2577
  271MPD2    H5 4157   1.502   2.375  13.420  3.0390 -0.1143 -0.5687
  271MPD2    N1 4158   1.854   2.101  13.790  0.5015 -0.8147  0.5741
  271MPD2    H7 4159   1.850   2.180  13.853  2.2859  0.1813 -0.5645
  272TMC3    C1 4160   1.978   2.005  13.974  1.2483 -0.4555 -0.1295
  272TMC3    C2 4161   2.058   1.898  14.011  0.7809  0.0460 -0.4044
  272TMC3    C3 4162   2.055   1.854  14.139  0.3060 -0.4747 -0.2708
  272TMC3    C4 4163   1.913   2.073  14.074 -0.2337 -0.1295  0.0871
  272TMC3    C5 4164   1.908   2.024  14.198 -0.3305  1.5244 -0.4343
  272TMC3    C6 4165   1.986   1.919  14.239 -0.1418  0.2282 -0.5677
  272TMC3     C 4166   1.931   1.991  13.833  0.0225  0.1892  0.0697
  272TMC3     O 4167   1.980   1.902  13.766 -0.4011  0.0367  0.1230
  272TMC3     H 4168   2.125   1.857  13.936 -0.3877 -0.9777 -0.8884
  272TMC3    H1 4169   1.850   2.161  14.059 -1.7936 -1.4397 -0.9928
  272TMC3    H2 4170   1.962   1.870  14.333  0.0810  0.1541 -0.5498
  272TMC3    C7 4171   1.827   2.102  14.296 -0.1608 -0.0190 -0.2114
  272TMC3    C8 4172   2.157   1.749  14.169  0.4725 -1.1492  0.0220
  272TMC3    O1 4173   1.730   2.164  14.252  0.0270 -0.3942  0.2386
  272TMC3    O2 4174   2.206   1.691  14.076 -0.3674  0.2648 -0.6406
  273MPD2     C 4175   3.209   0.428  11.886  1.4908  0.5306 -0.1324
  273MPD2    C1 4176   3.271   0.536  11.831  0.2285  0.0107 -0.4708
  273MPD2    C2 4177   3.207   0.601  11.731  0.9475  0.3362 -0.7081
  273MPD2    C3 4178   3.087   0.556  11.676  0.0500 -0.1174  1.4660
  273MPD2    C4 4179   3.025   0.447  11.727 -0.2415  0.8038  0.5013
  273MPD2    C5 4180   3.080   0.389  11.836 -0.1019  0.6425 -0.9788
  273MPD2     H 4181   3.252   0.688  11.684 -0.9418  0.3272 -2.5433
  273MPD2    H1 4182   2.943   0.394  11.680  2.0163 -0.5820 -1.9008
  273MPD2    H2 4183   3.256   0.380  11.971 -0.0045  2.2672  1.6813
  273MPD2    H3 4184   3.034   0.303  11.883  1.3835  0.1832 -0.3724
  273MPD2     N 4185   3.045   0.626  11.559 -0.2550  0.0388 -0.3675
  273MPD2    H5 4186   3.101   0.706  11.531  1.0651 -0.6746  0.2219
  273MPD2    N1 4187   3.387   0.586  11.895  0.0875 -0.2125 -0.4074
  273MPD2    H7 4188   3.418   0.529  11.972 -1.8862  2.0673  2.0696
  274TMC3    C1 4189   2.929   0.686  11.366  0.4861 -0.2783 -0.5956
  274TMC3    C2 4190   2.820   0.672  11.289 -0.4779  0.7919 -0.2048
  274TMC3    C3 4191   2.826   0.745  11.173  0.4298  1.2015  0.7111
  274TMC3    C4 4192   3.033   0.772  11.336  0.0575 -0.5900 -0.3721
  274TMC3    C5 4193   3.034   0.834  11.220 -0.1028  0.2376  0.7434
  274TMC3    C6 4194   2.930   0.821  11.134  0.5651  0.1383  0.3814
  274TMC3     C 4195   2.936   0.595  11.476  1.0451  0.1679  0.3143
  274TMC3     O 4196   2.842   0.519  11.498  0.2211  0.3427 -0.1783
  274TMC3     H 4197   2.739   0.604  11.313  1.1737 -0.7284  1.0436
  274TMC3    H1 4198   3.116   0.794  11.402 -0.3218  1.3180 -0.5419
  274TMC3    H2 4199   2.919   0.899  11.060  0.6997  0.0157  0.2318
  274TMC3    C7 4200   3.105   0.959  11.208 -0.3448  0.2840  0.2175
  274TMC3    C8 4201   2.697   0.754  11.113 -0.7432  0.3660 -0.0664
  274TMC3    O1 4202   3.200   0.975  11.137 -0.2729  0.2492 -0.3982
  274TMC3    O2 4203   2.592   0.744  11.179  0.0375  0.2136 -0.3494
  275MPD2     C 4204   2.747   3.456  14.709 -0.4283 -0.6417 -0.7314
  275MPD2    C1 4205   2.803   3.330  14.682 -0.2995  0.5396 -0.0006
  275MPD2    C2 4206   2.725   3.219  14.652 -0.2643 -0.0456  0.7094
  275MPD2    C3 4207   2.591   3.236  14.665 -0.2760 -0.2232  0.0726
  275MPD2    C4 4208   2.532   3.360  14.689  0.0358  1.1126  0.1657
  275MPD2    C5 4209   2.609   3.467  14.722 -0.2374  0.6960 -0.0350
  275MPD2     H 4210   2.768   3.125  14.618  0.3432 -0.2537  2.0340
  275MPD2    H1 4211   2.427   3.362  14.714  0.7452 -0.1898  3.3543
  275MPD2    H2 4212   2.805   3.542  14.742 -0.6141 -0.1638 -1.6426
  275MPD2    H3 4213   2.564   3.556  14.764  1.4905  1.9157 -0.7867
  275MPD2     N 4214   2.503   3.129  14.636 -0.2704 -0.8648 -0.3969
  275MPD2    H5 4215   2.403   3.146  14.643  0.5060  3.8850 -0.8647
  275MPD2    N1 4216   2.943   3.314  14.677 -0.0402  0.1258 -0.3174
  275MPD2    H7 4217   2.978   3.219  14.666  1.7852  0.9174 -1.4133
  276TMC3    C1 4218   3.174   3.382  14.684 -0.2362  0.0743 -0.3666
  276TMC3    C2 4219   3.219   3.254  14.724 -0.1955 -0.2586  0.5999
  276TMC3    C3 4220   3.351   3.246  14.756  0.5418  0.1674  0.2524
  276TMC3    C4 4221   3.266   3.490  14.674  0.0363  0.6127  0.3104
  276TMC3    C5 4222   3.396   3.470  14.690  0.0538  0.0874  0.1346
  276TMC3    C6 4223   3.440   3.350  14.734 -0.7254  0.2136 -0.6212
  276TMC3     C 4224   3.035   3.418  14.673  0.6820  0.6056 -0.6677
  276TMC3     O 4225   3.013   3.535  14.699  0.2666  0.0024 -0.2866
  276TMC3     H 4226   3.147   3.178  14.752  0.8612 -1.3684  0.2907
  276TMC3    H1 4227   3.223   3.585  14.643  0.7257  0.3069 -1.6110
  276TMC3    H2 4228   3.547   3.335  14.743 -0.9483 -0.1777  1.4592
  276TMC3    C7 4229   3.468   3.578  14.759 -0.0867  0.2268  0.0404
  276TMC3    C8 4230   3.409   3.143  14.843  0.4808  0.3876  0.0032
  276TMC3    O1 4231   3.515   3.549  14.872 -0.2011  0.4552  0.1538
  276TMC3    O2 4232   3.502   3.180  14.912  0.6962  0.0905  0.0590
  277MPD2     C 4233   0.037   2.456  13.235  0.4229 -0.8348  0.0131
  277MPD2    C1 4234   4.684   2.515  13.322 -0.0775  0.0608  0.4678
  277MPD2    C2 4235   4.676   2.466  13.447 -0.3483  0.3443  0.3699
  277MPD2    C3 4236   0.019   2.355  13.484  0.3404 -0.3371 -0.1357
  277MPD2    C4 4237   0.110   2.304  13.393  0.0477  0.4179  0.0969
  277MPD2    C5 4238   0.128   2.361  13.272 -0.2897 -0.2723  0.2874
  277MPD2     H 4239   4.603   2.500  13.520 -2.9785 -1.0470 -1.6456
  277MPD2    H1 4240   0.168   2.213  13.407 -0.7139 -0.2763 -1.3454
  277MPD2    H2 4241   0.038   2.505  13.139  1.9617 -3.3509 -1.2384
  277MPD2    H3 4242   0.208   2.331  13.205 -0.4826 -0.8203  0.3039
  277MPD2     N 4243   4.721   2.289  13.602  0.4736  0.3398 -0.2009
  277MPD2    H5 4244   4.634   2.315  13.646  0.5964 -0.7399  0.6867
  277MPD2    N1 4245   4.606   2.631  13.284 -0.7006  0.4217 -0.3905
  277MPD2    H7 4246   4.624   2.664  13.189 -1.1051 -0.4371 -0.7654
  278TMC3    C1 4247   0.009   2.122  13.773 -0.3884  0.4019 -0.0937
  278TMC3    C2 4248   0.015   1.988  13.762 -0.6892 -1.0233  0.3687
  278TMC3    C3 4249   4.647   1.913  13.819  0.2372 -0.6416 -0.0140
  278TMC3    C4 4250   4.647   2.193  13.834  1.3483  0.2559  0.7118
  278TMC3    C5 4251   4.554   2.116  13.899 -1.4381  0.2526 -0.0180
  278TMC3    C6 4252   4.549   1.977  13.892  0.2230 -0.1952  0.8357
  278TMC3     C 4253   0.064   2.183  13.657  0.2840 -0.1658 -0.3239
  278TMC3     O 4254   0.164   2.124  13.614  0.9390 -0.2716  0.3880
  278TMC3     H 4255   0.079   1.943  13.687  0.7512  3.0450 -0.8436
  278TMC3    H1 4256   4.644   2.300  13.845 -2.8617  0.1866  0.2780
  278TMC3    H2 4257   4.487   1.916  13.956  0.5917 -0.6932  0.7139
  278TMC3    C7 4258   4.466   2.181  13.996  0.2849 -0.6536  0.9638
  278TMC3    C8 4259   4.650   1.771  13.801 -0.5315 -0.2279  0.6304
  278TMC3    O1 4260   4.510   2.288  14.037 -0.0653  0.1221  0.0374
  278TMC3    O2 4261   0.021   1.711  13.786  0.6228  0.3860 -0.0901
  279MPD2     C 4262   4.316   2.727   0.331 -0.4217 -0.9195  0.3990
  279MPD2    C1 4263   4.256   2.630   0.253  1.4362  1.0844  0.7750
  279MPD2    C2 4264   4.204   2.661   0.134 -0.1493 -0.1567  0.4551
  279MPD2    C3 4265   4.212   2.797   0.088 -0.3508 -0.1020 -0.1180
  279MPD2    C4 4266   4.279   2.888   0.159  0.3419 -0.4306  0.1226
  279MPD2    C5 4267   4.332   2.854   0.283  0.5028 -0.3727  0.3279
  279MPD2     H 4268   4.143   2.597   0.071  1.2778  0.3487 -1.4545
  279MPD2    H1 4269   4.278   2.992   0.127  1.9852 -0.4685 -0.0667
  279MPD2    H2 4270   4.345   2.698   0.431 -1.9525 -2.1230  0.4867
  279MPD2    H3 4271   4.383   2.925   0.347 -2.0856  1.1378  0.7230
  279MPD2     N 4272   4.135   2.844  17.722  0.2617 -0.3919 -0.8206
  279MPD2    H5 4273   4.130   2.945  17.711 -1.5235 -0.2641  0.9899
  279MPD2    N1 4274   4.231   2.498   0.304 -0.1043  0.2141 -0.0017
  279MPD2    H7 4275   4.245   2.478   0.403 -0.1807 -1.6053 -0.3626
  280TMC3    C1 4276   4.073   2.321   0.315 -0.3043 -0.0924 -0.0310
  280TMC3    C2 4277   4.018   2.215   0.258  0.0019  0.2832  0.4604
  280TMC3    C3 4278   3.879   2.195   0.268 -0.7744 -0.7176 -0.1861
  280TMC3    C4 4279   3.991   2.410   0.388 -0.6367 -0.6694 -0.3427
  280TMC3    C5 4280   3.856   2.399   0.370  0.5053 -0.7905 -0.3136
  280TMC3    C6 4281   3.787   2.290   0.315 -0.0621 -0.7548  0.7488
  280TMC3     C 4282   4.172   2.395   0.237 -0.2208 -0.5750 -0.2418
  280TMC3     O 4283   4.177   2.378   0.117  0.2715 -0.1279  0.0741
  280TMC3     H 4284   4.081   2.135   0.220 -0.9255 -0.3347  0.2279
  280TMC3    H1 4285   4.028   2.499   0.437 -0.6181 -1.2758  0.7449
  280TMC3    H2 4286   3.681   2.271   0.328 -0.0773 -0.5197  0.9688
  280TMC3    C7 4287   3.788   2.515   0.410  0.3414 -0.0276 -0.1191
  280TMC3    C8 4288   3.835   2.068   0.222  0.2634 -0.2578  0.4078
  280TMC3    O1 4289   3.843   2.594   0.482  0.1980  0.5930  0.4306
  280TMC3    O2 4290   3.739   2.027   0.281 -0.3968  0.3172 -0.0946
  281TMC3    C1 4291   3.022   2.415  13.538  0.7462 -0.7213  0.0917
  281TMC3    C2 4292   3.123   2.483  13.460  0.3064 -0.3355 -0.2577
  281TMC3    C3 4293   3.130   2.441  13.331 -0.2406  0.0166  0.8949
  281TMC3    C4 4294   2.932   2.319  13.499 -0.9029  0.1079  0.0298
  281TMC3    C5 4295   2.941   2.284  13.368  0.9464 -0.2906 -0.4200
  281TMC3    C6 4296   3.044   2.336  13.285 -0.0715  0.1818  0.0794
  281TMC3     C 4297   2.972   2.482  13.657  0.4363  1.1142  0.2039
  281TMC3     O 4298   2.918   2.417  13.746  1.2037 -0.1002 -0.5359
  281TMC3     H 4299   3.189   2.561  13.495 -0.3194 -0.9037  2.1578
  281TMC3    H1 4300   2.855   2.286  13.568 -2.5777  0.1504 -1.8437
  281TMC3    H2 4301   3.054   2.303  13.182 -1.1607 -2.1066  0.6890
  281TMC3    C7 4302   2.844   2.182  13.315  0.4013 -0.5171  0.1693
  281TMC3    C8 4303   3.261   2.445  13.266 -0.0976  0.6362 -0.6931
  281TMC3    O1 4304   2.829   2.176  13.193 -0.0878 -0.4592  0.5070
  281TMC3    O2 4305   3.307   2.335  13.237 -0.4000 -0.2864  0.0748
  282MPD2     C 4306   4.543   4.004  14.714  0.1385 -0.4012  0.0196
  282MPD2    C1 4307   4.461   3.909  14.777 -0.2050  0.4806  0.5166
  282MPD2    C2 4308   4.431   3.793  14.708  0.2518  0.4560 -0.5150
  282MPD2    C3 4309   4.482   3.764  14.584  1.0136 -0.5417  0.5000
  282MPD2    C4 4310   4.579   3.850  14.536 -0.6726  0.1123  0.0450
  282MPD2    C5 4311   4.602   3.973  14.598  0.0093  0.0498 -0.0328
  282MPD2     H 4312   4.364   3.725  14.759  1.6554  0.1024  0.8424
  282MPD2    H1 4313   4.627   3.844  14.439  0.2388 -2.9433  0.6904
  282MPD2    H2 4314   4.558   4.100  14.762  0.4056 -1.0137  1.1449
  282MPD2    H3 4315   4.674   4.042  14.555  0.8893  0.2997  1.8497
  282MPD2     N 4316   4.437   3.649  14.516  0.3394 -0.3328 -0.7387
  282MPD2    H5 4317   4.352   3.614  14.559 -0.8012  0.2471 -2.5265
  282MPD2    N1 4318   4.396   3.931  14.900 -0.7081 -0.3751 -0.6849
  282MPD2    H7 4319   4.343   3.854  14.941  0.4367 -0.1517  1.2318
  283TMC3    C1 4320   4.327   4.044  15.098 -0.1349 -0.4175  0.5610
  283TMC3    C2 4321   4.311   4.165  15.157  0.3102  0.2528 -0.5842
  283TMC3    C3 4322   4.260   4.171  15.288  0.2186  0.4542 -0.5372
  283TMC3    C4 4323   4.278   3.929  15.156 -0.4360  0.0951 -0.2838
  283TMC3    C5 4324   4.203   3.941  15.271 -0.0227  0.7411  0.2009
  283TMC3    C6 4325   4.189   4.066  15.334  0.0456  0.0274 -0.4507
  283TMC3     C 4326   4.397   4.052  14.970 -0.8643 -0.0620 -0.6338
  283TMC3     O 4327   4.428   4.162  14.940 -0.0554 -0.5411  0.1675
  283TMC3     H 4328   4.358   4.251  15.113  0.2872  0.5449 -0.0329
  283TMC3    H1 4329   4.293   3.831  15.113 -0.8827 -0.5094  0.9325
  283TMC3    H2 4330   4.137   4.075  15.428  1.9066 -0.9887  0.6778
  283TMC3    C7 4331   4.147   3.826  15.337  0.4565 -0.0868  0.4177
  283TMC3    C8 4332   4.250   4.290  15.370  0.2792  0.8146  0.7210
  283TMC3    O1 4333   4.114   3.860  15.453  0.0206 -0.6632  0.1222
  283TMC3    O2 4334   4.201   4.280  15.482 -0.3886 -0.4660  0.4112
  284MPD2     C 4335   2.586   3.371  11.914 -0.4991  0.2687 -0.5808
  284MPD2    C1 4336   2.705   3.438  11.936 -0.7643 -0.1414  1.1438
  284MPD2    C2 4337   2.795   3.376  12.020  0.3391 -0.1020  0.1183
  284MPD2    C3 4338   2.758   3.276  12.106 -0.3833 -0.1065 -0.0250
  284MPD2    C4 4339   2.634   3.217  12.096  0.3791  0.4531 -0.9138
  284MPD2    C5 4340   2.549   3.275  12.000  0.3539 -0.4872  0.2330
  284MPD2     H 4341   2.895   3.419  12.018 -0.0534  0.6737 -2.3919
  284MPD2    H1 4342   2.592   3.131  12.146 -0.2629  1.4815  0.3457
  284MPD2    H2 4343   2.518   3.395  11.833 -0.1685  0.0250 -0.9316
  284MPD2    H3 4344   2.451   3.228  11.998 -0.5155  1.3830 -0.9891
  284MPD2     N 4345   2.849   3.213  12.193 -0.4424  0.1797 -0.1376
  284MPD2    H5 4346   2.806   3.141  12.250 -1.0315  0.8650  0.2891
  284MPD2    N1 4347   2.745   3.544  11.855 -0.4134 -0.2144  0.0660
  284MPD2    H7 4348   2.845   3.559  11.844 -0.5637  1.0990  0.5090
  285TMC3    C1 4349   2.745   3.690  11.675  0.0999 -0.6541  0.1885
  285TMC3    C2 4350   2.845   3.619  11.610  0.2344  0.1105  0.4424
  285TMC3    C3 4351   2.925   3.683  11.524 -0.6407  0.3862 -0.5986
  285TMC3    C4 4352   2.726   3.823  11.654  0.5517  0.6486 -0.2104
  285TMC3    C5 4353   2.804   3.884  11.560 -0.3840  0.6722  0.3412
  285TMC3    C6 4354   2.912   3.816  11.499  0.5472  0.3567 -0.1758
  285TMC3     C 4355   2.662   3.617  11.770 -0.0709 -0.3903  0.5383
  285TMC3     O 4356   2.541   3.635  11.774 -0.4982  0.2407 -0.3021
  285TMC3     H 4357   2.859   3.522  11.658  0.9419  1.2834  2.6336
  285TMC3    H1 4358   2.654   3.870  11.720 -1.8422 -1.3779 -1.3770
  285TMC3    H2 4359   2.975   3.863  11.424 -1.5271  0.0731 -2.1384
  285TMC3    C7 4360   2.785   4.029  11.522  0.4249  0.7315  0.2321
  285TMC3    C8 4361   3.025   3.587  11.469 -0.3275  0.0107 -0.7701
  285TMC3    O1 4362   2.866   4.086  11.447 -0.1756  0.3051  0.7444
  285TMC3    O2 4363   3.006   3.468  11.500  0.0590 -0.1493  0.1449
  286MPD2     C 4364   2.763   1.823   1.529 -0.0709 -0.0676 -0.4350
  286MPD2    C1 4365   2.751   1.810   1.393 -0.0725  0.4227 -0.2588
  286MPD2    C2 4366   2.848   1.734   1.331 -0.2633  0.6072  0.0475
  286MPD2    C3 4367   2.947   1.659   1.401  0.0046 -0.0756 -0.0046
  286MPD2    C4 4368   2.938   1.662   1.538  0.8003  0.0661  0.2276
  286MPD2    C5 4369   2.849   1.742   1.600  0.5869  0.6470  0.6078
  286MPD2     H 4370   2.847   1.729   1.223  0.8782  1.2027  0.0036
  286MPD2    H1 4371   3.007   1.607   1.600  0.8374 -0.6639 -0.4537
  286MPD2    H2 4372   2.700   1.889   1.587  2.2635  2.7043 -1.0185
  286MPD2    H3 4373   2.849   1.747   1.708  1.4824  0.6790  0.6088
  286MPD2     N 4374   3.038   1.578   1.334  0.0205  0.5720 -0.4891
  286MPD2    H5 4375   3.102   1.541   1.404 -0.2703 -0.7311 -0.9172
  286MPD2    N1 4376   2.660   1.883   1.314  0.6361  0.1176 -0.3677
  286MPD2    H7 4377   2.665   1.871   1.213  0.1969  1.1619 -0.5125
  287TMC3    C1 4378   3.142   1.439   1.179 -0.3888 -0.2455  0.0168
  287TMC3    C2 4379   3.128   1.371   1.061  0.1761 -0.4362 -0.1045
  287TMC3    C3 4380   3.243   1.342   0.987 -0.3883  0.1937  0.5915
  287TMC3    C4 4381   3.269   1.464   1.226 -0.0619  0.2721 -0.4622
  287TMC3    C5 4382   3.380   1.421   1.158  0.3808  0.7198  0.5889
  287TMC3    C6 4383   3.368   1.358   1.039  0.1075  0.0487 -0.6616
  287TMC3     C 4384   3.039   1.535   1.207 -1.2475  0.2944 -0.5977
  287TMC3     O 4385   2.950   1.551   1.125 -0.6211  0.7371 -0.1196
  287TMC3     H 4386   3.029   1.363   1.017  0.0546  1.7755 -0.2214
  287TMC3    H1 4387   3.289   1.524   1.314  0.1303  1.5051 -1.3531
  287TMC3    H2 4388   3.448   1.337   0.969 -0.8363  0.2656 -1.8059
  287TMC3    C7 4389   3.510   1.449   1.202 -0.6072 -0.3578  1.2420
  287TMC3    C8 4390   3.224   1.320   0.839 -0.0828 -0.7383  0.3902
  287TMC3    O1 4391   3.526   1.533   1.290  0.4772 -0.4995 -0.4129
  287TMC3    O2 4392   3.111   1.287   0.806  0.2279  0.2489 -0.1693
  288TMC3    C1 4393   0.534   1.691  14.190 -0.1976 -0.3515 -0.2236
  288TMC3    C2 4394   0.481   1.669  14.315 -0.4150  0.5001 -0.1374
  288TMC3    C3 4395   0.369   1.589  14.329  0.1374 -0.0643 -0.2839
  288TMC3    C4 4396   0.476   1.646  14.073  0.0524 -0.2630 -0.3480
  288TMC3    C5 4397   0.360   1.579  14.093  0.3432 -0.0988 -0.4925
  288TMC3    C6 4398   0.308   1.540  14.213  0.0137  0.5566 -0.1434
  288TMC3     C 4399   0.642   1.782  14.196 -0.1569 -0.3720  0.2223
  288TMC3     O 4400   0.709   1.790  14.299  0.9323  0.0419  1.1879
  288TMC3     H 4401   0.525   1.701  14.409  0.5963 -1.9838  0.2456
  288TMC3    H1 4402   0.528   1.653  13.978 -0.5558  1.3506 -0.5543
  288TMC3    H2 4403   0.217   1.482  14.212  1.5141 -1.8251  1.0138
  288TMC3    C7 4404   0.311   1.509  13.974  0.2632  0.0046 -0.3661
  288TMC3    C8 4405   0.299   1.616  14.453  0.3646 -0.0695  0.4498
  288TMC3    O1 4406   0.265   1.397  13.976  0.1609 -0.1793 -0.0493
  288TMC3    O2 4407   0.330   1.717  14.516  0.2878 -0.2762 -0.0396
  289MPD2     C 4408   0.489   0.966  14.485 -0.0192 -0.0923  0.6926
  289MPD2    C1 4409   0.482   1.092  14.420 -0.1466 -0.3424  0.4585
  289MPD2    C2 4410   0.364   1.122  14.355 -0.0167  0.1604 -0.8651
  289MPD2    C3 4411   0.264   1.024  14.345  0.2776  0.4877 -0.4206
  289MPD2    C4 4412   0.281   0.895  14.392  0.8897  0.3904  0.0124
  289MPD2    C5 4413   0.394   0.863  14.465  0.4098 -0.2281  0.5373
  289MPD2     H 4414   0.360   1.214  14.299 -1.5316  1.1129  0.7908
  289MPD2    H1 4415   0.206   0.818  14.383  2.4940 -1.2919  0.9446
  289MPD2    H2 4416   0.582   0.947  14.538 -0.1049  0.4590  1.0437
  289MPD2    H3 4417   0.411   0.763  14.503 -0.3621 -0.5518  0.0417
  289MPD2     N 4418   0.140   1.051  14.289 -0.6871  0.3942  0.1572
  289MPD2    H5 4419   0.086   0.971  14.260  0.6960 -0.4374 -0.1193
  289MPD2    N1 4420   0.587   1.183  14.449 -0.0438  0.0725 -0.0750
  289MPD2    H7 4421   0.662   1.157  14.513  0.2171 -0.1265 -0.4608
  290TMC3    C1 4422   4.693   1.180  14.211  0.5619 -0.5842  0.0501
  290TMC3    C2 4423   4.627   1.305  14.202 -0.3677  0.3853  0.1812
  290TMC3    C3 4424   4.500   1.307  14.153  0.4446  0.6176  0.5175
  290TMC3    C4 4425   4.645   1.067  14.147  0.0455 -0.0144  0.0966
  290TMC3    C5 4426   4.521   1.081  14.094  0.6246 -0.2775  0.6700
  290TMC3    C6 4427   4.449   1.201  14.089  0.5724  0.3110  0.3553
  290TMC3     C 4428   0.091   1.179  14.276 -0.3685  0.5398  0.3538
  290TMC3     O 4429   0.131   1.283  14.326  0.1121  0.1057  0.9073
  290TMC3     H 4430   4.670   1.384  14.263 -2.6389  0.4420  1.6982
  290TMC3    H1 4431   4.694   0.971  14.136  0.7027  0.4597 -1.1408
  290TMC3    H2 4432   4.347   1.200  14.054  1.0926 -0.7735 -1.1175
  290TMC3    C7 4433   4.453   0.964  14.026 -0.5406 -0.2386  0.0328
  290TMC3    C8 4434   4.418   1.424  14.178 -0.0320 -0.9445 -0.0166
  290TMC3    O1 4435   4.382   1.002  13.932 -0.1719  0.2290 -0.5780
  290TMC3    O2 4436   4.300   1.400  14.165  0.3745 -0.1262  0.7933
  291MPD2     C 4437   3.882   1.208   0.354 -0.7497  0.6416 -0.6229
  291MPD2    C1 4438   3.984   1.108   0.361 -0.0710  0.5086 -0.1250
  291MPD2    C2 4439   4.112   1.148   0.335 -0.3080  0.1957 -0.5713
  291MPD2    C3 4440   4.135   1.283   0.304  0.7662  0.0667  0.3283
  291MPD2    C4 4441   4.038   1.372   0.304  0.2940 -0.2010  0.8618
  291MPD2    C5 4442   3.910   1.340   0.325 -0.7202 -0.4473  0.2616
  291MPD2     H 4443   4.191   1.073   0.332 -0.5177 -0.0676  0.3937
  291MPD2    H1 4444   4.056   1.478   0.302 -0.3354 -0.0950  0.8632
  291MPD2    H2 4445   3.781   1.187   0.388 -0.6154 -0.1496 -0.7115
  291MPD2    H3 4446   3.837   1.420   0.318 -0.7142 -0.5020 -0.5126
  291MPD2     N 4447   4.265   1.337   0.289  0.5068  0.1495 -0.0724
  291MPD2    H5 4448   4.262   1.437   0.272 -2.0167  0.3257  1.4220
  291MPD2    N1 4449   3.962   0.969   0.379  0.6510 -0.6732 -0.2459
  291MPD2    H7 4450   4.038   0.902   0.373  1.0879 -0.5930  4.4586
  292TMC3    C1 4451   3.863   0.772   0.451  0.0870 -0.2496  0.5810
  292TMC3    C2 4452   3.962   0.735   0.538 -0.4596  0.0866  0.1938
  292TMC3    C3 4453   4.031   0.621   0.513 -0.0916 -0.2205  0.1081
  292TMC3    C4 4454   3.833   0.710   0.336 -0.1715 -0.3978 -0.3204
  292TMC3    C5 4455   3.913   0.599   0.314 -0.2411 -0.6314  0.1385
  292TMC3    C6 4456   4.015   0.556   0.398  0.0916  0.3105 -0.1180
  292TMC3     C 4457   3.849   0.913   0.436  0.1110 -0.5253  0.5528
  292TMC3     O 4458   3.760   0.958   0.505 -0.5575 -0.0719 -0.0415
  292TMC3     H 4459   3.988   0.796   0.624  1.6969 -0.4448 -0.0669
  292TMC3    H1 4460   3.750   0.754   0.281 -1.5138 -1.5468  0.7877
  292TMC3    H2 4461   4.062   0.460   0.379  0.6330  0.9997 -2.2064
  292TMC3    C7 4462   3.888   0.513   0.204  0.2127  0.0125  0.0577
  292TMC3    C8 4463   4.151   0.593   0.589  0.1960 -0.4422  0.0744
  292TMC3    O1 4464   3.981   0.449   0.163  0.3134  0.0522  0.1024
  292TMC3    O2 4465   4.238   0.521   0.538  0.7819  0.0262 -0.0736
  293MPD2     C 4466   0.596   1.697  12.632  0.4917  0.3748 -0.6794
  293MPD2    C1 4467   0.547   1.805  12.704  0.4338 -0.0152  0.1771
  293MPD2    C2 4468   0.634   1.893  12.773 -0.3902  0.1421 -0.5049
  293MPD2    C3 4469   0.769   1.869  12.768 -0.4153  0.2878  0.4721
  293MPD2    C4 4470   0.816   1.770  12.681  0.0702  0.1889 -0.4331
  293MPD2    C5 4471   0.729   1.677  12.621  0.0899 -1.0682 -0.2921
  293MPD2     H 4472   0.591   1.981  12.819  0.0563  0.7086 -1.1713
  293MPD2    H1 4473   0.919   1.767  12.648 -0.0096 -2.1440 -0.4733
  293MPD2    H2 4474   0.528   1.638  12.572  0.5214 -0.7285  0.3974
  293MPD2    H3 4475   0.768   1.594  12.563 -1.9266 -0.6582 -2.2427
  293MPD2     N 4476   0.863   1.966  12.810  0.6464  0.6527  0.1455
  293MPD2    H5 4477   0.827   2.036  12.873 -0.6868 -0.2726  0.4105
  293MPD2    N1 4478   0.407   1.833  12.691 -0.5476 -0.1448  0.3217
  293MPD2    H7 4479   0.350   1.776  12.630  1.0750 -0.5944 -0.7502
  294TMC3    C1 4480   0.208   1.956  12.722 -0.1182  0.0235 -0.6693
  294TMC3    C2 4481   0.155   1.875  12.620  0.4116 -0.1525 -0.2558
  294TMC3    C3 4482   0.072   1.934  12.530  0.4753 -0.1629  0.4558
  294TMC3    C4 4483   0.156   2.079  12.745 -0.1746 -0.0746 -0.4842
  294TMC3    C5 4484   0.046   2.122  12.675  0.5120  0.5683 -0.1412
  294TMC3    C6 4485   0.009   2.052  12.564 -0.6756  0.2804  0.5977
  294TMC3     C 4486   0.344   1.935  12.761  0.8490  0.0737 -0.6565
  294TMC3     O 4487   0.378   2.009  12.853  0.0697  0.5415  0.1535
  294TMC3     H 4488   0.191   1.774  12.604  0.2467 -0.4129  1.0736
  294TMC3    H1 4489   0.211   2.154  12.801  1.8459 -2.3874  0.6354
  294TMC3    H2 4490   4.669   2.102  12.505 -1.6193  0.8444  2.2992
  294TMC3    C7 4491   0.061   2.261  12.638  0.7887  0.2593  0.9193
  294TMC3    C8 4492   0.128   1.910  12.400 -0.1977  0.2283  0.2309
  294TMC3    O1 4493   4.708   2.344  12.662  0.1293 -0.6088 -0.3413
  294TMC3    O2 4494   0.186   1.807  12.381 -0.0415  0.3909  0.2184
  295MPD2     C 4495   1.335   1.321   1.046 -0.4579  0.1862  0.0924
  295MPD2    C1 4496   1.330   1.241   0.929  0.6473  0.1639  0.1228
  295MPD2    C2 4497   1.202   1.193   0.899 -0.4809 -0.0750  0.1005
  295MPD2    C3 4498   1.096   1.222   0.984  0.1488 -0.6047 -0.1564
  295MPD2    C4 4499   1.107   1.304   1.094  0.5816 -0.3545  0.3078
  295MPD2    C5 4500   1.229   1.356   1.118  0.7345  0.2257  0.2099
  295MPD2     H 4501   1.185   1.130   0.812 -0.1145 -0.7071  0.4902
  295MPD2    H1 4502   1.012   1.336   1.134 -0.4028  0.0147 -2.2833
  295MPD2    H2 4503   1.427   1.374   1.069 -0.4618  0.4353 -0.4671
  295MPD2    H3 4504   1.235   1.438   1.189  3.0995 -0.4513  0.8181
  295MPD2     N 4505   0.970   1.167   0.964 -0.1527 -0.2569 -0.2152
  295MPD2    H5 4506   0.907   1.165   1.043  0.6905  1.1767  0.4838
  295MPD2    N1 4507   1.438   1.207   0.844 -0.1764  0.5010 -0.4877
  295MPD2    H7 4508   1.410   1.163   0.757 -1.1324 -0.8943  0.5397
  296TMC3    C1 4509   0.789   1.054   0.871  0.3302  0.5074  0.6104
  296TMC3    C2 4510   0.692   1.126   0.938 -0.3357  0.5509  0.4468
  296TMC3    C3 4511   0.568   1.068   0.938  1.0879  0.5843  0.7756
  296TMC3    C4 4512   0.773   0.935   0.818  0.6514 -0.7094 -0.1751
  296TMC3    C5 4513   0.648   0.879   0.809  0.2501  0.0438  0.4715
  296TMC3    C6 4514   0.544   0.950   0.874  0.4520 -0.0547  0.9681
  296TMC3     C 4515   0.924   1.101   0.853 -0.4067  0.2470 -0.3091
  296TMC3     O 4516   0.962   1.098   0.733 -1.0200  0.0680  0.0804
  296TMC3     H 4517   0.715   1.222   0.983  0.7937  0.3158  0.3659
  296TMC3    H1 4518   0.859   0.889   0.772  0.5679 -4.1841  3.1374
  296TMC3    H2 4519   0.440   0.922   0.859  0.2332  0.2026  2.0292
  296TMC3    C7 4520   0.635   0.743   0.747 -0.4372 -0.7537  0.4204
  296TMC3    C8 4521   0.458   1.149   0.990 -0.0407  0.3374  0.1746
  296TMC3    O1 4522   0.522   0.705   0.707  0.3588 -0.3126  0.0850
  296TMC3    O2 4523   0.351   1.120   0.938  0.3149  0.0963  0.3177
  297MPD2     C 4524   3.760   2.765  16.344 -0.1700  0.0330  0.1080
  297MPD2    C1 4525   3.693   2.819  16.235 -0.2793  0.2770  0.3861
  297MPD2    C2 4526   3.755   2.914  16.160  0.8057 -0.1820  0.6455
  297MPD2    C3 4527   3.874   2.960  16.195  0.3766  0.1485 -0.2584
  297MPD2    C4 4528   3.948   2.903  16.300 -0.2571 -0.4245  0.1781
  297MPD2    C5 4529   3.889   2.797  16.367 -0.0619  0.2924  0.9717
  297MPD2     H 4530   3.706   2.960  16.074  0.1676 -0.8366  0.6560
  297MPD2    H1 4531   4.046   2.931  16.337  0.5141 -0.7961 -1.5666
  297MPD2    H2 4532   3.710   2.695  16.409  0.9011 -0.7138  0.1332
  297MPD2    H3 4533   3.944   2.766  16.455 -0.1280 -0.7686  0.6311
  297MPD2     N 4534   3.925   3.068  16.113  0.1953 -0.6640  0.3854
  297MPD2    H5 4535   3.875   3.113  16.037 -1.1870 -2.4164  0.2523
  297MPD2    N1 4536   3.565   2.767  16.196  0.0214  0.2395 -0.1783
  297MPD2    H7 4537   3.528   2.796  16.106  0.1140  0.4694 -0.1428
  298TMC3    C1 4538   3.354   2.667  16.212 -0.6354 -0.3651 -0.2403
  298TMC3    C2 4539   3.364   2.641  16.078  0.0654 -0.0815  0.5651
  298TMC3    C3 4540   3.244   2.643  16.014 -0.2886 -0.0204  0.1899
  298TMC3    C4 4541   3.242   2.685  16.278 -0.0973  0.3376  0.4950
  298TMC3    C5 4542   3.124   2.686  16.207  0.2718 -0.2462 -0.8338
  298TMC3    C6 4543   3.122   2.665  16.074 -0.3582 -0.8726  0.2078
  298TMC3     C 4544   3.477   2.698  16.280 -0.4512  0.1980 -0.4671
  298TMC3     O 4545   3.481   2.685  16.401 -0.7563 -0.0758  1.0304
  298TMC3     H 4546   3.458   2.624  16.027 -1.2367 -5.5203 -0.0635
  298TMC3    H1 4547   3.249   2.719  16.381 -0.1054 -1.1635  0.9933
  298TMC3    H2 4548   3.028   2.676  16.023 -0.1713 -1.3206 -0.2244
  298TMC3    C7 4549   3.025   2.776  16.268  0.2334  0.7376  0.1941
  298TMC3    C8 4550   3.258   2.605  15.875  0.3122 -0.2301 -0.6503
  298TMC3    O1 4551   3.023   2.775  16.390  0.3859  1.0465 -0.1022
  298TMC3    O2 4552   3.355   2.531  15.858  0.0329  0.1048  0.3102
  299MPD2     C 4553   4.139   2.631  10.829 -0.4562  0.0555  0.6121
  299MPD2    C1 4554   4.116   2.765  10.799 -0.1844 -0.2660 -0.5032
  299MPD2    C2 4555   4.015   2.797  10.710  0.6304 -0.3789  0.2460
  299MPD2    C3 4556   3.938   2.698  10.653 -0.7350 -0.3149  0.3502
  299MPD2    C4 4557   3.959   2.566  10.682  0.5815 -0.1688  0.2828
  299MPD2    C5 4558   4.052   2.527  10.780 -0.1335 -0.0462 -0.1776
  299MPD2     H 4559   3.994   2.901  10.686 -0.4993 -0.2172  1.9597
  299MPD2    H1 4560   3.896   2.489  10.638  1.1767 -1.8413  2.3715
  299MPD2    H2 4561   4.211   2.607  10.906  1.2243 -1.3416 -1.3949
  299MPD2    H3 4562   4.062   2.419  10.787  0.3742 -0.0108 -0.3445
  299MPD2     N 4563   3.860   2.710  10.539 -0.1860  0.2039  0.1737
  299MPD2    H5 4564   3.817   2.628  10.497  0.0801  0.7222 -1.0964
  299MPD2    N1 4565   4.197   2.857  10.876  0.9395  0.2655 -0.9616
  299MPD2    H7 4566   4.258   2.816  10.946 -1.2257 -0.8609  0.2557
  300TMC3    C1 4567   3.758   2.799  10.341  0.2522  0.5632 -0.3390
  300TMC3    C2 4568   3.743   2.915  10.266 -0.2637  0.2475  0.4274
  300TMC3    C3 4569   3.652   2.904  10.165 -0.1111 -0.5479  0.4041
  300TMC3    C4 4570   3.678   2.689  10.328  0.9315  0.4142 -0.1261
  300TMC3    C5 4571   3.590   2.685  10.223  0.3875  0.1863  0.4361
  300TMC3    C6 4572   3.594   2.781  10.132  0.5801  0.1758  0.3119
  300TMC3     C 4573   3.827   2.824  10.467  0.1088  0.0748 -0.4471
  300TMC3     O 4574   3.857   2.942  10.496 -0.2019  0.4014  0.0923
  300TMC3     H 4575   3.805   3.003  10.277 -1.4526  0.6370  3.9051
  300TMC3    H1 4576   3.681   2.601  10.392 -2.5937  0.9603  0.7717
  300TMC3    H2 4577   3.514   2.786  10.059  1.2265  1.4142 -0.3154
  300TMC3    C7 4578   3.469   2.623  10.251 -0.4039  0.0564 -0.3759
  300TMC3    C8 4579   3.594   3.026  10.110 -0.7590  0.0060  0.1480
  300TMC3    O1 4580   3.390   2.607  10.160  0.3021  0.8326  0.1636
  300TMC3    O2 4581   3.513   3.004  10.016 -0.1453 -0.3719  0.5164
  301MPD2     C 4582   1.508   3.828   1.112  0.5634  0.4641  0.0076
  301MPD2    C1 4583   1.491   3.822   0.972  0.4563  0.4519  0.0518
  301MPD2    C2 4584   1.484   3.703   0.904 -0.7054 -1.2218 -0.1847
  301MPD2    C3 4585   1.483   3.583   0.977  0.1620 -0.1161  0.3124
  301MPD2    C4 4586   1.493   3.596   1.114  0.2811 -0.0720  0.1852
  301MPD2    C5 4587   1.511   3.716   1.184 -0.3674 -0.1496  0.9466
  301MPD2     H 4588   1.474   3.711   0.796  2.9193  0.9082 -0.3489
  301MPD2    H1 4589   1.498   3.509   1.178 -0.4872  1.0267  1.7328
  301MPD2    H2 4590   1.513   3.921   1.169  3.2812  0.8123 -0.8129
  301MPD2    H3 4591   1.525   3.712   1.291  0.8906  0.6211  0.8119
  301MPD2     N 4592   1.460   3.460   0.912  0.1348  0.9014 -0.0486
  301MPD2    H5 4593   1.420   3.387   0.970 -0.4857  0.8506 -0.5467
  301MPD2    N1 4594   1.472   3.945   0.895 -0.2606 -0.0903  0.6279
  301MPD2    H7 4595   1.445   3.927   0.799 -2.0171 -2.1658  1.5154
  302TMC3    C1 4596   1.403   3.311   0.730 -1.2776 -0.6814 -0.4878
  302TMC3    C2 4597   1.419   3.202   0.810  0.2567  0.5451 -0.2633
  302TMC3    C3 4598   1.399   3.083   0.747  0.2137 -0.3817  0.1804
  302TMC3    C4 4599   1.346   3.304   0.608 -1.0641  0.2638 -0.5773
  302TMC3    C5 4600   1.334   3.179   0.546 -0.1440  0.1416 -0.0247
  302TMC3    C6 4601   1.364   3.073   0.621  0.1516  0.0627 -0.5643
  302TMC3     C 4602   1.437   3.434   0.781 -0.4661  0.2115 -0.2937
  302TMC3     O 4603   1.446   3.521   0.695 -0.0675 -0.1808 -0.4338
  302TMC3     H 4604   1.484   3.191   0.895 -1.4973 -0.1090  0.9915
  302TMC3    H1 4605   1.337   3.388   0.540  2.6937  0.8940 -0.3132
  302TMC3    H2 4606   1.357   2.976   0.573  1.6891 -1.5135  2.3347
  302TMC3    C7 4607   1.306   3.164   0.403 -1.0140  0.1119  0.8532
  302TMC3    C8 4608   1.399   2.965   0.823 -0.4113  0.7048  0.2202
  302TMC3    O1 4609   1.340   3.053   0.358 -0.3049  0.2838  0.3343
  302TMC3    O2 4610   1.470   2.958   0.921  0.4825 -0.1225  0.1837
  303MPD2     C 4611   1.381   3.336  10.565  0.4628 -0.6506  0.1687
  303MPD2    C1 4612   1.289   3.229  10.567 -0.4211 -0.5389 -0.1016
  303MPD2    C2 4613   1.312   3.115  10.485 -0.6737 -0.1497  0.4684
  303MPD2    C3 4614   1.428   3.117  10.410  0.2929  0.1090 -0.2525
  303MPD2    C4 4615   1.516   3.222  10.408  0.1767  0.6754  0.4224
  303MPD2    C5 4616   1.490   3.330  10.486 -0.0153  0.0961 -0.4102
  303MPD2     H 4617   1.236   3.037  10.488 -0.9070  0.0620  0.1347
  303MPD2    H1 4618   1.608   3.216  10.352  0.5776 -1.0683  1.2460
  303MPD2    H2 4619   1.378   3.429  10.621 -1.6562 -0.8567  0.4086
  303MPD2    H3 4620   1.567   3.406  10.488  0.4596 -0.3900 -0.0265
  303MPD2     N 4621   1.464   3.014  10.322 -0.1886  0.4157  0.4631
  303MPD2    H5 4622   1.550   3.028  10.270 -2.2493  1.5565 -2.6638
  303MPD2    N1 4623   1.178   3.240  10.657  0.0510 -0.4920 -0.6369
  303MPD2    H7 4624   1.177   3.314  10.726  1.6478 -0.0465 -1.1098
  304TMC3    C1 4625   1.023   3.160  10.801 -0.5976  0.5436 -0.5819
  304TMC3    C2 4626   0.893   3.176  10.820 -0.4438 -0.2498 -0.0216
  304TMC3    C3 4627   0.846   3.200  10.951 -0.1271  0.7118  0.2161
  304TMC3    C4 4628   1.110   3.158  10.908  0.1185  0.4179  0.7324
  304TMC3    C5 4629   1.065   3.182  11.034 -0.2636 -0.2574 -0.6305
  304TMC3    C6 4630   0.936   3.212  11.054  0.2459 -1.4642 -0.1287
  304TMC3     C 4631   1.069   3.156  10.666  0.0264  0.3152 -0.4052
  304TMC3     O 4632   1.036   3.069  10.590 -0.2398  0.5593 -0.2113
  304TMC3     H 4633   0.823   3.148  10.742 -2.7842  0.5693  1.7638
  304TMC3    H1 4634   1.205   3.114  10.883 -1.3727 -0.8430 -2.7068
  304TMC3    H2 4635   0.909   3.220  11.159 -1.1576 -0.3344 -0.5794
  304TMC3    C7 4636   1.108   3.092  11.137  0.0484  0.6838 -0.0727
  304TMC3    C8 4637   0.754   3.091  10.981 -0.3588 -0.5742 -0.1958
  304TMC3    O1 4638   1.026   3.028  11.199 -0.2021  0.5168  0.3339
  304TMC3    O2 4639   0.742   2.999  10.901  0.1697  0.7797  0.5750
  305MPD2     C 4640   4.625   3.861  13.720 -0.1977 -0.2201 -0.0220
  305MPD2    C1 4641   0.011   3.908  13.675 -0.5169  0.3342 -0.9193
  305MPD2    C2 4642   0.056   3.854  13.553 -0.1970 -0.2450  0.0811
  305MPD2    C3 4643   4.715   3.762  13.473  0.3754 -0.2536  0.2213
  305MPD2    C4 4644   4.599   3.717  13.526  0.1184 -0.4804  0.6214
  305MPD2    C5 4645   4.559   3.760  13.650  0.4477  0.2348  0.9311
  305MPD2     H 4646   0.149   3.894  13.516 -0.3857 -0.2155 -0.3619
  305MPD2    H1 4647   4.530   3.660  13.465  1.9116 -1.1418 -0.7943
  305MPD2    H2 4648   4.580   3.897  13.811 -0.4747 -1.3440  0.2864
  305MPD2    H3 4649   4.458   3.733  13.679 -0.0746  0.6695 -0.4763
  305MPD2     N 4650   0.016   3.725  13.340 -0.1954  0.4822  0.3253
  305MPD2    H5 4651   4.676   3.693  13.280  0.6902  2.2399 -1.7430
  305MPD2    N1 4652   0.081   4.006  13.751  0.0333 -0.1866  0.1138
  305MPD2    H7 4653   0.039   4.033  13.840  1.6841 -1.9707  1.4580
  306TMC3    C1 4654   0.252   4.147  13.836  0.4810  0.2032 -0.3773
  306TMC3    C2 4655   0.379   4.129  13.879  0.0528 -0.1106 -0.5224
  306TMC3    C3 4656   0.414   4.202  13.986  0.2198  0.0686  0.2340
  306TMC3    C4 4657   0.161   4.234  13.896 -0.3060 -0.0829 -0.1829
  306TMC3    C5 4658   0.195   4.293  14.016  0.3113 -0.7116 -0.2265
  306TMC3    C6 4659   0.323   4.285  14.057  0.4702  0.1794 -0.6969
  306TMC3     C 4660   0.207   4.062  13.729 -0.0676 -0.4705  0.2971
  306TMC3     O 4661   0.284   4.029  13.642  0.6425 -0.1079  0.5380
  306TMC3     H 4662   0.438   4.048  13.837 -3.2868 -1.6587 -2.1531
  306TMC3    H1 4663   0.058   4.247  13.863 -0.9560 -1.9186  1.1394
  306TMC3    H2 4664   0.347   4.327  14.154  1.1075  1.4745 -1.4151
  306TMC3    C7 4665   0.093   4.312  14.116 -1.0694 -0.3320  0.5093
  306TMC3    C8 4666   0.530   4.151  14.057  0.0798  0.0265  0.1407
  306TMC3    O1 4667   4.717   4.276  14.083 -0.8757 -0.0492  0.8278
  306TMC3    O2 4668   0.573   4.041  14.022 -0.0355  0.4635 -0.0211
  307MPD2     C 4669   2.820   2.728   0.614 -0.5031  0.3857  0.2550
  307MPD2    C1 4670   2.748   2.842   0.602  0.8284  0.0619 -0.2092
  307MPD2    C2 4671   2.617   2.842   0.649  0.2697 -0.1061 -0.2064
  307MPD2    C3 4672   2.564   2.728   0.712  0.1061 -0.2191 -0.1187
  307MPD2    C4 4673   2.642   2.612   0.717  0.1832 -0.5529 -0.0563
  307MPD2    C5 4674   2.772   2.610   0.662  0.3206  0.0751 -0.4613
  307MPD2     H 4675   2.543   2.920   0.633 -0.2053 -0.3317  0.8359
  307MPD2    H1 4676   2.607   2.516   0.752  1.1880 -0.0738  2.2854
  307MPD2    H2 4677   2.922   2.720   0.578 -0.7541 -1.8751  0.0944
  307MPD2    H3 4678   2.832   2.520   0.658 -0.6219 -0.4997 -1.7586
  307MPD2     N 4679   2.438   2.734   0.766 -0.0896 -0.2203 -0.0102
  307MPD2    H5 4680   2.397   2.827   0.756 -1.0849 -0.5420  1.0246
  307MPD2    N1 4681   2.796   2.960   0.541  0.2107 -0.2452  0.6207
  307MPD2    H7 4682   2.735   3.041   0.540  1.1242  0.4302 -0.9322
  308TMC3    C1 4683   2.009   2.556   0.850 -0.2799 -0.1241 -0.2772
  308TMC3    C2 4684   1.954   2.682   0.842 -0.3271 -0.3887 -0.0116
  308TMC3    C3 4685   2.042   2.791   0.850  0.6430  0.2320 -0.0961
  308TMC3    C4 4686   2.145   2.542   0.852 -0.1358  0.3170  0.3833
  308TMC3    C5 4687   2.226   2.659   0.849  0.1920 -0.6462 -0.0848
  308TMC3    C6 4688   2.173   2.783   0.850 -0.0043 -0.8633 -0.1407
  308TMC3     C 4689   1.947   2.450   0.774 -0.3964  0.1425 -1.1433
  308TMC3     O 4690   2.010   2.346   0.753 -0.0938 -0.5877 -0.3500
  308TMC3     H 4691   1.851   2.717   0.832 -0.6805 -1.2156  0.7436
  308TMC3    H1 4692   2.189   2.443   0.851 -1.0895 -0.0928 -1.6964
  308TMC3    H2 4693   2.232   2.874   0.847  0.8258 -1.3512  1.4531
  308TMC3    C7 4694   2.370   2.626   0.827 -0.0715 -1.2943  0.0365
  308TMC3    C8 4695   1.974   2.917   0.885  0.3002 -0.4935  0.2341
  308TMC3    O1 4696   2.411   2.513   0.844  0.1657 -0.5125  0.1534
  308TMC3    O2 4697   1.874   2.901   0.953 -0.0279 -0.1526  0.5979
  309MPD2     C 4698   1.841   3.090  17.162 -0.0970 -0.4474  0.1980
  309MPD2    C1 4699   1.815   3.002  17.056 -0.1085 -0.7450  0.6516
  309MPD2    C2 4700   1.684   2.958  17.028 -0.0585 -0.5863 -0.0669
  309MPD2    C3 4701   1.575   2.997  17.103 -0.2218 -0.2784  0.4757
  309MPD2    C4 4702   1.600   3.076  17.214 -0.2922  0.4154 -0.1195
  309MPD2    C5 4703   1.729   3.122  17.241  0.0174  0.0904 -0.3066
  309MPD2     H 4704   1.659   2.907  16.936 -2.0304 -2.5975  1.5885
  309MPD2    H1 4705   1.520   3.108  17.280 -0.3356 -0.5464  0.2822
  309MPD2    H2 4706   1.941   3.119  17.190 -0.6627  1.3593  0.3194
  309MPD2    H3 4707   1.747   3.188  17.325 -1.4513  0.7266 -0.4943
  309MPD2     N 4708   1.448   2.974  17.043 -0.7150  0.3257  0.5759
  309MPD2    H5 4709   1.445   2.905  16.969  2.7624  1.5503 -0.7033
  309MPD2    N1 4710   1.912   2.959  16.968  0.3414 -0.3944  0.4147
  309MPD2    H7 4711   1.886   2.898  16.891 -0.6012 -1.3948  1.5095
  310TMC3    C1 4712   2.119   2.898  16.879 -0.5679 -0.6112 -0.5000
  310TMC3    C2 4713   2.052   2.892  16.761 -0.0889 -0.5913  0.2597
  310TMC3    C3 4714   2.109   2.805  16.665  0.2751 -0.2992  0.6816
  310TMC3    C4 4715   2.233   2.834  16.912 -0.5346 -0.4391  0.5346
  310TMC3    C5 4716   2.286   2.748  16.819 -0.5299  0.0651 -0.3112
  310TMC3    C6 4717   2.218   2.730  16.693  0.7062 -0.0847 -0.5723
  310TMC3     C 4718   2.047   2.975  16.984 -0.1956  0.1321  0.3994
  310TMC3     O 4719   2.111   3.009  17.083  0.4045 -0.2988  0.5740
  310TMC3     H 4720   1.966   2.955  16.737  0.0994  0.0159  1.1584
  310TMC3    H1 4721   2.267   2.846  17.015  0.2859 -0.4203  0.2591
  310TMC3    H2 4722   2.262   2.650  16.633  1.3317 -0.6608  0.6289
  310TMC3    C7 4723   2.323   2.619  16.871  0.7666  0.1835 -0.0491
  310TMC3    C8 4724   2.066   2.805  16.524  0.3077  0.7675  0.0473
  310TMC3    O1 4725   2.285   2.515  16.815  0.5889  0.4564  0.5253
  310TMC3    O2 4726   2.143   2.755  16.444 -0.2768  0.3006 -0.0883
  311MPD2     C 4727   3.639   4.128  12.287  0.4482  0.1011  0.2553
  311MPD2    C1 4728   3.669   4.139  12.421 -0.4863  0.4111 -0.2475
  311MPD2    C2 4729   3.577   4.082  12.509 -0.2792 -0.3404 -0.2999
  311MPD2    C3 4730   3.463   4.019  12.465 -0.1532 -0.4036 -0.2742
  311MPD2    C4 4731   3.447   3.997  12.325  0.5661 -0.2611  0.4779
  311MPD2    C5 4732   3.538   4.048  12.242  0.6958 -0.2699  0.2021
  311MPD2     H 4733   3.580   4.110  12.614 -1.1209 -2.1927  0.2021
  311MPD2    H1 4734   3.368   3.936  12.282 -1.0245  0.8384  1.8534
  311MPD2    H2 4735   3.704   4.175  12.214  1.5230  0.0693  1.1815
  311MPD2    H3 4736   3.525   4.052  12.134  1.0316 -0.3501  0.1598
  311MPD2     N 4737   3.371   3.977  12.563  0.0176 -0.6476 -0.1482
  311MPD2    H5 4738   3.401   3.975  12.660  1.4010  1.6408 -0.5256
  311MPD2    N1 4739   3.787   4.200  12.469 -0.6079  0.0983  0.0398
  311MPD2    H7 4740   3.801   4.212  12.569  1.6049 -0.6475 -0.1752
  312TMC3    C1 4741   3.152   3.902  12.626 -0.0792  0.5504 -0.5435
  312TMC3    C2 4742   3.018   3.882  12.587  0.0564  0.2343 -0.6357
  312TMC3    C3 4743   2.925   3.818  12.667  0.3836  0.2217 -0.3505
  312TMC3    C4 4744   3.189   3.852  12.746 -0.3570 -0.2775 -0.6438
  312TMC3    C5 4745   3.090   3.789  12.827  0.6344 -0.6861 -0.3155
  312TMC3    C6 4746   2.965   3.768  12.786  0.8366 -0.0984 -0.0244
  312TMC3     C 4747   3.243   3.943  12.524  0.5192  0.5147  0.3141
  312TMC3     O 4748   3.180   3.974  12.423 -0.0040 -0.0006 -0.7172
  312TMC3     H 4749   2.987   3.885  12.483 -0.6969  1.0529 -0.3772
  312TMC3    H1 4750   3.292   3.846  12.781 -0.1734 -1.4703 -1.3846
  312TMC3    H2 4751   2.892   3.719  12.848 -1.0870  0.3495 -1.9341
  312TMC3    C7 4752   3.117   3.750  12.959 -0.4083 -0.4281 -0.2150
  312TMC3    C8 4753   2.796   3.807  12.629 -0.2549 -0.0946 -0.3570
  312TMC3    O1 4754   3.041   3.669  13.012  0.4868  0.4661  0.0559
  312TMC3    O2 4755   2.733   3.715  12.680 -0.4778  0.2888 -0.4705
  313MPD2     C 4756   2.494   3.949  11.321 -0.7045  0.1006 -0.5010
  313MPD2    C1 4757   2.592   3.963  11.226  1.1826 -0.3354  0.2182
  313MPD2    C2 4758   2.679   3.867  11.201  0.2782  0.6194  1.0591
  313MPD2    C3 4759   2.648   3.740  11.253 -0.6132 -0.8399 -0.2449
  313MPD2    C4 4760   2.547   3.719  11.346 -0.0752  0.5180 -0.4991
  313MPD2    C5 4761   2.472   3.828  11.380  0.1231 -0.1770 -1.0302
  313MPD2     H 4762   2.761   3.867  11.131  0.8331 -1.2023  1.6909
  313MPD2    H1 4763   2.521   3.629  11.401  0.2817 -0.9391 -2.7079
  313MPD2    H2 4764   2.430   4.028  11.358 -1.5656 -1.3441  1.0576
  313MPD2    H3 4765   2.393   3.818  11.453 -0.0849  0.6581 -1.1436
  313MPD2     N 4766   2.726   3.637  11.209 -0.6511  0.5042  0.8336
  313MPD2    H5 4767   2.793   3.649  11.133 -1.6485 -3.9254 -0.7555
  313MPD2    N1 4768   2.619   4.083  11.174 -0.6518 -1.3932 -0.4940
  313MPD2    H7 4769   2.708   4.087  11.126 -0.3533 -3.0187 -0.0765
  314TMC3    C1 4770   2.585   4.289  11.049  0.4454  0.1491 -0.0075
  314TMC3    C2 4771   2.719   4.315  11.041  0.2201  0.2264  0.4241
  314TMC3    C3 4772   2.767   4.378  10.929  0.1632 -0.2063 -0.6396
  314TMC3    C4 4773   2.502   4.337  10.954 -0.2886 -0.0267  0.3040
  314TMC3    C5 4774   2.547   4.404  10.846  0.0934  0.3396  0.1663
  314TMC3    C6 4775   2.683   4.425  10.831 -0.5864  0.2808  0.1788
  314TMC3     C 4776   2.537   4.195  11.157 -0.8696  0.0305 -0.5902
  314TMC3     O 4777   2.419   4.207  11.196 -0.1451  0.0559  0.1792
  314TMC3     H 4778   2.789   4.286  11.119 -0.4958  0.8889  1.3103
  314TMC3    H1 4779   2.401   4.297  10.955 -0.2498 -0.0709  2.3916
  314TMC3    H2 4780   2.714   4.476  10.741  1.7268  1.0888  1.4344
  314TMC3    C7 4781   2.477   4.381  10.735 -0.4955  0.5606  0.2870
  314TMC3    C8 4782   2.907   4.426  10.938  0.3480 -0.2764  0.3833
  314TMC3    O1 4783   2.354   4.391  10.745 -0.5894 -0.0984  0.1258
  314TMC3    O2 4784   2.934   4.524  10.876 -0.0340 -0.2225  0.1021
  315MPD2     C 4785   2.953   2.067  17.519 -0.0625  0.5704  0.4494
  315MPD2    C1 4786   3.027   2.108  17.633 -0.1572  0.4788 -0.3804
  315MPD2    C2 4787   3.041   2.245  17.654 -0.5055 -0.7457 -0.0879
  315MPD2    C3 4788   2.969   2.334  17.581 -0.4949  0.4958  0.4205
  315MPD2    C4 4789   2.886   2.294  17.478 -0.1989 -0.2314 -0.3173
  315MPD2    C5 4790   2.887   2.165  17.443  0.1294  0.7305 -0.2707
  315MPD2     H 4791   3.101   2.273  17.739 -0.3290  0.0459 -0.4693
  315MPD2    H1 4792   2.842   2.363  17.408 -0.2571 -1.8368 -1.8719
  315MPD2    H2 4793   2.954   1.964  17.484  2.2975  0.6936  0.1323
  315MPD2    H3 4794   2.835   2.129  17.354 -1.4374  0.6072  0.7026
  315MPD2     N 4795   2.991   2.466  17.628  0.3342 -0.3311  0.0693
  315MPD2    H5 4796   3.052   2.476  17.709 -1.9307 -1.5344  1.9353
  315MPD2    N1 4797   3.094   2.016  17.718 -0.4209  0.1877  0.2807
  315MPD2    H7 4798   3.147   2.051   0.055  2.6919 -0.7244 -1.3886
  316TMC3    C1 4799   2.982   2.705  17.630 -0.5572  0.5657  0.2265
  316TMC3    C2 4800   3.058   2.712   0.003  0.3742 -0.4112  0.7546
  316TMC3    C3 4801   3.082   2.838   0.052 -0.4997 -0.5327  0.2101
  316TMC3    C4 4802   2.917   2.817  17.577 -0.6499  0.4628  0.3660
  316TMC3    C5 4803   2.948   2.935  17.632 -0.2616 -1.5039 -1.3642
  316TMC3    C6 4804   3.031   2.953  17.739  0.1713  0.1526 -0.4681
  316TMC3     C 4805   2.928   2.579  17.580  0.3687 -0.1249 -0.0962
  316TMC3     O 4806   2.844   2.581  17.491  0.5398  0.4828 -0.0170
  316TMC3     H 4807   3.094   2.622   0.051  2.5828  0.0347 -0.0850
  316TMC3    H1 4808   2.849   2.808  17.493 -0.5440 -1.5827  0.4891
  316TMC3    H2 4809   3.043   3.051   0.042 -1.1413 -0.8542  2.1097
  316TMC3    C7 4810   2.869   3.058  17.609  0.0214  0.0639  0.4083
  316TMC3    C8 4811   3.193   2.866   0.138  0.2200  0.6378  0.0563
  316TMC3    O1 4812   2.890   3.152  17.681 -0.9438 -0.5284  0.5486
  316TMC3    O2 4813   3.197   2.986   0.175 -0.3294  0.4951  0.0835
  317MPD2     C 4814   0.196   1.205  12.964 -0.3809 -0.1435  0.3861
  317MPD2    C1 4815   0.311   1.121  12.966 -0.0145 -0.3876 -0.2044
  317MPD2    C2 4816   0.345   1.065  13.090  0.2562 -0.8298 -0.0949
  317MPD2    C3 4817   0.259   1.076  13.201  0.0956 -0.4775  0.3199
  317MPD2    C4 4818   0.148   1.155  13.197 -0.4309 -0.2043 -0.0990
  317MPD2    C5 4819   0.118   1.219  13.078  0.0263 -0.0934  0.6407
  317MPD2     H 4820   0.427   0.994  13.100 -0.6599 -2.1564 -2.0431
  317MPD2    H1 4821   0.091   1.162  13.289 -1.8021 -1.2879 -0.8636
  317MPD2    H2 4822   0.145   1.239  12.875  0.5315  3.4591  1.2277
  317MPD2    H3 4823   0.021   1.267  13.066  0.3709  0.0242 -1.6700
  317MPD2     N 4824   0.295   1.002  13.317 -0.2944 -0.2336  0.0399
  317MPD2    H5 4825   0.387   0.960  13.317  0.8422  2.2783  3.4322
  317MPD2    N1 4826   0.385   1.073  12.858 -0.0866 -0.4652  0.2049
  317MPD2    H7 4827   0.476   1.033  12.880  0.7762  1.3899  0.0065
  318TMC3    C1 4828   0.265   0.861  13.489  0.1125 -0.4138 -0.1053
  318TMC3    C2 4829   0.184   0.747  13.506 -0.0706 -0.0095 -0.2926
  318TMC3    C3 4830   0.244   0.652  13.583  0.7681  0.5073  0.2327
  318TMC3    C4 4831   0.386   0.884  13.542  0.5920 -0.3983  0.7479
  318TMC3    C5 4832   0.430   0.785  13.619 -0.2675 -1.4227 -0.4899
  318TMC3    C6 4833   0.357   0.670  13.646 -0.7639  0.0593 -0.4348
  318TMC3     C 4834   0.206   0.963  13.411 -0.5049  0.6209 -0.2889
  318TMC3     O 4835   0.088   0.989  13.428 -0.2235  0.4296  0.4943
  318TMC3     H 4836   0.091   0.734  13.452 -0.6200 -0.0204  0.6470
  318TMC3    H1 4837   0.446   0.972  13.519 -1.6752  1.1608  0.8612
  318TMC3    H2 4838   0.406   0.604  13.718 -1.0876 -1.5372 -1.6822
  318TMC3    C7 4839   0.552   0.819  13.697 -0.1348  0.2747  0.5130
  318TMC3    C8 4840   0.202   0.517  13.568 -0.3622 -0.5707  0.6261
  318TMC3    O1 4841   0.577   0.930  13.738 -1.2111 -0.2466  0.1075
  318TMC3    O2 4842   0.295   0.439  13.591  0.3887 -0.0206  0.3974
  319MPD2     C 4843   1.039   2.564  16.695  0.4717  0.7131  0.2827
  319MPD2    C1 4844   1.091   2.438  16.666  0.4467  1.0476 -0.3359
  319MPD2    C2 4845   1.015   2.362  16.571 -0.2434 -0.0074 -0.2501
  319MPD2    C3 4846   0.899   2.410  16.513 -0.6389  0.0789 -0.8461
  319MPD2    C4 4847   0.862   2.541  16.538 -0.1816 -0.1294  0.1945
  319MPD2    C5 4848   0.929   2.615  16.630  0.3207  0.1134 -0.5823
  319MPD2     H 4849   1.059   2.269  16.537  0.5436 -0.7350  2.7528
  319MPD2    H1 4850   0.773   2.583  16.493 -0.1300  1.0349  1.1930
  319MPD2    H2 4851   1.090   2.626  16.768  0.8364  1.0260 -0.2289
  319MPD2    H3 4852   0.886   2.711  16.656 -0.5715 -0.5301  0.3277
  319MPD2     N 4853   0.828   2.330  16.421 -0.0937  0.7657  0.5252
  319MPD2    H5 4854   0.754   2.377  16.371 -0.3153 -0.5619 -0.3827
  319MPD2    N1 4855   1.207   2.379  16.728 -0.0251 -0.3136 -0.1665
  319MPD2    H7 4856   1.227   2.283  16.701  1.3975  0.1855 -0.8750
  320TMC3    C1 4857   0.726   2.137  16.330  0.2199  0.3418  0.0795
  320TMC3    C2 4858   0.661   2.220  16.238  0.9569 -0.1995 -0.3384
  320TMC3    C3 4859   0.569   2.166  16.149 -0.6434 -0.2274  0.0247
  320TMC3    C4 4860   0.711   2.001  16.317 -0.2371  0.7907  0.5736
  320TMC3    C5 4861   0.610   1.955  16.235  0.3457 -0.5761  0.4354
  320TMC3    C6 4862   0.538   2.033  16.143 -0.1550 -0.1105 -0.2546
  320TMC3     C 4863   0.827   2.194  16.418  0.4040  1.1939  0.2095
  320TMC3     O 4864   0.889   2.115  16.481 -0.1048  0.9478 -0.0400
  320TMC3     H 4865   0.676   2.328  16.235  1.1238 -0.3191 -4.2269
  320TMC3    H1 4866   0.774   1.928  16.366  0.0626 -0.6585 -1.9763
  320TMC3    H2 4867   0.448   1.995  16.095  0.4393 -0.7224 -0.8796
  320TMC3    C7 4868   0.592   1.812  16.214 -0.3574  0.3798  0.4902
  320TMC3    C8 4869   0.528   2.253  16.041 -0.4408 -0.2125  0.2288
  320TMC3    O1 4870   0.541   1.777  16.108  0.0849  0.5761  0.3239
  320TMC3    O2 4871   0.505   2.368  16.079 -0.3463  0.3079  0.3912
  321TMC3    C1 4872   1.390   2.347  16.883  0.4599  0.3453 -0.4275
  321TMC3    C2 4873   1.362   2.213  16.876  0.0610  0.3573  0.9401
  321TMC3    C3 4874   1.462   2.123  16.900 -1.2098 -1.0267 -0.7080
  321TMC3    C4 4875   1.518   2.385  16.926 -0.2233  0.0476  0.1175
  321TMC3    C5 4876   1.615   2.292  16.960  0.7554  0.4145  0.4912
  321TMC3    C6 4877   1.589   2.159  16.940 -0.0576  0.0005  1.1775
  321TMC3     C 4878   1.297   2.440  16.815  0.7001  0.2657  0.2225
  321TMC3     O 4879   1.299   2.558  16.846 -0.6966 -0.0696 -0.4504
  321TMC3     H 4880   1.261   2.176  16.869  0.1776  0.4488 -1.2169
  321TMC3    H1 4881   1.537   2.488  16.955  1.7519 -0.4911  0.7132
  321TMC3    H2 4882   1.669   2.087  16.933 -1.0336 -0.9321 -0.3988
  321TMC3    C7 4883   1.676   2.308  17.088 -0.3596  0.3163 -0.2582
  321TMC3    C8 4884   1.413   2.002  16.967  0.5191  0.7659 -0.4000
  321TMC3    O1 4885   1.706   2.206  17.145 -0.1721  0.6832  0.5136
  321TMC3    O2 4886   1.316   1.943  16.930 -0.0888 -0.0816 -0.2011
  322MPD2     C 4887   4.713   3.414  13.410 -0.5139 -0.6758 -0.4133
  322MPD2    C1 4888   0.059   3.379  13.513  0.4112  0.7017  0.5249
  322MPD2    C2 4889   0.102   3.248  13.523  0.5212  0.4996  0.0363
  322MPD2    C3 4890   0.059   3.149  13.444 -0.8879 -0.2306  0.1554
  322MPD2    C4 4891   4.702   3.187  13.344  0.0636 -0.5463  0.3713
  322MPD2    C5 4892   4.665   3.317  13.322 -0.1967 -0.3227  0.0483
  322MPD2     H 4893   0.168   3.223  13.606  0.4415  0.4688  0.0913
  322MPD2    H1 4894   4.671   3.114  13.271  1.2799 -0.8874  0.1959
  322MPD2    H2 4895   4.674   3.515  13.404 -1.7448 -1.3097 -3.0106
  322MPD2    H3 4896   4.593   3.335  13.243  0.6962  1.6332 -0.2990
  322MPD2     N 4897   0.120   3.026  13.447  0.3112  0.4457  0.2764
  322MPD2    H5 4898   0.187   3.011  13.522  3.3751  2.3681 -2.1027
  322MPD2    N1 4899   0.095   3.483  13.594  0.6946 -0.1328 -0.2988
  322MPD2    H7 4900   0.080   3.581  13.571  1.5805  0.6761  2.5090
  323TMC3    C1 4901   0.200   3.585  13.766 -0.4691 -0.3081 -0.0831
  323TMC3    C2 4902   0.273   3.667  13.685  0.0001 -1.1769 -0.1108
  323TMC3    C3 4903   0.358   3.749  13.753  0.2005 -0.1746  0.2815
  323TMC3    C4 4904   0.207   3.589  13.903 -0.0327  0.1607  0.0717
  323TMC3    C5 4905   0.290   3.678  13.963  0.4459  0.7829 -0.0794
  323TMC3    C6 4906   0.370   3.762  13.892  0.2004 -0.1806 -0.6382
  323TMC3     C 4907   0.154   3.462  13.715 -0.7868  1.4042 -0.4579
  323TMC3     O 4908   0.180   3.363  13.779 -0.3072  0.3652 -0.0988
  323TMC3     H 4909   0.281   3.653  13.578 -0.7005 -1.9562 -0.0567
  323TMC3    H1 4910   0.147   3.520  13.962  2.3879 -0.9353  1.2432
  323TMC3    H2 4911   0.458   3.810  13.933  0.2705 -1.6194  0.8651
  323TMC3    C7 4912   0.339   3.627  14.084 -0.1661 -0.7608 -0.6118
  323TMC3    C8 4913   0.488   3.759  13.687  0.5019  0.0247 -0.0061
  323TMC3    O1 4914   0.335   3.508  14.099 -0.7356  0.3075  0.3098
  323TMC3    O2 4915   0.585   3.738  13.754  0.4037 -0.2468 -0.3748
  324MPD2     C 4916   1.772   3.959  14.076  0.2137  0.0224 -0.1232
  324MPD2    C1 4917   1.787   4.094  14.099 -0.0549 -0.4165 -0.1207
  324MPD2    C2 4918   1.683   4.161  14.150  1.2232  0.1420 -0.2557
  324MPD2    C3 4919   1.565   4.089  14.182  0.3833 -0.0159  0.2726
  324MPD2    C4 4920   1.556   3.954  14.171  1.1183  0.4388 -0.0737
  324MPD2    C5 4921   1.658   3.883  14.108 -0.0685 -0.2064 -0.0600
  324MPD2     H 4922   1.695   4.268  14.164  1.3561  0.3070 -1.6108
  324MPD2    H1 4923   1.470   3.894  14.196  1.3279  0.1327 -0.0821
  324MPD2    H2 4924   1.847   3.905  14.020 -1.2682 -2.5228  0.3405
  324MPD2    H3 4925   1.648   3.779  14.080 -3.8204 -0.0562  0.7574
  324MPD2     N 4926   1.452   4.153  14.234 -0.3613  0.0020  0.0915
  324MPD2    H5 4927   1.362   4.108  14.249 -0.0763 -0.3667  0.6724
  324MPD2    N1 4928   1.901   4.166  14.064 -0.0139 -0.3347 -0.1686
  324MPD2    H7 4929   1.901   4.267  14.081  0.3435 -0.2238 -0.8354
  325TMC3    C1 4930   1.330   4.354  14.308 -0.7070 -0.1880 -0.6932
  325TMC3    C2 4931   1.217   4.330  14.235  0.8560  0.4282 -0.1529
  325TMC3    C3 4932   1.108   4.415  14.248 -0.0856  0.4588 -0.5140
  325TMC3    C4 4933   1.336   4.463  14.391  0.8092 -0.7015 -1.0071
  325TMC3    C5 4934   1.230   4.551  14.392 -1.2851 -0.4608 -1.0203
  325TMC3    C6 4935   1.111   4.526  14.326  1.1325  0.0690 -0.2105
  325TMC3     C 4936   1.458   4.288  14.281 -0.4572  0.1758 -0.1942
  325TMC3     O 4937   1.558   4.350  14.317 -0.7554 -0.6228 -0.1709
  325TMC3     H 4938   1.213   4.251  14.161 -2.1826 -2.4646  3.1163
  325TMC3    H1 4939   1.431   4.488  14.436  0.5194 -1.9119  0.2600
  325TMC3    H2 4940   1.033   4.601  14.319  1.0489 -0.0440 -0.4775
  325TMC3    C7 4941   1.260   4.676  14.451 -0.7498 -0.0348  0.4788
  325TMC3    C8 4942   1.001   4.393  14.153 -0.5969  0.8527 -0.3545
  325TMC3    O1 4943   1.381   4.700  14.475 -0.2119  0.3147  0.0025
  325TMC3    O2 4944   1.024   4.305  14.070 -0.2898  0.1687 -0.6414
  326MPD2     C 4945   2.253   1.051  11.469 -0.0238  0.1881 -0.7768
  326MPD2    C1 4946   2.261   1.088  11.334 -0.0138  0.2845 -0.6504
  326MPD2    C2 4947   2.383   1.138  11.291 -0.1586  0.1427  0.2103
  326MPD2    C3 4948   2.484   1.178  11.385 -0.1981 -0.2095  0.5971
  326MPD2    C4 4949   2.463   1.145  11.516 -0.5990 -0.4412  0.1234
  326MPD2    C5 4950   2.353   1.082  11.562 -0.1413 -0.4432  0.4797
  326MPD2     H 4951   2.387   1.167  11.187  0.3109  0.5823  0.3518
  326MPD2    H1 4952   2.533   1.188  11.587 -0.7887  1.0232 -0.5643
  326MPD2    H2 4953   2.169   0.994  11.505  1.1296 -0.5342  0.8046
  326MPD2    H3 4954   2.348   1.049  11.665 -0.0566 -1.9821 -0.0026
  326MPD2     N 4955   2.597   1.253  11.343 -0.6446  0.1348 -0.0455
  326MPD2    H5 4956   2.661   1.294  11.410  2.3816  0.3811 -3.1299
  326MPD2    N1 4957   2.161   1.063  11.236  0.5814 -0.0933 -0.2484
  326MPD2    H7 4958   2.184   1.089  11.141 -3.2826  0.5038 -1.0181
  327TMC3    C1 4959   1.960   1.017  11.137 -0.3242 -0.0613  0.1078
  327TMC3    C2 4960   1.898   1.129  11.111  0.5305  0.0389  0.5375
  327TMC3    C3 4961   1.897   1.184  10.986 -0.6983  0.2146 -0.7867
  327TMC3    C4 4962   2.035   0.955  11.042  0.4201  0.3188  0.0550
  327TMC3    C5 4963   2.032   1.001  10.918  0.9231  0.5702  0.5896
  327TMC3    C6 4964   1.958   1.112  10.890  0.0993 -0.5028 -0.6767
  327TMC3     C 4965   2.034   1.024  11.261 -0.3705  0.0717  0.5334
  327TMC3     O 4966   1.975   1.029  11.368 -0.2849  0.0501 -0.1383
  327TMC3     H 4967   1.863   1.191  11.193  0.8731 -1.1421  1.5704
  327TMC3    H1 4968   2.089   0.863  11.065  2.3791  0.9951 -1.8364
  327TMC3    H2 4969   1.945   1.152  10.790  1.0380 -1.2358 -1.0927
  327TMC3    C7 4970   2.152   0.987  10.834  0.6655 -0.6126 -0.0788
  327TMC3    C8 4971   1.874   1.324  10.954 -0.7263  0.1000  0.4485
  327TMC3    O1 4972   2.146   1.056  10.731  0.3056 -0.7445  0.4093
  327TMC3    O2 4973   1.946   1.361  10.865 -0.0001  0.5430 -0.3640
  328MPD2     C 4974   0.659   1.141  17.058  0.4466 -0.1908  0.2447
  328MPD2    C1 4975   0.556   1.067  17.115 -0.5029 -0.2642  0.1251
  328MPD2    C2 4976   0.427   1.066  17.055 -0.0532  0.1400 -0.6081
  328MPD2    C3 4977   0.408   1.143  16.936 -0.1550  0.7239  0.5933
  328MPD2    C4 4978   0.510   1.226  16.895 -0.2008 -0.3976 -0.3759
  328MPD2    C5 4979   0.633   1.222  16.954  0.0759  0.0083  0.0381
  328MPD2     H 4980   0.344   1.006  17.090 -0.0936  0.1325 -0.7177
  328MPD2    H1 4981   0.503   1.289  16.807 -0.6320 -0.5486 -0.4505
  328MPD2    H2 4982   0.757   1.148  17.103 -0.1612  0.0757  1.5268
  328MPD2    H3 4983   0.709   1.269  16.894  0.6064 -0.0342  0.6756
  328MPD2     N 4984   0.292   1.133  16.855 -1.0691 -0.0093  0.0356
  328MPD2    H5 4985   0.296   1.196  16.776 -0.6086  0.0342  0.0888
  328MPD2    N1 4986   0.589   0.984  17.222 -0.4374  0.1546 -0.2098
  328MPD2    H7 4987   0.687   0.987  17.248 -0.3148  1.9597 -0.8361
  329TMC3    C1 4988   0.556   0.849  17.414  0.2260  0.7214 -0.2937
  329TMC3    C2 4989   0.519   0.884  17.545  0.2135  0.5161 -0.3735
  329TMC3    C3 4990   0.605   0.848  17.646 -0.1000 -0.6965  0.0826
  329TMC3    C4 4991   0.665   0.777  17.386 -0.0697  0.0448  0.7006
  329TMC3    C5 4992   0.741   0.743  17.499 -0.1681 -0.2650  0.7590
  329TMC3    C6 4993   0.715   0.775  17.628  0.1259  0.9398 -0.7031
  329TMC3     C 4994   0.501   0.920  17.306 -0.0943  0.2632 -0.3232
  329TMC3     O 4995   0.378   0.923  17.297 -0.5029 -0.2508  0.2043
  329TMC3     H 4996   0.441   0.960  17.549 -0.6955 -0.5352  1.7631
  329TMC3    H1 4997   0.689   0.738  17.288 -1.0121  1.0923  0.0593
  329TMC3    H2 4998   0.777   0.741  17.710 -0.5898 -2.5539 -1.6087
  329TMC3    C7 4999   0.859   0.665  17.470 -0.1360  0.0383 -0.4591
  329TMC3    C8 5000   0.611   0.943   0.013  0.2319  0.0674  0.4934
  329TMC3    O1 5001   0.849   0.607  17.363 -0.8151  0.3644  0.1705
  329TMC3    O2 5002   0.719   0.949   0.069  0.1282 -0.6002  0.7845
  330TMC3    C1 5003   3.111   1.088   9.471  0.2710 -0.1754 -0.2218
  330TMC3    C2 5004   3.051   0.996   9.385  0.0747 -0.2508 -0.5010
  330TMC3    C3 5005   3.060   0.865   9.416  0.4141  0.3997  0.7203
  330TMC3    C4 5006   3.174   1.044   9.582 -0.3411 -0.1552 -0.2947
  330TMC3    C5 5007   3.200   0.904   9.600  0.6764 -0.4844 -1.1881
  330TMC3    C6 5008   3.143   0.812   9.514  0.6734  0.0685 -0.2321
  330TMC3     C 5009   3.066   1.225   9.462 -0.2412 -0.0391  0.6704
  330TMC3     O 5010   3.129   1.306   9.529  0.0656  0.8136  0.7958
  330TMC3     H 5011   3.003   1.016   9.290 -0.8042  2.3272  0.5017
  330TMC3    H1 5012   3.225   1.113   9.648 -0.3971  0.5124 -0.9448
  330TMC3    H2 5013   3.167   0.707   9.529  1.8218  0.5726  1.5012
  330TMC3    C7 5014   3.280   0.846   9.705  0.3000 -0.1978 -0.2254
  330TMC3    C8 5015   2.984   0.770   9.334 -0.5503  0.1709  0.2181
  330TMC3    O1 5016   3.274   0.728   9.737 -0.2501  0.0732 -0.2588
  330TMC3    O2 5017   2.909   0.825   9.257  0.4029 -0.4786  0.1298
  331MPD2     C 5018   1.129   4.266  12.832  0.2785  0.5648 -0.4402
  331MPD2    C1 5019   1.207   4.331  12.740  0.3957  0.0833  0.1558
  331MPD2    C2 5020   1.195   4.294  12.612  0.3964  0.1906  0.3898
  331MPD2    C3 5021   1.094   4.206  12.572 -0.7689  0.4414  0.3322
  331MPD2    C4 5022   1.008   4.155  12.667  0.2804  0.5882  0.4380
  331MPD2    C5 5023   1.029   4.183  12.801  0.4869 -0.0481  0.0503
  331MPD2     H 5024   1.264   4.340  12.543  0.4906  0.6736  0.8052
  331MPD2    H1 5025   0.928   4.086  12.644  1.8920 -0.7261 -1.1532
  331MPD2    H2 5026   1.136   4.298  12.936 -1.3605 -1.4685  0.2943
  331MPD2    H3 5027   0.973   4.132  12.878  0.2059  0.1632 -0.0135
  331MPD2     N 5028   1.088   4.172  12.432 -0.1413 -0.2861  0.2849
  331MPD2    H5 5029   1.147   4.224  12.369 -0.2275  1.8893  1.9830
  331MPD2    N1 5030   1.304   4.425  12.786  1.0344 -0.2131  0.7258
  331MPD2    H7 5031   1.338   4.417  12.881  0.2842 -0.6589  0.9623
  332TMC3    C1 5032   1.049   4.040  12.248  0.3514  0.5764  0.7067
  332TMC3    C2 5033   1.062   4.130  12.150  1.1310  0.0480  0.5796
  332TMC3    C3 5034   1.084   4.088  12.026  1.0831 -0.6834  0.3626
  332TMC3    C4 5035   1.054   3.905  12.217 -0.6571  0.5935  0.7671
  332TMC3    C5 5036   1.094   3.865  12.095  0.2905 -0.3152  0.1592
  332TMC3    C6 5037   1.110   3.956  11.994 -0.0784  0.0853  0.7011
  332TMC3     C 5038   1.013   4.070  12.378  0.6753 -0.1453  0.0831
  332TMC3     O 5039   0.946   3.991  12.440  0.1327  0.6139 -0.2694
  332TMC3     H 5040   1.038   4.235  12.164 -1.1832  0.0385 -3.1165
  332TMC3    H1 5041   1.068   3.819  12.283  1.8972 -1.5224 -2.5451
  332TMC3    H2 5042   1.137   3.923  11.895  0.2252 -0.5498  0.9980
  332TMC3    C7 5043   1.154   3.736  12.083  0.2708  0.0023  0.5719
  332TMC3    C8 5044   1.108   4.189  11.925  0.4690 -1.1630 -0.4539
  332TMC3    O1 5045   1.110   3.674  11.986  0.3559  0.2127 -0.0590
  332TMC3    O2 5046   1.164   4.291  11.966 -0.3967  0.2651  0.4390
  333MPD2     C 5047   1.301   4.638  10.934  0.2543 -0.8173  0.2723
  333MPD2    C1 5048   1.289   4.543  10.835  0.0761  0.1289  0.1435
  333MPD2    C2 5049   1.199   4.444  10.841 -0.4938  0.3511  0.7317
  333MPD2    C3 5050   1.108   4.435  10.941 -0.4684 -0.2268 -0.3630
  333MPD2    C4 5051   1.129   4.522  11.047 -0.9664 -0.2494  0.2736
  333MPD2    C5 5052   1.228   4.616  11.042  0.0162 -0.2897 -0.4919
  333MPD2     H 5053   1.202   4.373  10.759  0.1974  2.0728 -0.7103
  333MPD2    H1 5054   1.075   4.525  11.141 -1.1598 -0.2259  0.1613
  333MPD2    H2 5055   1.367   4.723  10.923 -0.9085  0.0867  0.3382
  333MPD2    H3 5056   1.224   4.688  11.123  2.1851 -0.5255 -0.1758
  333MPD2     N 5057   1.004   4.341  10.943  0.2658 -0.0096  0.0622
  333MPD2    H5 5058   1.003   4.294  10.853  0.7988 -0.6911  0.4030
  333MPD2    N1 5059   1.370   4.571  10.722  0.3384  0.5837  0.3565
  333MPD2    H7 5060   1.421   4.659  10.718  0.9397  0.2229  0.1669
  334TMC3    C1 5061   1.482   4.576  10.519 -0.5478 -0.3764  0.3409
  334TMC3    C2 5062   1.581   4.510  10.461 -0.7261  0.2217  0.5362
  334TMC3    C3 5063   1.680   4.590  10.401 -0.1480  0.1485 -0.0892
  334TMC3    C4 5064   1.460   4.713  10.509  1.0489 -0.7425  0.0023
  334TMC3    C5 5065   1.566   0.048  10.454  0.4972 -0.1809  0.0927
  334TMC3    C6 5066   1.677   4.726  10.398  0.1285  0.4473  0.5555
  334TMC3     C 5067   1.400   4.494  10.608  0.3226 -0.1456  0.0835
  334TMC3     O 5068   1.393   4.376  10.576 -0.1192  0.1465 -0.1915
  334TMC3     H 5069   1.603   4.404  10.470  0.7510  0.4031 -0.9914
  334TMC3    H1 5070   1.373   0.020  10.558  2.0297  0.4721  0.6842
  334TMC3    H2 5071   1.763   0.046  10.361  0.4781  1.1392  2.3925
  334TMC3    C7 5072   1.556   0.193  10.452 -0.6116  0.1953 -1.2754
  334TMC3    C8 5073   1.804   4.521  10.351  0.0985  0.6883 -0.0315
  334TMC3    O1 5074   1.656   0.252  10.416 -0.0641  0.4688  0.3021
  334TMC3    O2 5075   1.808   4.399  10.338 -0.0159  0.4341  0.3393
  335TMC3    C1 5076   1.083   0.964  17.393  0.6686  1.2595 -0.1170
  335TMC3    C2 5077   1.071   0.871  17.293  0.5275 -0.2638 -0.4606
  335TMC3    C3 5078   1.181   0.802  17.256  0.5052  0.5468  0.4704
  335TMC3    C4 5079   1.212   0.990  17.444  0.5884 -0.1266 -0.6487
  335TMC3    C5 5080   1.317   0.926  17.394  0.1818 -0.4789 -0.1688
  335TMC3    C6 5081   1.306   0.828  17.300 -0.4751 -0.5717  0.2882
  335TMC3     C 5082   0.961   1.048  17.403  1.0020  0.0200 -0.1542
  335TMC3     O 5083   0.877   1.033  17.315  0.0751  0.1649  0.0470
  335TMC3     H 5084   0.982   0.856  17.232 -0.8392  1.2760  1.1499
  335TMC3    H1 5085   1.221   1.064  17.522 -0.9856  0.4389 -0.9953
  335TMC3    H2 5086   1.385   0.759  17.274 -0.7599  0.1075 -2.4061
  335TMC3    C7 5087   1.443   0.920  17.468 -0.3023  0.6799 -0.2715
  335TMC3    C8 5088   1.184   0.734  17.134 -0.2487 -0.2585  0.1770
  335TMC3    O1 5089   1.429   0.953  17.589  0.4937  0.0304  0.3459
  335TMC3    O2 5090   1.275   0.771  17.059 -0.4779  0.0087  0.0632
  336MPD2     C 5091   0.825   3.428  16.269  0.2791  0.2190  0.2313
  336MPD2    C1 5092   0.780   3.364  16.161 -0.2356  0.2814  0.9856
  336MPD2    C2 5093   0.793   3.231  16.136 -0.1150  0.0281 -0.3135
  336MPD2    C3 5094   0.830   3.148  16.231 -0.0914 -1.1196  0.0709
  336MPD2    C4 5095   0.882   3.207  16.348  0.1332  0.4632  0.0843
  336MPD2    C5 5096   0.884   3.348  16.359  0.6494  0.3409  0.0778
  336MPD2     H 5097   0.751   3.196  16.043 -1.6368  0.1943  0.3119
  336MPD2    H1 5098   0.916   3.144  16.429 -0.9054 -0.0940  0.0861
  336MPD2    H2 5099   0.818   3.536  16.274  0.0321  0.2712 -1.0722
  336MPD2    H3 5100   0.918   3.394  16.452 -0.7260 -0.1952  0.8404
  336MPD2     N 5101   0.813   3.011  16.202  0.2520 -0.1081  0.2369
  336MPD2    H5 5102   0.769   3.004  16.111  0.5852 -1.1592  0.1601
  336MPD2    N1 5103   0.727   3.428  16.049  0.2640 -0.0809  0.3832
  336MPD2    H7 5104   0.695   3.368  15.973  1.8025  2.1767 -2.0511
  337TMC3    C1 5105   0.657   3.586  15.896  0.3943  0.0721  0.2120
  337TMC3    C2 5106   0.630   3.481  15.801  0.0452  0.3558 -0.7520
  337TMC3    C3 5107   0.525   3.490  15.720 -0.1840 -0.8078 -0.1467
  337TMC3    C4 5108   0.574   3.692  15.901  0.5953 -0.2732  0.0324
  337TMC3    C5 5109   0.463   3.691  15.823  0.6743  0.1517 -0.0004
  337TMC3    C6 5110   0.441   3.594  15.724 -0.4347 -0.0815  0.6966
  337TMC3     C 5111   0.720   3.561  16.024  0.0838  0.3186  0.1612
  337TMC3     O 5112   0.747   3.663  16.090  0.2613 -0.0179  0.3116
  337TMC3     H 5113   0.698   3.397  15.794 -1.6297 -1.1927  1.4837
  337TMC3    H1 5114   0.577   3.772  15.974  0.0730 -0.8806  0.7239
  337TMC3    H2 5115   0.358   3.608  15.655  1.3714 -1.5629 -1.7822
  337TMC3    C7 5116   0.371   3.810  15.840  0.3020 -0.4597 -0.0962
  337TMC3    C8 5117   0.498   3.369  15.644  0.1719  0.7607 -0.2308
  337TMC3    O1 5118   0.416   3.918  15.886 -0.3779 -0.3429 -0.4218
  337TMC3    O2 5119   0.571   3.273  15.652 -0.0635 -0.0989  0.2254
  338MPD2     C 5120   0.933   3.136   0.486 -0.7888 -0.5765  0.3640
  338MPD2    C1 5121   0.899   3.059   0.380 -0.7011  0.7134  0.0640
  338MPD2    C2 5122   0.788   3.098   0.296 -1.3100 -0.0132  0.0255
  338MPD2    C3 5123   0.699   3.199   0.342 -0.1464 -0.0022  0.1385
  338MPD2    C4 5124   0.733   3.263   0.458  0.5151  0.2839 -0.0826
  338MPD2    C5 5125   0.846   3.238   0.526 -0.0822  0.0532  0.1827
  338MPD2     H 5126   0.782   3.054   0.197 -1.8526  0.7600 -0.2847
  338MPD2    H1 5127   0.670   3.345   0.489  0.0823 -0.3774  0.8010
  338MPD2    H2 5128   1.021   3.122   0.549 -0.6635 -1.7552 -0.0829
  338MPD2    H3 5129   0.860   3.300   0.614 -1.2940  1.1309 -0.3889
  338MPD2     N 5130   0.586   3.227   0.267 -0.2209 -0.8592 -0.4078
  338MPD2    H5 5131   0.575   3.181   0.177 -0.6229 -1.9821  0.2145
  338MPD2    N1 5132   0.974   2.947   0.339  0.0339  0.4183  0.1933
  338MPD2    H7 5133   0.949   2.896   0.255 -1.3984  0.2214  0.7330
  339TMC3    C1 5134   0.367   3.278   0.232  1.0904  0.3871  0.2272
  339TMC3    C2 5135   0.266   3.226   0.304  0.1860  0.0003 -0.2390
  339TMC3    C3 5136   0.179   3.158   0.222 -0.7024  0.3456 -0.4828
  339TMC3    C4 5137   0.375   3.292   0.102  0.4335  0.3503 -0.3403
  339TMC3    C5 5138   0.280   3.229   0.027 -0.3159 -0.3241  0.5138
  339TMC3    C6 5139   0.181   3.156   0.087  0.1121  0.0035  0.5524
  339TMC3     C 5140   0.484   3.303   0.316  0.3622 -0.2355  0.3872
  339TMC3     O 5141   0.457   3.339   0.428  0.1896  0.6857 -0.3752
  339TMC3     H 5142   0.254   3.217   0.411  0.0860 -0.7532 -0.3145
  339TMC3    H1 5143   0.459   3.346   0.060  0.0496  0.9307 -0.3478
  339TMC3    H2 5144   0.102   3.107   0.032 -0.2650 -0.6243  1.6497
  339TMC3    C7 5145   0.310   3.197  17.633  0.6288 -0.0103  0.0559
  339TMC3    C8 5146   0.089   3.068   0.283 -0.8105 -0.2000 -0.3808
  339TMC3    O1 5147   0.430   3.200  17.603  0.2501 -0.4381 -0.2214
  339TMC3    O2 5148   4.721   3.042   0.222  0.2962  0.3548  0.0769
  340MPD2     C 5149   1.233   1.075  10.440  0.2738  0.4740  0.0416
  340MPD2    C1 5150   1.241   0.942  10.403 -1.0321  0.2832  0.1228
  340MPD2    C2 5151   1.373   0.897  10.378 -0.0133 -0.7296 -0.2449
  340MPD2    C3 5152   1.483   0.983  10.370 -0.0123 -0.2744 -0.2741
  340MPD2    C4 5153   1.470   1.112  10.410 -0.2819 -0.4084 -1.1225
  340MPD2    C5 5154   1.343   1.158  10.440 -0.3342 -0.1424 -0.9838
  340MPD2     H 5155   1.380   0.794  10.347 -0.2859 -0.7621 -0.1997
  340MPD2    H1 5156   1.548   1.187  10.408 -0.8130  0.1571 -0.4397
  340MPD2    H2 5157   1.143   1.128  10.468  0.3302  0.0396  1.0079
  340MPD2    H3 5158   1.330   1.265  10.451 -2.2477 -0.5087  0.4126
  340MPD2     N 5159   1.610   0.942  10.322 -0.1004  0.5658 -0.1224
  340MPD2    H5 5160   1.673   1.013  10.288  1.8764 -0.0578  2.2753
  340MPD2    N1 5161   1.121   0.860  10.396  0.3457  0.5776 -0.1549
  340MPD2    H7 5162   1.039   0.896  10.444  0.0784  1.3734 -1.2165
  341TMC3    C1 5163   1.191   0.695  10.221 -0.2188  0.6849 -0.1828
  341TMC3    C2 5164   1.204   0.559  10.204  0.3476 -0.2679  0.3610
  341TMC3    C3 5165   1.299   0.514  10.114 -0.4260 -0.3956  0.0804
  341TMC3    C4 5166   1.251   0.783  10.134 -0.4502  0.0520  0.2579
  341TMC3    C5 5167   1.335   0.725  10.038  0.1115  0.3278 -0.1276
  341TMC3    C6 5168   1.363   0.596  10.024  0.0904 -0.5683 -0.7514
  341TMC3     C 5169   1.093   0.736  10.330  0.2876  0.0953  0.1782
  341TMC3     O 5170   0.996   0.663  10.347 -0.4721 -0.1545  0.1412
  341TMC3     H 5171   1.153   0.485  10.266 -0.5880  0.2496  0.2045
  341TMC3    H1 5172   1.219   0.886  10.122 -1.2105 -0.2441 -0.2739
  341TMC3    H2 5173   1.435   0.559   9.951 -0.3944 -0.7119 -1.1556
  341TMC3    C7 5174   1.416   0.811   9.957 -0.7697 -0.3766  0.0001
  341TMC3    C8 5175   1.310   0.373  10.089  0.3496 -0.3017 -0.3213
  341TMC3    O1 5176   1.463   0.758   9.857 -0.3714  0.2837  0.3065
  341TMC3    O2 5177   1.215   0.300  10.119  0.0224  0.7755  0.7197
  342MPD2     C 5178   3.384   4.002  17.313 -0.3582  0.2243  0.2716
  342MPD2    C1 5179   3.523   3.980  17.312 -0.4076  0.5062  0.2161
  342MPD2    C2 5180   3.604   4.086  17.324 -0.1034  0.3476  0.1547
  342MPD2    C3 5181   3.561   4.218  17.307  0.0980 -0.3347 -0.0399
  342MPD2    C4 5182   3.421   4.228  17.306  0.3514 -0.6483  0.3259
  342MPD2    C5 5183   3.333   4.124  17.312  0.1840 -0.7365  0.5578
  342MPD2     H 5184   3.711   4.065  17.326 -1.0570 -4.5839  0.1934
  342MPD2    H1 5185   3.374   4.325  17.301 -2.2971 -2.0358 -1.6894
  342MPD2    H2 5186   3.307   3.926  17.309  1.6549 -1.9759  3.4200
  342MPD2    H3 5187   3.226   4.135  17.309 -0.0731 -3.2280  0.4521
  342MPD2     N 5188   3.640   4.336  17.308 -0.1126  0.4433 -0.3656
  342MPD2    H5 5189   3.586   4.422  17.313 -0.7903  0.2453 -3.7711
  342MPD2    N1 5190   3.584   3.850  17.317  0.1321  0.0240  0.2525
  342MPD2    H7 5191   3.685   3.848  17.318  0.1037 -1.6332  0.6695
  343TMC3    C1 5192   3.593   3.611  17.295 -0.1979  0.1704 -0.1165
  343TMC3    C2 5193   3.713   3.632  17.233  0.0398 -0.3635  0.0578
  343TMC3    C3 5194   3.779   3.518  17.183 -0.6406 -0.3822 -0.8531
  343TMC3    C4 5195   3.525   3.489  17.297 -0.0978 -0.6178 -0.3497
  343TMC3    C5 5196   3.591   3.384  17.240  0.1628  0.6708  0.0906
  343TMC3    C6 5197   3.721   3.396  17.200 -0.0296  0.6276  0.3665
  343TMC3     C 5198   3.507   3.728  17.311  0.0875 -0.5810 -0.9134
  343TMC3     O 5199   3.386   3.712  17.311  0.4629  0.5021 -0.0706
  343TMC3     H 5200   3.752   3.723  17.191 -0.2036 -0.1482  0.3009
  343TMC3    H1 5201   3.427   3.488  17.343 -0.0446 -1.3847 -0.2527
  343TMC3    H2 5202   3.787   3.312  17.184  0.1101  1.2715 -2.5192
  343TMC3    C7 5203   3.555   3.254  17.297  0.9771  0.0435  0.0608
  343TMC3    C8 5204   3.919   3.536  17.139 -0.1849 -0.7737  0.2034
  343TMC3    O1 5205   3.555   3.156  17.225 -0.0078  0.0788 -0.2533
  343TMC3    O2 5206   3.956   3.651  17.117  1.1455 -0.1155 -0.0947
  344MPD2     C 5207   4.707   3.535  10.962 -0.2960 -0.4206  0.3531
  344MPD2    C1 5208   4.571   3.528  10.925  0.1286  0.7525 -0.1978
  344MPD2    C2 5209   4.521   3.643  10.862 -0.3916  0.4325 -0.3208
  344MPD2    C3 5210   4.600   3.754  10.851 -0.1528 -0.1221  0.4242
  344MPD2    C4 5211   4.724   3.767  10.908  0.2223  0.1425  0.3601
  344MPD2    C5 5212   0.040   3.655  10.967 -0.9554 -0.2749  0.4150
  344MPD2     H 5213   4.419   3.638  10.827 -0.5854  1.5284  0.0853
  344MPD2    H1 5214   0.043   3.860  10.909 -1.4252  1.1380 -2.0476
  344MPD2    H2 5215   0.029   3.451  10.998 -0.9960 -0.6190  0.9967
  344MPD2    H3 5216   0.141   3.661  11.006 -0.8645 -3.4827  0.6512
  344MPD2     N 5217   4.564   3.867  10.773  0.1713  0.7457  0.6359
  344MPD2    H5 5218   4.626   3.948  10.771 -0.7927  1.4565 -0.8084
  344MPD2    N1 5219   4.484   3.410  10.953  0.3108 -0.3322 -0.7427
  344MPD2    H7 5220   4.391   3.407  10.913 -0.4050  2.9405  0.7232
  345TMC3    C1 5221   4.442   4.023  10.648 -0.5344 -0.4772  0.0862
  345TMC3    C2 5222   4.504   4.134  10.703  0.2426  0.3933 -0.1998
  345TMC3    C3 5223   4.507   4.250  10.628  0.0278 -0.1434 -0.5510
  345TMC3    C4 5224   4.390   4.024  10.527  0.1351  0.9108  0.6582
  345TMC3    C5 5225   4.382   4.142  10.463  0.2050  0.0690  0.8788
  345TMC3    C6 5226   4.438   4.258  10.512  0.5424  0.2447  0.2476
  345TMC3     C 5227   4.448   3.885  10.696 -0.3958  0.2744 -0.9201
  345TMC3     O 5228   4.358   3.801  10.671 -0.4572 -0.5884 -0.2659
  345TMC3     H 5229   4.549   4.118  10.800 -0.6976  0.8392  0.3060
  345TMC3    H1 5230   4.336   3.942  10.481 -1.9950  1.8088  1.5149
  345TMC3    H2 5231   4.416   4.353  10.464 -1.0137  0.1602  0.7943
  345TMC3    C7 5232   4.376   4.165  10.321  0.4404  0.5278  0.1020
  345TMC3    C8 5233   4.569   4.372  10.666 -0.1461  1.0384 -0.1086
  345TMC3    O1 5234   4.467   4.219  10.265  0.0970 -0.1613  0.0946
  345TMC3    O2 5235   4.530   4.475  10.611 -0.3352 -0.4855 -0.2591
  346MPD2     C 5236   0.014   0.413  14.602  0.2613 -0.6063 -0.1482
  346MPD2    C1 5237   0.126   0.426  14.532 -0.7153  0.4328  0.1241
  346MPD2    C2 5238   0.242   0.430  14.601 -0.2354  0.3615  0.0529
  346MPD2    C3 5239   0.251   0.449  14.736 -0.2078 -0.5790 -0.2477
  346MPD2    C4 5240   0.136   0.441  14.803  0.0341 -0.1373  0.1048
  346MPD2    C5 5241   0.018   0.423  14.743 -0.6736  0.6765 -0.0478
  346MPD2     H 5242   0.334   0.418  14.544  0.1077  0.8559  0.5110
  346MPD2    H1 5243   0.134   0.443  14.912 -2.6762 -0.1484  0.0618
  346MPD2    H2 5244   4.664   0.405  14.536 -0.2754 -1.3565  0.6485
  346MPD2    H3 5245   4.659   0.417  14.796 -0.1129 -0.5509  0.8067
  346MPD2     N 5246   0.373   0.454  14.791 -0.0355  0.0199 -0.4649
  346MPD2    H5 5247   0.457   0.451  14.734  0.7880  1.9178  0.6480
  346MPD2    N1 5248   0.136   0.404  14.391  0.3187  0.4279  0.1652
  346MPD2    H7 5249   0.232   0.410  14.359  0.6254 -1.6548  0.6966
  347TMC3    C1 5250   0.551   0.450  14.936 -0.3413 -0.1845  0.5896
  347TMC3    C2 5251   0.611   0.365  14.843 -0.0710  0.0699 -0.2437
  347TMC3    C3 5252   0.743   0.391  14.831  0.4481  0.8325  0.4723
  347TMC3    C4 5253   0.605   0.529  15.031  0.8429  0.3716  0.4611
  347TMC3    C5 5254   0.734   0.548  15.007  0.2079  0.4435 -0.5689
  347TMC3    C6 5255   0.807   0.476  14.914  0.0542  0.6637 -0.2038
  347TMC3     C 5256   0.403   0.469  14.920  0.0645 -0.3557  0.1651
  347TMC3     O 5257   0.341   0.521  15.014 -0.5712 -0.0006 -0.5010
  347TMC3     H 5258   0.569   0.287  14.780 -1.5600  0.8757 -0.2367
  347TMC3    H1 5259   0.546   0.600  15.088 -0.4251 -0.7684  0.5881
  347TMC3    H2 5260   0.914   0.498  14.916 -0.0358  0.7704  3.7652
  347TMC3    C7 5261   0.815   0.616  15.105  0.0150 -0.2060  0.3665
  347TMC3    C8 5262   0.808   0.323  14.728  1.2123  0.5145  0.1454
  347TMC3    O1 5263   0.928   0.645  15.073 -0.0875  0.1449  0.3124
  347TMC3    O2 5264   0.755   0.222  14.681 -0.4371  0.6600 -0.8272
  348MPD2     C 5265   3.945   0.364  11.823 -0.4277 -0.4606 -0.1722
  348MPD2    C1 5266   3.882   0.305  11.713 -0.9474 -0.1147 -0.0569
  348MPD2    C2 5267   3.815   0.396  11.633 -0.0496 -0.4302  0.1320
  348MPD2    C3 5268   3.803   0.531  11.678 -0.0341  0.2722 -0.8328
  348MPD2    C4 5269   3.852   0.567  11.801  0.2651  0.1366 -0.4983
  348MPD2    C5 5270   3.933   0.493  11.874 -0.1254 -0.2854  0.2689
  348MPD2     H 5271   3.756   0.365  11.548  0.5390 -0.8787 -0.1178
  348MPD2    H1 5272   3.840   0.668  11.838 -1.0101 -0.1139 -0.2233
  348MPD2    H2 5273   4.005   0.293  11.879  2.4338  1.1856 -1.1190
  348MPD2    H3 5274   3.970   0.525  11.970 -0.0204  0.0046  0.1306
  348MPD2     N 5275   3.734   0.615  11.585 -0.1815 -0.0902  0.5357
  348MPD2    H5 5276   3.701   0.562  11.505 -1.5247 -0.6164  1.4312
  348MPD2    N1 5277   3.868   0.167  11.678 -0.5804 -0.2780 -0.6501
  348MPD2    H7 5278   3.819   0.160  11.589 -0.6490  0.6867 -0.6851
  349TMC3    C1 5279   3.844   4.678  11.707 -0.1373  0.2547  0.0064
  349TMC3    C2 5280   3.901   4.553  11.734 -0.4383 -0.2551 -0.1804
  349TMC3    C3 5281   3.864   4.442  11.668 -0.2446 -0.7103  0.3151
  349TMC3    C4 5282   3.744   4.686  11.615  0.6437  0.4107  0.5434
  349TMC3    C5 5283   3.706   4.576  11.552 -0.4641 -0.7256  0.3756
  349TMC3    C6 5284   3.769   4.451  11.570 -0.0707  0.3984 -0.1742
  349TMC3     C 5285   3.909   0.058  11.754 -0.0320 -0.0152  1.0529
  349TMC3     O 5286   3.996   0.046  11.842 -0.5789 -0.6414 -0.0645
  349TMC3     H 5287   3.991   4.555  11.795 -0.5342  1.7174 -0.0952
  349TMC3    H1 5288   3.684   0.040  11.611  0.5251  0.4025  2.3995
  349TMC3    H2 5289   3.746   4.366  11.507  0.7345 -0.0550  0.1376
  349TMC3    C7 5290   3.616   4.584  11.438  0.5568  0.7442  0.1975
  349TMC3    C8 5291   3.880   4.323  11.746 -0.5266  1.4925 -0.1496
  349TMC3    O1 5292   3.543   4.490  11.400 -0.0475 -0.3375 -0.4009
  349TMC3    O2 5293   3.962   4.315  11.835 -0.2111  0.4685  0.1660
  350MPD2     C 5294   3.255   3.235  10.461  0.4294  0.7523  0.1147
  350MPD2    C1 5295   3.187   3.128  10.501 -0.1687 -0.4659 -0.6325
  350MPD2    C2 5296   3.110   3.142  10.615  0.4316 -0.7188  0.1769
  350MPD2    C3 5297   3.099   3.258  10.682 -0.0165  0.4022 -0.0055
  350MPD2    C4 5298   3.178   3.367  10.645  0.0288  0.5912  0.5151
  350MPD2    C5 5299   3.260   3.353  10.534 -0.5530  0.2626  0.2501
  350MPD2     H 5300   3.049   3.059  10.648  0.7536 -0.6568  0.9297
  350MPD2    H1 5301   3.184   3.459  10.702 -2.2336  1.0181  0.0915
  350MPD2    H2 5302   3.314   3.221  10.371 -0.4650  2.8332 -0.7925
  350MPD2    H3 5303   3.325   3.437  10.513  0.5053 -0.2283  1.6081
  350MPD2     N 5304   3.011   3.268  10.789  0.3842  0.2476 -0.5192
  350MPD2    H5 5305   2.957   3.185  10.810  2.8574 -1.1391  0.3608
  350MPD2    N1 5306   3.180   3.006  10.437 -0.3552  0.2567  0.5815
  350MPD2    H7 5307   3.127   2.940  10.492 -0.7978  0.0659 -0.0706
  351TMC3    C1 5308   3.109   2.894  10.247  0.0909  0.0761 -0.4379
  351TMC3    C2 5309   3.140   2.820  10.136 -0.2064  0.6654  0.5815
  351TMC3    C3 5310   3.041   2.732  10.091  0.0790  0.2177 -0.1209
  351TMC3    C4 5311   2.979   2.901  10.304 -0.7676  0.1176 -0.4177
  351TMC3    C5 5312   2.889   2.808  10.260  0.4253 -0.5270 -0.2182
  351TMC3    C6 5313   2.923   2.722  10.158  0.6219  0.6743 -0.0326
  351TMC3     C 5314   3.214   2.979  10.305  0.3645 -0.1027  1.3465
  351TMC3     O 5315   3.283   3.048  10.227  0.3808 -0.3937 -0.3919
  351TMC3     H 5316   3.238   2.828  10.091 -1.0468 -2.8076 -1.9215
  351TMC3    H1 5317   2.953   2.981  10.371 -3.0099 -1.7689  0.9821
  351TMC3    H2 5318   2.849   2.650  10.127  0.7844  0.0673  0.9772
  351TMC3    C7 5319   2.773   2.795  10.347  0.1089  0.1184 -0.3085
  351TMC3    C8 5320   3.057   2.633   9.983 -0.8831  0.0609 -0.8770
  351TMC3    O1 5321   2.777   2.855  10.451 -0.7429 -0.6278  0.8032
  351TMC3    O2 5322   2.955   2.583   9.934 -0.2170 -0.3724 -0.6237
  352MPD2     C 5323   0.664   4.391   0.967  0.4780 -0.1438 -0.3370
  352MPD2    C1 5324   0.746   4.498   0.936  0.2939  0.0405  0.2352
  352MPD2    C2 5325   0.886   4.490   0.938 -0.1974  0.2752  0.1451
  352MPD2    C3 5326   0.952   4.375   0.952  0.3683 -1.0905 -0.3462
  352MPD2    C4 5327   0.873   4.264   0.980 -0.0340  0.5764 -0.0703
  352MPD2    C5 5328   0.732   4.274   0.988  0.7386 -0.5885 -0.7342
  352MPD2     H 5329   0.950   4.574   0.915  1.5051 -1.2378 -0.6196
  352MPD2    H1 5330   0.932   4.175   0.995  0.2406  0.3775 -2.2926
  352MPD2    H2 5331   0.556   4.392   0.965  0.4887  2.3336 -0.1883
  352MPD2    H3 5332   0.680   4.183   1.015  0.7513 -0.0315  1.1873
  352MPD2     N 5333   1.092   4.355   0.936  0.0264 -0.4791  1.0178
  352MPD2    H5 5334   1.136   4.269   0.966  0.4655 -0.6134 -0.0075
  352MPD2    N1 5335   0.683   4.617   0.902 -0.3853 -0.5777  0.0585
  352MPD2    H7 5336   0.583   4.613   0.883 -0.3779 -0.6337  0.0296
  353TMC3    C1 5337   1.306   4.380   0.824  0.1167 -1.0038 -0.3932
  353TMC3    C2 5338   1.356   4.288   0.909  0.2229 -0.2387  0.4335
  353TMC3    C3 5339   1.422   4.179   0.853 -0.2345 -0.2861 -0.3903
  353TMC3    C4 5340   1.319   4.358   0.689  0.1903  0.5035 -0.6157
  353TMC3    C5 5341   1.394   4.258   0.637  0.0616 -0.3394 -0.5007
  353TMC3    C6 5342   1.433   4.158   0.719 -0.1482  0.6382  0.4936
  353TMC3     C 5343   1.173   4.437   0.862 -0.4821 -0.3249  0.0380
  353TMC3     O 5344   1.150   4.541   0.803  0.0722 -0.0418 -0.1526
  353TMC3     H 5345   1.331   4.291   1.014  1.5874 -0.1439  0.7543
  353TMC3    H1 5346   1.264   4.417   0.618 -0.9211  1.0721  0.7178
  353TMC3    H2 5347   1.501   4.081   0.681  1.2118  1.6089  0.9496
  353TMC3    C7 5348   1.382   4.211   0.496  0.0441 -0.4494 -0.2216
  353TMC3    C8 5349   1.462   4.074   0.945  0.5378  0.4820  0.0273
  353TMC3    O1 5350   1.387   4.087   0.478  0.0751 -0.0754 -0.1198
  353TMC3    O2 5351   1.475   4.116   1.058  0.1805  0.8488  0.3340
  354TMC3    C1 5352   2.741   0.844  13.556 -0.5964  0.0535  0.4091
  354TMC3    C2 5353   2.836   0.938  13.560 -0.3447 -0.1583  0.0605
  354TMC3    C3 5354   2.866   0.995  13.440  0.6770 -0.0643  0.1398
  354TMC3    C4 5355   2.667   0.805  13.442  0.0323 -0.2198  0.8486
  354TMC3    C5 5356   2.704   0.868  13.329 -0.4297  0.7129  0.5913
  354TMC3    C6 5357   2.809   0.949  13.326 -0.5532 -0.3115  0.1378
  354TMC3     C 5358   2.714   0.782  13.689 -0.5706 -0.1500 -0.1062
  354TMC3     O 5359   2.599   0.752  13.715 -0.9981  0.4192  0.2782
  354TMC3     H 5360   2.884   0.978  13.649 -3.7903  1.7219  1.0647
  354TMC3    H1 5361   2.582   0.738  13.447 -0.8814  0.9661  1.1410
  354TMC3    H2 5362   2.852   0.973  13.229 -3.5490 -2.9958 -1.8357
  354TMC3    C7 5363   2.649   0.819  13.201  0.9647 -0.3146 -0.0447
  354TMC3    C8 5364   2.927   1.127  13.442  0.1090  0.8915  0.5539
  354TMC3    O1 5365   2.571   0.726  13.194 -0.4739  0.2916 -0.2519
  354TMC3    O2 5366   2.994   1.150  13.548  0.7438  0.1197  0.1331
  355MPD2     C 5367   2.561   2.207  11.998 -0.0074 -0.1090 -0.0352
  355MPD2    C1 5368   2.641   2.205  11.894 -0.3479  0.2149  0.0473
  355MPD2    C2 5369   2.773   2.165  11.912 -0.0506 -0.2217  0.1436
  355MPD2    C3 5370   2.814   2.103  12.029  0.7488 -0.2204  0.1334
  355MPD2    C4 5371   2.724   2.102  12.135  0.4534 -1.2589  0.4470
  355MPD2    C5 5372   2.594   2.161  12.122 -0.4671  0.4464  0.4843
  355MPD2     H 5373   2.845   2.170  11.831  0.8229  0.7457  0.9973
  355MPD2    H1 5374   2.748   2.067  12.235 -2.9025 -0.3526  1.5572
  355MPD2    H2 5375   2.465   2.257  11.990  0.8557  1.8330  1.7733
  355MPD2    H3 5376   2.529   2.158  12.208 -1.0865 -1.5933 -0.0589
  355MPD2     N 5377   2.954   2.084  12.049 -0.1525  0.0170 -0.5901
  355MPD2    H5 5378   3.001   2.082  12.139 -0.9279  0.5718 -0.1713
  355MPD2    N1 5379   2.609   2.257  11.773 -1.3023 -0.0034 -0.2304
  355MPD2    H7 5380   2.685   2.254  11.706 -1.2503  1.2847 -0.2333
  356TMC3    C1 5381   3.182   2.044  11.980 -0.2617  0.2511  0.5022
  356TMC3    C2 5382   3.268   2.061  11.876 -0.3108  0.1060  0.1909
  356TMC3    C3 5383   3.394   2.107  11.906 -0.0292  0.0247 -0.8086
  356TMC3    C4 5384   3.232   2.066  12.108 -0.2156  0.1696  0.2997
  356TMC3    C5 5385   3.359   2.099  12.137  0.0639  1.1410 -0.5414
  356TMC3    C6 5386   3.448   2.128  12.039 -0.4680  0.2584  0.2604
  356TMC3     C 5387   3.041   2.056  11.943 -0.0764 -0.6051  0.2990
  356TMC3     O 5388   3.020   2.028  11.826 -0.6871 -0.4476 -0.1183
  356TMC3     H 5389   3.240   2.042  11.773 -2.2249 -2.2124  1.1251
  356TMC3    H1 5390   3.176   2.051  12.199  0.2322  1.3353  0.7631
  356TMC3    H2 5391   3.548   2.167  12.048 -0.2274  0.5983 -3.9231
  356TMC3    C7 5392   3.394   2.127  12.276  0.1056  0.0093  0.1680
  356TMC3    C8 5393   3.484   2.135  11.791  0.1153  0.0749 -0.4634
  356TMC3    O1 5394   3.357   2.048  12.361 -0.1656 -0.0671  0.4166
  356TMC3    O2 5395   3.474   2.062  11.694  0.6063 -0.1038 -0.3688
  357MPD2     C 5396   2.637   2.138   0.743 -0.3235  0.2381 -0.1711
  357MPD2    C1 5397   2.726   2.206   0.667  0.6869 -0.1312  1.0989
  357MPD2    C2 5398   2.681   2.299   0.581  0.5020  0.1601 -0.4484
  357MPD2    C3 5399   2.539   2.297   0.554  0.0689  1.1705  0.1561
  357MPD2    C4 5400   2.457   2.222   0.629  0.0338  0.1071 -0.1146
  357MPD2    C5 5401   2.502   2.153   0.738 -0.4751  0.3068 -0.0691
  357MPD2     H 5402   2.752   2.346   0.513 -0.2621  0.3450 -1.1219
  357MPD2    H1 5403   2.350   2.223   0.608 -0.1933  2.1522  1.0664
  357MPD2    H2 5404   2.669   2.066   0.817  2.1016 -0.5599 -2.0009
  357MPD2    H3 5405   2.443   2.096   0.809 -0.5842  0.4365 -0.0556
  357MPD2     N 5406   2.468   2.370   0.457  0.2101  0.2549  0.3016
  357MPD2    H5 5407   2.368   2.353   0.453  0.0302  1.4861 -0.5576
  357MPD2    N1 5408   2.860   2.170   0.690 -0.4236 -0.1658 -0.3415
  357MPD2    H7 5409   2.888   2.096   0.754  0.4928  0.5904  0.1407
  358TMC3    C1 5410   3.078   2.153   0.670  0.7604  0.1589  1.1859
  358TMC3    C2 5411   3.065   2.015   0.663  0.1186  0.3076 -0.3277
  358TMC3    C3 5412   3.168   1.936   0.701 -0.2233  0.0809  0.1077
  358TMC3    C4 5413   3.185   2.210   0.735  0.7033  0.0304 -0.4629
  358TMC3    C5 5414   3.275   2.123   0.793 -0.2980 -0.1938 -0.3801
  358TMC3    C6 5415   3.278   1.989   0.764  0.3016 -0.0948 -0.3861
  358TMC3     C 5416   2.967   2.239   0.640  0.4130  0.4337  0.9578
  358TMC3     O 5417   2.982   2.344   0.576 -0.1158  0.1773  0.5185
  358TMC3     H 5418   2.979   1.976   0.611  1.2883 -1.4952 -0.8909
  358TMC3    H1 5419   3.178   2.316   0.756 -1.4811 -0.9437  3.6937
  358TMC3    H2 5420   3.343   1.931   0.829 -0.0912  0.6716  0.6739
  358TMC3    C7 5421   3.383   2.180   0.875  0.2408  0.4374 -0.6407
  358TMC3    C8 5422   3.190   1.820   0.624  0.8216  0.3706  0.1966
  358TMC3    O1 5423   3.466   2.101   0.918 -0.2426 -0.2205  0.3737
  358TMC3    O2 5424   3.091   1.764   0.579  0.4819 -0.5366  0.0553
  359MPD2     C 5425   3.686   0.405  12.491  0.4473 -0.0552 -0.8534
  359MPD2    C1 5426   3.676   0.371  12.361 -0.6592  0.0107 -0.2106
  359MPD2    C2 5427   3.640   0.244  12.331 -0.0412 -0.4200  1.0709
  359MPD2    C3 5428   3.585   0.162  12.429 -0.2492  0.3118 -0.8222
  359MPD2    C4 5429   3.597   0.187  12.567 -0.5022 -0.1338 -0.0610
  359MPD2    C5 5430   3.645   0.316  12.587  0.5532  0.5292  0.0825
  359MPD2     H 5431   3.636   0.211  12.228  1.9631  0.1783  0.8133
  359MPD2    H1 5432   3.567   0.128  12.653 -2.6344  0.7333 -0.2181
  359MPD2    H2 5433   3.697   0.508  12.523  1.5667 -0.9215  1.5819
  359MPD2    H3 5434   3.636   0.353  12.688 -0.9286 -0.0486  0.1748
  359MPD2     N 5435   3.520   0.034  12.403 -0.2988  0.2281  0.6716
  359MPD2    H5 5436   3.503   4.704  12.479  0.8097  0.4041  1.0664
  359MPD2    N1 5437   3.698   0.459  12.255  0.1555  0.4393  0.0460
  359MPD2    H7 5438   3.687   0.417  12.163 -0.7570  1.7029 -0.4169
  360TMC3    C1 5439   3.712   0.670  12.140  0.1584  0.5400  0.1999
  360TMC3    C2 5440   3.759   0.801  12.144  0.0588  0.0849 -0.4219
  360TMC3    C3 5441   3.710   0.890  12.048 -0.3794 -0.1575 -0.4717
  360TMC3    C4 5442   3.607   0.634  12.057 -0.0266 -0.1571 -0.6197
  360TMC3    C5 5443   3.564   0.727  11.961 -0.7767  0.6770  0.1774
  360TMC3    C6 5444   3.616   0.847  11.961  0.5645 -0.6186 -0.1812
  360TMC3     C 5445   3.727   0.597  12.266 -0.4611 -0.5390 -0.4387
  360TMC3     O 5446   3.738   0.668  12.366 -0.0788  0.1369 -0.4125
  360TMC3     H 5447   3.851   0.831  12.192 -1.8360  1.6815  2.1939
  360TMC3    H1 5448   3.569   0.532  12.059 -0.7629  0.1299  0.2798
  360TMC3    H2 5449   3.568   0.918  11.894 -0.0056 -0.9688 -0.1431
  360TMC3    C7 5450   3.459   0.699  11.863 -0.6401  0.1334  0.5897
  360TMC3    C8 5451   3.790   1.007  12.030  0.3037 -0.0870 -0.7459
  360TMC3    O1 5452   3.442   0.784  11.777 -0.0402  0.0051  0.3322
  360TMC3    O2 5453   3.846   1.063  12.130  0.1671 -0.5277  0.1374
  361MPD2     C 5454   4.620   3.991  16.559  0.0138 -0.2510 -0.1657
  361MPD2    C1 5455   4.693   4.088  16.626 -0.4506  0.2611 -0.8340
  361MPD2    C2 5456   0.094   4.071  16.656  0.1741  0.3866  0.1219
  361MPD2    C3 5457   0.158   3.948  16.620 -0.3568  0.0799 -0.1211
  361MPD2    C4 5458   0.087   3.863  16.543  0.2275 -0.5513 -0.0752
  361MPD2    C5 5459   4.693   3.882  16.515 -0.9850 -0.7764  0.5854
  361MPD2     H 5460   0.151   4.153  16.697 -1.9398  1.4127  1.0272
  361MPD2    H1 5461   0.133   3.772  16.506  1.5470 -0.1288  0.5639
  361MPD2    H2 5462   4.512   3.996  16.550  0.0616 -3.4193 -2.4281
  361MPD2    H3 5463   4.629   3.809  16.466  0.1618  0.2039 -2.4047
  361MPD2     N 5464   0.298   3.919  16.644 -0.1351 -0.1160 -0.5470
  361MPD2    H5 5465   0.333   3.828  16.614 -0.4948 -1.2179  2.4290
  361MPD2    N1 5466   4.619   4.199  16.675  0.3122 -0.3042  0.0732
  361MPD2    H7 5467   4.676   4.275  16.711  1.8119 -1.0249 -0.7850
  362TMC3    C1 5468   4.456   4.350  16.731 -0.9598  0.0337  1.1682
  362TMC3    C2 5469   4.341   4.345  16.809 -0.6626  0.7452 -0.2094
  362TMC3    C3 5470   4.260   4.456  16.809  0.2276 -0.2267  0.2641
  362TMC3    C4 5471   4.487   4.450  16.646 -0.0072  0.6012  0.5514
  362TMC3    C5 5472   4.385   4.542  16.629 -0.8954  0.3613 -0.1489
  362TMC3    C6 5473   4.275   4.554  16.712 -0.1768  0.2173 -0.2921
  362TMC3     C 5474   4.486   4.216  16.681 -0.4798  0.1518  0.9458
  362TMC3     O 5475   4.390   4.143  16.667  0.4623 -0.1187  0.5272
  362TMC3     H 5476   4.320   4.262  16.875 -0.4015  1.1836  0.4306
  362TMC3    H1 5477   4.566   4.447  16.573 -0.2077 -2.1883  0.4332
  362TMC3    H2 5478   4.199   4.630  16.702  0.4397  1.2265  2.6142
  362TMC3    C7 5479   4.368   4.625  16.517 -0.2379  0.2645  0.3751
  362TMC3    C8 5480   4.138   4.448  16.877  0.4405 -0.4125 -0.0969
  362TMC3    O1 5481   4.309   4.728  16.539  0.0214 -0.3510 -0.0315
  362TMC3    O2 5482   4.087   4.341  16.884 -0.5546  0.0080 -0.5071
  363TMC3    C1 5483   3.184   2.623   9.452 -0.1247  0.3697  0.0195
  363TMC3    C2 5484   3.305   2.660   9.503  0.1385 -0.0656  1.1085
  363TMC3    C3 5485   3.304   2.747   9.603  0.1982 -0.2336  0.1344
  363TMC3    C4 5486   3.066   2.659   9.506 -0.0117 -0.0652  0.5960
  363TMC3    C5 5487   3.062   2.758   9.601  0.3278  0.1148  0.0401
  363TMC3    C6 5488   3.184   2.804   9.650  0.3662 -0.3375  1.1231
  363TMC3     C 5489   3.196   2.515   9.352 -0.2442 -0.3719 -0.6512
  363TMC3     O 5490   3.309   2.481   9.320 -0.2315  0.2190  0.1254
  363TMC3     H 5491   3.401   2.623   9.470  0.6214 -0.4647  2.9474
  363TMC3    H1 5492   2.972   2.612   9.482  2.0353 -1.8802 -3.7888
  363TMC3    H2 5493   3.198   2.862   9.740  3.5920 -0.1652  0.5234
  363TMC3    C7 5494   2.940   2.782   9.673 -0.0163 -0.5752 -0.4144
  363TMC3    C8 5495   3.424   2.809   9.656  0.5181  0.4175  0.5794
  363TMC3    O1 5496   2.848   2.697   9.665 -0.0802 -0.0570  0.4035
  363TMC3    O2 5497   3.414   2.929   9.676  0.2073 -0.2269  0.5020
  364MPD2     C 5498   1.787   1.801  11.097 -0.8009 -0.6357 -1.0897
  364MPD2    C1 5499   1.864   1.760  10.993 -0.3987 -0.2203  0.4841
  364MPD2    C2 5500   1.876   1.614  10.979 -0.4742  0.0910 -0.1659
  364MPD2    C3 5501   1.809   1.527  11.070  0.2705 -0.0713  0.0195
  364MPD2    C4 5502   1.728   1.586  11.169  0.4891  0.1879 -0.1950
  364MPD2    C5 5503   1.723   1.717  11.186  0.0635 -0.3754  0.2070
  364MPD2     H 5504   1.949   1.586  10.904  0.0178  1.7196 -0.3006
  364MPD2    H1 5505   1.672   1.532  11.244 -1.1862 -0.0728 -1.6214
  364MPD2    H2 5506   1.765   1.907  11.096  0.7140 -0.3396 -1.8845
  364MPD2    H3 5507   1.664   1.757  11.267  2.8571  0.1216  2.0087
  364MPD2     N 5508   1.810   1.389  11.052 -0.2438 -0.1455 -0.1694
  364MPD2    H5 5509   1.769   1.340  11.131  0.0808 -2.0549 -1.1612
  364MPD2    N1 5510   1.931   1.852  10.905  0.5840  0.1352  0.3776
  364MPD2    H7 5511   1.927   1.953  10.913  1.2424  0.1648  0.3559
  365TMC3    C1 5512   2.085   1.944  10.766 -0.1790  0.4874 -0.1722
  365TMC3    C2 5513   2.146   1.935  10.640  0.1513  0.0045  0.4601
  365TMC3    C3 5514   2.219   2.041  10.595 -0.4693  0.4306  0.1471
  365TMC3    C4 5515   2.085   2.057  10.839 -0.2536 -0.0015  0.4291
  365TMC3    C5 5516   2.153   2.168  10.791 -0.4890  0.2100 -0.3314
  365TMC3    C6 5517   2.213   2.161  10.669 -0.0517  0.3965 -0.3480
  365TMC3     C 5518   2.021   1.819  10.812 -0.6783  0.3064 -0.7030
  365TMC3     O 5519   2.083   1.722  10.780 -0.8957 -0.0455  0.4263
  365TMC3     H 5520   2.168   1.841  10.592  3.2521 -0.5943  3.0806
  365TMC3    H1 5521   2.062   2.055  10.945 -2.5015 -1.2771 -0.0755
  365TMC3    H2 5522   2.272   2.246  10.636  1.2000 -0.2399  0.2752
  365TMC3    C7 5523   2.144   2.299  10.861  0.7467 -0.0837  0.2885
  365TMC3    C8 5524   2.306   2.046  10.481  0.8078 -0.1369  0.3059
  365TMC3    O1 5525   2.224   2.387  10.835  0.2123  0.0397  0.2699
  365TMC3    O2 5526   2.370   2.150  10.473  0.0340  0.5578 -0.3460
  366MPD2     C 5527   0.447   3.082  14.982 -0.7504  0.1787  0.1711
  366MPD2    C1 5528   0.557   3.059  15.059 -0.1395 -0.4154  0.2654
  366MPD2    C2 5529   0.597   2.926  15.081 -0.0871  0.5397 -0.7906
  366MPD2    C3 5530   0.550   2.815  15.020 -0.7473 -0.1760  0.3712
  366MPD2    C4 5531   0.447   2.842  14.930  0.1740 -0.1191  0.2648
  366MPD2    C5 5532   0.397   2.971  14.922 -0.4817 -0.4598  0.1001
  366MPD2     H 5533   0.685   2.916  15.144 -0.8752 -0.1945  0.1948
  366MPD2    H1 5534   0.400   2.762  14.874  0.8841  0.3130 -0.9489
  366MPD2    H2 5535   0.409   3.181  14.959  1.3898  0.9272 -0.1393
  366MPD2    H3 5536   0.301   2.980  14.874  0.0210  1.4404 -0.5888
  366MPD2     N 5537   0.605   2.691  15.052 -0.1635  0.5711 -0.2356
  366MPD2    H5 5538   0.668   2.692  15.131 -3.2020 -4.6816  2.2245
  366MPD2    N1 5539   0.616   3.163  15.137 -0.1848 -0.0193  0.1392
  366MPD2    H7 5540   0.677   3.149  15.217 -3.7054 -1.1836  2.6053
  367TMC3    C1 5541   0.641   3.383  15.228  0.8416 -0.8076  0.6300
  367TMC3    C2 5542   0.716   3.334  15.334 -0.5181 -0.7575  0.1929
  367TMC3    C3 5543   0.761   3.417  15.438 -0.4013 -0.6135 -0.2551
  367TMC3    C4 5544   0.593   3.511  15.234 -0.2381 -0.0795 -1.0405
  367TMC3    C5 5545   0.633   3.590  15.336  0.3744 -0.6747 -0.8046
  367TMC3    C6 5546   0.717   3.548  15.436 -0.0502  0.3522  0.3081
  367TMC3     C 5547   0.592   3.302  15.118  0.5056 -0.4997  0.2804
  367TMC3     O 5548   0.530   3.359  15.029 -0.3543 -0.3044  0.5436
  367TMC3     H 5549   0.768   3.239  15.328 -0.0135 -0.5798  1.8082
  367TMC3    H1 5550   0.556   3.558  15.144 -3.7570 -0.8210  0.0110
  367TMC3    H2 5551   0.738   3.598  15.529  1.9069 -0.2803  0.2055
  367TMC3    C7 5552   0.535   3.686  15.375 -0.0540 -0.5251  0.2647
  367TMC3    C8 5553   0.860   3.366  15.535  0.0075  0.8840 -0.2294
  367TMC3    O1 5554   0.558   3.759  15.472  0.2324 -0.0155  0.0907
  367TMC3    O2 5555   0.884   3.249  15.528 -0.3037  0.3446  0.6335
  368MPD2     C 5556   2.036   4.320  13.335 -0.3596 -0.3178  0.2648
  368MPD2    C1 5557   2.030   4.404  13.233 -0.1386 -0.2028  0.2286
  368MPD2    C2 5558   2.139   4.411  13.146  0.1159 -0.2093 -0.3633
  368MPD2    C3 5559   2.257   4.338  13.164 -0.2307 -0.3088 -0.0400
  368MPD2    C4 5560   2.263   4.257  13.275  0.3446  0.0545  0.6980
  368MPD2    C5 5561   2.155   4.249  13.360 -0.0944  0.3935  0.1840
  368MPD2     H 5562   2.155   4.483  13.066  0.6650 -0.5744 -0.5843
  368MPD2    H1 5563   2.352   4.202  13.303  1.0858  1.5700  1.3204
  368MPD2    H2 5564   1.950   4.307  13.400 -0.4728 -0.1926  0.1405
  368MPD2    H3 5565   2.159   4.181  13.445 -0.1881  3.4523  2.6732
  368MPD2     N 5566   2.367   4.338  13.078  0.3994 -0.6536  0.0147
  368MPD2    H5 5567   2.441   4.273  13.103 -0.2985 -1.1828  0.7158
  368MPD2    N1 5568   1.915   4.485  13.214 -0.0717  0.1048 -0.2583
  368MPD2    H7 5569   1.836   4.478  13.278 -0.5675 -3.2127 -1.2247
  369TMC3    C1 5570   1.783   4.654  13.126  0.7017 -0.1028  0.1800
  369TMC3    C2 5571   1.796   0.054  13.094 -0.0127 -0.2260  0.3898
  369TMC3    C3 5572   1.677   0.122  13.057  0.1272 -0.2726  0.4108
  369TMC3    C4 5573   1.662   4.593  13.134 -0.2183  0.6539 -0.6943
  369TMC3    C5 5574   1.557   4.657  13.072 -0.6858  0.4564  0.1546
  369TMC3    C6 5575   1.561   0.052  13.040 -0.5114 -0.4022  0.0241
  369TMC3     C 5576   1.903   4.578  13.110 -0.4245 -1.3296  0.6313
  369TMC3     O 5577   1.980   4.607  13.022  0.0176  0.4737 -0.0508
  369TMC3     H 5578   1.897   0.090  13.078 -0.3577  0.6774  0.1875
  369TMC3    H1 5579   1.655   4.490  13.167 -2.4980  0.6523 -1.2081
  369TMC3    H2 5580   1.471   0.109  13.020 -0.2151 -0.0375 -0.2673
  369TMC3    C7 5581   1.427   4.584  13.084  0.1384 -0.1993  0.0804
  369TMC3    C8 5582   1.689   0.238  12.976 -0.1040 -0.0203  0.3877
  369TMC3    O1 5583   1.433   4.478  13.144 -0.9592  0.6642 -0.0468
  369TMC3    O2 5584   1.602   0.249  12.890  0.0866 -0.0575  0.3555
  370TMC3    C1 5585   1.360   0.427  16.063  0.2678 -0.0777 -0.3712
  370TMC3    C2 5586   1.263   0.342  16.117  0.2516  0.7156  0.1934
  370TMC3    C3 5587   1.256   0.211  16.076 -0.7500 -0.5918  0.3345
  370TMC3    C4 5588   1.430   0.394  15.951 -0.4298 -0.6515 -0.2769
  370TMC3    C5 5589   1.415   0.265  15.910 -0.8259 -0.0222 -0.0545
  370TMC3    C6 5590   1.337   0.174  15.971  0.2895 -0.0179  0.4398
  370TMC3     C 5591   1.391   0.539  16.145 -0.0282  0.3680  0.4021
  370TMC3     O 5592   1.312   0.535  16.236 -0.3050  0.3832 -0.1972
  370TMC3     H 5593   1.186   0.368  16.188  0.4675  0.0370  0.6753
  370TMC3    H1 5594   1.498   0.464  15.904  2.0389 -3.0831 -0.3433
  370TMC3    H2 5595   1.330   0.075  15.927  0.7121  0.3805 -0.5304
  370TMC3    C7 5596   1.512   0.231  15.808  0.5752  0.2473 -0.3455
  370TMC3    C8 5597   1.217   0.112  16.173 -0.0585 -0.2316  0.3082
  370TMC3    O1 5598   1.560   0.322  15.741 -0.1433 -0.1720  0.1788
  370TMC3    O2 5599   1.185   4.734  16.138 -0.2779  0.0965 -0.0849
  371TMC3    C1 5600   2.682   3.286  15.276 -0.0950  0.4139 -0.9147
  371TMC3    C2 5601   2.599   3.316  15.384 -0.6680  0.2081  1.3312
  371TMC3    C3 5602   2.557   3.443  15.411 -0.3120 -0.7908  0.1711
  371TMC3    C4 5603   2.723   3.384  15.189  0.2283  0.2488  0.1233
  371TMC3    C5 5604   2.674   3.509  15.219  0.1152 -0.0755 -0.2100
  371TMC3    C6 5605   2.594   3.544  15.325 -0.4072  0.3448 -0.6502
  371TMC3     C 5606   2.709   3.149  15.242 -0.4576  0.7603 -0.1417
  371TMC3     O 5607   2.768   3.136  15.137 -0.4326  0.1787  0.3870
  371TMC3     H 5608   2.573   3.242  15.459 -2.8727 -0.2634  0.1178
  371TMC3    H1 5609   2.789   3.372  15.105 -0.1578 -0.8933 -0.0204
  371TMC3    H2 5610   2.563   3.646  15.340  1.2397  0.8183 -0.4849
  371TMC3    C7 5611   2.753   3.615  15.151  0.2649  0.5453  0.2822
  371TMC3    C8 5612   2.515   3.471  15.541  0.5267 -0.0279 -0.4115
  371TMC3    O1 5613   2.692   3.718  15.155 -0.3354  0.1285 -0.2628
  371TMC3    O2 5614   2.549   3.392  15.630  0.0761  0.0208 -0.1530
  372MPD2     C 5615   1.797   4.436  13.762  0.0922 -0.4009 -0.4864
  372MPD2    C1 5616   1.892   4.365  13.691  0.5792 -0.5125  0.4544
  372MPD2    C2 5617   1.868   4.230  13.674  0.6780 -1.3149  0.1302
  372MPD2    C3 5618   1.750   4.165  13.708 -0.5754  0.8798  0.3340
  372MPD2    C4 5619   1.657   4.237  13.778 -0.8333  0.4052  0.0812
  372MPD2    C5 5620   1.681   4.367  13.802  0.1308 -0.1621  0.3395
  372MPD2     H 5621   1.940   4.178  13.611 -1.0741 -1.8907 -1.4091
  372MPD2    H1 5622   1.562   4.201  13.814 -0.1375 -2.3373 -0.8551
  372MPD2    H2 5623   1.810   4.542  13.781 -1.6182 -0.4615  1.0391
  372MPD2    H3 5624   1.607   4.422  13.859  0.9788  1.7560 -0.4040
  372MPD2     N 5625   1.732   4.027  13.684 -0.3477 -0.7741  0.3579
  372MPD2    H5 5626   1.647   3.982  13.715 -0.9895 -0.6255 -1.1723
  372MPD2    N1 5627   2.015   4.416  13.636 -0.2962  0.9320  0.4901
  372MPD2    H7 5628   2.091   4.349  13.635 -0.7564  0.4149  0.0616
  373TMC3    C1 5629   1.750   3.810  13.614 -0.5991  0.1631  0.9315
  373TMC3    C2 5630   1.699   3.757  13.733  0.4974 -0.2910 -0.0052
  373TMC3    C3 5631   1.694   3.619  13.752 -0.4232  0.5327  0.7616
  373TMC3    C4 5632   1.773   3.728  13.509  0.4228 -0.3115 -0.0654
  373TMC3    C5 5633   1.778   3.592  13.532 -0.2048  0.9275 -0.2079
  373TMC3    C6 5634   1.744   3.536  13.650  0.2851 -0.3328  0.0522
  373TMC3     C 5635   1.805   3.952  13.603  0.1350 -0.0753 -0.7493
  373TMC3     O 5636   1.904   3.978  13.537  0.4232 -0.1097 -0.1720
  373TMC3     H 5637   1.682   3.821  13.818  0.9011 -0.4163  0.1733
  373TMC3    H1 5638   1.811   3.766  13.415  1.4257 -1.9439 -0.3067
  373TMC3    H2 5639   1.753   3.431  13.675  1.9499 -0.1023  0.4543
  373TMC3    C7 5640   1.872   3.514  13.444  0.0670  0.1636 -0.0431
  373TMC3    C8 5641   1.741   3.597  13.886 -0.3249 -0.0184  0.2386
  373TMC3    O1 5642   1.952   3.567  13.369  0.4491  0.4935  0.1373
  373TMC3    O2 5643   1.661   3.553  13.969  0.2152 -0.2370 -0.2711
  374TMC3    C1 5644   2.674   0.498   9.594  0.4205 -0.5920  0.4287
  374TMC3    C2 5645   2.731   0.614   9.642  0.0942 -0.2767 -0.7413
  374TMC3    C3 5646   2.698   0.729   9.569  0.0502 -0.0748 -0.2583
  374TMC3    C4 5647   2.589   0.489   9.482  0.4309 -0.6974  0.0522
  374TMC3    C5 5648   2.561   0.606   9.415 -0.1654  0.1574 -0.0603
  374TMC3    C6 5649   2.618   0.725   9.453 -0.4968  0.1220  0.4258
  374TMC3     C 5650   2.679   0.385   9.688 -0.2294 -0.4501 -0.6391
  374TMC3     O 5651   2.587   0.306   9.666  0.6123  0.0954 -0.2657
  374TMC3     H 5652   2.790   0.613   9.733 -0.3105  0.6371 -0.4725
  374TMC3    H1 5653   2.534   0.397   9.464 -1.8405  1.1251 -2.3316
  374TMC3    H2 5654   2.611   0.814   9.392  3.7858 -0.8080 -1.4075
  374TMC3    C7 5655   2.502   0.606   9.278  0.2065  0.2182 -0.5707
  374TMC3    C8 5656   2.727   0.866   9.616  0.8483 -0.1867  0.0001
  374TMC3    O1 5657   2.483   0.715   9.220  0.5247 -0.4401  0.1681
  374TMC3    O2 5658   2.656   0.960   9.577 -0.0527  0.1954 -0.1800
  375MPD2     C 5659   2.904   0.770  17.155 -0.2602  0.4182 -0.3907
  375MPD2    C1 5660   2.827   0.726  17.050 -0.0012 -0.7871 -0.1024
  375MPD2    C2 5661   2.878   0.690  16.928  0.3083 -0.4892 -0.3220
  375MPD2    C3 5662   3.014   0.696  16.899 -0.6510 -0.2422  0.1978
  375MPD2    C4 5663   3.093   0.743  17.003  0.0289 -0.4124  0.1665
  375MPD2    C5 5664   3.038   0.771  17.124  0.3957  0.1493  0.1485
  375MPD2     H 5665   2.812   0.635  16.862 -1.6090  0.8228  0.5390
  375MPD2    H1 5666   3.199   0.760  16.987  0.3358 -1.2141  1.3379
  375MPD2    H2 5667   2.867   0.809  17.249  2.9662  0.0726  1.0150
  375MPD2    H3 5668   3.108   0.801  17.201  0.2716  0.3250  0.1931
  375MPD2     N 5669   3.062   0.656  16.772  0.1459 -0.0787  0.3131
  375MPD2    H5 5670   3.159   0.660  16.741  0.2141 -1.0418  0.4029
  375MPD2    N1 5671   2.685   0.720  17.065 -0.0245  0.1359 -0.2553
  375MPD2    H7 5672   2.634   0.679  16.988  0.1855 -1.3220  0.3757
  376TMC3    C1 5673   3.063   0.581  16.542 -0.4289 -0.7992 -0.1549
  376TMC3    C2 5674   3.182   0.524  16.548 -0.4796 -0.2019  0.1243
  376TMC3    C3 5675   3.239   0.470  16.431  0.6440 -0.2213  0.1722
  376TMC3    C4 5676   2.999   0.595  16.422  0.5399  0.0001 -0.6259
  376TMC3    C5 5677   3.062   0.553  16.310  0.9290 -0.0973  0.2599
  376TMC3    C6 5678   3.181   0.488  16.314 -0.0285 -0.2699 -0.3370
  376TMC3     C 5679   2.987   0.609  16.663  0.4973  0.5003 -0.1806
  376TMC3     O 5680   2.866   0.603  16.656  0.0249  0.2721  0.0037
  376TMC3     H 5681   3.225   0.504  16.645 -2.5396  0.4755  1.1662
  376TMC3    H1 5682   2.897   0.631  16.427  0.8084  0.8433 -1.0988
  376TMC3    H2 5683   3.228   0.463  16.219  0.7925 -2.0511  0.5389
  376TMC3    C7 5684   3.003   0.599  16.188 -0.4040 -0.2887  0.9679
  376TMC3    C8 5685   3.388   0.483  16.427  1.0587  0.6160 -0.0512
  376TMC3    O1 5686   3.049   0.543  16.092 -0.0458 -0.6210  0.2844
  376TMC3    O2 5687   3.436   0.505  16.317 -0.2998  0.1642  0.3913
  377MPD2     C 5688   0.344   0.351  12.817 -0.1331 -0.5505  0.5114
  377MPD2    C1 5689   0.459   0.282  12.831  0.2154  0.5570 -0.1173
  377MPD2    C2 5690   0.466   0.194  12.942  0.4173 -0.1376 -0.0490
  377MPD2    C3 5691   0.364   0.193  13.033  0.1302 -0.4910  0.2122
  377MPD2    C4 5692   0.253   0.275  13.015 -0.6834  0.2097 -0.2614
  377MPD2    C5 5693   0.245   0.362  12.908  0.4091 -0.3681  0.0963
  377MPD2     H 5694   0.559   0.140  12.956  0.8537  0.6209 -0.0047
  377MPD2    H1 5695   0.182   0.281  13.098  0.3653  0.0839  0.6479
  377MPD2    H2 5696   0.329   0.407  12.726  0.9170 -0.0437  0.6546
  377MPD2    H3 5697   0.169   0.437  12.892  0.4695  0.0416  1.7208
  377MPD2     N 5698   0.384   0.105  13.139  0.0185 -0.2296 -0.7016
  377MPD2    H5 5699   0.449   0.028  13.129  1.9539  1.3954 -0.6430
  377MPD2    N1 5700   0.560   0.300  12.732 -0.1097 -0.0960 -0.0778
  377MPD2    H7 5701   0.535   0.353  12.649  0.9369  1.0186  0.3305
  378TMC3    C1 5702   0.807   0.421  12.436  0.1927  0.5426 -0.0103
  378TMC3    C2 5703   0.721   0.361  12.526  0.3064 -0.2789 -0.1866
  378TMC3    C3 5704   0.776   0.287  12.625  0.4692  0.3705 -0.3325
  378TMC3    C4 5705   0.940   0.408  12.454 -0.0848 -0.0764 -0.5057
  378TMC3    C5 5706   0.995   0.328  12.552 -0.0676 -0.2736 -0.0878
  378TMC3    C6 5707   0.910   0.272  12.643 -0.9487 -0.2472 -0.3320
  378TMC3     C 5708   0.758   0.483  12.313  0.7948 -0.8020 -0.0892
  378TMC3     O 5709   0.663   0.436  12.251 -0.4371  0.1340  0.3919
  378TMC3     H 5710   0.617   0.377  12.503  0.1998  0.0228  0.5238
  378TMC3    H1 5711   1.001   0.468  12.386 -0.1630  1.2843  0.6215
  378TMC3    H2 5712   0.942   0.230  12.738 -0.3699 -2.0526 -1.3137
  378TMC3    C7 5713   1.136   0.303  12.567  0.1238  0.7732 -0.2780
  378TMC3    C8 5714   0.684   0.237  12.733 -0.3418  0.2878  0.4831
  378TMC3    O1 5715   1.190   0.290  12.676  0.2627  0.3196 -0.5094
  378TMC3    O2 5716   0.736   0.169  12.815  0.6964 -0.8205  0.4649
  379MPD2     C 5717   1.734   2.880  16.132  0.0088  0.1124  0.1224
  379MPD2    C1 5718   1.660   2.868  16.247 -1.1878 -1.0483  0.4801
  379MPD2    C2 5719   1.721   2.857  16.371 -0.0415  0.3295  0.8074
  379MPD2    C3 5720   1.861   2.847  16.383  0.1706 -0.2728  0.3370
  379MPD2    C4 5721   1.929   2.831  16.265 -0.4627  0.4478  0.5778
  379MPD2    C5 5722   1.869   2.849  16.143  0.2993 -0.3614  0.3717
  379MPD2     H 5723   1.650   2.858  16.453 -2.3291 -0.4983 -1.1847
  379MPD2    H1 5724   2.034   2.815  16.247 -0.3984  0.9419  0.5173
  379MPD2    H2 5725   1.684   2.897  16.037  0.7899 -0.2819 -0.3671
  379MPD2    H3 5726   1.922   2.824  16.051 -0.2345  2.2605 -0.6642
  379MPD2     N 5727   1.928   2.839  16.504  0.1525  0.0198 -0.0904
  379MPD2    H5 5728   1.870   2.846  16.587 -1.8828 -2.2670 -1.3182
  379MPD2    N1 5729   1.523   2.893  16.225 -0.0141  0.3605  0.5569
  379MPD2    H7 5730   1.495   2.910  16.129  0.7102 -1.3027  0.0491
  380TMC3    C1 5731   1.302   2.882  16.259  0.1423 -0.0213  0.0134
  380TMC3    C2 5732   1.296   2.794  16.157 -0.6201 -0.8731 -0.9757
  380TMC3    C3 5733   1.197   2.810  16.059  0.4468 -0.0910 -0.2546
  380TMC3    C4 5734   1.213   2.991  16.266 -0.4728  0.1226  0.2773
  380TMC3    C5 5735   1.126   3.017  16.155  0.0664  0.9511  0.6090
  380TMC3    C6 5736   1.108   2.920  16.063 -0.7642 -0.4653  0.4733
  380TMC3     C 5737   1.427   2.895  16.325  0.4366 -0.0396 -0.5441
  380TMC3     O 5738   1.439   2.946  16.436 -0.2650 -0.0100  0.2992
  380TMC3     H 5739   1.365   2.711  16.147  0.7139 -0.0591  1.3258
  380TMC3    H1 5740   1.242   3.064  16.341 -0.7121  1.5106 -0.9858
  380TMC3    H2 5741   1.041   2.939  15.980 -0.7676  0.2927  0.6477
  380TMC3    C7 5742   1.133   3.155  16.110  0.0374 -0.0554 -0.1185
  380TMC3    C8 5743   1.238   2.784  15.920 -0.0216  0.4590  0.0285
  380TMC3    O1 5744   1.191   3.233  16.179 -0.6217 -0.0056 -0.0253
  380TMC3    O2 5745   1.157   2.805  15.834 -0.3805  0.2474  0.1792
  381TMC3    C1 5746   1.088   4.493  15.867 -0.1319  0.3464 -0.2343
  381TMC3    C2 5747   1.229   4.485  15.857  0.5976 -0.1930 -0.5922
  381TMC3    C3 5748   1.292   4.407  15.958  0.6928  0.5954  0.6790
  381TMC3    C4 5749   1.015   4.420  15.957 -0.0784 -0.0501 -0.2045
  381TMC3    C5 5750   1.080   4.346  16.048  0.0505  0.3094  0.0640
  381TMC3    C6 5751   1.217   4.345  16.054  0.6257  0.2548 -0.2819
  381TMC3     C 5752   1.042   4.621  15.817 -0.5563 -0.5271 -0.0589
  381TMC3     O 5753   1.134   4.692  15.782 -0.1727 -0.2104 -0.0808
  381TMC3     H 5754   1.285   4.554  15.795 -0.8699  1.3173 -0.2352
  381TMC3    H1 5755   0.907   4.428  15.964  0.2746  0.8580  4.4505
  381TMC3    H2 5756   1.277   4.296  16.130  0.9200 -1.0479 -1.3483
  381TMC3    C7 5757   1.001   4.273  16.145  0.2173 -0.1094 -0.5225
  381TMC3    C8 5758   1.422   4.461  15.997 -0.5717  0.1917  0.1860
  381TMC3    O1 5759   1.048   4.162  16.183 -0.0417 -0.8612 -0.2549
  381TMC3    O2 5760   1.486   4.499  15.905  0.0182  0.8519 -0.3810
  382MPD2     C 5761   0.378   2.113  16.473 -0.4713  0.1999  0.5106
  382MPD2    C1 5762   0.451   2.127  16.588 -0.0536 -0.9298  0.1848
  382MPD2    C2 5763   0.472   2.020  16.673 -0.2745  0.0929 -0.1539
  382MPD2    C3 5764   0.420   1.898  16.640  0.2751  0.6524 -0.0257
  382MPD2    C4 5765   0.341   1.883  16.529 -0.1703  0.7756 -0.2666
  382MPD2    C5 5766   0.317   1.990  16.449 -0.4688  0.0350 -0.0192
  382MPD2     H 5767   0.526   2.049  16.762  0.3121  0.3188 -0.5816
  382MPD2    H1 5768   0.293   1.790  16.503 -1.1953  1.8238 -2.0875
  382MPD2    H2 5769   0.363   2.188  16.396  2.6615 -0.8071 -1.0659
  382MPD2    H3 5770   0.244   1.978  16.370 -3.1237  2.0093  2.0975
  382MPD2     N 5771   0.442   1.780  16.717  0.8007 -0.2776  0.1891
  382MPD2    H5 5772   0.393   1.693  16.699  0.9080 -0.3952  0.4455
  382MPD2    N1 5773   0.506   2.254  16.625  0.4833  0.8299  0.2446
  382MPD2    H7 5774   0.554   2.257  16.714 -1.4564 -0.9965  1.3644
  383TMC3    C1 5775   0.508   1.654  16.903 -0.0258  0.2810 -0.6504
  383TMC3    C2 5776   0.385   1.590  16.899 -0.1005 -1.1149  0.5181
  383TMC3    C3 5777   0.353   1.497  16.993 -0.0522 -1.1846 -0.2076
  383TMC3    C4 5778   0.598   1.635  17.007  0.3549  0.0847  1.1241
  383TMC3    C5 5779   0.554   1.554  17.103  1.0996 -0.7439 -0.1369
  383TMC3    C6 5780   0.441   1.474  17.096  0.0077 -0.5967 -0.1113
  383TMC3     C 5781   0.532   1.771  16.818  0.0045  0.5820  0.4686
  383TMC3     O 5782   0.635   1.839  16.836  0.3079 -0.7315  0.1576
  383TMC3     H 5783   0.310   1.607  16.822 -0.2240 -1.4631  0.5566
  383TMC3    H1 5784   0.683   1.701  17.016  0.1130  0.6818 -0.8203
  383TMC3    H2 5785   0.434   1.392  17.165  0.0899 -1.8632 -1.6123
  383TMC3    C7 5786   0.601   1.586  17.239 -0.2178 -0.0156 -0.6693
  383TMC3    C8 5787   0.219   1.442  16.993 -0.4564 -0.4450  0.4129
  383TMC3    O1 5788   0.591   1.505  17.330  0.0141  0.0372 -0.0077
  383TMC3    O2 5789   0.149   1.474  16.898  0.3008 -0.2490  0.2167
  384MPD2     C 5790   1.558   2.998  12.018  0.1405  0.1444 -0.3370
  384MPD2    C1 5791   1.563   2.959  12.151  0.3416 -0.3281  0.7101
  384MPD2    C2 5792   1.687   2.907  12.198 -0.6058  0.1451  0.2586
  384MPD2    C3 5793   1.785   2.878  12.105  0.4343  0.2730  0.1351
  384MPD2    C4 5794   1.769   2.905  11.972  0.0044 -0.0836  1.3325
  384MPD2    C5 5795   1.660   2.974  11.929 -0.5616 -0.2036  0.1227
  384MPD2     H 5796   1.702   2.885  12.303 -1.4094  1.3480  0.6243
  384MPD2    H1 5797   1.841   2.879  11.895 -1.4517 -0.2697  0.0429
  384MPD2    H2 5798   1.469   3.045  11.978  1.2806  0.2027 -2.8194
  384MPD2    H3 5799   1.652   2.999  11.824  0.3963  1.8284  0.5271
  384MPD2     N 5800   1.913   2.830  12.147 -0.0859  0.7151  0.3164
  384MPD2    H5 5801   1.977   2.782  12.084  1.0555  2.7634 -0.0762
  384MPD2    N1 5802   1.463   2.992  12.241  0.0544 -0.3728  0.1993
  384MPD2    H7 5803   1.367   3.005  12.211  0.0857 -2.4877 -0.8269
  385TMC3    C1 5804   2.073   2.751  12.303 -0.0628  0.7181 -0.6653
  385TMC3    C2 5805   2.059   2.622  12.253 -0.7361  0.0616  0.4451
  385TMC3    C3 5806   2.072   2.508  12.332 -0.1431 -0.3136 -0.3538
  385TMC3    C4 5807   2.115   2.760  12.435 -0.6110 -0.5733 -0.1866
  385TMC3    C5 5808   2.121   2.646  12.515 -0.0061 -0.4383  0.0108
  385TMC3    C6 5809   2.086   2.522  12.468 -0.7485 -0.1648  0.3924
  385TMC3     C 5810   1.958   2.830  12.273  0.4934  0.6710  0.2477
  385TMC3     O 5811   1.925   2.897  12.372  0.3171 -0.0034 -0.3410
  385TMC3     H 5812   2.023   2.617  12.151 -0.4311  1.8188  0.2467
  385TMC3    H1 5813   2.147   2.858  12.471  1.6157 -1.1015 -0.7552
  385TMC3    H2 5814   2.099   2.436  12.533  2.0456 -0.1455 -0.1154
  385TMC3    C7 5815   2.055   2.668  12.645 -0.6773  0.0038 -0.2865
  385TMC3    C8 5816   2.061   2.368  12.289 -0.0612  0.4534  0.5537
  385TMC3    O1 5817   2.072   2.589  12.734  1.1729 -0.0564  0.3669
  385TMC3    O2 5818   2.084   2.289  12.375 -0.3073  0.2190 -0.0663
  386TMC3    C1 5819   2.251   0.503  11.643  0.5100 -1.0483 -0.4707
  386TMC3    C2 5820   2.254   0.511  11.511  0.0912 -0.2574 -0.0412
  386TMC3    C3 5821   2.180   0.611  11.441 -0.3779  0.0169 -0.5426
  386TMC3    C4 5822   2.185   0.597  11.720  0.3825  0.7987  0.5015
  386TMC3    C5 5823   2.108   0.681  11.651 -0.2690 -0.7814 -0.3004
  386TMC3    C6 5824   2.112   0.700  11.514 -0.0491  0.7946  0.8569
  386TMC3     C 5825   2.330   0.414  11.713  0.1534  0.0764  0.1200
  386TMC3     O 5826   2.278   0.388  11.829  0.2242  0.2414  0.4192
  386TMC3     H 5827   2.288   0.430  11.449 -0.5830 -0.4362 -0.1816
  386TMC3    H1 5828   2.206   0.601  11.826  0.8281  2.8814  0.3364
  386TMC3    H2 5829   2.051   0.778  11.469 -1.3169 -0.9285 -0.4090
  386TMC3    C7 5830   2.000   0.726  11.727  0.0997 -0.6225  0.6303
  386TMC3    C8 5831   2.166   0.620  11.301 -0.3234  0.0969  0.0437
  386TMC3    O1 5832   2.022   0.732  11.848 -0.3081 -0.3470  0.1209
  386TMC3    O2 5833   2.078   0.699  11.264 -0.1770 -0.1299  0.0194
  387MPD2     C 5834   4.278   0.769   9.848  0.1745 -0.1293 -0.1332
  387MPD2    C1 5835   4.397   0.707   9.857  0.2148  0.0327  0.1611
  387MPD2    C2 5836   4.413   0.577   9.819  0.1989  0.1340 -0.3188
  387MPD2    C3 5837   4.306   0.504   9.774 -0.3661 -0.4634  0.4761
  387MPD2    C4 5838   4.184   0.564   9.773  0.1799  0.3685 -0.1361
  387MPD2    C5 5839   4.175   0.692   9.807  0.2189 -0.2689  0.9809
  387MPD2     H 5840   4.508   0.532   9.843  1.0448  2.1000  0.0361
  387MPD2    H1 5841   4.097   0.510   9.737 -1.6542  2.1836  1.6313
  387MPD2    H2 5842   4.270   0.876   9.865 -2.1850  0.0628 -2.4738
  387MPD2    H3 5843   4.075   0.733   9.794 -0.3094 -1.9362 -0.2406
  387MPD2     N 5844   4.336   0.373   9.744 -0.0442 -0.2098 -0.1315
  387MPD2    H5 5845   4.435   0.352   9.740  0.2447  0.7106  2.1172
  387MPD2    N1 5846   4.516   0.764   9.906 -0.2198 -0.2321  0.2460
  387MPD2    H7 5847   4.599   0.710   9.887 -0.1038 -0.5672  1.7199
  388TMC3    C1 5848   4.667   0.913  10.011 -0.2680 -0.4188 -0.5827
  388TMC3    C2 5849   0.003   1.028   9.991  0.6739 -0.1994 -0.3103
  388TMC3    C3 5850   0.142   1.016  10.006 -0.1678 -0.1819  0.3393
  388TMC3    C4 5851   4.717   0.798  10.065  0.3337 -0.8656  0.3026
  388TMC3    C5 5852   0.118   0.789  10.078 -0.1899  0.1711  0.2264
  388TMC3    C6 5853   0.197   0.897  10.042 -0.4107  0.5926  0.1146
  388TMC3     C 5854   4.533   0.892   9.953 -1.0563  0.0482 -0.0807
  388TMC3     O 5855   4.464   0.989   9.927 -0.3195 -0.3501 -1.3069
  388TMC3     H 5856   4.688   1.122   9.971 -0.4258 -1.1991 -2.2780
  388TMC3    H1 5857   4.659   0.709  10.085  0.7506 -1.0138  0.8578
  388TMC3    H2 5858   0.305   0.886  10.036 -0.3832  0.7946  0.2157
  388TMC3    C7 5859   0.186   0.665  10.078  0.4214  0.2046 -0.5976
  388TMC3    C8 5860   0.213   1.134  10.066 -0.0723  0.0562 -0.3308
  388TMC3    O1 5861   0.313   0.666  10.062 -0.1807  1.0781  1.1978
  388TMC3    O2 5862   0.333   1.113  10.094 -0.2674  0.2043  0.2634
  389MPD2     C 5863   3.889   3.772  11.106 -0.4432  0.2898 -0.1385
  389MPD2    C1 5864   3.793   3.692  11.048 -0.0823 -0.5607 -0.7953
  389MPD2    C2 5865   3.750   3.580  11.109  0.8718 -0.1554  0.1496
  389MPD2    C3 5866   3.800   3.542  11.233 -0.6061 -0.4565  0.1491
  389MPD2    C4 5867   3.892   3.620  11.296 -0.3374 -0.1602 -0.3076
  389MPD2    C5 5868   3.936   3.734  11.230 -0.4991  0.4799 -0.3516
  389MPD2     H 5869   3.655   3.537  11.077  0.3891  1.6981 -0.8825
  389MPD2    H1 5870   3.915   3.600  11.400 -2.1423 -1.5737 -0.1889
  389MPD2    H2 5871   3.931   3.860  11.060  2.4407  0.1060  2.1476
  389MPD2    H3 5872   4.019   3.787  11.274  0.6033 -2.2635  0.8473
  389MPD2     N 5873   3.736   3.438  11.304 -0.3848 -0.5229 -0.1221
  389MPD2    H5 5874   3.756   3.435  11.403  3.0203 -0.5064 -0.7958
  389MPD2    N1 5875   3.742   3.750  10.928 -0.8809  0.4346 -0.2756
  389MPD2    H7 5876   3.798   3.827  10.894  3.4014 -1.7508  1.6924
  390TMC3    C1 5877   3.602   3.258  11.374 -0.4942 -0.6011  0.7454
  390TMC3    C2 5878   3.484   3.186  11.357 -0.6353  0.1942 -0.2230
  390TMC3    C3 5879   3.428   3.132  11.473 -0.5258 -0.1819  0.2125
  390TMC3    C4 5880   3.663   3.272  11.500  0.6810  0.0600 -0.1667
  390TMC3    C5 5881   3.605   3.209  11.606  0.1947  0.0969  0.2177
  390TMC3    C6 5882   3.481   3.154  11.600  0.0176 -0.3713  0.0061
  390TMC3     C 5883   3.649   3.342  11.261 -0.7820  0.0065  0.6612
  390TMC3     O 5884   3.618   3.321  11.144  0.5670  0.8302  0.1356
  390TMC3     H 5885   3.441   3.173  11.259 -1.4135 -0.4289  0.1968
  390TMC3    H1 5886   3.768   3.297  11.509  0.2092  1.2465  1.7401
  390TMC3    H2 5887   3.434   3.092  11.676  1.4880 -0.5411  0.7820
  390TMC3    C7 5888   3.663   3.245  11.737  0.3800  1.0272  0.0903
  390TMC3    C8 5889   3.295   3.069  11.480  0.4640  0.0237 -0.0011
  390TMC3    O1 5890   3.761   3.317  11.745 -0.3554  0.4963  0.0794
  390TMC3    O2 5891   3.270   2.985  11.395  0.0553 -0.0646  0.1751
  391MPD2     C 5892   3.322   0.562  11.003 -0.1571  0.3360 -0.7403
  391MPD2    C1 5893   3.371   0.692  11.003 -0.1162 -0.5818  0.4315
  391MPD2    C2 5894   3.386   0.755  10.880  0.0833 -0.2248  0.6955
  391MPD2    C3 5895   3.345   0.690  10.768  0.1242  0.4001 -0.5149
  391MPD2    C4 5896   3.307   0.557  10.771 -0.4792 -0.4542  0.4872
  391MPD2    C5 5897   3.288   0.495  10.895 -0.0382 -0.0996 -0.7511
  391MPD2     H 5898   3.412   0.860  10.866  1.7929 -0.6255  0.8545
  391MPD2    H1 5899   3.296   0.500  10.680 -0.4956  0.4430 -0.0683
  391MPD2    H2 5900   3.328   0.500  11.091 -0.1522  0.7198 -0.4712
  391MPD2    H3 5901   3.236   0.400  10.900 -0.0121 -0.1469 -1.4553
  391MPD2     N 5902   3.335   0.765  10.647 -0.1234  0.4165  0.2348
  391MPD2    H5 5903   3.366   0.861  10.654  0.9105  0.2341 -1.8479
  391MPD2    N1 5904   3.420   0.760  11.117  0.3860  0.1269 -0.0519
  391MPD2    H7 5905   3.450   0.856  11.102  2.0152 -0.0479  2.0798
  392TMC3    C1 5906   3.298   0.825  10.424  0.3036  0.1342 -0.3876
  392TMC3    C2 5907   3.213   0.824  10.315 -0.5547  0.3462  0.2912
  392TMC3    C3 5908   3.224   0.929  10.227  0.3201 -0.3455  0.8385
  392TMC3    C4 5909   3.393   0.924  10.450  0.2626  0.5830  0.6466
  392TMC3    C5 5910   3.385   1.035  10.367  0.2282  0.7024 -0.1573
  392TMC3    C6 5911   3.308   1.033  10.252 -0.2727  0.5651  0.3521
  392TMC3     C 5912   3.292   0.718  10.522 -0.0449  0.3171 -0.1555
  392TMC3     O 5913   3.211   0.632  10.499  0.0326  0.1406 -0.1595
  392TMC3     H 5914   3.142   0.746  10.292  0.6181 -1.9331  4.4157
  392TMC3    H1 5915   3.473   0.927  10.523  2.4583 -1.0070 -1.7013
  392TMC3    H2 5916   3.313   1.111  10.176  0.6423 -0.0362 -0.2150
  392TMC3    C7 5917   3.483   1.143  10.379 -0.4921 -0.0447  0.4461
  392TMC3    C8 5918   3.135   0.927  10.114 -0.7436  0.6540 -0.1616
  392TMC3    O1 5919   3.586   1.110  10.441  0.1250 -0.5515 -0.4019
  392TMC3    O2 5920   3.087   0.819  10.082  0.1710  0.2381 -0.0022
  393TMC3    C1 5921   1.813   3.376  10.768  0.1663 -0.2234 -0.6166
  393TMC3    C2 5922   1.684   3.389  10.820 -0.6681  0.3733 -0.1142
  393TMC3    C3 5923   1.635   3.295  10.898  0.1175  0.4668  0.1001
  393TMC3    C4 5924   1.892   3.262  10.790 -0.2419  0.2632 -0.5388
  393TMC3    C5 5925   1.834   3.179  10.881 -0.0914  0.5219  0.3422
  393TMC3    C6 5926   1.711   3.194  10.944 -0.3371 -0.2605 -0.3085
  393TMC3     C 5927   1.863   3.471  10.664 -0.7522 -0.2383  0.6297
  393TMC3     O 5928   1.778   3.551  10.621  0.4271  0.2542  0.9093
  393TMC3     H 5929   1.630   3.477  10.788 -0.6703  0.3162 -0.2684
  393TMC3    H1 5930   1.990   3.244  10.746 -0.5128  0.5245 -1.2572
  393TMC3    H2 5931   1.670   3.117  11.009  1.3487 -0.1722  0.8434
  393TMC3    C7 5932   1.917   3.067  10.920  0.3810  0.5010 -0.1158
  393TMC3    C8 5933   1.510   3.313  10.970 -0.9048  0.6316  0.0794
  393TMC3    O1 5934   1.871   2.954  10.944 -0.2526  0.3084  0.2550
  393TMC3    O2 5935   1.450   3.217  11.015 -0.3052 -0.3068  0.0893
  394TMC3    C1 5936   3.632   3.769  10.726 -0.3263  0.3058 -0.7633
  394TMC3    C2 5937   3.551   3.699  10.639  0.0908 -0.7661 -0.2198
  394TMC3    C3 5938   3.547   3.756  10.517 -0.1801 -0.0717  0.2399
  394TMC3    C4 5939   3.705   3.887  10.692 -0.4466  0.0691  0.3695
  394TMC3    C5 5940   3.699   3.931  10.563 -0.7563 -0.0377  0.7843
  394TMC3    C6 5941   3.616   3.870  10.477 -0.1758  0.0471  0.2739
  394TMC3     C 5942   3.648   3.696  10.850  0.1723 -0.1180  0.4477
  394TMC3     O 5943   3.584   3.593  10.865 -0.3980 -0.1002 -0.1654
  394TMC3     H 5944   3.502   3.605  10.657  1.9149 -2.4791 -4.2281
  394TMC3    H1 5945   3.768   3.943  10.760  0.2374 -2.0260  1.4683
  394TMC3    H2 5946   3.609   3.909  10.376  2.2022 -0.8565 -0.2447
  394TMC3    C7 5947   3.775   4.046  10.507 -0.3177 -0.5509  0.5801
  394TMC3    C8 5948   3.484   3.689  10.404 -0.0736 -0.1948 -0.4905
  394TMC3    O1 5949   3.740   4.085  10.398 -0.7394 -0.0577  0.1413
  394TMC3    O2 5950   3.452   3.761  10.305 -0.0697 -0.1611 -0.1291
  395TMC3    C1 5951   3.665   0.101  14.633  0.2788  0.1178  0.5475
  395TMC3    C2 5952   3.545   0.167  14.638  0.2580  0.1857 -0.3169
  395TMC3    C3 5953   3.550   0.293  14.684 -0.1396 -0.8096 -0.2867
  395TMC3    C4 5954   3.781   0.163  14.667  0.1815  0.4615 -0.0998
  395TMC3    C5 5955   3.780   0.287  14.719 -0.3256 -0.2789  0.3730
  395TMC3    C6 5956   3.663   0.359  14.734 -0.1404 -0.2747 -0.4525
  395TMC3     C 5957   3.660   4.694  14.663  0.5112  0.0637  0.6417
  395TMC3     O 5958   3.747   4.663  14.749 -0.0164  0.8186  0.6251
  395TMC3     H 5959   3.457   0.107  14.621  1.9589 -1.8229 -1.9578
  395TMC3    H1 5960   3.869   0.098  14.667  0.7548  1.2358  0.3375
  395TMC3    H2 5961   3.659   0.465  14.752  0.4391 -0.2169 -0.6750
  395TMC3    C7 5962   3.899   0.371  14.714  0.5063  0.1959 -1.1390
  395TMC3    C8 5963   3.433   0.367  14.699  0.7888 -0.5866  1.0105
  395TMC3    O1 5964   3.888   0.486  14.760  0.3559 -0.6227  0.1517
  395TMC3    O2 5965   3.429   0.449  14.792  0.1160  0.1138 -0.9379
  396MPD2     C 5966   3.481   1.446  17.172 -0.2181 -0.3628  0.5464
  396MPD2    C1 5967   3.596   1.510  17.202 -1.2634 -0.7025  0.1290
  396MPD2    C2 5968   3.617   1.637  17.152  0.6337 -0.0523 -0.6498
  396MPD2    C3 5969   3.527   1.701  17.065 -0.0140  0.3402 -0.1190
  396MPD2    C4 5970   3.408   1.628  17.037 -0.7718  0.0845  0.4075
  396MPD2    C5 5971   3.384   1.502  17.091  0.5016 -0.4829 -0.5566
  396MPD2     H 5972   3.712   1.680  17.181 -0.3979  1.4242  0.5406
  396MPD2    H1 5973   3.332   1.662  16.967 -1.0356 -0.3800  0.4667
  396MPD2    H2 5974   3.462   1.345  17.207 -2.2875 -0.6777 -1.5080
  396MPD2    H3 5975   3.290   1.457  17.062 -0.2843  1.3564 -0.9294
  396MPD2     N 5976   3.551   1.829  17.003  0.3427  0.0796  0.3952
  396MPD2    H5 5977   3.645   1.863  17.019  0.7904 -1.3049  0.7024
  396MPD2    N1 5978   3.680   1.437  17.286  0.8319  0.1207  0.2250
  396MPD2    H7 5979   3.642   1.347  17.315  3.2064 -1.0094 -0.1087
  397TMC3    C1 5980   3.877   1.365  17.409 -0.7951 -0.2986  0.2949
  397TMC3    C2 5981   4.011   1.358  17.392  0.0593  0.4538  0.3722
  397TMC3    C3 5982   4.063   1.232  17.374  0.1449 -0.6709  0.4296
  397TMC3    C4 5983   3.802   1.251  17.422 -0.2496 -0.4027 -0.2767
  397TMC3    C5 5984   3.861   1.127  17.416  0.8614  0.2110  0.5955
  397TMC3    C6 5985   3.994   1.116  17.375  0.4229 -0.3198 -0.2124
  397TMC3     C 5986   3.809   1.470  17.333 -0.9800 -0.1121 -0.3753
  397TMC3     O 5987   3.872   1.575  17.311  0.2690  0.1578  0.0869
  397TMC3     H 5988   4.069   1.448  17.378  1.2162 -0.3322  0.1408
  397TMC3    H1 5989   3.701   1.260  17.459  0.4753 -2.3492  2.1975
  397TMC3    H2 5990   4.051   1.024  17.372 -0.1750 -0.6977  0.1858
  397TMC3    C7 5991   3.777   1.016  17.397  0.1554  0.5004  0.2584
  397TMC3    C8 5992   4.204   1.211  17.354  0.2502 -0.2384 -0.0377
  397TMC3    O1 5993   3.813   0.933  17.316  0.1442 -0.7361 -0.2965
  397TMC3    O2 5994   4.251   1.118  17.412  0.1060 -0.1742 -0.1342
  398MPD2     C 5995   1.559   3.264  17.581 -0.2074 -0.1562 -0.2114
  398MPD2    C1 5996   1.615   3.207  17.687  0.0379  0.3207  0.2139
  398MPD2    C2 5997   1.674   3.285   0.039  0.4289 -0.4143  0.3125
  398MPD2    C3 5998   1.692   3.424   0.026  1.0284 -0.7877  0.2500
  398MPD2    C4 5999   1.621   3.483  17.663 -0.4802 -0.0569 -0.5503
  398MPD2    C5 6000   1.565   3.399  17.567  0.2029  0.1350 -0.0878
  398MPD2     H 6001   1.706   3.239   0.132 -0.3881 -0.3595  0.6135
  398MPD2    H1 6002   1.631   3.588  17.638  0.5332  0.2112  0.9777
  398MPD2    H2 6003   1.505   3.204  17.509 -0.1245 -1.2916  0.6868
  398MPD2    H3 6004   1.519   3.443  17.480  1.0644  0.5444 -0.3415
  398MPD2     N 6005   1.770   3.487   0.126 -0.1257  0.1615 -0.0526
  398MPD2    H5 6006   1.833   3.420   0.168 -1.2949 -2.1666 -2.0109
  398MPD2    N1 6007   1.624   3.072  17.714 -0.9114 -0.5930  0.0600
  398MPD2    H7 6008   1.666   3.040   0.059  0.9990  1.6176 -0.0582
  399TMC3    C1 6009   1.617   2.847  17.703  0.7364  0.2431 -0.8369
  399TMC3    C2 6010   1.707   2.847   0.067 -0.0980 -0.2328 -0.4350
  399TMC3    C3 6011   1.728   2.731   0.142  0.0049  0.4680 -0.3543
  399TMC3    C4 6012   1.546   2.732  17.674 -0.4518  0.9420 -0.5624
  399TMC3    C5 6013   1.573   2.622   0.002  0.0376  0.0792 -0.2336
  399TMC3    C6 6014   1.657   2.613   0.113  0.3900  0.6194 -0.0037
  399TMC3     C 6015   1.573   2.971  17.638  0.1261 -0.4138  0.1055
  399TMC3     O 6016   1.512   2.971  17.532 -0.1564  0.4535  0.2259
  399TMC3     H 6017   1.772   2.931   0.088  1.0455 -1.2515  0.1431
  399TMC3    H1 6018   1.474   2.742  17.594  1.3616  1.6550 -2.1007
  399TMC3    H2 6019   1.661   2.516   0.161 -0.9643  0.9274  0.7324
  399TMC3    C7 6020   1.503   2.501  17.709 -0.4320 -0.5858 -0.0179
  399TMC3    C8 6021   1.844   2.724   0.223 -0.4402 -0.5205  0.3636
  399TMC3    O1 6022   1.491   2.412   0.055 -0.0912 -0.7114 -0.6155
  399TMC3    O2 6023   1.875   2.832   0.277 -0.2559  0.0875 -0.0565
  400TMC3    C1 6024   0.056   1.097  16.800 -0.6397 -0.1440  0.1413
  400TMC3    C2 6025   4.682   1.014  16.808 -0.3041  0.0357 -0.0907
  400TMC3    C3 6026   4.577   1.046  16.728  0.7644  0.5604  0.3863
  400TMC3    C4 6027   0.064   1.208  16.720 -0.2992 -0.3344  0.1076
  400TMC3    C5 6028   4.693   1.238  16.644  0.0999 -0.1456 -0.1033
  400TMC3    C6 6029   4.584   1.156  16.640  0.3039  0.7354  0.2980
  400TMC3     C 6030   0.174   1.061  16.881 -0.2581 -0.0210  0.0572
  400TMC3     O 6031   0.167   0.955  16.945 -0.0906  0.2887 -0.0307
  400TMC3     H 6032   4.675   0.924  16.869 -0.6692  0.0715 -0.0812
  400TMC3    H1 6033   0.150   1.273  16.712  0.0552 -1.0529 -2.0436
  400TMC3    H2 6034   4.494   1.196  16.595 -0.2684 -0.4884  0.3638
  400TMC3    C7 6035   4.679   1.359  16.567 -0.2622 -0.8013 -0.6588
  400TMC3    C8 6036   4.462   0.961  16.734 -0.4844 -0.5995  0.0229
  400TMC3    O1 6037   4.590   1.361  16.481 -0.4410 -0.3260 -0.1620
  400TMC3    O2 6038   4.418   0.932  16.848  0.3526  0.2879 -0.3345
  401MPD2     C 6039   3.864   0.227   1.547 -0.5424  0.8596 -0.1617
  401MPD2    C1 6040   3.885   0.321   1.446  0.4393 -0.5958  0.2253
  401MPD2    C2 6041   3.803   0.307   1.340  0.6056 -0.2190  0.6943
  401MPD2    C3 6042   3.698   0.211   1.335  0.4397 -0.5320 -0.0201
  401MPD2    C4 6043   3.682   0.117   1.432 -0.4393 -0.0908 -0.3801
  401MPD2    C5 6044   3.774   0.119   1.531  0.5712  0.7012 -0.1658
  401MPD2     H 6045   3.804   0.386   1.266  0.3555 -0.6936  0.1798
  401MPD2    H1 6046   3.605   0.041   1.424 -1.6717  1.0114  1.0032
  401MPD2    H2 6047   3.931   0.210   1.630  0.5608  0.6656 -1.0922
  401MPD2    H3 6048   3.769   0.051   1.616 -2.8892 -0.7237 -1.5229
  401MPD2     N 6049   3.605   0.217   1.232 -0.0244  0.0950  0.4400
  401MPD2    H5 6050   3.532   0.146   1.231 -0.6207  0.6801  2.1784
  401MPD2    N1 6051   3.974   0.430   1.449 -0.3217 -0.1636 -0.3555
  401MPD2    H7 6052   3.985   0.489   1.367 -2.1345 -1.2395 -1.3748
  402TMC3    C1 6053   3.500   0.261   1.023 -0.9589 -0.3010 -0.1737
  402TMC3    C2 6054   3.470   0.124   1.018 -0.2292 -0.2803 -0.0606
  402TMC3    C3 6055   3.394   0.078   0.916  0.0542 -0.0228 -0.3503
  402TMC3    C4 6056   3.451   0.347   0.925 -0.2371 -0.1477 -0.6183
  402TMC3    C5 6057   3.380   0.288   0.822 -0.1464 -0.5833  0.1830
  402TMC3    C6 6058   3.370   0.157   0.810  0.1969  0.2565 -0.2707
  402TMC3     C 6059   3.589   0.308   1.128 -0.3824  0.1920 -0.3368
  402TMC3     O 6060   3.641   0.413   1.105 -0.4404  0.1963  0.5647
  402TMC3     H 6061   3.490   0.054   1.098  1.3111  0.4940  0.2385
  402TMC3    H1 6062   3.464   0.454   0.927 -1.0039 -0.0917  1.1125
  402TMC3    H2 6063   3.322   0.107   0.727 -0.8138 -0.3664  0.7004
  402TMC3    C7 6064   3.329   0.375   0.716  0.0348 -0.2946  0.4272
  402TMC3    C8 6065   3.366   4.672   0.895  0.1363  0.2571 -0.1871
  402TMC3    O1 6066   3.286   0.487   0.748  0.1843  0.3414  0.0849
  402TMC3    O2 6067   3.450   4.604   0.952  0.4402 -1.0584 -0.2294
  403MPD2     C 6068   1.584   2.007  12.777  0.1411  0.3401 -1.2646
  403MPD2    C1 6069   1.542   2.128  12.839  0.1287  0.1651  0.3815
  403MPD2    C2 6070   1.625   2.183  12.933 -0.4370  0.3178 -0.0671
  403MPD2    C3 6071   1.734   2.114  12.980  0.4942 -0.0582 -0.7376
  403MPD2    C4 6072   1.769   1.992  12.929 -0.5029 -0.0193 -0.3708
  403MPD2    C5 6073   1.692   1.941  12.826 -0.2737  0.5428  0.0033
  403MPD2     H 6074   1.608   2.283  12.972 -0.5259  0.3997 -0.3171
  403MPD2    H1 6075   1.850   1.929  12.965  0.1269  0.7093 -0.5069
  403MPD2    H2 6076   1.527   1.953  12.704 -2.1779  1.0935 -0.0135
  403MPD2    H3 6077   1.706   1.841  12.786  2.6964  0.2966  1.5946
  403MPD2     N 6078   1.812   2.185  13.071 -0.0587  0.0948 -0.3798
  403MPD2    H5 6079   1.776   2.271  13.109  0.3181  0.3071 -0.5054
  403MPD2    N1 6080   1.415   2.170  12.797  0.6373 -0.7747 -0.4561
  403MPD2    H7 6081   1.360   2.115  12.732  1.9539  0.6074 -2.7318
  404TMC3    C1 6082   1.213   2.255  12.870  0.2714 -0.2773 -0.7118
  404TMC3    C2 6083   1.167   2.279  12.998  0.8465  0.2419  0.4411
  404TMC3    C3 6084   1.062   2.207  13.054 -0.5487 -0.0461 -0.0822
  404TMC3    C4 6085   1.159   2.151  12.798  0.6129 -0.0837 -0.1028
  404TMC3    C5 6086   1.058   2.079  12.856 -0.5983  0.0800 -0.2721
  404TMC3    C6 6087   1.017   2.105  12.985 -0.1439 -0.2463 -0.1701
  404TMC3     C 6088   1.355   2.281  12.849 -0.1029  0.1937 -0.4021
  404TMC3     O 6089   1.399   2.371  12.919 -0.8524 -0.3343 -0.0411
  404TMC3     H 6090   1.225   2.337  13.069  0.7134  1.2246 -0.2602
  404TMC3    H1 6091   1.180   2.150  12.692  1.0180  3.0958 -0.0601
  404TMC3    H2 6092   0.944   2.038  13.030 -1.0102  0.2046 -0.9012
  404TMC3    C7 6093   0.994   1.972  12.782 -0.2456 -0.6882 -0.3728
  404TMC3    C8 6094   1.078   2.179  13.193 -0.0475  0.7759 -0.5324
  404TMC3    O1 6095   1.068   1.917  12.703 -0.3577  0.5399  0.1435
  404TMC3    O2 6096   1.130   2.072  13.205  0.1289  0.0892 -0.1698
  405MPD2     C 6097   2.076   2.792  15.814 -0.9992  0.1615 -0.3682
  405MPD2    C1 6098   2.015   2.703  15.735 -0.1149 -0.5535 -0.6041
  405MPD2    C2 6099   1.975   2.751  15.609  0.0235  0.2351  0.0616
  405MPD2    C3 6100   1.972   2.880  15.572 -0.1580 -0.0315 -0.0237
  405MPD2    C4 6101   2.029   2.969  15.663 -0.6342 -0.1004  0.0125
  405MPD2    C5 6102   2.096   2.920  15.774  0.3593  0.0859 -0.2082
  405MPD2     H 6103   1.912   2.688  15.548  0.8859 -0.5091 -0.0569
  405MPD2    H1 6104   2.039   3.077  15.654  1.4067 -0.4763 -2.2033
  405MPD2    H2 6105   2.135   2.770  15.903 -1.4643  1.2392  0.2159
  405MPD2    H3 6106   2.149   2.979  15.848 -1.0152 -0.5633  1.2871
  405MPD2     N 6107   1.889   2.925  15.467  0.0541  0.2308  0.5080
  405MPD2    H5 6108   1.830   2.855  15.424  2.0316 -0.8980 -0.3189
  405MPD2    N1 6109   1.982   2.573  15.783  0.6532 -0.1730  0.1373
  405MPD2    H7 6110   2.006   2.546  15.879 -3.3133  0.8701  1.4343
  406TMC3    C1 6111   1.622   3.231  15.215  0.4623 -0.2602  0.1091
  406TMC3    C2 6112   1.512   3.150  15.234 -0.2404 -0.5641  0.4847
  406TMC3    C3 6113   1.532   3.035  15.308  0.9274  0.1046 -0.1117
  406TMC3    C4 6114   1.741   3.203  15.279  0.0275  0.7444  0.5784
  406TMC3    C5 6115   1.760   3.082  15.346 -0.0346 -0.4117  1.0672
  406TMC3    C6 6116   1.655   2.998  15.352  0.2363 -0.0700  0.0819
  406TMC3     C 6117   1.587   3.369  15.209 -0.4889  0.2095 -0.3642
  406TMC3     O 6118   1.641   3.449  15.284  0.0860  0.2327 -0.1647
  406TMC3     H 6119   1.411   3.173  15.202 -1.4053 -2.7864  2.5893
  406TMC3    H1 6120   1.821   3.275  15.287  0.8418 -0.1086  0.1635
  406TMC3    H2 6121   1.657   2.913  15.419 -0.1870  1.0108  1.4605
  406TMC3    C7 6122   1.874   3.059  15.434  0.2317 -0.9436 -0.3553
  406TMC3    C8 6123   1.413   2.946  15.325  1.0045 -0.0801 -0.1180
  406TMC3    O1 6124   1.932   3.158  15.478 -0.4639 -0.1470  0.0941
  406TMC3    O2 6125   1.309   2.988  15.277  0.0234 -0.0392  0.0809
  407MPD2     C 6126   3.890   0.891   9.517  0.0290 -1.0950  0.0754
  407MPD2    C1 6127   4.011   0.927   9.567  0.0707  0.2342 -0.7025
  407MPD2    C2 6128   4.010   0.992   9.684  0.0944 -0.6400  0.2748
  407MPD2    C3 6129   3.890   1.041   9.735 -0.2490 -0.0286 -0.0732
  407MPD2    C4 6130   3.772   1.020   9.673  0.1460 -0.3344  0.0500
  407MPD2    C5 6131   3.772   0.934   9.572  0.0032 -0.2334 -0.1677
  407MPD2     H 6132   4.100   1.016   9.741  0.5113  1.3485 -1.2109
  407MPD2    H1 6133   3.679   1.068   9.703  0.6433 -0.5069  1.8786
  407MPD2    H2 6134   3.876   0.828   9.429  1.4921  0.9798 -1.6500
  407MPD2    H3 6135   3.678   0.918   9.519 -1.3389 -0.6831  2.3362
  407MPD2     N 6136   3.884   1.131   9.842  0.7370 -0.7438  0.2478
  407MPD2    H5 6137   3.793   1.164   9.871  1.0878  1.1184 -0.8180
  407MPD2    N1 6138   4.132   0.883   9.510  0.1707 -0.4288 -0.5770
  407MPD2    H7 6139   4.216   0.918   9.553 -1.5105  0.8578  1.6625
  408TMC3    C1 6140   4.288   0.745   9.408 -0.4028 -0.4593 -0.2779
  408TMC3    C2 6141   4.335   0.607   9.423  0.6541  0.2183  0.1477
  408TMC3    C3 6142   4.471   0.580   9.425 -0.4808 -0.0677  0.0930
  408TMC3    C4 6143   4.379   0.852   9.417 -0.3314  0.3242 -0.3248
  408TMC3    C5 6144   4.509   0.814   9.432 -0.4903 -0.7004 -0.5345
  408TMC3    C6 6145   4.554   0.687   9.421  0.0136  0.3302 -0.0522
  408TMC3     C 6146   4.146   0.778   9.423 -0.0159  0.9943  0.6574
  408TMC3     O 6147   4.068   0.694   9.383  0.0328  0.2970  0.4462
  408TMC3     H 6148   4.263   0.527   9.435 -0.7583  1.3727 -0.6135
  408TMC3    H1 6149   4.351   0.957   9.422  2.1521  0.9126  1.2007
  408TMC3    H2 6150   4.661   0.685   9.410 -0.2666 -0.4056 -2.6490
  408TMC3    C7 6151   4.606   0.912   9.438  0.0055  0.3822 -0.1683
  408TMC3    C8 6152   4.525   0.454   9.462  0.3103  0.2022 -0.0004
  408TMC3    O1 6153   4.714   0.887   9.491 -0.0095 -0.1191  0.1407
  408TMC3    O2 6154   4.461   0.351   9.455  0.4625  0.0819  0.0306
  409MPD2     C 6155   3.583   0.848  16.921 -0.3040 -0.6416  0.1678
  409MPD2    C1 6156   3.695   0.821  16.987  0.2886  0.3239 -0.2555
  409MPD2    C2 6157   3.800   0.903  16.955  0.1476 -0.4088  0.5081
  409MPD2    C3 6158   3.803   0.991  16.855  0.1658  0.1939  0.3327
  409MPD2    C4 6159   3.694   1.013  16.782  0.9033  0.0075 -0.1917
  409MPD2    C5 6160   3.580   0.949  16.821  0.0826  0.2190  0.4645
  409MPD2     H 6161   3.886   0.896  17.020  1.6040  3.0056 -1.0102
  409MPD2    H1 6162   3.689   1.083  16.699 -1.1290 -0.1567 -0.2259
  409MPD2    H2 6163   3.492   0.793  16.940 -0.4878  0.5613  2.7474
  409MPD2    H3 6164   3.486   0.974  16.774  0.3728 -0.4476 -0.4589
  409MPD2     N 6165   3.920   1.049  16.801 -0.0108 -0.3249 -0.6712
  409MPD2    H5 6166   3.905   1.115  16.725 -0.0847  0.1406 -0.2533
  409MPD2    N1 6167   3.721   0.726  17.087 -0.6276  0.5336  0.0152
  409MPD2    H7 6168   3.813   0.726  17.131 -0.7980  2.3882  0.4042
  410TMC3    C1 6169   4.149   1.138  16.798  0.2457 -1.6574  0.5392
  410TMC3    C2 6170   4.237   1.198  16.879 -0.3517 -0.4258 -0.2671
  410TMC3    C3 6171   4.322   1.299  16.831  0.1987  0.2955  0.0975
  410TMC3    C4 6172   4.150   1.159  16.662 -0.2367 -0.0982 -0.3263
  410TMC3    C5 6173   4.224   1.264  16.609 -0.0651  0.3606  0.6171
  410TMC3    C6 6174   4.312   1.327  16.695 -0.3121 -0.3793  0.3622
  410TMC3     C 6175   4.050   1.046  16.858  1.0214  0.2703  0.4305
  410TMC3     O 6176   4.091   0.996  16.961  0.4876  0.4572  0.0739
  410TMC3     H 6177   4.232   1.182  16.987 -0.4775  0.2159 -0.1789
  410TMC3    H1 6178   4.092   1.104  16.588 -1.1239  1.4070 -0.7546
  410TMC3    H2 6179   4.376   1.395  16.641 -0.0007 -0.4483  0.6453
  410TMC3    C7 6180   4.242   1.263  16.465  0.1903  0.6770 -0.5659
  410TMC3    C8 6181   4.441   1.334  16.898  0.1186  0.1690  0.2097
  410TMC3    O1 6182   4.240   1.154  16.407 -0.1875 -0.2535  0.2846
  410TMC3    O2 6183   4.519   1.399  16.834 -0.2884  0.0108 -0.2006
  411MPD2     C 6184   4.467   1.005  14.439 -0.3214 -0.1456 -0.1113
  411MPD2    C1 6185   4.338   1.036  14.442  0.4176  0.1123  0.2877
  411MPD2    C2 6186   4.241   0.937  14.433 -0.3792  0.1485 -1.0062
  411MPD2    C3 6187   4.281   0.802  14.415 -0.7150 -0.0965 -0.8256
  411MPD2    C4 6188   4.417   0.775  14.404 -0.6791 -0.2345 -0.4617
  411MPD2    C5 6189   4.507   0.877  14.411 -0.3502  0.3976 -0.8937
  411MPD2     H 6190   4.138   0.964  14.447 -1.0402 -2.0551 -1.6135
  411MPD2    H1 6191   4.455   0.677  14.376 -1.5193 -0.7838  0.3199
  411MPD2    H2 6192   4.536   1.089  14.445 -0.6482  0.1218 -0.0843
  411MPD2    H3 6193   4.610   0.855  14.386 -0.0242 -0.7636  1.5311
  411MPD2     N 6194   4.188   0.696  14.404  0.1017  0.1406 -0.5835
  411MPD2    H5 6195   4.217   0.606  14.367  0.4271  0.0499 -0.1132
  411MPD2    N1 6196   4.306   1.174  14.440  0.7367 -1.0065 -0.7911
  411MPD2    H7 6197   4.381   1.237  14.465  0.5987 -2.1236  2.4135
  412TMC3    C1 6198   3.979   0.588  14.424  0.2986 -0.2916  0.0907
  412TMC3    C2 6199   3.846   0.595  14.457 -0.0139  0.0027 -0.2403
  412TMC3    C3 6200   3.765   0.484  14.425 -0.1895  0.1071 -0.1159
  412TMC3    C4 6201   4.034   0.485  14.351  0.5324 -0.5445  0.1188
  412TMC3    C5 6202   3.950   0.381  14.324  0.3899  0.0408 -0.3341
  412TMC3    C6 6203   3.823   0.373  14.369 -0.2689 -0.6713  0.0486
  412TMC3     C 6204   4.060   0.703  14.456  0.0857 -0.8511 -0.3112
  412TMC3     O 6205   4.019   0.785  14.534  0.5666  0.5264  0.2768
  412TMC3     H 6206   3.813   0.696  14.479  0.1782 -0.8576  3.8396
  412TMC3    H1 6207   4.129   0.488  14.298  0.6810  2.4529  0.5072
  412TMC3    H2 6208   3.763   0.296  14.323 -0.2103 -1.6324  1.5721
  412TMC3    C7 6209   3.951   0.339  14.186  0.2609 -0.4656  0.6795
  412TMC3    C8 6210   3.644   0.525  14.358 -0.2060 -0.2954 -0.4489
  412TMC3    O1 6211   3.942   0.215  14.169 -0.4788 -0.2011  0.5521
  412TMC3    O2 6212   3.622   0.473  14.248  0.5724  0.1623 -0.7972
  413MPD2     C 6213   0.873   4.585  14.804 -1.0181  0.2899  0.1074
  413MPD2    C1 6214   0.826   4.535  14.925  0.1261 -0.2504  0.5813
  413MPD2    C2 6215   0.913   4.525  15.035 -0.4014  0.6394 -0.2255
  413MPD2    C3 6216   1.043   4.563  15.019 -0.3804 -0.4077  0.0953
  413MPD2    C4 6217   1.089   4.619  14.901  0.1895  1.2111  0.0782
  413MPD2    C5 6218   1.007   4.632  14.793 -0.5422 -0.1527 -0.4896
  413MPD2     H 6219   0.880   4.490  15.132 -1.7288 -0.3565 -1.0341
  413MPD2    H1 6220   1.192   4.647  14.881  0.5345  0.2009  0.4197
  413MPD2    H2 6221   0.813   4.590  14.714  1.1123  0.1539 -1.3014
  413MPD2    H3 6222   1.044   4.679  14.703 -0.0930  0.8182  0.1957
  413MPD2     N 6223   1.139   4.561  15.127  0.2192 -0.5082  0.0979
  413MPD2    H5 6224   1.220   4.622  15.120 -1.1380  1.3712  0.6248
  413MPD2    N1 6225   0.686   4.507  14.928 -0.3063 -0.3792  0.0226
  413MPD2    H7 6226   0.628   4.513  14.845  0.2581 -1.3501 -0.4434
  414TMC3    C1 6227   1.248   4.506  15.338  0.5435  0.3169  0.2123
  414TMC3    C2 6228   1.238   4.441  15.459  0.4303  0.3941 -0.8152
  414TMC3    C3 6229   1.353   4.438  15.541 -0.0901  0.0450 -0.7612
  414TMC3    C4 6230   1.362   4.559  15.293 -0.6511 -0.2333  0.4388
  414TMC3    C5 6231   1.471   4.560  15.381  0.3749 -0.6255 -0.1466
  414TMC3    C6 6232   1.470   4.508  15.508 -0.6101  0.0719 -0.0215
  414TMC3     C 6233   1.127   4.503  15.252  0.0940 -0.3361  0.5006
  414TMC3     O 6234   1.031   4.445  15.300 -0.4929  0.5808  0.6890
  414TMC3     H 6235   1.148   4.394  15.498  0.4687 -0.3896 -1.6801
  414TMC3    H1 6236   1.388   4.585  15.191 -1.5062 -2.5787 -0.3758
  414TMC3    H2 6237   1.567   4.506  15.557 -0.6758  1.7256  0.1702
  414TMC3    C7 6238   1.607   4.567  15.330  0.3522 -0.3792  0.4071
  414TMC3    C8 6239   1.378   4.302  15.572 -0.1433  0.2251  0.6980
  414TMC3    O1 6240   1.684   4.474  15.357  0.1046 -0.2716 -0.0331
  414TMC3    O2 6241   1.286   4.235  15.611  0.3638 -0.2474 -0.1098
  415TMC3    C1 6242   1.466   2.796  10.228 -0.1827  0.0003  0.4049
  415TMC3    C2 6243   1.581   2.831  10.164  1.0207 -0.1589  0.2938
  415TMC3    C3 6244   1.678   2.735  10.156 -0.3621 -0.2853 -0.6016
  415TMC3    C4 6245   1.435   2.665  10.262  0.1883 -0.2975 -0.4618
  415TMC3    C5 6246   1.540   2.574  10.258 -1.0337  0.0125 -1.0600
  415TMC3    C6 6247   1.665   2.610  10.211  0.5991 -0.9733  1.0114
  415TMC3     C 6248   1.406   2.888  10.323  0.6215 -0.1071  0.0006
  415TMC3     O 6249   1.308   2.844  10.379 -0.3644  0.0959  1.1522
  415TMC3     H 6250   1.586   2.927  10.114  0.1042 -1.1484 -1.6571
  415TMC3    H1 6251   1.339   2.643  10.307  0.9224 -0.9282  0.7581
  415TMC3    H2 6252   1.751   2.544  10.218  1.0324 -0.4894  0.2219
  415TMC3    C7 6253   1.539   2.448  10.328 -0.2285 -0.2590  0.4570
  415TMC3    C8 6254   1.797   2.755  10.082  0.5343 -0.0469  0.4031
  415TMC3    O1 6255   1.628   2.368  10.297  0.1010  0.0943 -0.1997
  415TMC3    O2 6256   1.871   2.657  10.071  0.0634 -0.3990  0.4247
  416MPD2     C 6257   3.166   1.432  11.396 -0.1802 -0.2914 -0.3752
  416MPD2    C1 6258   3.067   1.370  11.465 -0.6184 -0.4024 -0.5476
  416MPD2    C2 6259   3.039   1.240  11.435  0.2507 -0.2520  0.2615
  416MPD2    C3 6260   3.109   1.167  11.340 -1.0909 -0.0319 -0.0206
  416MPD2    C4 6261   3.213   1.229  11.277  0.7849 -0.2597  0.4474
  416MPD2    C5 6262   3.238   1.357  11.306  0.0280  0.1579 -0.1159
  416MPD2     H 6263   2.962   1.184  11.485  0.7562 -0.7352  0.4897
  416MPD2    H1 6264   3.281   1.177  11.211  0.4896 -2.4848  1.8863
  416MPD2    H2 6265   3.202   1.534  11.399 -1.4112  0.1092  0.9760
  416MPD2    H3 6266   3.324   1.410  11.269 -0.2463  0.0723 -0.8699
  416MPD2     N 6267   3.053   1.045  11.306 -0.2378 -0.2771  0.2479
  416MPD2    H5 6268   2.981   0.999  11.361 -0.7884 -0.4216 -0.5893
  416MPD2    N1 6269   2.983   1.447  11.554  0.2114  1.0613  0.7350
  416MPD2    H7 6270   3.003   1.545  11.571 -0.0638  1.5686 -1.7537
  417TMC3    C1 6271   2.794   1.518  11.657 -0.0521 -0.2286 -0.4116
  417TMC3    C2 6272   2.863   1.593  11.743 -0.1737  0.1133  0.1335
  417TMC3    C3 6273   2.818   1.705  11.802 -0.4340  0.8372 -0.3161
  417TMC3    C4 6274   2.659   1.547  11.624  0.5185  0.2901  0.3639
  417TMC3    C5 6275   2.621   1.671  11.666  0.7932  0.1630  0.1856
  417TMC3    C6 6276   2.699   1.747  11.746  0.7976 -0.6134  0.6061
  417TMC3     C 6277   2.854   1.416  11.579 -0.0717  0.1371  0.1670
  417TMC3     O 6278   2.782   1.331  11.523  0.1004  0.1391  0.4742
  417TMC3     H 6279   2.954   1.547  11.779 -0.3942  0.5538  1.2469
  417TMC3    H1 6280   2.601   1.483  11.558  0.9881  2.8987 -2.5799
  417TMC3    H2 6281   2.663   1.837  11.793  1.2348 -0.9073  1.5026
  417TMC3    C7 6282   2.505   1.729  11.598  0.0148 -0.9478 -0.1526
  417TMC3    C8 6283   2.845   1.741  11.941 -0.0728  0.4522 -0.7875
  417TMC3    O1 6284   2.519   1.849  11.585  0.5710 -0.4665  0.2673
  417TMC3    O2 6285   2.752   1.786  12.011 -0.2589  0.0403 -0.1510
  418TMC3    C1 6286   2.115   3.742   0.271  0.0249  0.1065  0.1716
  418TMC3    C2 6287   1.992   3.746   0.209 -0.1095  0.4196 -0.2232
  418TMC3    C3 6288   1.890   3.662   0.244 -0.4115 -0.3443  0.0597
  418TMC3    C4 6289   2.134   3.650   0.376  0.4468  0.7120 -0.5255
  418TMC3    C5 6290   2.028   3.573   0.417 -0.5646  0.1596  0.0878
  418TMC3    C6 6291   1.911   3.564   0.343  0.0036 -0.4820  0.1661
  418TMC3     C 6292   2.225   3.765   0.173  0.2319  0.8508  0.8109
  418TMC3     O 6293   2.201   3.826   0.071  0.6287 -0.2396 -0.4753
  418TMC3     H 6294   1.983   3.814   0.125 -2.3609  0.5236  0.1200
  418TMC3    H1 6295   2.225   3.638   0.434 -1.2196  0.4441  2.0272
  418TMC3    H2 6296   1.824   3.502   0.362  1.3921 -2.2266  0.7943
  418TMC3    C7 6297   2.055   3.463   0.506 -0.2559  0.8358 -0.2048
  418TMC3    C8 6298   1.801   3.621   0.135 -0.7717  0.1537  0.0426
  418TMC3    O1 6299   2.166   3.414   0.510  0.3668  0.3765  0.6437
  418TMC3    O2 6300   1.765   3.710   0.061 -0.2488  0.2553 -0.4440
  419MPD2     C 6301   0.794   1.258  12.261  0.5103  0.2737 -0.1109
  419MPD2    C1 6302   0.686   1.347  12.257 -0.0321  0.2946  0.4311
  419MPD2    C2 6303   0.601   1.364  12.371 -0.2982 -0.1628  0.5168
  419MPD2    C3 6304   0.640   1.307  12.487 -0.1428  0.2043 -0.3694
  419MPD2    C4 6305   0.748   1.221  12.487 -0.2918 -0.8201 -0.1482
  419MPD2    C5 6306   0.827   1.201  12.376 -0.6597  0.0773 -0.5166
  419MPD2     H 6307   0.509   1.419  12.356  0.6294  1.1808 -0.3206
  419MPD2    H1 6308   0.763   1.159  12.575 -0.1358  0.4900  0.7552
  419MPD2    H2 6309   0.853   1.233  12.174  0.6588  2.1820 -0.5597
  419MPD2    H3 6310   0.909   1.131  12.383 -1.4371 -0.6497  1.6983
  419MPD2     N 6311   0.575   1.344  12.606 -0.0725  0.0607  0.0470
  419MPD2    H5 6312   0.490   1.398  12.598  0.2259  0.5931  0.4339
  419MPD2    N1 6313   0.658   1.436  12.144  0.0191  0.1950 -0.1987
  419MPD2    H7 6314   0.580   1.502  12.146 -1.6396 -1.7446 -0.5611
  420TMC3    C1 6315   0.518   1.365  12.836 -0.1297 -0.1409 -0.0804
  420TMC3    C2 6316   0.411   1.440  12.800  0.2888 -0.2656  0.1574
  420TMC3    C3 6317   0.350   1.525  12.894 -0.5764  0.5645 -0.6211
  420TMC3    C4 6318   0.561   1.381  12.963  0.5284  0.5472 -0.2439
  420TMC3    C5 6319   0.505   1.468  13.052 -0.1729  0.1136 -0.2224
  420TMC3    C6 6320   0.395   1.539  13.027 -0.0628  0.5655 -0.1058
  420TMC3     C 6321   0.611   1.315  12.741  0.1436 -0.9430 -0.2499
  420TMC3     O 6322   0.710   1.258  12.785  0.4876 -0.4269 -0.1811
  420TMC3     H 6323   0.362   1.427  12.704  0.3335 -0.8661  0.2135
  420TMC3    H1 6324   0.639   1.315  12.998  1.0106  2.2544  1.9216
  420TMC3    H2 6325   0.320   1.565  13.101 -1.0988 -0.1785 -0.8949
  420TMC3    C7 6326   0.549   1.460  13.195  0.6945  0.1257 -0.2326
  420TMC3    C8 6327   0.215   1.565  12.858 -0.3261 -0.3033 -0.4639
  420TMC3    O1 6328   0.566   1.346  13.235 -0.2351 -0.1089 -0.3757
  420TMC3    O2 6329   0.161   1.512  12.762 -0.3437  0.2465  0.6572
  421TMC3    C1 6330   1.974   2.238  13.233  0.0573 -0.3441 -0.4577
  421TMC3    C2 6331   1.919   2.362  13.249  0.3765  0.4045 -0.4935
  421TMC3    C3 6332   1.943   2.426  13.365  0.5549 -0.0730  0.9953
  421TMC3    C4 6333   2.062   2.188  13.330  0.3325  0.1884  0.1262
  421TMC3    C5 6334   2.090   2.263  13.445  0.2428  0.0986  0.3887
  421TMC3    C6 6335   2.034   2.385  13.460  0.6092 -0.2486 -0.2429
  421TMC3     C 6336   1.917   2.141  13.139  0.2740 -0.2834 -0.8737
  421TMC3     O 6337   1.976   2.033  13.121 -0.1930  0.5205  0.2455
  421TMC3     H 6338   1.843   2.395  13.180  0.5831  1.0485 -0.4134
  421TMC3    H1 6339   2.092   2.084  13.326 -1.3106 -0.2765 -0.1633
  421TMC3    H2 6340   2.048   2.449  13.547 -0.5933 -0.3444  0.0252
  421TMC3    C7 6341   2.164   2.219  13.560  0.1132  0.4167  0.2801
  421TMC3    C8 6342   1.882   2.558  13.392 -0.6365 -0.0361 -0.4249
  421TMC3    O1 6343   2.178   2.303  13.648 -0.4531 -0.0210  0.0834
  421TMC3    O2 6344   1.915   2.622  13.489 -0.2477 -0.0633 -0.0979
  422TMC3    C1 6345   4.224   4.364  12.460 -0.2530 -0.1169 -0.1779
  422TMC3    C2 6346   4.202   4.426  12.579  0.1746  0.4052  0.2821
  422TMC3    C3 6347   4.078   4.416  12.642  0.2922  0.4488  0.0319
  422TMC3    C4 6348   4.124   4.294  12.404  0.0663  0.3125 -0.3047
  422TMC3    C5 6349   3.998   4.295  12.460 -0.3361 -0.0937  0.1717
  422TMC3    C6 6350   3.971   4.345  12.585 -0.0178 -0.3208 -0.1321
  422TMC3     C 6351   4.351   4.390  12.393 -0.2000  0.2809 -0.2555
  422TMC3     O 6352   4.416   4.491  12.417 -0.0248  0.1289 -0.2622
  422TMC3     H 6353   4.286   4.478  12.623 -2.0992  2.2612  2.4016
  422TMC3    H1 6354   4.142   4.249  12.307  0.3311 -0.3155  0.0378
  422TMC3    H2 6355   3.869   4.355  12.619  1.0701 -1.4485  3.4547
  422TMC3    C7 6356   3.892   4.238  12.386 -0.7452  0.5075 -0.0777
  422TMC3    C8 6357   4.057   4.467  12.779  0.2419 -0.1738  0.0711
  422TMC3    O1 6358   3.910   4.218  12.267  0.3899 -0.4087  0.3639
  422TMC3    O2 6359   4.137   4.550  12.813 -0.1006  0.1905 -0.9797
  423MPD2     C 6360   0.403   0.250   0.328 -0.0462 -0.5522 -0.6182
  423MPD2    C1 6361   0.494   0.163   0.384 -0.0119  0.0167 -0.2529
  423MPD2    C2 6362   0.572   0.077   0.301 -0.2846  0.1699  0.2785
  423MPD2    C3 6363   0.562   0.098   0.163  0.9396 -0.6458  0.0080
  423MPD2    C4 6364   0.476   0.190   0.109  0.3556  0.6265  0.2526
  423MPD2    C5 6365   0.394   0.262   0.189  0.6093  0.0564 -0.9149
  423MPD2     H 6366   0.634   4.735   0.343  1.0111  0.6507 -0.7292
  423MPD2    H1 6367   0.463   0.204   0.003 -1.7202  0.9909  0.5517
  423MPD2    H2 6368   0.345   0.320   0.389 -0.8352 -1.9901  0.2740
  423MPD2    H3 6369   0.328   0.325   0.131 -0.0297  1.6751  1.6236
  423MPD2     N 6370   0.631   0.019   0.071  0.5035 -0.1016 -0.6303
  423MPD2    H5 6371   0.624   0.056  17.718  0.7917 -0.3465 -0.7487
  423MPD2    N1 6372   0.522   0.165   0.525 -0.2876 -0.2063  0.0395
  423MPD2    H7 6373   0.607   0.118   0.554 -0.9810 -1.7429 -0.4374
  424TMC3    C1 6374   0.514   0.229   0.747  0.1357  0.1476 -0.5955
  424TMC3    C2 6375   0.574   0.107   0.776  0.4735 -0.4675  0.0565
  424TMC3    C3 6376   0.667   0.118   0.879 -0.1983  0.3506  0.5624
  424TMC3    C4 6377   0.543   0.345   0.813  0.1884 -0.3999  0.5296
  424TMC3    C5 6378   0.635   0.343   0.914  0.2238  0.7253 -0.3112
  424TMC3    C6 6379   0.695   0.229   0.950 -0.2043 -0.1475  0.1748
  424TMC3     C 6380   0.465   0.254   0.613 -0.2242  0.7627 -0.0479
  424TMC3     O 6381   0.377   0.339   0.606  0.1941 -0.0609  0.3700
  424TMC3     H 6382   0.572   0.017   0.715 -2.3212 -0.7427  0.5209
  424TMC3    H1 6383   0.497   0.438   0.783 -2.1099 -1.5566  0.4305
  424TMC3    H2 6384   0.756   0.217   1.038 -0.0590 -0.9604 -0.0378
  424TMC3    C7 6385   0.643   0.455   0.999 -0.2163  0.0490  0.1504
  424TMC3    C8 6386   0.750   0.002   0.911  0.2195 -0.5177 -0.1975
  424TMC3    O1 6387   0.739   0.448   1.076 -0.0705  0.1721 -0.4352
  424TMC3    O2 6388   0.864   0.031   0.955  0.2353 -0.6583  0.6690
  425MPD2     C 6389   4.658   4.549  17.292  0.6067 -0.2346 -0.0400
  425MPD2    C1 6390   4.593   4.452  17.224  0.8405 -0.0701 -0.6149
  425MPD2    C2 6391   4.452   4.450  17.230  0.4353  0.4335  0.0711
  425MPD2    C3 6392   4.379   4.546  17.308 -0.5642  0.1776  0.0577
  425MPD2    C4 6393   4.454   4.642  17.373  0.0050 -0.3083 -0.3983
  425MPD2    C5 6394   4.589   4.644  17.361 -0.5033  0.5812 -0.3075
  425MPD2     H 6395   4.397   4.373  17.179  1.6000 -0.4945  0.2022
  425MPD2    H1 6396   4.409   4.720  17.433  1.6018 -0.7291  1.3551
  425MPD2    H2 6397   0.030   4.547  17.295  0.5779  0.2949  1.4722
  425MPD2    H3 6398   4.646   4.728  17.399 -1.8938  1.9867 -1.3523
  425MPD2     N 6399   4.237   4.550  17.306  0.0117  0.5558  0.4545
  425MPD2    H5 6400   4.191   4.476  17.253  2.3530 -1.9090  1.8793
  425MPD2    N1 6401   4.671   4.353  17.167 -0.1625 -0.7966 -0.0402
  425MPD2    H7 6402   0.035   4.364  17.158 -0.4860  2.6162  0.5029
  426TMC3    C1 6403   4.712   4.144  17.078  0.2204 -0.3312 -0.0450
  426TMC3    C2 6404   4.668   4.047  16.990 -1.1943  0.0501 -0.0887
  426TMC3    C3 6405   4.707   3.912  17.002 -0.0892 -1.4712 -0.1004
  426TMC3    C4 6406   0.037   4.108  17.197 -0.4892  0.0497  0.5035
  426TMC3    C5 6407   0.076   3.971  17.209  0.1096 -0.2723 -0.6928
  426TMC3    C6 6408   0.051   3.871  17.108  1.0351  0.3551  0.1626
  426TMC3     C 6409   4.619   4.250  17.096  0.0135  0.0059  0.5689
  426TMC3     O 6410   4.508   4.235  17.051 -0.6221  0.2676  0.2160
  426TMC3     H 6411   4.611   4.078  16.903  0.1407  3.4753  0.2801
  426TMC3    H1 6412   0.053   4.182  17.275 -0.5956  0.0433  0.5321
  426TMC3    H2 6413   0.076   3.767  17.123  2.0035  0.4893 -0.5472
  426TMC3    C7 6414   0.077   3.928  17.348 -0.6224  0.1325  0.7492
  426TMC3    C8 6415   4.640   3.816  16.914 -0.0471  0.1839 -0.2595
  426TMC3    O1 6416   0.142   3.825  17.371  0.0965 -0.4546  0.0309
  426TMC3    O2 6417   4.688   3.702  16.904  0.3375 -0.3146  0.4378
  427MPD2     C 6418   3.087   0.869  14.702  0.3051 -0.3310 -0.0155
  427MPD2    C1 6419   3.132   0.963  14.793  0.1530 -0.3663  0.3578
  427MPD2    C2 6420   3.054   1.081  14.813 -0.3347  0.1843 -0.5839
  427MPD2    C3 6421   2.920   1.101  14.764 -0.1334  0.0601 -0.2095
  427MPD2    C4 6422   2.891   1.007  14.669 -0.1648 -0.0274 -0.6189
  427MPD2    C5 6423   2.971   0.896  14.632 -0.2489  0.0177 -0.3146
  427MPD2     H 6424   3.090   1.149  14.889  0.7848 -0.8372 -0.2145
  427MPD2    H1 6425   2.795   1.011  14.619 -1.0961 -0.9528  1.0791
  427MPD2    H2 6426   3.140   0.776  14.682 -1.9856 -1.4347 -1.0266
  427MPD2    H3 6427   2.943   0.840  14.544 -1.1701  0.4073 -0.2611
  427MPD2     N 6428   2.827   1.210  14.794  0.2752 -0.2240 -0.2261
  427MPD2    H5 6429   2.744   1.226  14.737  1.0213  1.0488 -0.9661
  427MPD2    N1 6430   3.252   0.948  14.865  0.5105 -0.4349  0.1286
  427MPD2    H7 6431   3.270   1.013  14.941  0.4169 -0.8503  0.5062
  428TMC3    C1 6432   3.440   0.846  14.973 -0.5453 -0.3262 -0.2700
  428TMC3    C2 6433   3.481   0.729  15.034 -0.7182 -0.4881  0.4515
  428TMC3    C3 6434   3.520   0.730  15.173  0.2144 -0.3593 -0.5515
  428TMC3    C4 6435   3.456   0.966  15.045 -0.5033  0.2958  0.3388
  428TMC3    C5 6436   3.516   0.960  15.166 -0.1462 -0.1975 -0.6886
  428TMC3    C6 6437   3.540   0.850  15.233 -0.4378  0.3113 -0.3090
  428TMC3     C 6438   3.338   0.839  14.864 -0.1638  0.5743  0.7171
  428TMC3     O 6439   3.332   0.738  14.793  0.3653  0.3517  0.8928
  428TMC3     H 6440   3.473   0.636  14.979  0.7364 -0.0906 -0.4384
  428TMC3    H1 6441   3.423   1.059  15.000  1.3364 -0.1805 -2.0158
  428TMC3    H2 6442   3.591   0.868  15.327  1.1521 -2.3095 -0.6787
  428TMC3    C7 6443   3.537   1.085  15.239 -0.0001  0.2853  0.2215
  428TMC3    C8 6444   3.523   0.606  15.242 -0.1720  0.1269  0.6828
  428TMC3    O1 6445   3.643   1.096  15.295 -0.2644  0.0394  0.0113
  428TMC3    O2 6446   3.531   0.504  15.165 -0.1178 -0.4232  0.4071
  429MPD2     C 6447   4.254   1.706  17.452 -0.3329 -0.1072  0.1016
  429MPD2    C1 6448   4.388   1.653  17.452 -0.1717  0.5307 -0.0089
  429MPD2    C2 6449   4.484   1.727  17.380  0.1492 -0.3748 -0.1330
  429MPD2    C3 6450   4.449   1.843  17.313  0.4871 -0.7414 -0.1546
  429MPD2    C4 6451   4.322   1.899  17.324  0.1935 -0.5458 -0.8071
  429MPD2    C5 6452   4.226   1.825  17.385  0.0255  0.0637  0.4147
  429MPD2     H 6453   4.579   1.682  17.355 -0.1290 -1.5792  0.9708
  429MPD2    H1 6454   4.284   1.984  17.269 -0.6323 -0.2591  0.1946
  429MPD2    H2 6455   4.171   1.659  17.504 -1.0620  1.2367  0.1543
  429MPD2    H3 6456   4.129   1.874  17.384 -1.5345 -3.0249  1.7217
  429MPD2     N 6457   4.549   1.901  17.238 -0.0662 -0.4151 -0.5024
  429MPD2    H5 6458   4.633   1.849  17.212  0.3123  0.5239 -1.1935
  429MPD2    N1 6459   4.411   1.530  17.514 -0.3186 -0.2048 -0.1807
  429MPD2    H7 6460   4.503   1.492  17.494  0.8052  2.2207  0.3268
  430TMC3    C1 6461   4.649   2.082  17.113  0.6802 -0.3501  0.0046
  430TMC3    C2 6462   4.614   2.196  17.037  0.0337  0.6006  0.0576
  430TMC3    C3 6463   4.687   2.229  16.924 -0.4492 -0.3593  0.3223
  430TMC3    C4 6464   0.023   2.004  17.078 -0.5276  0.0685 -0.0195
  430TMC3    C5 6465   0.081   2.035  16.959 -0.5609  0.0743  0.0333
  430TMC3    C6 6466   0.044   2.140  16.876 -0.5868  0.1629 -0.1923
  430TMC3     C 6467   4.537   2.036  17.198  0.1970  0.0335 -0.6727
  430TMC3     O 6468   4.458   2.126  17.236  0.7087  0.2956  0.3371
  430TMC3     H 6469   4.519   2.245  17.051  0.5068  1.2034  1.2341
  430TMC3    H1 6470   0.056   1.913  17.128 -0.3816 -0.7310 -1.5699
  430TMC3    H2 6471   0.099   2.172  16.788 -0.2789  0.8510  0.2499
  430TMC3    C7 6472   0.093   1.917  16.883 -1.0142 -0.8684  1.2492
  430TMC3    C8 6473   4.608   2.268  16.806  0.0466  0.1267  0.5687
  430TMC3    O1 6474   0.144   1.818  16.939 -0.8248  0.1814 -0.5782
  430TMC3    O2 6475   4.629   2.195  16.705  0.1388 -0.2907 -0.5982
  431MPD2     C 6476   0.230   2.182  12.179  0.2389  0.2312  0.0972
  431MPD2    C1 6477   0.219   2.051  12.214 -0.1993 -0.6330  0.0148
  431MPD2    C2 6478   0.263   1.944  12.136  0.5303 -0.7254  0.6580
  431MPD2    C3 6479   0.345   1.982  12.022 -0.1605  0.5074 -0.3238
  431MPD2    C4 6480   0.364   2.120  11.994 -0.8298  0.0345  0.5191
  431MPD2    C5 6481   0.308   2.216  12.073  0.2474 -0.3505  0.5301
  431MPD2     H 6482   0.238   1.841  12.159 -0.0607 -0.3892  1.4951
  431MPD2    H1 6483   0.438   2.148  11.920  0.8921  0.0786  2.2675
  431MPD2    H2 6484   0.178   2.252  12.244 -0.4831  0.4600 -0.7282
  431MPD2    H3 6485   0.317   2.322  12.051 -0.8278 -0.2158  0.7383
  431MPD2     N 6486   0.414   1.889  11.944 -0.9459 -0.2502  0.5482
  431MPD2    H5 6487   0.483   1.937  11.888  0.2715 -2.4824  0.1612
  431MPD2    N1 6488   0.148   2.031  12.334  0.1137 -0.1082  0.4702
  431MPD2    H7 6489   0.103   2.113  12.372  1.0252  0.7367 -0.2707
  432TMC3    C1 6490   0.490   1.686  11.879 -0.5012 -0.6890  0.1039
  432TMC3    C2 6491   0.575   1.759  11.800  0.9896 -0.5630 -0.9626
  432TMC3    C3 6492   0.700   1.708  11.773  0.2966  0.3528 -0.3907
  432TMC3    C4 6493   0.534   1.576  11.948  0.0973  0.4089 -0.0676
  432TMC3    C5 6494   0.662   1.532  11.925  0.4313  0.0057 -0.1923
  432TMC3    C6 6495   0.744   1.594  11.837  0.0225  0.6999 -0.0910
  432TMC3     C 6496   0.387   1.756  11.947 -0.1957 -0.0274 -0.1306
  432TMC3     O 6497   0.295   1.698  12.004 -0.1392 -0.3038  0.0601
  432TMC3     H 6498   0.545   1.840  11.735  2.0660  1.0715  0.5762
  432TMC3    H1 6499   0.457   1.526  12.006 -0.1062  0.4793 -0.2756
  432TMC3    H2 6500   0.844   1.553  11.823  0.1232  0.8066  0.3192
  432TMC3    C7 6501   0.717   1.434  12.024 -0.4816 -0.4191  0.4903
  432TMC3    C8 6502   0.797   1.805  11.721  0.4170 -0.2649  0.1346
  432TMC3    O1 6503   0.803   1.364  11.984 -0.4688 -0.1382 -0.4013
  432TMC3    O2 6504   0.775   1.927  11.723 -0.5716 -0.0989  0.0797
  433MPD2     C 6505   3.970   0.996  10.510 -0.1899  0.6242  0.1622
  433MPD2    C1 6506   4.037   0.898  10.576 -0.1355  0.3847  0.6795
  433MPD2    C2 6507   4.085   0.928  10.697 -0.0791  0.2128  0.0020
  433MPD2    C3 6508   4.051   1.047  10.759 -0.0302  0.2289 -0.0843
  433MPD2    C4 6509   3.980   1.144  10.699 -0.0489 -0.0855 -0.3486
  433MPD2    C5 6510   3.941   1.118  10.565  0.0335 -0.1514  0.5761
  433MPD2     H 6511   4.145   0.862  10.758 -0.2912  0.8646  0.9164
  433MPD2    H1 6512   3.941   1.232  10.748 -2.0500 -2.1134  1.6843
  433MPD2    H2 6513   3.919   0.980  10.415  1.5389 -0.6980 -0.5468
  433MPD2    H3 6514   3.884   1.197  10.519 -2.5917 -2.0096  0.6259
  433MPD2     N 6515   4.098   1.062  10.894  0.5396  0.6815 -0.3278
  433MPD2    H5 6516   4.139   0.978  10.933  1.0894  1.0580 -0.1009
  433MPD2    N1 6517   4.046   0.770  10.527 -0.3057  0.2704  0.0054
  433MPD2    H7 6518   4.005   0.742  10.439  3.3147 -0.3700 -1.4918
  434TMC3    C1 6519   4.120   0.555  10.495 -1.0928  0.1307  0.8642
  434TMC3    C2 6520   4.240   0.487  10.510  0.3741  0.2135 -0.5171
  434TMC3    C3 6521   4.233   0.355  10.499  0.3452 -0.6560 -0.1125
  434TMC3    C4 6522   4.009   0.490  10.454 -0.8852 -0.5923  0.4250
  434TMC3    C5 6523   4.013   0.359  10.425 -0.0840 -0.4749  0.2973
  434TMC3    C6 6524   4.126   0.283  10.453 -0.2068 -0.1040 -0.4270
  434TMC3     C 6525   4.113   0.658  10.592 -0.4384 -1.0090  0.0198
  434TMC3     O 6526   4.152   0.637  10.701 -0.3749 -0.1118 -0.6600
  434TMC3     H 6527   4.318   0.537  10.567 -0.2886 -0.5984  1.0901
  434TMC3    H1 6528   3.918   0.547  10.440 -0.4943 -0.5051 -1.7522
  434TMC3    H2 6529   4.135   0.177  10.436 -1.9020 -0.4637  0.8247
  434TMC3    C7 6530   3.895   0.298  10.366  0.3859  0.1033  0.3303
  434TMC3    C8 6531   4.334   0.283  10.580  0.5079 -0.6009 -0.0247
  434TMC3    O1 6532   3.844   0.360  10.272 -0.1496 -0.6126 -0.5336
  434TMC3    O2 6533   4.436   0.344  10.605  0.4091 -0.4500 -0.0381
  435MPD2     C 6534   1.849   0.351  15.318 -0.6234  0.0360  0.6953
  435MPD2    C1 6535   1.779   0.362  15.435  0.0289 -1.0416 -0.0343
  435MPD2    C2 6536   1.840   0.320  15.550 -0.2644 -0.5148 -0.0887
  435MPD2    C3 6537   1.973   0.278  15.563  0.2129 -0.7188 -0.2819
  435MPD2    C4 6538   2.039   0.260  15.442  0.3311 -0.3939  0.6523
  435MPD2    C5 6539   1.977   0.299  15.328  0.2948  0.3238  0.4352
  435MPD2     H 6540   1.778   0.328  15.639 -0.6862 -0.7893 -0.3540
  435MPD2    H1 6541   2.139   0.217  15.444  1.0863  1.3574  0.6760
  435MPD2    H2 6542   1.815   0.382  15.220 -0.9134  0.4716  0.9356
  435MPD2    H3 6543   2.032   0.282  15.237  0.9533 -1.0819  1.0911
  435MPD2     N 6544   2.012   0.228  15.688 -0.0968 -0.0082 -0.0592
  435MPD2    H5 6545   1.953   0.233  15.771 -1.7685  0.0432 -1.2486
  435MPD2    N1 6546   1.641   0.376  15.443 -0.0835 -0.2912 -0.0009
  435MPD2    H7 6547   1.604   0.378  15.538  0.8556 -0.9213  0.3741
  436TMC3    C1 6548   1.270   0.468  15.543 -0.2772 -0.4698 -0.2365
  436TMC3    C2 6549   1.403   0.467  15.503  0.1968  0.4853  0.3570
  436TMC3    C3 6550   1.432   0.437  15.375 -0.7064 -0.0327 -0.0538
  436TMC3    C4 6551   1.170   0.441  15.453  0.0767 -0.6753 -1.1849
  436TMC3    C5 6552   1.201   0.417  15.323  0.0776 -0.0247 -0.1416
  436TMC3    C6 6553   1.328   0.410  15.286  0.9893  0.2842 -0.0060
  436TMC3     C 6554   1.227   0.521  15.664 -0.5191  0.8193  0.0392
  436TMC3     O 6555   1.128   0.468  15.714 -0.3491  0.8415 -0.8835
  436TMC3     H 6556   1.473   0.481  15.585  1.4223  0.4552 -0.6936
  436TMC3    H1 6557   1.067   0.463  15.481  0.4039 -0.5202 -0.1032
  436TMC3    H2 6558   1.354   0.386  15.183 -0.8001 -1.2651 -0.0936
  436TMC3    C7 6559   1.106   0.366  15.220 -0.3922 -0.6232  0.0499
  436TMC3    C8 6560   1.563   0.405  15.332 -0.5696  0.0542  0.2965
  436TMC3    O1 6561   1.158   0.329  15.115 -0.5291 -0.5757 -0.3941
  436TMC3    O2 6562   1.589   0.420  15.213 -0.2659  0.4242  0.4053
  437TMC3    C1 6563   4.285   2.397  13.249  0.1860 -0.1771  0.5090
  437TMC3    C2 6564   4.172   2.462  13.295  0.3476 -0.4978  0.0684
  437TMC3    C3 6565   4.125   2.564  13.223  0.0349  0.5606 -0.1582
  437TMC3    C4 6566   4.351   2.438  13.134 -0.0433 -0.1420 -0.1008
  437TMC3    C5 6567   4.292   2.546  13.062 -0.0869  0.4673  0.3491
  437TMC3    C6 6568   4.182   2.611  13.108 -0.7320  0.0456 -0.0601
  437TMC3     C 6569   4.334   2.298  13.339 -0.0551  0.4423 -0.2887
  437TMC3     O 6570   4.256   2.293  13.433  0.7300 -0.2200  0.2495
  437TMC3     H 6571   4.101   2.428  13.370 -0.5508 -0.0888 -0.5961
  437TMC3    H1 6572   4.440   2.388  13.098 -0.1786  0.1196 -0.7986
  437TMC3    H2 6573   4.138   2.693  13.052 -3.1057 -1.2160 -0.0411
  437TMC3    C7 6574   4.371   2.631  12.971 -0.0731  0.0835 -0.3254
  437TMC3    C8 6575   4.013   2.649  13.282  0.8306 -0.3829 -0.3756
  437TMC3    O1 6576   4.334   2.740  12.951  0.4396 -0.0357  0.5245
  437TMC3    O2 6577   3.966   2.611  13.387  0.1166  0.2472  0.0498
  438MPD2     C 6578   2.222   3.150  16.553 -0.4212  0.3107 -0.1083
  438MPD2    C1 6579   2.330   3.106  16.618  0.3314 -0.2612 -0.0373
  438MPD2    C2 6580   2.362   3.154  16.748  0.5750 -0.2485 -0.2104
  438MPD2    C3 6581   2.278   3.243  16.813  0.3427 -0.4231  0.0405
  438MPD2    C4 6582   2.170   3.289  16.743  1.0543  0.3634  0.4576
  438MPD2    C5 6583   2.137   3.243  16.612  0.3064  0.2109 -0.5031
  438MPD2     H 6584   2.456   3.116  16.785 -0.0474 -0.2107  1.3885
  438MPD2    H1 6585   2.103   3.366  16.779  0.3525 -0.8515  1.7088
  438MPD2    H2 6586   2.188   3.121  16.454 -1.2790  2.3447 -0.4107
  438MPD2    H3 6587   2.066   3.293  16.547  1.0635  2.1440  0.1628
  438MPD2     N 6588   2.293   3.283  16.943 -0.4195 -0.5979  0.1648
  438MPD2    H5 6589   2.228   3.350  16.983  1.3016  0.9241  0.3878
  438MPD2    N1 6590   2.413   3.011  16.562  0.0125  0.0278 -0.3207
  438MPD2    H7 6591   2.481   2.969  16.625 -2.9866 -0.4390  2.5917
  439TMC3    C1 6592   2.506   2.857  16.415  0.4339  0.2994 -0.4845
  439TMC3    C2 6593   2.502   2.821  16.280 -0.0235 -0.0482 -0.3791
  439TMC3    C3 6594   2.539   2.689  16.250  0.5797 -0.5484 -0.6467
  439TMC3    C4 6595   2.529   2.764  16.515 -0.4510 -0.6182  0.8383
  439TMC3    C5 6596   2.542   2.633  16.474 -0.4857  0.4927 -0.2177
  439TMC3    C6 6597   2.550   2.597  16.348  0.1221  0.1631 -0.4415
  439TMC3     C 6598   2.407   2.961  16.439 -0.3609 -0.2653  0.6237
  439TMC3     O 6599   2.338   2.996  16.343  0.5097 -0.6826  0.3712
  439TMC3     H 6600   2.485   2.895  16.203  2.0831  1.5950  0.7217
  439TMC3    H1 6601   2.521   2.786  16.621  1.6502  0.2336  0.8256
  439TMC3    H2 6602   2.576   2.496  16.320  0.3406  0.3026 -0.7413
  439TMC3    C7 6603   2.562   2.521  16.565 -0.3126 -0.3416 -0.0438
  439TMC3    C8 6604   2.564   2.641  16.118 -0.3302 -0.4059 -0.2231
  439TMC3    O1 6605   2.499   2.424  16.531 -0.3450 -0.4822  0.1654
  439TMC3    O2 6606   2.549   2.520  16.101  0.6091  0.3000  0.2508
  440MPD2     C 6607   0.804   3.578  14.961 -0.0397  0.5352  0.1276
  440MPD2    C1 6608   0.860   3.680  15.032 -0.1910 -0.0316  0.4916
  440MPD2    C2 6609   0.954   3.648  15.127 -0.1325 -0.0746 -0.4257
  440MPD2    C3 6610   0.976   3.516  15.158  0.2093 -0.7732  0.0836
  440MPD2    C4 6611   0.927   3.418  15.076 -0.8190 -0.1303 -0.6073
  440MPD2    C5 6612   0.844   3.449  14.978  0.1040  0.2659 -0.0784
  440MPD2     H 6613   0.984   3.721  15.202  0.1398 -0.7308  0.0995
  440MPD2    H1 6614   0.953   3.315  15.095 -0.2776  0.3589  1.2432
  440MPD2    H2 6615   0.728   3.603  14.889  0.6855  0.5035 -0.6514
  440MPD2    H3 6616   0.801   3.379  14.908  0.6001 -0.4695  0.3529
  440MPD2     N 6617   1.054   3.478  15.268  0.2562  0.5860  0.0830
  440MPD2    H5 6618   1.089   3.383  15.277 -0.1934  0.3906 -0.2551
  440MPD2    N1 6619   0.826   3.815  14.997  1.0057  0.2972 -0.0751
  440MPD2    H7 6620   0.745   3.827  14.937  2.1653  0.5002 -1.5775
  441TMC3    C1 6621   1.233   3.505  15.426  0.0479  0.0543 -0.2099
  441TMC3    C2 6622   1.328   3.598  15.461  0.3946 -0.8042  0.3777
  441TMC3    C3 6623   1.438   3.552  15.525  0.4308  0.2428 -0.7917
  441TMC3    C4 6624   1.241   3.377  15.470  0.0546  0.4801 -0.2184
  441TMC3    C5 6625   1.337   3.342  15.561  0.2306  0.0265 -0.3945
  441TMC3    C6 6626   1.439   3.430  15.587 -0.4222 -0.1555  0.4334
  441TMC3     C 6627   1.120   3.560  15.359  0.0518  0.6525 -0.4890
  441TMC3     O 6628   1.098   3.681  15.379  0.2595  0.2180 -0.5825
  441TMC3     H 6629   1.326   3.698  15.419 -2.0399 -2.1089 -2.6179
  441TMC3    H1 6630   1.157   3.310  15.458  1.3272 -0.8523 -1.8424
  441TMC3    H2 6631   1.514   3.404  15.661 -0.2040 -2.8862 -0.7797
  441TMC3    C7 6632   1.340   3.216  15.627 -0.2118  0.1268  0.2112
  441TMC3    C8 6633   1.546   3.648  15.547 -0.1702  0.2727 -0.4323
  441TMC3    O1 6634   1.235   3.154  15.631  0.3756 -0.0658 -0.1489
  441TMC3    O2 6635   1.662   3.611  15.561 -0.0682 -0.0872 -0.4583
  442MPD2     C 6636   4.477   3.998  16.243 -0.3930 -0.0599 -0.2628
  442MPD2    C1 6637   4.359   3.962  16.299 -0.4355 -0.6676 -0.5857
  442MPD2    C2 6638   4.303   3.846  16.252 -0.6282  0.0823 -0.0844
  442MPD2    C3 6639   4.373   3.770  16.156 -0.0581  0.8783  0.9509
  442MPD2    C4 6640   4.491   3.809  16.107 -0.4723  0.2413  0.2796
  442MPD2    C5 6641   4.545   3.925  16.147  0.7202 -0.5736 -0.2317
  442MPD2     H 6642   4.203   3.818  16.282 -0.9269 -0.0642 -1.2301
  442MPD2    H1 6643   4.547   3.757  16.030  0.0009 -0.1429  0.8829
  442MPD2    H2 6644   4.521   4.093  16.268  1.5671 -1.0128 -0.0420
  442MPD2    H3 6645   4.639   3.965  16.112  0.3396  0.1630 -0.4145
  442MPD2     N 6646   4.317   3.649  16.114  0.3324  0.7623 -0.1418
  442MPD2    H5 6647   4.378   3.596  16.052 -0.9760 -0.8309 -0.0414
  442MPD2    N1 6648   4.275   4.038  16.385  0.0436 -0.4541 -0.3706
  442MPD2    H7 6649   4.181   4.001  16.392 -0.1905 -0.1858 -2.2061
  443TMC3    C1 6650   4.178   4.241  16.463  0.1155  0.4198  0.1526
  443TMC3    C2 6651   4.134   4.343  16.390 -0.0444 -0.3845 -0.5892
  443TMC3    C3 6652   4.009   4.392  16.410 -0.1623  0.0403 -0.6513
  443TMC3    C4 6653   4.105   4.183  16.557  0.2892 -0.0983  0.0522
  443TMC3    C5 6654   3.984   4.238  16.583 -0.4709  0.4055  0.3894
  443TMC3    C6 6655   3.928   4.333  16.507  0.5222  0.0372 -0.1233
  443TMC3     C 6656   4.290   4.173  16.405  0.0859  0.1167 -0.4347
  443TMC3     O 6657   4.389   4.245  16.380 -0.5516 -0.2638  0.3763
  443TMC3     H 6658   4.179   4.378  16.298  1.7518  2.2972  1.3248
  443TMC3    H1 6659   4.148   4.111  16.625 -0.9892 -0.3361  0.6063
  443TMC3    H2 6660   3.822   4.351  16.490  0.9754  0.9832 -1.9205
  443TMC3    C7 6661   3.894   4.184  16.688 -0.6070  0.6691  0.5845
  443TMC3    C8 6662   3.926   4.402  16.295  0.3765 -0.9033  0.5321
  443TMC3    O1 6663   3.900   4.070  16.739 -0.3113  0.2319 -0.4105
  443TMC3    O2 6664   3.840   4.484  16.301 -0.0860 -0.1015  0.3278
  444MPD2     C 6665   4.199   3.527  17.034  0.0217 -0.1018  0.1831
  444MPD2    C1 6666   4.123   3.415  17.055 -0.7753 -0.7026 -0.2855
  444MPD2    C2 6667   4.173   3.289  17.028 -0.2332 -0.7041  0.6373
  444MPD2    C3 6668   4.297   3.273  16.974 -0.1484  0.3489 -0.5166
  444MPD2    C4 6669   4.373   3.387  16.957  0.1628 -0.0982  0.6377
  444MPD2    C5 6670   4.333   3.510  16.993 -0.0947  0.8021 -0.5872
  444MPD2     H 6671   4.121   3.198  17.058 -0.1967 -0.5815  1.0808
  444MPD2    H1 6672   4.478   3.378  16.930  0.4562  2.1636  0.9617
  444MPD2    H2 6673   4.166   3.628  17.052  1.0693  0.0328  1.3653
  444MPD2    H3 6674   4.402   3.593  16.982 -0.0471  1.0977  2.0478
  444MPD2     N 6675   4.349   3.144  16.960 -0.0058  0.0227  0.0908
  444MPD2    H5 6676   4.301   3.068  17.008  0.9628  0.3540  1.5914
  444MPD2    N1 6677   3.989   3.421  17.104  0.0206  0.7182 -0.5629
  444MPD2    H7 6678   3.946   3.333  17.132  0.2984  0.3604 -1.2689
  445TMC3    C1 6679   4.510   2.990  16.874  0.8743  0.1393 -0.3425
  445TMC3    C2 6680   4.526   2.914  16.985  0.1214  0.1574 -0.7082
  445TMC3    C3 6681   4.594   2.795  16.964  0.0341 -0.0114  0.6331
  445TMC3    C4 6682   4.558   2.960  16.753  0.3233  0.5869 -0.1039
  445TMC3    C5 6683   4.630   2.848  16.739  0.6825 -0.2858 -0.3114
  445TMC3    C6 6684   4.653   2.764  16.840 -0.9570 -0.0894  0.9509
  445TMC3     C 6685   4.462   3.124  16.885  0.1321 -0.2392  0.0117
  445TMC3     O 6686   4.501   3.199  16.794  0.2348 -0.5514  0.1787
  445TMC3     H 6687   4.472   2.945  17.074  0.0974  0.9354 -0.9927
  445TMC3    H1 6688   4.551   3.023  16.666  2.6613  2.4391  1.0522
  445TMC3    H2 6689   4.713   2.674  16.832  0.5560  0.8217  2.0455
  445TMC3    C7 6690   4.732   2.842  16.632 -0.1308  0.3929 -0.6934
  445TMC3    C8 6691   4.585   2.688  17.057 -0.4117  0.2020 -0.2733
  445TMC3    O1 6692   0.098   2.781  16.658  0.6471 -0.2131  0.2016
  445TMC3    O2 6693   4.630   2.582  17.012 -0.3175  0.2607  0.3988
  446MPD2     C 6694   4.051   0.186  11.069  0.1086 -0.0891  0.2597
  446MPD2    C1 6695   4.006   0.275  10.977 -0.3256 -0.4429 -0.8712
  446MPD2    C2 6696   4.093   0.377  10.928  1.3010  0.8317  0.2101
  446MPD2    C3 6697   4.227   0.377  10.965  0.0879  0.0026 -0.5862
  446MPD2    C4 6698   4.269   0.287  11.055  0.3810  0.2678  1.1361
  446MPD2    C5 6699   4.183   0.194  11.102  0.4510 -0.2966  1.1059
  446MPD2     H 6700   4.040   0.450  10.868  1.0646  0.3969 -0.1076
  446MPD2    H1 6701   4.372   0.291  11.089  1.2640  0.6598 -1.5999
  446MPD2    H2 6702   3.987   0.111  11.113 -0.6619  0.4392  0.0316
  446MPD2    H3 6703   4.236   0.122  11.163  1.3026 -2.1734 -1.8750
  446MPD2     N 6704   4.319   0.452  10.887  0.4392 -0.1481 -0.4879
  446MPD2    H5 6705   4.270   0.500  10.811  1.8328 -2.4929 -2.8655
  446MPD2    N1 6706   3.880   0.262  10.913  0.1456  0.4132 -0.4647
  446MPD2    H7 6707   3.839   0.338  10.859  0.9509 -0.7585 -2.7209
  447TMC3    C1 6708   4.538   0.528  10.810  0.2807  0.9416  0.2372
  447TMC3    C2 6709   4.492   0.646  10.761 -0.6155 -0.5287  0.2953
  447TMC3    C3 6710   4.575   0.722  10.683  1.0103  0.1089  0.1918
  447TMC3    C4 6711   4.677   0.509  10.818 -0.5162  1.0514  0.2701
  447TMC3    C5 6712   0.026   0.603  10.763  0.2265 -0.3985 -0.0716
  447TMC3    C6 6713   4.714   0.701  10.683  0.0301 -0.1545  0.0492
  447TMC3     C 6714   4.458   0.458  10.907 -0.8740  0.1595 -0.2904
  447TMC3     O 6715   4.530   0.397  10.985 -0.5550  0.3830 -0.2586
  447TMC3     H 6716   4.385   0.644  10.747 -0.9199  0.1543  2.4764
  447TMC3    H1 6717   4.713   0.427  10.880  2.2039  0.3731 -2.2021
  447TMC3    H2 6718   0.043   0.768  10.629 -1.4345  1.5327  0.3751
  447TMC3    C7 6719   0.165   0.567  10.779  1.2246 -0.1778  0.5146
  447TMC3    C8 6720   4.509   0.812  10.581 -0.6591 -0.1636  0.1136
  447TMC3    O1 6721   0.197   0.461  10.831 -0.1577 -0.2228 -0.1430
  447TMC3    O2 6722   4.386   0.819  10.599  0.3250  0.0516  0.1812
  448TMC3    C1 6723   2.896   4.434  17.148  0.4263 -0.5635  0.3708
  448TMC3    C2 6724   2.801   4.385  17.059 -0.0657 -0.1412  0.4838
  448TMC3    C3 6725   2.745   4.265  17.090 -0.6423  0.4373 -0.2207
  448TMC3    C4 6726   2.939   4.367  17.254 -0.1344  0.1924  0.0766
  448TMC3    C5 6727   2.879   4.255  17.292  0.6973 -0.2961 -0.1210
  448TMC3    C6 6728   2.777   4.208  17.211  0.8040 -0.5150 -0.5176
  448TMC3     C 6729   2.947   4.572  17.130  0.0768 -0.4685  0.6735
  448TMC3     O 6730   3.052   4.616  17.168  0.0932 -0.6488 -0.5948
  448TMC3     H 6731   2.765   4.443  16.975  2.2322  1.2328  0.4283
  448TMC3    H1 6732   3.019   4.398  17.321 -0.6617  0.9130  0.3696
  448TMC3    H2 6733   2.730   4.115  17.240 -1.0760  0.7476  0.4830
  448TMC3    C7 6734   2.923   4.189  17.407  0.3190  0.0064 -0.3936
  448TMC3    C8 6735   2.691   4.174  16.999 -0.5405 -0.6832 -0.8519
  448TMC3    O1 6736   3.041   4.196  17.447 -0.2255 -0.4892 -0.5033
  448TMC3    O2 6737   2.647   4.069  17.045  0.3033 -0.0359 -0.8732
  449MPD2     C 6738   3.754   2.836  14.147 -0.2928 -0.1558 -0.5714
  449MPD2    C1 6739   3.649   2.907  14.099 -0.1630  0.1638 -0.8939
  449MPD2    C2 6740   3.530   2.840  14.085  0.0183 -0.5507 -0.0503
  449MPD2    C3 6741   3.513   2.715  14.122  0.3396  0.3466 -0.0276
  449MPD2    C4 6742   3.616   2.639  14.183  0.4544 -0.3144  0.5594
  449MPD2    C5 6743   3.738   2.703  14.186  0.1870  1.2147  0.7126
  449MPD2     H 6744   3.444   2.890  14.044  0.5491  0.1479 -0.3071
  449MPD2    H1 6745   3.601   2.535  14.211  0.9042 -1.1905 -2.3876
  449MPD2    H2 6746   3.853   2.880  14.141 -0.0985 -0.4241  0.6481
  449MPD2    H3 6747   3.819   2.652  14.236  1.2428  0.8110 -1.4171
  449MPD2     N 6748   3.381   2.668  14.100 -0.4055  0.2842  0.1941
  449MPD2    H5 6749   3.313   2.738  14.070  0.6319  1.1228 -0.2149
  449MPD2    N1 6750   3.654   3.035  14.049 -0.1077  0.1555  0.6497
  449MPD2    H7 6751   3.569   3.082  14.020 -0.6300 -1.0412  0.2359
  450TMC3    C1 6752   3.710   3.239  13.973  0.1109 -0.0509 -0.0933
  450TMC3    C2 6753   3.747   3.256  13.837 -0.4246 -0.5102 -0.3469
  450TMC3    C3 6754   3.654   3.310  13.754 -0.5480 -0.1008  0.0238
  450TMC3    C4 6755   3.587   3.272  14.016 -0.3104 -0.0083  0.0254
  450TMC3    C5 6756   3.495   3.324  13.929 -0.5548 -0.0826 -0.0342
  450TMC3    C6 6757   3.524   3.350  13.795 -0.2384  0.3516 -0.6161
  450TMC3     C 6758   3.760   3.109  14.020 -0.2222 -0.1172  0.2823
  450TMC3     O 6759   3.884   3.103  14.017  0.5621 -0.3439  0.2367
  450TMC3     H 6760   3.847   3.229  13.805 -1.6955 -4.3588 -1.0788
  450TMC3    H1 6761   3.565   3.239  14.117  1.0805  1.4929  0.8198
  450TMC3    H2 6762   3.456   3.402  13.728 -0.0457  0.4738 -0.7174
  450TMC3    C7 6763   3.373   3.252  13.945  0.2194  0.3768  0.0196
  450TMC3    C8 6764   3.687   3.351  13.616 -0.3434 -0.4491 -0.6479
  450TMC3    O1 6765   3.390   3.147  14.007  0.1905 -0.0342 -0.1371
  450TMC3    O2 6766   3.622   3.439  13.561  0.2614 -0.2150 -0.5377
  451MPD2     C 6767   4.618   1.552   0.795  0.0118 -0.3984 -0.1600
  451MPD2    C1 6768   4.722   1.636   0.772 -0.7867  0.7797 -0.0481
  451MPD2    C2 6769   0.115   1.590   0.764  0.3768 -0.1563  0.2374
  451MPD2    C3 6770   0.134   1.452   0.772 -0.7161 -0.5134  0.0397
  451MPD2    C4 6771   0.027   1.367   0.781  0.3918  0.2146 -0.5059
  451MPD2    C5 6772   4.635   1.418   0.790 -0.8690 -0.1024  0.1583
  451MPD2     H 6773   0.201   1.651   0.739  1.3381 -1.2311  0.8988
  451MPD2    H1 6774   0.029   1.259   0.765 -1.4483 -0.1259  1.5872
  451MPD2    H2 6775   4.513   1.581   0.795  0.2981  0.6641 -1.2512
  451MPD2    H3 6776   4.551   1.350   0.796 -0.2251 -0.8296  0.8969
  451MPD2     N 6777   0.260   1.390   0.753 -0.4845 -0.1394  0.2980
  451MPD2    H5 6778   0.267   1.289   0.762 -0.4354 -0.1949 -0.3570
  451MPD2    N1 6779   4.683   1.774   0.758  0.0720 -0.3377  0.3014
  451MPD2    H7 6780   4.586   1.803   0.770 -0.8318 -4.2335  2.0894
  452TMC3    C1 6781   0.473   1.335   0.716  0.1677 -0.0854 -0.6701
  452TMC3    C2 6782   0.429   1.215   0.662 -0.5934  0.0874 -0.3163
  452TMC3    C3 6783   0.501   1.139   0.572 -0.1036  0.0698  0.6160
  452TMC3    C4 6784   0.598   1.379   0.677  0.7218  0.2561  0.0631
  452TMC3    C5 6785   0.684   1.291   0.608 -0.1113 -0.3411 -0.0787
  452TMC3    C6 6786   0.633   1.174   0.549  0.1061 -0.1489 -0.3231
  452TMC3     C 6787   0.381   1.447   0.732  0.1602  0.0508 -0.7731
  452TMC3     O 6788   0.418   1.564   0.710  0.3648  0.5731  0.4637
  452TMC3     H 6789   0.332   1.176   0.693  0.5799 -1.6862  1.0868
  452TMC3    H1 6790   0.631   1.474   0.720 -0.5950  0.3108  0.9648
  452TMC3    H2 6791   0.704   1.114   0.492 -0.3606  0.7904 -1.8992
  452TMC3    C7 6792   0.813   1.344   0.553 -0.8933  0.8201  0.0359
  452TMC3    C8 6793   0.431   1.030   0.515  0.4129  0.8776  0.5640
  452TMC3    O1 6794   0.864   1.290   0.461 -0.1496  0.3215 -0.2993
  452TMC3    O2 6795   0.311   1.018   0.537 -0.5916  0.4553  0.0392
  453TMC3    C1 6796   1.517   3.597  11.854  0.3467  0.0510  0.3327
  453TMC3    C2 6797   1.451   3.477  11.822 -0.4498  0.6347  0.6887
  453TMC3    C3 6798   1.348   3.489  11.732 -0.0571 -0.0214  0.1991
  453TMC3    C4 6799   1.485   3.717  11.791 -0.5549  0.0754  0.4594
  453TMC3    C5 6800   1.378   3.721  11.704 -0.4834  0.8026  0.3216
  453TMC3    C6 6801   1.303   3.608  11.690 -0.1161 -0.5599  0.1706
  453TMC3     C 6802   1.648   3.585  11.904 -0.2861 -0.1390 -0.5694
  453TMC3     O 6803   1.702   3.687  11.947 -0.7155  0.4422  0.6420
  453TMC3     H 6804   1.463   3.386  11.881 -2.8362  2.0994  3.3928
  453TMC3    H1 6805   1.535   3.811  11.806  0.9124 -0.2795 -2.1603
  453TMC3    H2 6806   1.214   3.605  11.628 -2.0781 -0.4004  3.0033
  453TMC3    C7 6807   1.358   3.840  11.616  0.4662 -0.3194  0.2718
  453TMC3    C8 6808   1.240   3.392  11.744 -0.4245  0.1857 -0.1641
  453TMC3    O1 6809   1.453   3.913  11.594  0.6280 -0.1466 -0.2780
  453TMC3    O2 6810   1.124   3.432  11.744  0.3433  0.3814 -0.3138
  454MPD2     C 6811   0.465   3.142  16.095 -0.0183  0.1067  0.5145
  454MPD2    C1 6812   0.366   3.187  16.004 -0.4174  0.2331 -0.7445
  454MPD2    C2 6813   0.312   3.309  16.039 -0.5176  0.4320 -0.9511
  454MPD2    C3 6814   0.338   3.371  16.155 -0.6940 -0.4942 -0.2555
  454MPD2    C4 6815   0.435   3.323  16.240 -0.0489 -0.3812  0.3004
  454MPD2    C5 6816   0.491   3.206  16.209  0.0600 -0.3742  0.1526
  454MPD2     H 6817   0.240   3.357  15.974 -0.3703  1.9797  0.0430
  454MPD2    H1 6818   0.476   3.380  16.323  0.0737 -0.2613  0.1566
  454MPD2    H2 6819   0.512   3.046  16.079  1.7317  0.9897  0.4107
  454MPD2    H3 6820   0.573   3.169  16.269  0.5471 -0.0563 -0.3123
  454MPD2     N 6821   0.258   3.485  16.202  0.2614 -0.0974 -0.0554
  454MPD2    H5 6822   0.257   3.496  16.303  3.9200 -1.9550  0.2107
  454MPD2    N1 6823   0.328   3.117  15.887  0.0636  0.1022  0.3340
  454MPD2    H7 6824   0.250   3.161  15.839  0.7848  2.7577  1.5876
  455TMC3    C1 6825   0.028   3.535  16.171 -0.0215  0.0088  0.4366
  455TMC3    C2 6826   0.014   3.528  16.307  0.1017 -0.4283 -0.7458
  455TMC3    C3 6827   4.627   3.465  16.344 -0.7437  0.5463  0.4026
  455TMC3    C4 6828   4.689   3.464  16.083  0.6666 -0.2505  0.2996
  455TMC3    C5 6829   4.576   3.397  16.126  0.2403  0.3429 -0.1181
  455TMC3    C6 6830   4.542   3.401  16.257  0.3366  0.4412 -0.4442
  455TMC3     C 6831   0.165   3.546  16.120 -0.4199 -0.1664 -0.3246
  455TMC3     O 6832   0.180   3.567  16.000  0.3686  0.0609 -0.1989
  455TMC3     H 6833   0.072   3.584  16.380  0.6690 -1.3225 -0.5088
  455TMC3    H1 6834   4.722   3.456  15.981  1.2540 -2.1141  0.6289
  455TMC3    H2 6835   4.443   3.372  16.290  0.5747 -1.7960 -1.7246
  455TMC3    C7 6836   4.569   3.261  16.064 -0.2065  0.9779 -0.0238
  455TMC3    C8 6837   4.595   3.490  16.488  0.6526  0.3424  0.9268
  455TMC3    O1 6838   4.657   3.236  15.984 -0.2840 -0.1616  0.3775
  455TMC3    O2 6839   4.695   3.510  16.559 -0.9202  0.2968  0.4520
  456MPD2     C 6840   2.798   3.011  16.104 -0.1820  0.4846 -0.0969
  456MPD2    C1 6841   2.870   2.956  16.209 -0.4133  0.0441  0.2000
  456MPD2    C2 6842   2.850   3.005  16.336 -0.0888 -0.1194  0.4499
  456MPD2    C3 6843   2.751   3.102  16.358  0.1225 -0.5122 -0.6680
  456MPD2    C4 6844   2.663   3.135  16.253 -0.3823 -0.1663 -0.2147
  456MPD2    C5 6845   2.697   3.100  16.122  0.3495 -0.2256  0.6337
  456MPD2     H 6846   2.916   2.988  16.420  1.1589 -0.3477 -0.5884
  456MPD2    H1 6847   2.577   3.198  16.273 -1.3549 -1.4728 -0.2381
  456MPD2    H2 6848   2.826   2.979  16.004 -0.3311 -0.4255  0.1512
  456MPD2    H3 6849   2.646   3.140  16.034  1.9396 -0.7511 -0.5221
  456MPD2     N 6850   2.754   3.170  16.485 -0.0670  0.0134  0.3644
  456MPD2    H5 6851   2.831   3.148  16.546 -1.4994 -2.4040  1.3064
  456MPD2    N1 6852   2.970   2.859  16.175 -0.9869 -0.1484 -0.0189
  456MPD2    H7 6853   2.990   2.854  16.076  3.2833  0.0160  0.8274
  457TMC3    C1 6854   2.718   3.353  16.638  0.3121  0.8083 -0.0125
  457TMC3    C2 6855   2.702   3.492  16.641 -0.0940  0.5640  0.2001
  457TMC3    C3 6856   2.706   3.558  16.759  0.4713 -0.4002 -0.0312
  457TMC3    C4 6857   2.740   3.287  16.759  0.6127 -0.2003 -0.9063
  457TMC3    C5 6858   2.746   3.358  16.884  0.4722 -0.2751  0.4229
  457TMC3    C6 6859   2.737   3.494  16.880 -0.1088 -0.0352 -0.8401
  457TMC3     C 6860   2.685   3.290  16.510  1.0123  0.0330  0.8964
  457TMC3     O 6861   2.607   3.347  16.432  0.2717 -0.3217 -0.0276
  457TMC3     H 6862   2.668   3.539  16.550 -2.5649  1.8910  1.8000
  457TMC3    H1 6863   2.750   3.180  16.766  2.1366 -0.0549 -0.6856
  457TMC3    H2 6864   2.741   3.554  16.971 -0.1606  0.3050 -1.0619
  457TMC3    C7 6865   2.743   3.293  17.009  0.0824 -0.3410 -0.8496
  457TMC3    C8 6866   2.686   3.704  16.777 -0.1269  0.7888 -0.2709
  457TMC3    O1 6867   2.788   3.178  17.014  0.0384 -0.3217 -0.2713
  457TMC3    O2 6868   2.663   3.742  16.893 -0.3288  0.5447  0.4997
  458MPD2     C 6869   0.073   2.751  12.750  0.4509 -0.4171 -0.6106
  458MPD2    C1 6870   0.082   2.629  12.806  0.1125  0.8552  0.3838
  458MPD2    C2 6871   4.712   2.569  12.870  0.4344 -0.0541  0.6877
  458MPD2    C3 6872   4.595   2.634  12.877 -0.0999  0.7459  0.2006
  458MPD2    C4 6873   4.572   2.747  12.805  0.0515 -0.1027 -0.4827
  458MPD2    C5 6874   4.679   2.804  12.743  0.1714 -0.5218  0.4786
  458MPD2     H 6875   4.721   2.469  12.912 -1.8951 -0.3675  0.4895
  458MPD2    H1 6876   4.477   2.796  12.790 -0.0932 -0.5492 -1.0130
  458MPD2    H2 6877   0.149   2.807  12.697  0.4939 -0.8006 -0.9551
  458MPD2    H3 6878   4.650   2.885  12.677  0.6554 -1.3761 -0.7815
  458MPD2     N 6879   4.494   2.569  12.951  0.5176  0.0785 -0.4907
  458MPD2    H5 6880   4.521   2.484  12.999 -2.6141 -0.1625  0.8774
  458MPD2    N1 6881   0.212   2.574  12.807 -0.0923  0.2215  0.0521
  458MPD2    H7 6882   0.280   2.634  12.762 -0.2476  0.8860  0.6937
  459TMC3    C1 6883   0.385   2.416  12.861  0.9212  0.2889 -0.0807
  459TMC3    C2 6884   0.461   2.454  12.754  1.0985 -0.1769  0.4176
  459TMC3    C3 6885   0.582   2.386  12.731 -0.9276  0.9047  0.2889
  459TMC3    C4 6886   0.423   2.314  12.943  0.8267  0.2547  0.1006
  459TMC3    C5 6887   0.550   2.266  12.925 -0.5259 -0.0567  0.0983
  459TMC3    C6 6888   0.617   2.285  12.815 -0.2592  0.2044  0.1671
  459TMC3     C 6889   0.245   2.450  12.868  0.0024  0.2768  0.1926
  459TMC3     O 6890   0.180   2.369  12.934 -0.1689 -0.7279 -0.4790
  459TMC3     H 6891   0.436   2.546  12.701  0.2918  0.1325  1.3463
  459TMC3    H1 6892   0.370   2.280  13.031  0.0835 -2.1146 -1.2433
  459TMC3    H2 6893   0.712   2.234  12.807  0.0214  0.6612  0.5512
  459TMC3    C7 6894   0.610   2.187  13.032  0.3999 -0.1478 -0.6331
  459TMC3    C8 6895   0.678   2.440  12.625  0.7133  0.2296  0.2297
  459TMC3    O1 6896   0.698   2.108  12.995 -0.1748 -0.2368  0.2351
  459TMC3    O2 6897   0.656   2.552  12.583  0.1903 -0.4040 -0.4813
  460MPD2     C 6898   4.653   1.069  10.367 -0.0819  0.5581 -0.1180
  460MPD2    C1 6899   4.554   0.992  10.420  0.4812 -0.7006  0.5019
  460MPD2    C2 6900   4.423   1.019  10.381 -0.2186 -0.3080  0.8618
  460MPD2    C3 6901   4.400   1.139  10.309 -0.4903 -0.4471  0.7328
  460MPD2    C4 6902   4.504   1.219  10.260  0.1729 -1.0428 -0.9296
  460MPD2    C5 6903   4.633   1.186  10.296 -0.7030  1.1306 -0.1452
  460MPD2     H 6904   4.350   0.945  10.412 -0.9627  0.1350  0.1656
  460MPD2    H1 6905   4.490   1.309  10.201  0.9242  0.2950  0.9237
  460MPD2    H2 6906   0.022   1.043  10.382 -0.1632 -0.5099 -1.4046
  460MPD2    H3 6907   4.717   1.241  10.255  1.3353 -3.1785 -1.8225
  460MPD2     N 6908   4.264   1.159  10.282 -0.4149 -0.2329  0.3008
  460MPD2    H5 6909   4.195   1.094  10.318  1.5342 -2.0772  0.7044
  460MPD2    N1 6910   4.593   0.893  10.511 -0.2306 -0.1104  0.9522
  460MPD2    H7 6911   4.693   0.876  10.516 -0.2514 -0.9771 -1.4598
  461TMC3    C1 6912   4.081   1.275  10.230  0.1878  0.5282  0.3149
  461TMC3    C2 6913   4.039   1.183  10.136  0.6372  0.1009 -0.0602
  461TMC3    C3 6914   3.949   1.218  10.048  0.1343  0.5881 -0.2855
  461TMC3    C4 6915   4.023   1.394  10.235 -1.3031  0.6753  0.1073
  461TMC3    C5 6916   3.924   1.422  10.146 -0.2880 -0.0418  0.0507
  461TMC3    C6 6917   3.893   1.339  10.046 -0.4444  0.3708  0.7246
  461TMC3     C 6918   4.221   1.281  10.248  0.7221 -0.1061 -0.3735
  461TMC3     O 6919   4.262   1.395  10.250 -0.6352 -0.3684  0.0289
  461TMC3     H 6920   4.090   1.088  10.125  0.6378  0.0967 -0.0186
  461TMC3    H1 6921   4.044   1.472  10.308 -0.5320 -0.8740  1.5264
  461TMC3    H2 6922   3.823   1.364   9.967 -0.0338 -3.4347 -0.8563
  461TMC3    C7 6923   3.896   1.562  10.134  0.3125  0.0294 -0.4024
  461TMC3    C8 6924   3.989   1.173   9.918 -0.1212  0.4881  0.1049
  461TMC3    O1 6925   3.960   1.644  10.203 -0.1448 -0.1777 -0.1730
  461TMC3    O2 6926   4.110   1.147   9.905  0.1580  0.4339 -0.5507
  462TMC3    C1 6927   4.568   1.550   0.437 -0.1061  0.5003  0.7418
  462TMC3    C2 6928   4.694   1.509   0.435  0.6182  0.4597  0.4860
  462TMC3    C3 6929   4.724   1.387   0.382  0.2173  0.4204 -1.2509
  462TMC3    C4 6930   4.464   1.475   0.395  0.0145  0.3479 -0.6665
  462TMC3    C5 6931   4.497   1.355   0.335 -0.5706  0.1689  0.0671
  462TMC3    C6 6932   4.626   1.302   0.329 -0.3342 -0.1197 -0.6138
  462TMC3     C 6933   4.544   1.690   0.439 -0.5373 -0.9224  0.4051
  462TMC3     O 6934   4.438   1.719   0.493  0.3704 -0.4108  0.2250
  462TMC3     H 6935   0.040   1.566   0.476  0.6775  1.6894 -1.3062
  462TMC3    H1 6936   4.366   1.515   0.418 -0.4846  0.5373 -3.0985
  462TMC3    H2 6937   4.637   1.195   0.314  4.0169 -0.1221  2.5473
  462TMC3    C7 6938   4.385   1.268   0.297  0.4190 -0.2381  0.0319
  462TMC3    C8 6939   0.128   1.357   0.383 -0.2987 -0.0748  0.3116
  462TMC3    O1 6940   4.397   1.142   0.293  0.3515 -0.0419 -0.1514
  462TMC3    O2 6941   0.198   1.418   0.459  0.5560 -0.1316  0.5097
  463MPD2     C 6942   1.319   4.494   1.226 -0.1554 -0.3815 -0.0218
  463MPD2    C1 6943   1.220   4.578   1.183 -0.4266  0.3356 -0.4328
  463MPD2    C2 6944   1.249   4.664   1.083 -0.4089  0.3965 -0.6802
  463MPD2    C3 6945   1.377   4.674   1.031  0.9149  0.3766  0.1569
  463MPD2    C4 6946   1.479   4.592   1.080 -0.4798  0.8570 -0.3139
  463MPD2    C5 6947   1.441   4.497   1.169  0.5879 -0.3607 -0.1826
  463MPD2     H 6948   1.163   4.718   1.045 -0.3704  0.7185 -0.3073
  463MPD2    H1 6949   1.575   4.574   1.034  0.3680  0.8596  1.4355
  463MPD2    H2 6950   1.308   4.419   1.304  1.8484 -1.3265 -0.6228
  463MPD2    H3 6951   1.520   4.428   1.199  0.0451 -0.4935  0.9548
  463MPD2     N 6952   1.410   0.027   0.920  0.4112  0.0628  0.2465
  463MPD2    H5 6953   1.493   0.005   0.867  0.0580  0.5273 -0.5096
  463MPD2    N1 6954   1.088   4.585   1.230 -0.2099  0.8402 -0.1137
  463MPD2    H7 6955   1.030   4.664   1.204 -1.7094 -0.0960  0.3759
  464TMC3    C1 6956   0.886   4.530   1.337  0.6440 -0.0867 -0.3769
  464TMC3    C2 6957   0.853   4.666   1.326 -0.0552  0.4864  0.1763
  464TMC3    C3 6958   0.719   4.691   1.309  0.5674 -0.2068 -0.2093
  464TMC3    C4 6959   0.799   4.427   1.341  0.2837  0.7626 -0.7005
  464TMC3    C5 6960   0.667   4.454   1.321  0.0844  1.3098 -0.3962
  464TMC3    C6 6961   0.630   4.582   1.297  0.0985 -0.4229 -0.3356
  464TMC3     C 6962   1.029   4.497   1.315 -0.2200 -0.4365 -0.6031
  464TMC3     O 6963   1.072   4.387   1.356  0.0482  0.1063  0.1141
  464TMC3     H 6964   0.931   0.005   1.339  2.1178 -1.5594 -1.1391
  464TMC3    H1 6965   0.832   4.324   1.340  0.7393  0.9014 -0.2021
  464TMC3    H2 6966   0.527   4.615   1.290  0.5349  1.2047  1.1488
  464TMC3    C7 6967   0.576   4.350   1.329 -0.0380  0.2578 -0.3305
  464TMC3    C8 6968   0.670   0.089   1.334 -0.3748  0.2293 -0.0225
  464TMC3    O1 6969   0.605   4.241   1.379  0.4839 -0.0240 -0.1888
  464TMC3    O2 6970   0.755   0.165   1.379  0.2135 -0.2394  0.4434
  465MPD2     C 6971   2.296   3.470  16.294  0.1440  0.6726 -0.5602
  465MPD2    C1 6972   2.176   3.504  16.360 -0.2937  0.2928 -0.3456
  465MPD2    C2 6973   2.060   3.439  16.321  0.7738  0.5488  0.1434
  465MPD2    C3 6974   2.058   3.372  16.204 -0.0409 -0.3328  0.1793
  465MPD2    C4 6975   2.173   3.360  16.131 -0.1590  0.1706 -0.2638
  465MPD2    C5 6976   2.293   3.395  16.181  0.1572  0.1388  0.0929
  465MPD2     H 6977   1.971   3.453  16.381  1.2665  0.9914  0.7677
  465MPD2    H1 6978   2.169   3.309  16.035  0.0386 -0.1754 -0.0907
  465MPD2    H2 6979   2.392   3.492  16.340 -0.7033  1.4973  0.8330
  465MPD2    H3 6980   2.389   3.366  16.140 -0.7233 -3.1530  0.3365
  465MPD2     N 6981   1.937   3.323  16.165  0.5471 -0.3497 -0.5066
  465MPD2    H5 6982   1.862   3.353  16.227  1.0519 -0.3512  0.1009
  465MPD2    N1 6983   2.176   3.590  16.474 -0.2901  0.3343 -0.3168
  465MPD2    H7 6984   2.096   3.592  16.537 -0.5918 -1.6402 -0.6591
  466TMC3    C1 6985   1.580   3.247  16.182  0.4604 -0.0419 -0.2137
  466TMC3    C2 6986   1.507   3.343  16.116  0.6450 -0.6591  0.8297
  466TMC3    C3 6987   1.563   3.381  15.993  0.0836  0.0658  0.1910
  466TMC3    C4 6988   1.704   3.203  16.152 -0.2506  0.3431 -0.1565
  466TMC3    C5 6989   1.756   3.256  16.036 -0.3030  0.1888 -0.5911
  466TMC3    C6 6990   1.682   3.335  15.951  0.2751  0.4192 -0.5077
  466TMC3     C 6991   1.559   3.248  16.325 -0.0812  0.2505 -0.7678
  466TMC3     O 6992   1.652   3.234  16.405  0.5849 -0.4778 -0.2437
  466TMC3     H 6993   1.410   3.379  16.147 -0.4153 -1.6693 -1.3204
  466TMC3    H1 6994   1.760   3.145  16.224 -0.1873  1.8833  1.0394
  466TMC3    H2 6995   1.728   3.385  15.867  3.5237 -0.6550  0.6447
  466TMC3    C7 6996   1.896   3.282  16.038  0.5065 -0.2518 -0.1208
  466TMC3    C8 6997   1.522   3.516  15.947  0.0506  0.7998 -0.3541
  466TMC3    O1 6998   1.951   3.298  15.927 -0.4832  0.3577  0.1133
  466TMC3    O2 6999   1.560   3.551  15.837  0.5508 -0.1025 -0.3804
  467TMC3    C1 7000   2.923   1.431  13.798  0.3569  0.3607  0.3961
  467TMC3    C2 7001   2.875   1.554  13.796  0.2170  0.1784 -0.5113
  467TMC3    C3 7002   2.744   1.566  13.770 -0.6767  0.1324 -0.5000
  467TMC3    C4 7003   2.847   1.314  13.785  0.5195 -0.5272  0.4275
  467TMC3    C5 7004   2.718   1.327  13.766 -0.0276 -0.3077 -0.2966
  467TMC3    C6 7005   2.663   1.454  13.756  0.0052 -0.0709 -0.7216
  467TMC3     C 7006   3.059   1.424  13.835 -0.1265  0.0975  0.5305
  467TMC3     O 7007   3.103   1.521  13.897  0.0412  0.8701 -0.0695
  467TMC3     H 7008   2.945   1.636  13.807  3.4681 -2.5531 -0.8062
  467TMC3    H1 7009   2.891   1.215  13.788  1.1777 -0.2670 -0.7542
  467TMC3    H2 7010   2.560   1.470  13.728 -0.0124 -1.0532 -1.1883
  467TMC3    C7 7011   2.634   1.213  13.778  0.3682 -0.4220  0.0239
  467TMC3    C8 7012   2.699   1.687  13.714  0.4086 -0.0663  0.2709
  467TMC3    O1 7013   2.690   1.106  13.754  1.1205  0.2748 -0.1520
  467TMC3    O2 7014   2.745   1.786  13.761  0.7137  0.1668 -0.1327
  468MPD2     C 7015   1.333   0.624  10.614 -0.2432 -0.6805  0.0080
  468MPD2    C1 7016   1.464   0.579  10.606  0.5596  0.9200  0.0994
  468MPD2    C2 7017   1.497   0.458  10.546 -0.1194 -0.1632 -0.2473
  468MPD2    C3 7018   1.401   0.372  10.501 -0.1704  0.4740 -0.0573
  468MPD2    C4 7019   1.266   0.411  10.520 -0.7748  0.4199 -0.3292
  468MPD2    C5 7020   1.237   0.541  10.563  0.9089 -0.2958 -0.3353
  468MPD2     H 7021   1.602   0.432  10.538 -0.4841 -0.7698 -3.0674
  468MPD2    H1 7022   1.178   0.348  10.505 -0.8891  0.6835 -0.7778
  468MPD2    H2 7023   1.303   0.723  10.647 -0.0475 -1.0619  1.3168
  468MPD2    H3 7024   1.138   0.585  10.561  0.7699 -0.7210 -3.0898
  468MPD2     N 7025   1.428   0.241  10.459  0.0252 -0.1679  0.0509
  468MPD2    H5 7026   1.352   0.176  10.440 -0.7218  0.3455  1.3004
  468MPD2    N1 7027   1.577   0.651  10.654 -0.0337  0.1210  0.5523
  468MPD2    H7 7028   1.669   0.612  10.637  0.6879  2.2814 -0.3913
  469TMC3    C1 7029   1.686   0.836  10.727 -0.5574  0.2979 -0.5687
  469TMC3    C2 7030   1.792   0.746  10.731  0.0028  0.1063 -0.3164
  469TMC3    C3 7031   1.904   0.774  10.661  0.1615  0.3796 -1.4731
  469TMC3    C4 7032   1.689   0.946  10.650  0.7145 -0.2376  0.5815
  469TMC3    C5 7033   1.805   0.970  10.576 -0.3608  0.6987 -0.5790
  469TMC3    C6 7034   1.910   0.880  10.577  0.2846 -0.1735  0.0406
  469TMC3     C 7035   1.559   0.771  10.731 -0.2235 -0.0605 -0.2768
  469TMC3     O 7036   1.463   0.839  10.772 -0.0828 -0.2776 -0.6144
  469TMC3     H 7037   1.792   0.662  10.799  3.4189  0.8004  0.5452
  469TMC3    H1 7038   1.595   0.999  10.646  1.3405  0.8343  0.0373
  469TMC3    H2 7039   2.005   0.914  10.536  0.6115  0.2767  1.1874
  469TMC3    C7 7040   1.822   1.107  10.540  0.4429  0.4131  0.9800
  469TMC3    C8 7041   2.031   0.703  10.686  0.1492  0.0372  0.1065
  469TMC3    O1 7042   1.909   1.131  10.457  0.1829  0.4917 -0.1616
  469TMC3    O2 7043   2.128   0.711  10.607 -0.4439 -0.5913 -0.6697
  470TMC3    C1 7044   3.481   0.809   0.623  0.3813  0.2288  0.6550
  470TMC3    C2 7045   3.570   0.879   0.701 -0.4535 -0.4551  0.2055
  470TMC3    C3 7046   3.518   0.973   0.786 -0.0898  0.3979  0.5816
  470TMC3    C4 7047   3.346   0.831   0.626 -0.1162  0.2702  0.2247
  470TMC3    C5 7048   3.303   0.910   0.729 -0.4210  0.3082  0.8619
  470TMC3    C6 7049   3.386   0.983   0.810 -0.8341  0.8875 -0.7295
  470TMC3     C 7050   3.531   0.691   0.552 -0.0534  0.0054  0.6544
  470TMC3     O 7051   3.464   0.652   0.458 -0.7793  0.1765 -0.0354
  470TMC3     H 7052   3.675   0.854   0.705  0.2563  2.2383 -2.1270
  470TMC3    H1 7053   3.278   0.773   0.565 -0.5828 -0.6461  1.6352
  470TMC3    H2 7054   3.344   1.049   0.885 -0.0350  1.7493 -1.0540
  470TMC3    C7 7055   3.160   0.907   0.750  0.2369  0.4339 -0.0812
  470TMC3    C8 7056   3.606   1.083   0.837 -0.0368  0.4170  0.6603
  470TMC3    O1 7057   3.097   0.856   0.655 -0.2629 -0.4152 -0.4210
  470TMC3    O2 7058   3.572   1.143   0.938  0.4137  0.1599  0.3435
  471MPD2     C 7059   4.236   2.516  16.547  0.1063  0.1710 -0.3523
  471MPD2    C1 7060   4.299   2.393  16.520 -0.7845 -0.2931 -0.1687
  471MPD2    C2 7061   4.389   2.349  16.612 -0.2635  0.2791  0.1378
  471MPD2    C3 7062   4.430   2.414  16.732 -0.3840  0.6030  0.4887
  471MPD2    C4 7063   4.359   2.530  16.754 -0.7723  0.2518 -0.2834
  471MPD2    C5 7064   4.270   2.582  16.663  1.0886  0.3053 -0.0698
  471MPD2     H 7065   4.442   2.259  16.581  2.7337  2.3809 -0.8832
  471MPD2    H1 7066   4.371   2.588  16.845  1.0348  0.2032 -0.4717
  471MPD2    H2 7067   4.160   2.561  16.484 -0.6756  0.5580  0.8801
  471MPD2    H3 7068   4.231   2.682  16.679 -1.3250 -0.9743  2.1919
  471MPD2     N 7069   4.534   2.375  16.824  0.1181 -0.8373 -0.2575
  471MPD2    H5 7070   4.551   2.427  16.910 -0.4940  0.8719 -1.1641
  471MPD2    N1 7071   4.247   2.302  16.426 -0.0778 -0.4077 -0.5632
  471MPD2    H7 7072   4.305   2.221  16.406  0.5082 -0.7200  2.4187
  472TMC3    C1 7073   4.114   2.206  16.255  0.3822  0.0686 -0.9406
  472TMC3    C2 7074   3.986   2.194  16.207  0.9681  0.4624 -0.0894
  472TMC3    C3 7075   3.948   2.088  16.123 -0.7197 -0.1171  0.2003
  472TMC3    C4 7076   4.204   2.099  16.240 -0.3821 -0.1911 -0.2621
  472TMC3    C5 7077   4.166   1.989  16.160  0.1847  0.4577 -0.4528
  472TMC3    C6 7078   4.037   1.983  16.099 -0.5788  0.2287  0.4053
  472TMC3     C 7079   4.141   2.320  16.340  0.2047 -0.2433 -0.4907
  472TMC3     O 7080   4.074   2.422  16.323 -0.2343  0.3191  0.1798
  472TMC3     H 7081   3.910   2.269  16.226  0.4165  0.4294 -2.1064
  472TMC3    H1 7082   4.309   2.095  16.270 -0.2062  0.0131 -0.8512
  472TMC3    H2 7083   3.998   1.895  16.049  2.2969 -2.0130  2.1124
  472TMC3    C7 7084   4.227   1.862  16.187 -0.4053 -0.4208 -0.1295
  472TMC3    C8 7085   3.802   2.052  16.123 -0.4361  0.5679 -0.3551
  472TMC3    O1 7086   4.297   1.855  16.285  0.0709  0.4607 -0.0728
  472TMC3    O2 7087   3.732   2.069  16.024 -0.5048  0.2638 -0.3479
  473MPD2     C 7088   4.163   4.098  14.548 -0.3227 -1.1042  0.5185
  473MPD2    C1 7089   4.140   4.145  14.418 -0.3234  0.3077 -0.9973
  473MPD2    C2 7090   4.177   4.276  14.395  0.2194 -0.2459 -0.1872
  473MPD2    C3 7091   4.246   4.352  14.490 -0.4495 -0.7091 -0.6114
  473MPD2    C4 7092   4.272   4.295  14.609 -0.7315  0.1900  0.1386
  473MPD2    C5 7093   4.233   4.171  14.639 -0.0888  0.7000 -0.1818
  473MPD2     H 7094   4.143   4.324  14.304 -0.8159  0.9312  0.8261
  473MPD2    H1 7095   4.338   4.340  14.683 -1.2169  0.5030  0.3865
  473MPD2    H2 7096   4.132   4.004  14.592  1.6765 -1.9380  0.1584
  473MPD2    H3 7097   4.255   4.124  14.735 -2.4309  0.1944  0.1076
  473MPD2     N 7098   4.296   4.477  14.456  0.0358 -0.0010 -0.0520
  473MPD2    H5 7099   4.336   4.536  14.529 -0.3375  0.6784 -0.3941
  473MPD2    N1 7100   4.076   4.069  14.319 -0.2749  0.1749 -0.4319
  473MPD2    H7 7101   4.060   4.123  14.234  0.0092 -1.7247 -1.7033
  474TMC3    C1 7102   4.371   4.663  14.333  0.1422  0.1177 -0.7431
  474TMC3    C2 7103   4.328   0.023  14.246  0.3555  0.2491 -0.2414
  474TMC3    C3 7104   4.406   0.130  14.216 -0.9932 -0.4232 -0.0921
  474TMC3    C4 7105   4.500   4.672  14.381 -0.1244  0.5333  0.6673
  474TMC3    C5 7106   4.586   0.041  14.348 -0.2902  0.4438 -0.4547
  474TMC3    C6 7107   4.535   0.143  14.266 -0.6067 -0.1319 -0.2122
  474TMC3     C 7108   4.307   4.526  14.325 -0.7662  0.1782  0.3355
  474TMC3     O 7109   4.264   4.487  14.216  0.3250 -0.1235 -0.0776
  474TMC3     H 7110   4.224   0.012  14.217  0.7134 -0.4767 -1.2599
  474TMC3    H1 7111   4.547   4.593  14.440 -0.0329 -0.6823 -1.0215
  474TMC3    H2 7112   4.601   0.225  14.239 -0.1981  0.0227  1.2479
  474TMC3    C7 7113   4.720   0.052  14.405 -0.3558 -0.9232 -0.1730
  474TMC3    C8 7114   4.350   0.240  14.140 -0.6308  0.1719  0.2981
  474TMC3    O1 7115   0.069   0.098  14.328 -0.1314  1.0062  0.7812
  474TMC3    O2 7116   4.248   0.217  14.073  0.8041  0.3906 -0.0754
  475MPD2     C 7117   2.408   2.907  11.019 -0.4013 -0.9552  0.3803
  475MPD2    C1 7118   2.403   3.043  11.007  0.5181  0.5708  0.3416
  475MPD2    C2 7119   2.282   3.099  10.977 -0.4179 -1.0787 -0.0372
  475MPD2    C3 7120   2.164   3.031  10.969  0.4100 -1.0200 -0.1864
  475MPD2    C4 7121   2.167   2.895  10.992 -0.1336  0.0462 -0.2399
  475MPD2    C5 7122   2.291   2.835  11.006 -0.1409  0.5509  0.1816
  475MPD2     H 7123   2.290   3.207  10.966 -1.0076 -1.3029 -2.5657
  475MPD2    H1 7124   2.070   2.848  10.985 -0.0649 -0.3978  1.6789
  475MPD2    H2 7125   2.500   2.857  11.049  0.9567  1.9746  1.1490
  475MPD2    H3 7126   2.296   2.731  11.036  0.0251  0.5865  0.2805
  475MPD2     N 7127   2.051   3.101  10.931  0.5157 -0.8291 -0.0290
  475MPD2    H5 7128   2.072   3.199  10.914 -1.8405 -0.3783 -0.2798
  475MPD2    N1 7129   2.512   3.128  11.033 -0.1810 -0.1323  0.0247
  475MPD2    H7 7130   2.487   3.226  11.041  1.3852  0.1252  1.8747
  476TMC3    C1 7131   2.734   3.194  11.071 -0.0844 -0.1068 -0.8452
  476TMC3    C2 7132   2.823   3.221  10.975  0.2634 -0.6107 -0.3658
  476TMC3    C3 7133   2.884   3.341  10.976  0.1954  0.4749  0.4108
  476TMC3    C4 7134   2.694   3.278  11.158 -0.1899 -0.4250  0.5865
  476TMC3    C5 7135   2.755   3.398  11.155 -0.0809 -0.4054  0.2267
  476TMC3    C6 7136   2.852   3.444  11.066  0.1633 -0.4648  0.4562
  476TMC3     C 7137   2.645   3.089  11.035 -0.6165  0.0321 -1.1211
  476TMC3     O 7138   2.698   2.984  11.001 -0.2134 -0.1742 -0.5233
  476TMC3     H 7139   2.822   3.154  10.889  0.6942 -0.6106 -0.3681
  476TMC3    H1 7140   2.634   3.244  11.241  0.7344 -0.8571  1.0732
  476TMC3    H2 7141   2.893   3.544  11.070 -0.2720 -0.3712  2.7513
  476TMC3    C7 7142   2.699   3.503  11.247 -0.3137 -0.0892  0.1734
  476TMC3    C8 7143   2.986   3.371  10.880 -0.2467 -0.2174  0.1924
  476TMC3    O1 7144   2.638   3.453  11.342  0.0735 -0.4830  0.4594
  476TMC3    O2 7145   3.035   3.484  10.885  0.3742  0.4631 -0.3557
  477MPD2     C 7146   0.518   0.096  11.634 -0.1491 -0.5265  0.3359
  477MPD2    C1 7147   0.433   0.014  11.570  0.0198  0.3736 -0.3244
  477MPD2    C2 7148   0.397   4.633  11.627  0.1978 -0.6226  0.4324
  477MPD2    C3 7149   0.442   4.605  11.752  0.0250 -0.7556 -0.4185
  477MPD2    C4 7150   0.550   4.672  11.797  0.1463 -0.1621 -0.4661
  477MPD2    C5 7151   0.576   0.060  11.749 -0.4300 -1.4858 -0.2998
  477MPD2     H 7152   0.343   4.555  11.576  0.5731 -0.2829 -0.4946
  477MPD2    H1 7153   0.612   4.646  11.883 -2.0254 -1.3203  0.7579
  477MPD2    H2 7154   0.548   0.195  11.602  0.2115 -0.7593 -0.0559
  477MPD2    H3 7155   0.644   0.128  11.800 -1.4581 -1.7193  1.3622
  477MPD2     N 7156   0.401   4.489  11.810 -0.2037 -0.3106  0.1114
  477MPD2    H5 7157   0.340   4.421  11.765 -0.5523 -0.5630  0.9786
  477MPD2    N1 7158   0.382   0.065  11.449 -0.3370  0.3847 -0.2336
  477MPD2    H7 7159   0.421   0.154  11.419 -0.2333 -0.1963 -1.8024
  478TMC3    C1 7160   0.221   0.074  11.268 -0.2501  0.3539  0.4743
  478TMC3    C2 7161   0.233   0.209  11.269 -0.4227 -0.1162  0.0542
  478TMC3    C3 7162   0.127   0.271  11.208 -0.7098  0.1718 -0.1046
  478TMC3    C4 7163   0.123   0.001  11.206  0.4146 -1.1427  0.0114
  478TMC3    C5 7164   0.033   0.066  11.135 -0.3689 -1.3799 -0.2398
  478TMC3    C6 7165   0.034   0.207  11.127 -0.3769  0.5719 -0.5996
  478TMC3     C 7166   0.289   4.732  11.368 -0.3739  0.2965  0.2939
  478TMC3     O 7167   0.230   4.630  11.395  0.8565  0.2946  0.2495
  478TMC3     H 7168   0.301   0.272  11.326  0.4909 -0.8627 -0.2199
  478TMC3    H1 7169   0.122   4.629  11.215  2.3838 -1.3420 -2.0539
  478TMC3    H2 7170   4.684   0.258  11.084 -1.2958 -0.4434  0.0265
  478TMC3    C7 7171   4.673   4.722  11.063 -0.1186  0.4546  0.6341
  478TMC3    C8 7172   0.146   0.414  11.192  0.6797 -0.4074 -0.9683
  478TMC3    O1 7173   4.654   4.614  11.118 -0.0022 -0.4110  0.4938
  478TMC3    O2 7174   0.255   0.461  11.216  0.2297  0.4314 -0.0318
  479MPD2     C 7175   3.278   1.330  15.342 -0.7334 -0.4810  0.0133
  479MPD2    C1 7176   3.404   1.275  15.328  0.5146  0.3963  0.2580
  479MPD2    C2 7177   3.519   1.347  15.360  0.6810 -0.1475  0.2106
  479MPD2    C3 7178   3.496   1.461  15.435 -0.1546 -0.1552  0.7471
  479MPD2    C4 7179   3.369   1.498  15.470  0.0305  0.1112 -0.6209
  479MPD2    C5 7180   3.263   1.441  15.411  0.3070 -0.3386  0.3421
  479MPD2     H 7181   3.623   1.322  15.343  1.1793  0.9632  1.6356
  479MPD2    H1 7182   3.351   1.586  15.531  1.0032 -0.2391  0.1754
  479MPD2    H2 7183   3.191   1.273  15.308 -1.2267 -0.5174  1.3478
  479MPD2    H3 7184   3.166   1.489  15.425  0.4738 -0.3070  1.4288
  479MPD2     N 7185   3.601   1.545  15.481 -0.1206 -0.3431  0.2912
  479MPD2    H5 7186   3.578   1.614  15.552 -0.5027  1.5457 -1.6975
  479MPD2    N1 7187   3.419   1.152  15.254  0.0725 -0.0855  0.3491
  479MPD2    H7 7188   3.333   1.115  15.214  0.2820 -0.4563  0.2343
  480TMC3    C1 7189   3.928   1.755  15.646 -0.3073 -0.2110  0.3593
  480TMC3    C2 7190   4.050   1.760  15.578 -0.6580  0.3275 -0.0480
  480TMC3    C3 7191   4.050   1.706  15.452 -0.5141 -0.1506 -0.2288
  480TMC3    C4 7192   3.818   1.700  15.590 -0.5960  0.1928 -0.5946
  480TMC3    C5 7193   3.827   1.634  15.467  0.6484 -0.4404 -0.9773
  480TMC3    C6 7194   3.942   1.641  15.393  0.4862 -0.0938  0.2658
  480TMC3     C 7195   3.951   1.754  15.792 -0.1278 -0.8874  0.1915
  480TMC3     O 7196   4.056   1.732  15.842 -0.3100 -0.2260  0.3108
  480TMC3     H 7197   4.135   1.808  15.625 -1.9725  1.8909  0.7309
  480TMC3    H1 7198   3.720   1.693  15.636 -0.2906 -0.7148 -0.0694
  480TMC3    H2 7199   3.944   1.606  15.290  1.4653 -0.6970  0.4901
  480TMC3    C7 7200   3.718   1.552  15.413 -0.7403 -0.0589 -0.6031
  480TMC3    C8 7201   4.163   1.718  15.366 -0.3261 -0.3721  0.1607
  480TMC3    O1 7202   3.723   1.522  15.296  0.3342  0.4926  0.2311
  480TMC3    O2 7203   4.264   1.772  15.413 -0.1785 -0.0915 -0.2840
  481MPD2     C 7204   1.147   1.298  14.312 -1.1925  0.2752 -0.1166
  481MPD2    C1 7205   1.037   1.220  14.311  0.3762 -1.1281 -0.0457
  481MPD2    C2 7206   0.990   1.174  14.431 -0.0057 -0.0487 -0.3197
  481MPD2    C3 7207   1.055   1.196  14.548  0.5007  0.7344  0.1069
  481MPD2    C4 7208   1.178   1.251  14.544 -0.7565 -0.0882 -0.2775
  481MPD2    C5 7209   1.225   1.296  14.424  0.2773 -0.2788  0.2575
  481MPD2     H 7210   0.906   1.105  14.434  0.2440 -0.2518  1.6594
  481MPD2    H1 7211   1.238   1.265  14.633  0.0801 -0.8546 -0.7338
  481MPD2    H2 7212   1.172   1.346  14.218 -2.9349  1.7498  0.1716
  481MPD2    H3 7213   1.319   1.351  14.429  1.1560 -1.6957 -0.9280
  481MPD2     N 7214   1.013   1.158  14.679  0.0479  0.2072  0.1337
  481MPD2    H5 7215   1.068   1.180  14.761  1.1760  0.0261 -0.5754
  481MPD2    N1 7216   0.968   1.219  14.188 -0.0497  0.0133 -0.2311
  481MPD2    H7 7217   0.994   1.295  14.126  0.2741 -0.0753 -0.2055
  482TMC3    C1 7218   0.767   1.178  14.065  0.2005 -0.2103  0.2755
  482TMC3    C2 7219   0.652   1.103  14.072 -0.0848  0.2264 -0.0620
  482TMC3    C3 7220   0.538   1.145  14.013  0.0556 -0.3938  0.0670
  482TMC3    C4 7221   0.773   1.297  13.997  1.3451  0.2094 -0.4484
  482TMC3    C5 7222   0.657   1.324  13.913  0.2295  0.4941 -0.2069
  482TMC3    C6 7223   0.537   1.251  13.925 -0.6006  0.2790  0.3680
  482TMC3     C 7224   0.871   1.130  14.161  0.2433 -0.0662 -0.3317
  482TMC3     O 7225   0.864   1.025  14.220  0.3219 -0.5440  0.6500
  482TMC3     H 7226   0.666   1.006  14.118  0.9524  0.0891 -0.6609
  482TMC3    H1 7227   0.867   1.347  13.978  0.1602  2.3133 -0.7724
  482TMC3    H2 7228   0.459   1.256  13.850  0.0019 -0.4362 -0.2996
  482TMC3    C7 7229   0.650   1.450  13.835 -0.0622  0.2776  0.4979
  482TMC3    C8 7230   0.431   1.043  14.022 -0.3934 -0.1206 -0.2442
  482TMC3    O1 7231   0.704   1.535  13.903  0.6891  0.5739  0.0584
  482TMC3    O2 7232   0.462   0.934  14.067  0.3089 -0.0035 -0.2931
  483TMC3    C1 7233   4.121   0.586   1.553 -0.0958 -0.1025  0.2688
  483TMC3    C2 7234   4.113   0.662   1.440 -0.2593 -0.0551 -0.5336
  483TMC3    C3 7235   4.224   0.718   1.386 -0.4147  0.0994  0.1301
  483TMC3    C4 7236   4.242   0.555   1.608  0.5719  0.4365  0.4734
  483TMC3    C5 7237   4.355   0.599   1.538 -0.1555 -0.4943  1.1849
  483TMC3    C6 7238   4.347   0.694   1.443 -0.2595  0.0467 -0.0911
  483TMC3     C 7239   4.030   0.474   1.568  0.0523  0.0911 -0.4757
  483TMC3     O 7240   4.018   0.431   1.686 -0.5422 -0.0428  0.2305
  483TMC3     H 7241   4.015   0.685   1.399 -0.2035  1.0537 -0.0440
  483TMC3    H1 7242   4.251   0.483   1.688  0.5716 -1.9555 -1.7017
  483TMC3    H2 7243   4.439   0.727   1.395  0.1208 -1.8864 -0.6791
  483TMC3    C7 7244   4.468   0.512   1.504  0.1618  0.5721  0.9960
  483TMC3    C8 7245   4.217   0.721   1.241  0.0724  0.3964 -0.0414
  483TMC3    O1 7246   4.492   0.519   1.384  0.4172 -0.6299 -0.2046
  483TMC3    O2 7247   4.104   0.702   1.205 -0.1592 -0.6026 -0.0084
  484MPD2     C 7248   0.987   2.283  12.495  0.0885  0.5386 -0.5738
  484MPD2    C1 7249   0.908   2.389  12.541  0.7756  0.0019  0.2292
  484MPD2    C2 7250   0.952   2.518  12.538  0.4022 -0.0440  0.4235
  484MPD2    C3 7251   1.073   2.547  12.486 -0.2564  0.0268  0.0070
  484MPD2    C4 7252   1.152   2.440  12.443 -0.2439 -0.6498 -0.4542
  484MPD2    C5 7253   1.109   2.313  12.451  0.0720  0.6753 -0.1800
  484MPD2     H 7254   0.891   2.603  12.567 -0.2442 -0.5977  0.6641
  484MPD2    H1 7255   1.258   2.454  12.427 -0.5435  0.9000 -1.0977
  484MPD2    H2 7256   0.943   2.184  12.482  0.8090  0.0587  0.5841
  484MPD2    H3 7257   1.178   2.231  12.435  1.0692  1.1842  1.4602
  484MPD2     N 7258   1.136   2.668  12.478 -0.1294  0.2656  0.1606
  484MPD2    H5 7259   1.221   2.677  12.423  0.0547  0.3834  0.4684
  484MPD2    N1 7260   0.778   2.350  12.588  0.4691  0.2383  0.0305
  484MPD2    H7 7261   0.776   2.253  12.620 -0.4175 -0.4149 -2.0174
  485TMC3    C1 7262   1.212   2.876  12.566 -0.4944 -0.1222  0.0703
  485TMC3    C2 7263   1.230   2.940  12.682 -0.4372 -0.1681  0.3358
  485TMC3    C3 7264   1.329   3.033  12.691  0.0382  0.6918 -0.7441
  485TMC3    C4 7265   1.292   2.902  12.452  0.1492 -0.3630  0.6793
  485TMC3    C5 7266   1.371   3.014  12.454  0.3237 -0.6115 -0.4377
  485TMC3    C6 7267   1.391   3.076  12.575  0.5488  0.2697  0.5929
  485TMC3     C 7268   1.114   2.771  12.563  0.1116  0.4267 -0.0710
  485TMC3     O 7269   1.031   2.767  12.655 -0.3000 -0.0986  0.2161
  485TMC3     H 7270   1.186   2.892  12.769 -2.1104  1.5322  0.4045
  485TMC3    H1 7271   1.284   2.831  12.371  0.5200  2.6948 -2.0557
  485TMC3    H2 7272   1.455   3.162  12.567  0.0919  0.6445  0.9587
  485TMC3    C7 7273   1.487   3.009  12.375  0.0338  0.3026 -0.4136
  485TMC3    C8 7274   1.428   2.995  12.786  0.1750  0.1297  0.0150
  485TMC3    O1 7275   1.588   3.006  12.443 -0.4146 -0.3840  0.9015
  485TMC3    O2 7276   1.397   2.959  12.899 -0.2084 -0.3073 -0.4316
  486MPD2     C 7277   3.604   1.475  12.740 -0.4797  1.0064  0.5949
  486MPD2    C1 7278   3.472   1.455  12.715  0.0720 -0.4656 -0.3831
  486MPD2    C2 7279   3.387   1.564  12.710 -0.2777  0.7017  0.5706
  486MPD2    C3 7280   3.431   1.698  12.729 -0.0663  0.8767 -0.1547
  486MPD2    C4 7281   3.568   1.718  12.756  0.1387 -0.0639  0.4465
  486MPD2    C5 7282   3.651   1.605  12.757  0.2596  0.1134 -0.3260
  486MPD2     H 7283   3.281   1.540  12.712 -0.5092  1.8178  1.2092
  486MPD2    H1 7284   3.617   1.812  12.779 -1.5541  0.9585 -0.1807
  486MPD2    H2 7285   3.670   1.390  12.747  0.9591  2.0694 -0.1643
  486MPD2    H3 7286   3.755   1.612  12.785 -0.1376  2.1868  0.6456
  486MPD2     N 7287   3.344   1.800  12.728 -0.3137 -0.7830  0.1024
  486MPD2    H5 7288   3.255   1.774  12.688 -0.5693  0.2178  0.0093
  486MPD2    N1 7289   3.417   1.323  12.697  0.4555 -0.7600 -0.1729
  486MPD2    H7 7290   3.486   1.253  12.674  0.0207 -0.9582 -0.8672
  487TMC3    C1 7291   3.271   1.137  12.692  0.2913  0.4752  0.2727
  487TMC3    C2 7292   3.161   1.097  12.622  0.2403 -0.1190 -0.0367
  487TMC3    C3 7293   3.150   0.964  12.601 -0.2088 -0.3520  0.0064
  487TMC3    C4 7294   3.344   1.050  12.771 -0.5759 -0.0687 -0.4083
  487TMC3    C5 7295   3.312   0.920  12.772 -0.3782  0.0964  0.5588
  487TMC3    C6 7296   3.220   0.877  12.681  0.5227  0.0045  0.2339
  487TMC3     C 7297   3.287   1.281  12.703 -0.5561 -0.1275 -0.3854
  487TMC3     O 7298   3.180   1.337  12.721  0.2806  1.2805  0.1506
  487TMC3     H 7299   3.118   1.162  12.546 -0.2501  0.1514  0.4712
  487TMC3    H1 7300   3.417   1.086  12.843  0.2731 -1.1358 -0.7463
  487TMC3    H2 7301   3.197   0.771  12.683  0.6472 -0.0016  1.3590
  487TMC3    C7 7302   3.308   0.881  12.914  0.4907  0.2187 -0.3827
  487TMC3    C8 7303   3.015   0.914  12.594  0.4289  0.1823  0.5911
  487TMC3    O1 7304   3.381   0.934  12.996 -0.4229 -0.3427 -0.7086
  487TMC3    O2 7305   2.988   0.820  12.515  0.7551 -0.0759 -0.1301
  488MPD2     C 7306   3.647   3.195  16.355  0.0899  0.6299 -0.1250
  488MPD2    C1 7307   3.687   3.325  16.355 -0.0794 -0.5741  0.2083
  488MPD2    C2 7308   3.673   3.392  16.471  0.4928  0.2624  0.1789
  488MPD2    C3 7309   3.602   3.344  16.581 -0.7845 -0.6184  0.0776
  488MPD2    C4 7310   3.541   3.221  16.565 -1.3014 -0.0081  0.6746
  488MPD2    C5 7311   3.571   3.146  16.455  0.2025 -0.6896 -0.7629
  488MPD2     H 7312   3.711   3.494  16.471 -4.1202  1.9507  2.3090
  488MPD2    H1 7313   3.480   3.171  16.639 -0.1065 -1.3712  0.7343
  488MPD2    H2 7314   3.670   3.124  16.276  0.4651 -0.6748  1.1680
  488MPD2    H3 7315   3.523   3.050  16.438 -0.3847 -0.2928 -1.3633
  488MPD2     N 7316   3.578   3.425  16.689 -0.4281 -0.3953  0.1044
  488MPD2    H5 7317   3.609   3.521  16.684  0.0253 -0.6012 -0.9942
  488MPD2    N1 7318   3.749   3.397  16.245  0.1622  0.1882  0.2214
  488MPD2    H7 7319   3.786   3.487  16.273 -0.7728  0.3017  1.1436
  489TMC3    C1 7320   3.465   3.504  16.882  0.1483 -0.2120 -0.4513
  489TMC3    C2 7321   3.541   3.617  16.876 -0.3359 -0.4004  0.0618
  489TMC3    C3 7322   3.483   3.729  16.939 -0.3966  0.2733 -0.0935
  489TMC3    C4 7323   3.336   3.501  16.931  0.2414  0.1048 -0.8143
  489TMC3    C5 7324   3.282   3.615  16.991  0.6182  0.7911  0.0976
  489TMC3    C6 7325   3.354   3.733  16.989  0.6234  0.0093  0.4018
  489TMC3     C 7326   3.493   3.392  16.791  0.6152  0.6146  0.2946
  489TMC3     O 7327   3.457   3.281  16.834  0.4016 -0.3513  0.3520
  489TMC3     H 7328   3.642   3.613  16.839 -0.8060 -0.0464 -1.2577
  489TMC3    H1 7329   3.278   3.410  16.935 -2.6417  1.9477 -0.6479
  489TMC3    H2 7330   3.301   3.820  17.026 -0.7759  0.0857 -1.7587
  489TMC3    C7 7331   3.149   3.621  17.046 -0.4566  0.2698  0.6227
  489TMC3    C8 7332   3.556   3.855  16.919 -0.0555 -0.4765  0.2087
  489TMC3    O1 7333   3.067   3.568  16.975  0.1760 -0.3190  0.2469
  489TMC3    O2 7334   3.675   3.837  16.908  0.5290  0.4005  0.1048
  490MPD2     C 7335   4.082   3.434  17.442 -0.3480  0.4125 -0.2926
  490MPD2    C1 7336   4.134   3.322  17.382  0.0211  0.1912 -0.1909
  490MPD2    C2 7337   4.264   3.327  17.338  0.5198  0.3730 -0.3775
  490MPD2    C3 7338   4.335   3.443  17.355 -0.1105  0.3012  0.0054
  490MPD2    C4 7339   4.282   3.555  17.416 -0.6468  0.2957  0.2298
  490MPD2    C5 7340   4.150   3.556  17.454  0.4265  0.0997  0.2123
  490MPD2     H 7341   4.306   3.232  17.306  1.3170  0.8119 -0.6098
  490MPD2    H1 7342   4.340   3.646  17.430 -0.0456  0.3787 -2.6732
  490MPD2    H2 7343   3.985   3.437  17.490 -0.0538  1.7269  0.2184
  490MPD2    H3 7344   4.108   3.646  17.497  2.3839  0.7622  0.7095
  490MPD2     N 7345   4.471   3.467  17.320 -0.3683  0.4093  0.2005
  490MPD2    H5 7346   4.498   3.564  17.327  0.9779  0.1245 -1.0618
  490MPD2    N1 7347   4.060   3.204  17.362  0.1799 -0.5378  0.3190
  490MPD2    H7 7348   4.094   3.118  17.321 -0.8740 -0.2481 -1.1499
  491TMC3    C1 7349   3.909   3.037  17.443  0.4185 -0.0948 -0.0405
  491TMC3    C2 7350   3.989   2.981  17.531  0.7993 -0.4097  0.2074
  491TMC3    C3 7351   3.972   2.848  17.555  0.6205  0.2863 -0.3684
  491TMC3    C4 7352   3.803   2.973  17.383  0.0679  0.0036 -0.4218
  491TMC3    C5 7353   3.794   2.839  17.407  0.6154  0.4880  0.1460
  491TMC3    C6 7354   3.878   2.771  17.494 -1.0543  0.7577  0.1697
  491TMC3     C 7355   3.930   3.178  17.413  1.0122 -0.5232 -0.8667
  491TMC3     O 7356   3.849   3.262  17.449  0.1161 -0.7345 -0.0262
  491TMC3     H 7357   4.060   3.044  17.582  0.8436 -3.5025  3.8856
  491TMC3    H1 7358   3.756   3.031  17.304 -0.8371 -2.6058 -1.8396
  491TMC3    H2 7359   3.861   2.667  17.520  0.4327  0.1236 -1.4313
  491TMC3    C7 7360   3.721   2.755  17.311  1.0961  0.3142  0.1061
  491TMC3    C8 7361   4.059   2.771  17.636 -0.2010  0.0498 -0.1740
  491TMC3    O1 7362   3.759   2.641  17.294 -0.6972  0.6460 -0.1141
  491TMC3    O2 7363   4.062   2.647  17.612  0.4346 -0.1095  0.0793
  492MPD2     C 7364   4.349   3.183  11.665 -0.6307 -0.6397  0.1292
  492MPD2    C1 7365   4.330   3.073  11.579 -0.1489 -1.2317 -0.1943
  492MPD2    C2 7366   4.300   2.947  11.630 -0.4395  0.5732 -0.8855
  492MPD2    C3 7367   4.291   2.928  11.766 -0.0596 -0.1011 -0.0457
  492MPD2    C4 7368   4.307   3.032  11.851 -0.1541 -0.1129  0.8142
  492MPD2    C5 7369   4.340   3.156  11.801 -0.7384  0.2917 -0.0019
  492MPD2     H 7370   4.286   2.863  11.563 -0.8866  1.9238 -2.4953
  492MPD2    H1 7371   4.295   3.020  11.958 -0.3251  0.3246  0.8458
  492MPD2    H2 7372   4.364   3.285  11.630 -0.3110 -0.7942 -0.1916
  492MPD2    H3 7373   4.338   3.241  11.869  1.8634 -0.9020  1.6151
  492MPD2     N 7374   4.254   2.808  11.832  0.2730  0.5988 -0.3233
  492MPD2    H5 7375   4.239   2.808  11.932  1.5196  1.0982 -0.1282
  492MPD2    N1 7376   4.328   3.093  11.440  0.2591 -0.2900  0.4953
  492MPD2    H7 7377   4.356   3.186  11.410 -0.0727 -0.6733 -1.0150
  493TMC3    C1 7378   4.320   3.061  11.213  0.5903  0.1917 -0.0402
  493TMC3    C2 7379   4.407   3.163  11.194  0.7869 -0.0530 -0.5237
  493TMC3    C3 7380   4.414   3.215  11.066 -0.3809  0.4206  0.1710
  493TMC3    C4 7381   4.261   2.991  11.109  0.2128  0.1078  0.3573
  493TMC3    C5 7382   4.274   3.045  10.983 -0.5488  0.6425  0.6511
  493TMC3    C6 7383   4.342   3.163  10.962 -0.5812  0.0001  0.4894
  493TMC3     C 7384   4.309   2.999  11.339  0.8465  0.4946  0.0279
  493TMC3     O 7385   4.262   2.888  11.340  0.8163 -0.2887  0.0387
  493TMC3     H 7386   4.468   3.207  11.272  0.0674  2.8673 -1.6079
  493TMC3    H1 7387   4.209   2.896  11.118 -0.1320  0.0670 -1.8944
  493TMC3    H2 7388   4.344   3.193  10.858  1.0034  0.8340  0.7614
  493TMC3    C7 7389   4.193   2.991  10.874 -0.9421  0.1487  0.0148
  493TMC3    C8 7390   4.519   3.311  11.051 -0.7305  0.3266 -0.1272
  493TMC3    O1 7391   4.159   3.055  10.775  0.4317  0.1581  0.4811
  493TMC3    O2 7392   4.618   3.308  11.122 -0.1577  0.2216 -0.0689
  494TMC3    C1 7393   0.208   4.676   0.191 -0.2050  0.2782 -0.2546
  494TMC3    C2 7394   0.304   4.585   0.224  0.4822 -0.1608 -0.0287
  494TMC3    C3 7395   0.379   4.534   0.122  0.2367  1.0745 -0.3246
  494TMC3    C4 7396   0.205   0.001   0.062  0.6813 -0.4054 -0.2159
  494TMC3    C5 7397   0.287   4.684  17.707 -0.1329  0.1784 -0.5718
  494TMC3    C6 7398   0.373   4.574  17.738  0.1455 -0.1907 -0.0823
  494TMC3     C 7399   0.111   4.722   0.290  0.2405  0.5078  0.9043
  494TMC3     O 7400   0.141   4.703   0.407 -0.2215  0.3247  0.3115
  494TMC3     H 7401   0.315   4.553   0.328  1.4534  1.2253  0.2970
  494TMC3    H1 7402   0.146   0.091   0.048 -0.4254 -0.6051  3.0148
  494TMC3    H2 7403   0.449   4.548  17.665  0.5471  0.5213  0.0859
  494TMC3    C7 7404   0.292   4.733  17.569  0.3712 -0.0418 -0.6897
  494TMC3    C8 7405   0.447   4.407   0.137 -0.1909 -0.3058 -1.0154
  494TMC3    O1 7406   0.374   4.677  17.498  0.2635  0.2125  0.2053
  494TMC3    O2 7407   0.501   4.370   0.032 -0.0573 -0.0239  0.3707
  495TMC3    C1 7408   4.177   1.372  14.425  0.2109 -0.7143  0.3392
  495TMC3    C2 7409   4.064   1.412  14.364 -0.3721  0.3984  0.2576
  495TMC3    C3 7410   3.980   1.495  14.427 -0.3297  0.0963  0.2650
  495TMC3    C4 7411   4.213   1.417  14.552 -0.2180 -1.2540 -0.5594
  495TMC3    C5 7412   4.117   1.488  14.619 -0.1537 -0.0663  0.6230
  495TMC3    C6 7413   4.006   1.534  14.559  0.2645 -0.0349  0.1044
  495TMC3     C 7414   4.186   1.224  14.404  0.5208 -0.0332 -0.1043
  495TMC3     O 7415   4.087   1.168  14.359 -0.1554  0.0232 -0.0328
  495TMC3     H 7416   4.054   1.391  14.258 -0.7731  1.4932  0.0808
  495TMC3    H1 7417   4.308   1.377  14.587 -1.0063 -1.7651  0.9710
  495TMC3    H2 7418   3.933   1.590  14.616 -1.0302 -0.1792 -1.4376
  495TMC3    C7 7419   4.146   1.534  14.755  0.1327 -0.2091 -0.0146
  495TMC3    C8 7420   3.839   1.466  14.414 -0.6327  0.4786  0.9907
  495TMC3    O1 7421   4.052   1.587  14.819  0.2362  0.4863 -0.2060
  495TMC3    O2 7422   3.747   1.540  14.458 -1.1871 -0.1868 -0.6150
  496MPD2     C 7423   1.634   1.977  15.822  0.2702 -0.0859 -0.0673
  496MPD2    C1 7424   1.576   1.961  15.695 -0.0392  0.1018 -0.0954
  496MPD2    C2 7425   1.443   1.951  15.692  0.3737 -0.6171 -0.3466
  496MPD2    C3 7426   1.361   1.957  15.808  0.0713 -0.2181 -0.2538
  496MPD2    C4 7427   1.427   1.995  15.928 -0.3062  0.2590 -0.0005
  496MPD2    C5 7428   1.561   1.992  15.939 -0.5377 -1.2391 -0.1726
  496MPD2     H 7429   1.390   1.940  15.598  0.3611  1.9478 -0.6523
  496MPD2    H1 7430   1.379   2.004  16.025  0.1178  0.8236  0.1545
  496MPD2    H2 7431   1.741   1.990  15.838  0.2721 -0.6261  0.3595
  496MPD2    H3 7432   1.611   2.007  16.034 -0.8331  0.1625 -0.2411
  496MPD2     N 7433   1.226   1.919  15.822 -0.3137  0.2982 -0.1686
  496MPD2    H5 7434   1.180   1.919  15.913  1.1552  0.1447  0.5844
  496MPD2    N1 7435   1.662   1.944  15.588 -0.8900 -0.1364  0.1777
  496MPD2    H7 7436   1.756   1.914  15.612 -1.3072 -1.7445 -0.2375
  497TMC3    C1 7437   1.026   1.820  15.759 -0.1956  0.6940  0.1742
  497TMC3    C2 7438   0.927   1.834  15.672  0.4834  0.6372 -0.2875
  497TMC3    C3 7439   0.802   1.797  15.711  0.7140 -0.1027 -0.0888
  497TMC3    C4 7440   1.012   1.767  15.886  0.3953  0.0089 -0.4100
  497TMC3    C5 7441   0.889   1.704  15.900  0.3505  0.2426  0.0475
  497TMC3    C6 7442   0.786   1.714  15.821 -0.0773 -0.3156  0.0227
  497TMC3     C 7443   1.154   1.866  15.716  0.4641 -0.0983  0.5304
  497TMC3     O 7444   1.185   1.851  15.597  0.0669 -0.2127 -0.2552
  497TMC3     H 7445   0.958   1.886  15.581 -0.6132 -0.1856 -1.1334
  497TMC3    H1 7446   1.099   1.744  15.946  0.5146 -2.4618 -1.5515
  497TMC3    H2 7447   0.691   1.667  15.844 -0.3645  1.3824  2.3769
  497TMC3    C7 7448   0.863   1.609  16.002 -0.0795  0.4345 -0.1751
  497TMC3    C8 7449   0.696   1.821  15.615  0.4378 -0.0742 -0.0408
  497TMC3    O1 7450   0.790   1.517  15.972 -0.2231  0.7271 -0.3206
  497TMC3    O2 7451   0.577   1.842  15.645  0.3586  0.7885  0.8486
  498MPD2     C 7452   2.202   2.976   9.894 -0.3274 -0.0540 -0.1739
  498MPD2    C1 7453   2.117   3.077   9.936 -0.0535  0.8267 -0.1880
  498MPD2    C2 7454   1.989   3.047   9.978  0.3528  0.2688 -0.1295
  498MPD2    C3 7455   1.949   2.916   9.985 -0.1705 -0.3984  1.0370
  498MPD2    C4 7456   2.026   2.823   9.911  0.4461 -0.3763  0.5304
  498MPD2    C5 7457   2.151   2.849   9.863 -0.3828 -0.2656 -0.2502
  498MPD2     H 7458   1.924   3.127  10.012 -0.1236 -1.1133  2.2592
  498MPD2    H1 7459   1.996   2.722   9.886 -0.9954 -0.1715  1.4171
  498MPD2    H2 7460   2.304   3.001   9.866 -0.3606  0.4378  0.1409
  498MPD2    H3 7461   2.217   2.779   9.813 -0.6459  0.0635 -1.0651
  498MPD2     N 7462   1.830   2.882  10.052  0.0589 -0.7717 -0.3033
  498MPD2    H5 7463   1.781   2.956  10.102 -0.9685 -1.8225  0.2469
  498MPD2    N1 7464   2.171   3.206   9.933 -0.8011  0.3312  0.4143
  498MPD2    H7 7465   2.263   3.218   9.892 -1.1277 -0.0732 -0.4218
  499TMC3    C1 7466   2.204   3.431   9.957 -0.2679 -0.3174  0.3579
  499TMC3    C2 7467   2.335   3.418  10.004  0.2512 -0.0344 -0.0257
  499TMC3    C3 7468   2.423   3.517   9.969 -0.0497 -0.2782 -0.0329
  499TMC3    C4 7469   2.160   3.536   9.887  0.4492 -0.3492  0.2303
  499TMC3    C5 7470   2.255   3.632   9.849 -0.3854 -0.5104 -0.0451
  499TMC3    C6 7471   2.391   3.623   9.889 -0.3080 -0.0390  0.3408
  499TMC3     C 7472   2.111   3.321   9.960  0.1006 -0.8851  0.8767
  499TMC3     O 7473   1.992   3.331   9.981  0.8104 -0.0287  0.4086
  499TMC3     H 7474   2.361   3.323  10.049  0.0124  0.4074  1.0240
  499TMC3    H1 7475   2.059   3.519   9.853 -0.2814  0.7612  1.8469
  499TMC3    H2 7476   2.468   3.698   9.875  1.3556 -1.9102 -0.5013
  499TMC3    C7 7477   2.216   3.745   9.763  0.2816 -0.8650  0.4220
  499TMC3    C8 7478   2.563   3.507  10.003 -0.1191 -0.0508  0.5107
  499TMC3    O1 7479   2.303   3.825   9.740  0.2248 -0.0006  0.2240
  499TMC3    O2 7480   2.639   3.553   9.917  0.0688 -0.0691  1.1270
  500MPD2     C 7481   3.234   3.839  10.662 -0.1369  1.1339 -0.0494
  500MPD2    C1 7482   3.274   3.952  10.586 -0.0386  0.1058  0.1333
  500MPD2    C2 7483   3.213   3.969  10.461  0.4714  0.0346  0.6609
  500MPD2    C3 7484   3.135   3.873  10.401  0.6789  0.4390 -0.3589
  500MPD2    C4 7485   3.105   3.757  10.471  0.1964 -0.0621 -0.0474
  500MPD2    C5 7486   3.159   3.740  10.596 -1.0499  0.1441 -0.3230
  500MPD2     H 7487   3.234   4.060  10.406 -0.3768 -0.5123 -0.5699
  500MPD2    H1 7488   3.046   3.679  10.425 -0.3858  1.3192 -1.6345
  500MPD2    H2 7489   3.281   3.799  10.751 -1.9348 -0.8857 -0.0146
  500MPD2    H3 7490   3.125   3.656  10.655 -0.9672 -0.1327 -0.6699
  500MPD2     N 7491   3.088   3.876  10.266  0.0457  0.0392  1.0758
  500MPD2    H5 7492   3.035   3.795  10.234  0.1372  0.6763 -0.6578
  500MPD2    N1 7493   3.346   4.066  10.623  0.0194  0.2937  0.2277
  500MPD2    H7 7494   3.356   4.142  10.557 -2.1495  0.7116  0.3670
  501TMC3    C1 7495   3.512   4.174  10.758 -0.3398 -0.0826  0.6218
  501TMC3    C2 7496   3.512   4.290  10.693  0.3553  0.3500 -0.0849
  501TMC3    C3 7497   3.629   4.361  10.709 -0.2675  0.2618  0.2121
  501TMC3    C4 7498   3.593   4.146  10.863 -0.7280  0.0137 -0.1742
  501TMC3    C5 7499   3.700   4.231  10.887 -0.1812 -0.6079  0.1446
  501TMC3    C6 7500   3.725   4.331  10.799 -0.6560  0.3464  0.1846
  501TMC3     C 7501   3.406   4.077  10.750 -0.2182  0.1767 -0.5265
  501TMC3     O 7502   3.404   3.992  10.835  0.2446  0.2296  0.1625
  501TMC3     H 7503   3.433   4.316  10.623 -0.9810  0.5343  1.4988
  501TMC3    H1 7504   3.580   4.069  10.938 -0.6240  1.0860  0.9398
  501TMC3    H2 7505   3.820   4.381  10.792 -0.3755 -0.5183 -2.2732
  501TMC3    C7 7506   3.813   4.179  10.956  0.0579 -0.2706 -0.0123
  501TMC3    C8 7507   3.649   4.504  10.663 -0.2019  0.2583  0.4008
  501TMC3    O1 7508   3.804   4.064  11.004 -0.3586 -0.1225  0.6716
  501TMC3    O2 7509   3.717   4.576  10.730 -0.3582  0.0742 -0.1280
  502TMC3    C1 7510   3.419   2.177  14.813 -0.4332 -0.2924 -0.6805
  502TMC3    C2 7511   3.410   2.296  14.752  0.5574 -0.7947  1.1463
  502TMC3    C3 7512   3.289   2.353  14.731  0.4983 -0.1743 -0.2295
  502TMC3    C4 7513   3.302   2.114  14.852  0.8995  0.3995 -0.3034
  502TMC3    C5 7514   3.184   2.173  14.839 -0.2326  0.6544 -0.9289
  502TMC3    C6 7515   3.170   2.295  14.771  0.0787 -0.0316  0.4882
  502TMC3     C 7516   3.518   2.199  14.928  0.6351  0.7789  0.0482
  502TMC3     O 7517   3.612   2.272  14.903  0.0783  0.8145  0.5057
  502TMC3     H 7518   3.499   2.348  14.721 -0.5442  1.3383  1.5235
  502TMC3    H1 7519   3.317   2.032  14.920 -0.2092  1.3956  1.1319
  502TMC3    H2 7520   3.073   2.343  14.764  0.1856  0.0489 -0.4712
  502TMC3    C7 7521   3.109   2.177  14.961 -0.0181 -0.2036 -0.2936
  502TMC3    C8 7522   3.295   2.494  14.751  0.0802 -0.6891 -0.4226
  502TMC3    O1 7523   3.170   2.150  15.063 -0.1233 -0.5320 -0.4953
  502TMC3    O2 7524   3.196   2.562  14.725 -0.8414  0.6673 -0.2794
  503MPD2     C 7525   0.621   3.331  16.589 -0.3928  0.1848  0.7568
  503MPD2    C1 7526   0.711   3.408  16.663 -0.0436  0.3640  0.3169
  503MPD2    C2 7527   0.807   3.346  16.739 -0.1244  0.0730  0.4709
  503MPD2    C3 7528   0.812   3.202  16.732 -0.0843  0.3711 -0.2460
  503MPD2    C4 7529   0.737   3.127  16.640  0.0700  0.5733  0.2217
  503MPD2    C5 7530   0.648   3.194  16.568 -0.0009  0.0907 -0.0752
  503MPD2     H 7531   0.885   3.402  16.788  0.1255  0.8805 -0.8273
  503MPD2    H1 7532   0.762   3.027  16.604 -0.9722  0.1159  0.7630
  503MPD2    H2 7533   0.546   3.387  16.535 -1.5115 -1.1390  0.9241
  503MPD2    H3 7534   0.591   3.143  16.491 -0.2953  0.1073  0.1300
  503MPD2     N 7535   0.912   3.137  16.801  0.3224 -0.2785 -0.1834
  503MPD2    H5 7536   0.977   3.192  16.856 -1.6828  0.6012  1.3216
  503MPD2    N1 7537   0.713   3.549  16.671  0.8232 -0.0502  0.2370
  503MPD2    H7 7538   0.769   3.591  16.745 -1.0854  0.2864  1.4908
  504TMC3    C1 7539   1.023   2.946  16.914 -0.0160 -0.2141 -0.0068
  504TMC3    C2 7540   1.007   2.813  16.946 -0.4268 -0.6265  0.5355
  504TMC3    C3 7541   1.097   2.753  17.024 -0.3437 -0.4299 -0.4626
  504TMC3    C4 7542   1.128   3.022  16.962 -0.1909  0.5134  0.2006
  504TMC3    C5 7543   1.224   2.950  17.026 -0.6993  0.1747  0.5080
  504TMC3    C6 7544   1.198   2.825  17.071  0.8814  0.4826 -0.3477
  504TMC3     C 7545   0.913   3.000  16.830  0.0706 -0.7486  0.1350
  504TMC3     O 7546   0.829   2.919  16.792 -0.2591  0.5457  0.0900
  504TMC3     H 7547   0.922   2.759  16.906 -0.7078  0.9369 -1.0221
  504TMC3    H1 7548   1.150   3.126  16.940 -2.9904  1.0884  0.0501
  504TMC3    H2 7549   1.266   2.784  17.145  0.0192  1.4335  0.9808
  504TMC3    C7 7550   1.333   3.024  17.082 -0.5320 -0.3123  0.1755
  504TMC3    C8 7551   1.037   2.649  17.099 -0.1462  0.8170  0.5691
  504TMC3    O1 7552   1.309   3.113  17.164 -0.7562 -0.4235 -0.6781
  504TMC3    O2 7553   0.960   2.572  17.051  0.2204 -0.3206  0.3183
  505MPD2     C 7554   0.695   2.773  11.368  0.0525 -0.7997  0.2098
  505MPD2    C1 7555   0.744   2.762  11.242  0.2358  0.0885  0.3053
  505MPD2    C2 7556   0.741   2.864  11.152  0.5599  0.2338  0.1905
  505MPD2    C3 7557   0.692   2.981  11.193  0.3286 -0.8421  0.1266
  505MPD2    C4 7558   0.643   3.001  11.324  0.1604  0.1189 -0.0847
  505MPD2    C5 7559   0.640   2.890  11.405  0.0631  0.0228  0.1521
  505MPD2     H 7560   0.788   2.850  11.055 -0.3194 -1.1806 -0.0301
  505MPD2    H1 7561   0.599   3.093  11.360  0.0396 -1.0723  2.8955
  505MPD2    H2 7562   0.699   2.693  11.441  1.0469 -1.1142 -0.1850
  505MPD2    H3 7563   0.597   2.895  11.504 -0.2504  0.8017 -0.0170
  505MPD2     N 7564   0.712   3.094  11.111 -0.2793 -0.9965 -0.0250
  505MPD2    H5 7565   0.691   3.185  11.150  1.3133 -0.1139 -1.2411
  505MPD2    N1 7566   0.801   2.635  11.221 -0.3694  0.2156 -0.4818
  505MPD2    H7 7567   0.806   2.574  11.302  1.2672 -0.4920 -1.1215
  506TMC3    C1 7568   0.923   2.468  11.091 -0.2049 -0.6298 -0.9114
  506TMC3    C2 7569   0.946   2.414  10.971  0.1264 -0.2618  0.4442
  506TMC3    C3 7570   1.069   2.364  10.947  0.8641  0.1705 -0.0722
  506TMC3    C4 7571   1.017   2.440  11.194  0.0100  0.3054 -0.0759
  506TMC3    C5 7572   1.134   2.376  11.164 -0.8753 -0.5920 -0.8580
  506TMC3    C6 7573   1.161   2.348  11.037  0.5026 -0.1674  0.0456
  506TMC3     C 7574   0.847   2.586  11.093 -0.2023  0.5274  0.0452
  506TMC3     O 7575   0.840   2.641  10.984  0.4518  0.4242  0.3607
  506TMC3     H 7576   0.884   2.424  10.883 -1.0428  1.4472  1.4609
  506TMC3    H1 7577   1.008   2.481  11.294  1.0437  1.5009 -0.4784
  506TMC3    H2 7578   1.261   2.317  11.006  0.4361  1.5521 -1.8843
  506TMC3    C7 7579   1.240   2.461  11.213 -0.5475  0.1560  0.8693
  506TMC3    C8 7580   1.089   2.347  10.808  0.8939 -0.3463  0.2000
  506TMC3    O1 7581   1.345   2.405  11.251 -0.3451 -0.0017 -0.2257
  506TMC3    O2 7582   1.069   2.445  10.740  0.5324 -0.6402 -0.0588
  507TMC3    C1 7583   1.669   2.433  15.922 -0.5221  0.0024 -0.8450
  507TMC3    C2 7584   1.571   2.390  15.834 -0.2404  0.4909 -0.5019
  507TMC3    C3 7585   1.628   2.333  15.723  0.3991 -0.1992  0.0327
  507TMC3    C4 7586   1.804   2.432  15.905  0.2796  0.2274 -0.1337
  507TMC3    C5 7587   1.852   2.379  15.787 -0.3546 -0.3181  0.9891
  507TMC3    C6 7588   1.761   2.330  15.702 -0.5310 -0.1027  0.0263
  507TMC3     C 7589   1.615   2.489  16.043  0.0846 -0.4197  0.1642
  507TMC3     O 7590   1.510   2.553  16.055  0.0879  0.2631  0.5216
  507TMC3     H 7591   1.466   2.385  15.862 -0.1305 -0.2367 -0.2196
  507TMC3    H1 7592   1.874   2.467  15.980  0.0456  1.6664 -0.5810
  507TMC3    H2 7593   1.798   2.293  15.607  1.1857  0.3490  0.5209
  507TMC3    C7 7594   1.935   2.466  15.708 -0.2935  0.1055  0.9512
  507TMC3    C8 7595   1.558   2.384  15.605 -1.0732  0.8378  0.7138
  507TMC3    O1 7596   1.912   2.464  15.586  0.3163  0.4758 -0.4191
  507TMC3    O2 7597   1.629   2.404  15.508 -0.5024 -0.3289  0.4666
  508MPD2     C 7598   2.880   0.730  15.960 -0.1239  0.0064  0.3228
  508MPD2    C1 7599   2.865   0.777  16.087 -0.4982 -0.4902  1.1943
  508MPD2    C2 7600   2.782   0.886  16.111 -0.7323  0.8259  0.4239
  508MPD2    C3 7601   2.709   0.948  16.011  0.4069 -0.4498 -0.4433
  508MPD2    C4 7602   2.715   0.899  15.879  0.3041 -0.2035  1.1916
  508MPD2    C5 7603   2.795   0.788  15.860  0.1445  0.4514 -0.8152
  508MPD2     H 7604   2.776   0.930  16.210  0.5991 -0.5123  1.0999
  508MPD2    H1 7605   2.657   0.943  15.799 -0.1629 -1.5592  0.7846
  508MPD2    H2 7606   2.950   0.653  15.928 -0.0781  0.3735 -0.4693
  508MPD2    H3 7607   2.803   0.758  15.756 -2.7981  0.4638 -1.0421
  508MPD2     N 7608   2.626   1.057  16.045 -0.0960  0.2657  0.4760
  508MPD2    H5 7609   2.619   1.090  16.141  0.9426  0.5082  0.4608
  508MPD2    N1 7610   2.915   0.708  16.200  0.4332  0.7517 -0.3208
  508MPD2    H7 7611   2.904   0.754  16.290 -0.8214 -1.2366  0.5390
  509TMC3    C1 7612   2.434   1.474  15.954  0.8391 -0.0189  0.5476
  509TMC3    C2 7613   2.482   1.524  16.067 -0.4503  0.0719 -0.2723
  509TMC3    C3 7614   2.538   1.444  16.158 -0.6732 -0.1820  0.0256
  509TMC3    C4 7615   2.442   1.342  15.927  0.0924 -0.3001  1.0192
  509TMC3    C5 7616   2.494   1.257  16.025 -0.2941  0.2737  0.3909
  509TMC3    C6 7617   2.546   1.307  16.140  0.2803  0.0168  0.7505
  509TMC3     C 7618   2.365   1.566  15.862  0.2511 -0.7616  0.2786
  509TMC3     O 7619   2.308   1.660  15.908  0.0786  0.5897  0.4704
  509TMC3     H 7620   2.471   1.630  16.088 -1.3949  0.0424 -0.6186
  509TMC3    H1 7621   2.395   1.304  15.837  0.5084  2.0009 -0.1826
  509TMC3    H2 7622   2.600   1.251  16.215 -0.4306 -0.4304  0.9253
  509TMC3    C7 7623   2.544   1.134  15.960  0.0850 -0.0084  0.5144
  509TMC3    C8 7624   2.643   1.499  16.243  0.8038 -0.8189 -0.3277
  509TMC3    O1 7625   2.517   1.116  15.840  0.4877 -0.1727  0.0597
  509TMC3    O2 7626   2.654   1.445  16.353 -0.5163 -0.2692 -0.4147
  510MPD2     C 7627   0.348   1.976  14.334  0.5613  0.7215  0.9153
  510MPD2    C1 7628   0.438   2.027  14.431 -0.2063  0.4634  0.3141
  510MPD2    C2 7629   0.531   2.122  14.388  0.6722 -0.0043 -0.8394
  510MPD2    C3 7630   0.545   2.158  14.259 -0.1210  0.6686  0.5847
  510MPD2    C4 7631   0.454   2.105  14.170  0.1057  0.4506  0.1479
  510MPD2    C5 7632   0.360   2.019  14.206 -0.5100 -0.1966  0.2946
  510MPD2     H 7633   0.594   2.163  14.466 -0.0757  1.4567 -1.0082
  510MPD2    H1 7634   0.455   2.124  14.063 -0.3780  2.9999  0.6113
  510MPD2    H2 7635   0.274   1.899  14.352  1.8391 -0.4577  1.1149
  510MPD2    H3 7636   0.290   1.985  14.130 -0.4861 -2.1290  1.1464
  510MPD2     N 7637   0.642   2.243  14.224  0.1258 -0.1829 -0.0193
  510MPD2    H5 7638   0.710   2.262  14.297 -0.7861  1.1069  0.4911
  510MPD2    N1 7639   0.417   1.983  14.561  0.2157 -0.5947  0.2318
  510MPD2    H7 7640   0.369   1.894  14.570 -1.5800  0.4371  0.7770
  511TMC3    C1 7641   0.448   1.962  14.787  0.2537  0.0117  0.0007
  511TMC3    C2 7642   0.386   2.022  14.892  0.1467 -0.2026 -0.1569
  511TMC3    C3 7643   0.348   1.947  15.002  0.3465  0.3743  0.7180
  511TMC3    C4 7644   0.478   1.830  14.794 -0.2505  0.4669 -0.7051
  511TMC3    C5 7645   0.448   1.758  14.905  0.1022 -0.8073  0.5612
  511TMC3    C6 7646   0.374   1.805  15.009 -0.0475  0.4421  0.5768
  511TMC3     C 7647   0.481   2.034  14.662  0.2255  0.6713  0.4424
  511TMC3     O 7648   0.538   2.143  14.672 -0.0197  0.1217 -0.1768
  511TMC3     H 7649   0.372   2.129  14.879  0.5800 -0.1879 -0.4928
  511TMC3    H1 7650   0.531   1.788  14.709  0.7559  0.2306  0.0373
  511TMC3    H2 7651   0.352   1.741  15.094 -0.1441  0.9819  0.9592
  511TMC3    C7 7652   0.467   1.610  14.894  0.7595 -1.1340  0.0133
  511TMC3    C8 7653   0.268   2.020  15.104 -0.2401  0.6733 -0.2270
  511TMC3    O1 7654   0.524   1.574  14.791  0.3213 -0.0370 -1.0904
  511TMC3    O2 7655   0.246   2.134  15.080  0.1261  0.7482 -0.4583
  512TMC3    C1 7656   3.803   1.397  13.676 -0.2790  0.5199 -0.1324
  512TMC3    C2 7657   3.925   1.381  13.731 -0.2030  0.4602  0.1419
  512TMC3    C3 7658   3.996   1.271  13.686 -0.4162 -0.2574 -0.4269
  512TMC3    C4 7659   3.749   1.304  13.591 -0.0917 -0.4661  0.5964
  512TMC3    C5 7660   3.821   1.189  13.569  0.2799 -0.4526 -0.2013
  512TMC3    C6 7661   3.944   1.170  13.613  0.8172 -0.2808 -0.0650
  512TMC3     C 7662   3.724   1.512  13.705  0.7269  0.1369  0.6425
  512TMC3     O 7663   3.606   1.501  13.671  0.2040 -0.2652 -0.1306
  512TMC3     H 7664   3.960   1.440  13.816  2.6770 -0.5951 -0.3128
  512TMC3    H1 7665   3.647   1.310  13.555  1.3181  0.5241 -3.2359
  512TMC3    H2 7666   4.004   1.085  13.584 -0.2434 -0.5028 -1.6140
  512TMC3    C7 7667   3.753   1.089  13.489 -0.5541  0.1895 -0.3120
  512TMC3    C8 7668   4.135   1.253  13.729 -0.1054 -0.4356 -0.1086
  512TMC3    O1 7669   3.654   1.127  13.426  0.4117 -0.0888 -0.2134
  512TMC3    O2 7670   4.189   1.152  13.691 -0.8241  0.4924  0.1186
  513MPD2     C 7671   1.164   1.072  13.270 -0.2358 -0.0733 -0.6229
  513MPD2    C1 7672   1.280   1.109  13.207  0.2083  0.1440  0.5314
  513MPD2    C2 7673   1.363   1.196  13.271 -0.6034  0.1555  0.1612
  513MPD2    C3 7674   1.335   1.236  13.399 -0.5558  0.1888  0.7140
  513MPD2    C4 7675   1.223   1.193  13.464  0.9424 -0.0813 -0.7126
  513MPD2    C5 7676   1.135   1.119  13.399  0.0508  0.0760  0.1763
  513MPD2     H 7677   1.455   1.226  13.221 -0.1025 -3.5469 -1.0920
  513MPD2    H1 7678   1.197   1.218  13.566  2.9276 -0.7139 -0.0464
  513MPD2    H2 7679   1.094   1.001  13.227 -2.4050  1.8432 -0.2895
  513MPD2    H3 7680   1.050   1.081  13.454  0.8264  0.0443  1.3741
  513MPD2     N 7681   1.434   1.318  13.462  0.5379 -0.4307  0.4745
  513MPD2    H5 7682   1.514   1.336  13.403  1.5881 -0.6914  1.8087
  513MPD2    N1 7683   1.338   1.040  13.090 -0.2237 -0.0020 -0.8287
  513MPD2    H7 7684   1.428   1.077  13.060  1.0802 -1.5654  1.1889
  514TMC3    C1 7685   1.368   0.891  12.917  0.2571  0.0141 -0.8173
  514TMC3    C2 7686   1.325   0.891  12.785 -0.0507 -0.3359 -0.0040
  514TMC3    C3 7687   1.422   0.935  12.697 -0.2172 -0.5759 -0.7051
  514TMC3    C4 7688   1.492   0.919  12.957 -0.6447  0.3742 -0.0598
  514TMC3    C5 7689   1.583   0.960  12.861 -0.3034 -0.1233 -0.3525
  514TMC3    C6 7690   1.546   0.982  12.731  0.0955  0.5852  0.2707
  514TMC3     C 7691   1.274   0.948  13.015 -0.5266 -0.2357  0.1711
  514TMC3     O 7692   1.162   0.906  13.012  0.1053  0.1653 -0.5529
  514TMC3     H 7693   1.219   0.894  12.764 -0.1932  1.3006  0.9468
  514TMC3    H1 7694   1.540   0.897  13.051  0.7575 -2.7638 -1.5233
  514TMC3    H2 7695   1.617   1.021  12.660  0.2542  3.0466  1.7654
  514TMC3    C7 7696   1.648   1.062  12.934  0.2520 -1.1026 -0.0512
  514TMC3    C8 7697   1.360   0.958  12.569  0.1419 -0.0058  0.0453
  514TMC3    O1 7698   1.578   1.126  13.006  0.2752 -0.2685 -0.0022
  514TMC3    O2 7699   1.253   0.902  12.554 -0.4104  0.0764  1.2286
  515MPD2     C 7700   4.265   3.092  14.489  0.1868 -0.2125 -0.2944
  515MPD2    C1 7701   4.181   3.132  14.591  0.1153  0.5590 -0.2399
  515MPD2    C2 7702   4.236   3.194  14.701 -0.1374  0.1316  0.5135
  515MPD2    C3 7703   4.371   3.214  14.717  0.0290 -0.4749  0.3801
  515MPD2    C4 7704   4.459   3.175  14.615  0.0598  0.3553  0.2800
  515MPD2    C5 7705   4.404   3.118  14.502  0.0448 -0.3148 -0.3048
  515MPD2     H 7706   4.164   3.226  14.775 -0.7812 -0.4998  0.1632
  515MPD2    H1 7707   4.566   3.169  14.633 -0.0903 -1.0325  0.7839
  515MPD2    H2 7708   4.237   3.035  14.401 -2.5017  0.2219  0.2832
  515MPD2    H3 7709   4.460   3.080  14.418  0.0843 -3.1013  1.0020
  515MPD2     N 7710   4.433   3.266  14.830 -0.3836 -0.0095  0.4622
  515MPD2    H5 7711   4.534   3.258  14.836 -0.2453  0.6080 -0.9979
  515MPD2    N1 7712   4.047   3.095  14.600  0.1034 -0.3703  0.5111
  515MPD2    H7 7713   3.988   3.093  14.683 -1.8831 -0.3549 -0.9127
  516TMC3    C1 7714   3.847   2.997  14.515  0.4083 -0.0757  0.9624
  516TMC3    C2 7715   3.742   3.041  14.432  0.7265 -0.0253 -0.6135
  516TMC3    C3 7716   3.624   2.977  14.461 -0.1966 -0.6598  0.0023
  516TMC3    C4 7717   3.839   2.905  14.615  0.0239 -0.1480 -0.3842
  516TMC3    C5 7718   3.718   2.858  14.637  0.6118 -0.2605 -0.2807
  516TMC3    C6 7719   3.611   2.886  14.560 -0.0994  0.3541  0.1079
  516TMC3     C 7720   3.976   3.062  14.489  0.3642 -0.0967 -0.3499
  516TMC3     O 7721   4.006   3.078  14.370 -0.3672 -0.1856 -1.0831
  516TMC3     H 7722   3.761   3.101  14.344 -2.3058  1.5494 -0.2040
  516TMC3    H1 7723   3.927   2.875  14.672  0.5554 -0.6025 -1.4469
  516TMC3    H2 7724   3.512   2.845  14.578 -0.7640  1.3287 -1.3996
  516TMC3    C7 7725   3.728   2.715  14.656 -0.2042  0.3521  0.1807
  516TMC3    C8 7726   3.503   3.043  14.422  0.0186  0.3972 -0.5353
  516TMC3    O1 7727   3.836   2.683  14.703 -0.1819 -0.2779 -0.2954
  516TMC3    O2 7728   3.401   2.973  14.434  0.4274 -0.4202 -0.5492
  517MPD2     C 7729   3.571   0.306  17.597 -0.2031  0.9267  0.3204
  517MPD2    C1 7730   3.697   0.265  17.638 -0.3503  0.1945 -0.3908
  517MPD2    C2 7731   3.764   0.335  17.735  0.0398  0.0359  0.1432
  517MPD2    C3 7732   3.705   0.450   0.048  0.4075 -0.0861  0.1793
  517MPD2    C4 7733   3.583   0.497  17.739  0.0804 -0.4434  0.1153
  517MPD2    C5 7734   3.521   0.426  17.639  0.1557  0.7143  0.1182
  517MPD2     H 7735   3.863   0.308   0.028 -0.0050 -0.7768 -0.3440
  517MPD2    H1 7736   3.527   0.579   0.042 -0.4833 -1.5457  1.4409
  517MPD2    H2 7737   3.520   0.256  17.516 -1.5553 -1.6930  2.7723
  517MPD2    H3 7738   3.425   0.451  17.595  0.7861 -0.0632 -1.6946
  517MPD2     N 7739   3.763   0.524   0.152 -0.0641 -0.0472 -0.5981
  517MPD2    H5 7740   3.704   0.592   0.200 -0.4650 -2.5258  2.4566
  517MPD2    N1 7741   3.765   0.153  17.583 -0.1916  0.3974 -0.1251
  517MPD2    H7 7742   3.857   0.142  17.626 -1.5434  1.5190  3.0400
  518TMC3    C1 7743   3.803   4.692  17.447  0.4188 -0.2339  0.9647
  518TMC3    C2 7744   3.748   4.570  17.396  0.1947  0.7048  0.5418
  518TMC3    C3 7745   3.830   4.475  17.333 -0.2467  0.1549 -1.0045
  518TMC3    C4 7746   3.942   4.708  17.440 -0.7331  0.2166 -0.4955
  518TMC3    C5 7747   4.015   4.611  17.377 -0.5647 -0.4213 -0.3655
  518TMC3    C6 7748   3.967   4.489  17.340 -0.7915  0.0578 -0.3986
  518TMC3     C 7749   3.706   0.058  17.499 -0.2975  0.4011  0.3797
  518TMC3     O 7750   3.587   0.054  17.461  0.1355  0.1058 -0.2137
  518TMC3     H 7751   3.642   4.562  17.412 -0.0565  0.5695 -1.1365
  518TMC3    H1 7752   3.980   0.072  17.461 -0.6748  0.0626  0.1335
  518TMC3    H2 7753   4.035   4.407  17.320 -0.6435  0.2050 -0.4963
  518TMC3    C7 7754   4.157   4.635  17.378  0.0502  0.1766 -0.5276
  518TMC3    C8 7755   3.776   4.346  17.310 -0.1654 -0.0076 -0.3757
  518TMC3    O1 7756   4.193   4.735  17.441  0.1609 -0.1195  1.1889
  518TMC3    O2 7757   3.856   4.252  17.300  0.0750  0.1694  0.1372
  519MPD2     C 7758   1.214   3.124  14.107  0.5013 -0.3473 -0.9407
  519MPD2    C1 7759   1.138   3.128  13.996 -0.0785 -0.0909 -0.2626
  519MPD2    C2 7760   1.175   3.039  13.899  0.4625 -0.2520  0.4985
  519MPD2    C3 7761   1.280   2.954  13.911  0.2216 -0.0080  0.1277
  519MPD2    C4 7762   1.355   2.964  14.025  0.1858 -0.1354  0.3543
  519MPD2    C5 7763   1.333   3.062  14.120 -0.3151  0.3220 -0.0341
  519MPD2     H 7764   1.112   3.022  13.812 -0.1032 -2.8596  1.4161
  519MPD2    H1 7765   1.436   2.893  14.041 -1.1437 -1.8949 -0.6697
  519MPD2    H2 7766   1.189   3.186  14.192 -0.7097  0.8746 -2.1903
  519MPD2    H3 7767   1.387   3.055  14.214 -0.0865  2.0985 -0.0360
  519MPD2     N 7768   1.312   2.855  13.816  0.0667  0.4775 -0.9128
  519MPD2    H5 7769   1.404   2.813  13.829 -0.2919  0.2896  0.9315
  519MPD2    N1 7770   1.031   3.211  13.990 -0.1599 -0.1503 -0.9357
  519MPD2    H7 7771   1.005   3.247  14.081 -0.2531 -1.7688 -0.3180
  520TMC3    C1 7772   1.279   2.718  13.625 -1.0833 -0.3668  0.4920
  520TMC3    C2 7773   1.201   2.715  13.509 -0.3578 -0.0378 -0.5435
  520TMC3    C3 7774   1.247   2.626  13.420  0.0041  1.5606 -0.5233
  520TMC3    C4 7775   1.381   2.641  13.661 -0.4906  0.5521 -0.3708
  520TMC3    C5 7776   1.430   2.559  13.562  0.0905 -0.3916  0.3541
  520TMC3    C6 7777   1.360   2.551  13.447 -0.6765 -0.0027  0.9951
  520TMC3     C 7778   1.222   2.800  13.732  0.2972 -0.3798  0.3117
  520TMC3     O 7779   1.102   2.819  13.722  0.1179 -0.3625  0.1921
  520TMC3     H 7780   1.117   2.783  13.508 -1.0803 -0.9407 -2.3287
  520TMC3    H1 7781   1.433   2.631  13.755 -2.2110  0.2988  0.5529
  520TMC3    H2 7782   1.391   2.485  13.366 -0.7594  1.4013 -0.1952
  520TMC3    C7 7783   1.543   2.468  13.593 -0.7206 -0.1097  0.2484
  520TMC3    C8 7784   1.172   2.606  13.299  0.5343 -0.3380 -0.3233
  520TMC3    O1 7785   1.586   2.478  13.707 -0.4239  0.0811 -0.0944
  520TMC3    O2 7786   1.218   2.540  13.204 -0.2730  0.3541 -0.0034
  521MPD2     C 7787   1.704   0.889  17.582 -0.0475 -0.4923  0.5371
  521MPD2    C1 7788   1.680   0.890  17.448  1.0371 -0.2115  0.6428
  521MPD2    C2 7789   1.793   0.892  17.364  0.7081  0.3943 -0.7371
  521MPD2    C3 7790   1.923   0.867  17.398 -0.4952 -0.1358 -0.0267
  521MPD2    C4 7791   1.944   0.853  17.532 -0.0611  0.6076 -0.3621
  521MPD2    C5 7792   1.834   0.857  17.614  0.4407  0.1609  0.1766
  521MPD2     H 7793   1.776   0.914  17.259  0.5769 -0.4974 -0.8983
  521MPD2    H1 7794   2.035   0.833  17.587 -0.6086 -1.4396 -0.1853
  521MPD2    H2 7795   1.637   0.897  17.667  1.3788  0.8000  1.5369
  521MPD2    H3 7796   1.848   0.835  17.719  3.3356  1.6998  0.1062
  521MPD2     N 7797   2.032   0.872  17.304  0.8483  0.6953 -0.1805
  521MPD2    H5 7798   2.008   0.881  17.206 -0.8096  0.8610  0.2546
  521MPD2    N1 7799   1.551   0.883  17.395 -0.1596  0.5247  0.3914
  521MPD2    H7 7800   1.539   0.888  17.295  1.9501 -0.1041  0.1093
  522TMC3    C1 7801   2.259   0.847  17.213  0.7643  0.4376 -0.6038
  522TMC3    C2 7802   2.381   0.794  17.246  0.3221  0.5542 -0.2238
  522TMC3    C3 7803   2.465   0.756  17.149 -0.3246 -0.2293 -0.4196
  522TMC3    C4 7804   2.210   0.856  17.089 -0.8409  0.5410  0.2205
  522TMC3    C5 7805   2.300   0.809  16.989 -0.3654  0.3416  0.2173
  522TMC3    C6 7806   2.428   0.772  17.016  0.5186  0.0563 -0.1983
  522TMC3     C 7807   2.163   0.856  17.333  0.5873 -0.4729 -0.6675
  522TMC3     O 7808   2.214   0.850  17.445 -0.2228 -0.0651  0.3938
  522TMC3     H 7809   2.407   0.773  17.349 -1.2840 -1.9011 -0.3257
  522TMC3    H1 7810   2.104   0.861  17.064 -0.8023  3.9570  0.6875
  522TMC3    H2 7811   2.498   0.762  16.934  0.1476  1.6395 -0.7028
  522TMC3    C7 7812   2.275   0.827  16.846 -0.0688 -0.3857  0.2972
  522TMC3    C8 7813   2.609   0.766  17.171 -0.3467  0.4317  0.6471
  522TMC3    O1 7814   2.370   0.832  16.771 -0.3017  0.5374 -0.0206
  522TMC3    O2 7815   2.642   0.823  17.273  0.3574  0.1882  0.2262
  523MPD2     C 7816   3.627   1.722   9.952 -0.7509  1.0337 -0.0078
  523MPD2    C1 7817   3.754   1.712  10.000  0.1529  0.3749 -0.4779
  523MPD2    C2 7818   3.833   1.825  10.010 -0.5564  0.0190 -0.2523
  523MPD2    C3 7819   3.777   1.950   9.977 -0.4870 -0.5824  0.3416
  523MPD2    C4 7820   3.653   1.956   9.915  0.2423 -0.1580 -0.3884
  523MPD2    C5 7821   3.581   1.841   9.910 -0.1034  0.4330  0.4526
  523MPD2     H 7822   3.935   1.828  10.044 -1.3518  0.4024  2.0550
  523MPD2    H1 7823   3.597   2.044   9.883  0.1592 -0.2705 -0.5529
  523MPD2    H2 7824   3.566   1.635   9.936 -0.2917  0.5225  1.0019
  523MPD2    H3 7825   3.479   1.842   9.876 -0.0356 -0.0187  0.2398
  523MPD2     N 7826   3.851   2.078   9.991  0.1652  0.4305 -0.0590
  523MPD2    H5 7827   3.824   2.153   9.928 -1.1996 -0.1642 -0.1819
  523MPD2    N1 7828   3.784   1.583  10.051 -0.0947 -0.1727 -0.0469
  523MPD2    H7 7829   3.718   1.511  10.023 -0.2058 -0.1236  0.0879
  524TMC3    C1 7830   4.057   2.202  10.031  0.3115 -0.4243  1.5201
  524TMC3    C2 7831   4.178   2.192  10.090  0.0186 -0.5460  0.8204
  524TMC3    C3 7832   4.266   2.298  10.085 -0.0411  0.0419 -0.0785
  524TMC3    C4 7833   4.024   2.315   9.961 -0.6990  0.1155 -0.3920
  524TMC3    C5 7834   4.110   2.422   9.950 -0.1923 -0.5369  0.0928
  524TMC3    C6 7835   4.240   2.413  10.009 -0.3829 -0.8086 -0.3473
  524TMC3     C 7836   3.964   2.092  10.069  0.3521 -0.6075 -0.3400
  524TMC3     O 7837   3.997   2.012  10.153  0.0505 -0.3043 -0.2116
  524TMC3     H 7838   4.197   2.118  10.167 -1.0068 -1.1946  0.4543
  524TMC3    H1 7839   3.926   2.311   9.915 -1.4082 -0.6194  1.1687
  524TMC3    H2 7840   4.304   2.500  10.012 -1.4077 -0.0385 -0.7648
  524TMC3    C7 7841   4.052   2.556   9.923  0.8816  0.4462 -0.1285
  524TMC3    C8 7842   4.384   2.303  10.168 -0.7330  0.7698 -0.8174
  524TMC3    O1 7843   4.119   2.655   9.949 -0.6445 -0.4379 -0.5788
  524TMC3    O2 7844   4.424   2.411  10.209 -0.3530  0.2376  0.1673
  525MPD2     C 7845   2.215   2.129  14.328 -0.3021 -0.4705 -1.0362
  525MPD2    C1 7846   2.244   2.191  14.446 -0.2968  0.5042 -0.4027
  525MPD2    C2 7847   2.264   2.329  14.456  0.4599 -0.7592  0.1171
  525MPD2    C3 7848   2.246   2.403  14.341 -0.0558 -0.2090  0.1263
  525MPD2    C4 7849   2.196   2.344  14.225  0.3064 -0.2586  0.5487
  525MPD2    C5 7850   2.196   2.207  14.214 -0.7581 -0.3646  0.0137
  525MPD2     H 7851   2.289   2.379  14.549  0.9745  1.7781 -1.3556
  525MPD2    H1 7852   2.171   2.408  14.142  2.0582 -0.7087 -0.3165
  525MPD2    H2 7853   2.198   2.022  14.322  0.0864 -0.6644  1.5242
  525MPD2    H3 7854   2.163   2.158  14.123  3.1787  0.7828 -2.0409
  525MPD2     N 7855   2.271   2.537  14.339 -0.2235 -0.0334  0.0924
  525MPD2    H5 7856   2.231   2.586  14.260 -0.2808 -2.0798 -1.1630
  525MPD2    N1 7857   2.259   2.123  14.571  0.1346  0.2013 -0.1058
  525MPD2    H7 7858   2.296   2.177  14.648 -2.7005 -0.4433  1.6889
  526TMC3    C1 7859   2.227   1.960  14.736 -0.0930  0.2931  0.1300
  526TMC3    C2 7860   2.120   1.911  14.807  0.2673  0.7933  0.2106
  526TMC3    C3 7861   2.141   1.869  14.938 -0.5942 -0.1040 -0.5410
  526TMC3    C4 7862   2.352   1.983  14.781 -0.3992  0.5014  0.0718
  526TMC3    C5 7863   2.371   1.941  14.908  0.5207  0.1699 -0.5588
  526TMC3    C6 7864   2.267   1.886  14.990 -0.5696  0.3791 -0.0959
  526TMC3     C 7865   2.207   2.003  14.600 -0.5802  0.3844  0.4315
  526TMC3     O 7866   2.149   1.924  14.526 -0.0296  0.6178  0.1504
  526TMC3     H 7867   2.025   1.917  14.755 -0.2648 -0.1129  1.0757
  526TMC3    H1 7868   2.434   2.019  14.720  0.4144  0.1799  0.9649
  526TMC3    H2 7869   2.291   1.868  15.094  1.2014 -3.5107 -1.1807
  526TMC3    C7 7870   2.503   1.909  14.956  0.2847  0.1802  0.9308
  526TMC3    C8 7871   2.049   1.915  15.045 -0.1751 -0.0463  0.3016
  526TMC3    O1 7872   2.515   1.890  15.075  0.1400 -0.1784 -0.6437
  526TMC3    O2 7873   2.090   1.907  15.160  0.2037 -0.3809  0.2191
  527MPD2     C 7874   0.500   0.885   1.235 -0.1396  0.6251 -0.7843
  527MPD2    C1 7875   0.387   0.839   1.174  0.2024 -0.4211 -0.3483
  527MPD2    C2 7876   0.410   0.722   1.096 -0.8813 -0.1101  0.6807
  527MPD2    C3 7877   0.530   0.661   1.078  0.2205  0.8115  0.3478
  527MPD2    C4 7878   0.640   0.718   1.142  0.0385 -0.5167  1.2064
  527MPD2    C5 7879   0.621   0.826   1.220 -0.0334 -0.6207 -0.5626
  527MPD2     H 7880   0.329   0.667   1.048 -0.9801  1.8353 -1.3901
  527MPD2    H1 7881   0.735   0.670   1.165 -0.0013 -0.4235  1.5522
  527MPD2    H2 7882   0.494   0.974   1.297 -0.3393  2.2781 -3.2035
  527MPD2    H3 7883   0.702   0.865   1.280 -2.1990  1.2359  1.1829
  527MPD2     N 7884   0.532   0.536   1.011  0.4816 -0.0063  0.0998
  527MPD2    H5 7885   0.451   0.518   0.952 -1.2848 -0.1016  2.5481
  527MPD2    N1 7886   0.262   0.896   1.176  0.1239 -0.3725 -0.2578
  527MPD2    H7 7887   0.189   0.854   1.119  1.8806 -2.4090 -1.0184
  528TMC3    C1 7888   0.116   1.078   1.198 -0.0579 -0.0580  0.1708
  528TMC3    C2 7889   0.068   1.055   1.068 -0.5433 -0.3066  0.5596
  528TMC3    C3 7890   4.686   1.106   1.027 -0.3635 -0.3583 -0.7379
  528TMC3    C4 7891   0.047   1.159   1.288 -0.1673 -0.0764  0.1562
  528TMC3    C5 7892   4.666   1.213   1.242 -0.2633  0.8259 -0.0107
  528TMC3    C6 7893   4.618   1.190   1.111 -0.3637 -0.5726 -0.5412
  528TMC3     C 7894   0.232   1.011   1.249  0.5644  0.2062  0.4406
  528TMC3     O 7895   0.285   1.057   1.347  0.1943  0.2745  0.3333
  528TMC3     H 7896   0.136   0.996   1.007 -0.5843  0.7646 -0.5376
  528TMC3    H1 7897   0.066   1.161   1.395  2.6403  0.6372 -0.3573
  528TMC3    H2 7898   4.523   1.234   1.083  0.0559 -1.2337 -2.9807
  528TMC3    C7 7899   4.590   1.298   1.324  0.0618  0.5320  0.1618
  528TMC3    C8 7900   4.626   1.046   0.913  0.1638 -0.2540  0.4127
  528TMC3    O1 7901   4.472   1.277   1.320 -0.1299  0.1608  0.5450
  528TMC3    O2 7902   4.698   0.973   0.842  0.1118  0.0245 -0.0487
  529MPD2     C 7903   1.906   3.629   0.888  0.2686  0.3159 -0.4425
  529MPD2    C1 7904   2.043   3.634   0.868  0.4339 -0.4716 -0.4405
  529MPD2    C2 7905   2.113   3.728   0.795 -0.4297 -0.2169  0.8369
  529MPD2    C3 7906   2.041   3.826   0.726  0.0721  0.4274 -0.5608
  529MPD2    C4 7907   1.907   3.830   0.744 -0.1128  0.6598  0.2968
  529MPD2    C5 7908   1.842   3.734   0.822 -0.0099 -0.4008 -0.2782
  529MPD2     H 7909   2.221   3.728   0.783 -0.5722 -1.2649 -0.5087
  529MPD2    H1 7910   1.848   3.909   0.700 -1.1017 -0.4476 -0.3541
  529MPD2    H2 7911   1.846   3.555   0.940 -0.9932  1.1721 -0.6813
  529MPD2    H3 7912   1.736   3.730   0.841 -0.2776  2.4549 -1.2224
  529MPD2     N 7913   2.097   3.926   0.642 -0.0322  0.3229 -0.2648
  529MPD2    H5 7914   2.037   3.991   0.592  0.2166  2.3132  2.0118
  529MPD2    N1 7915   2.130   3.533   0.917  0.2697  0.4100  0.0502
  529MPD2    H7 7916   2.229   3.544   0.898  0.1280 -0.5627 -1.2720
  530TMC3    C1 7917   2.222   3.369   1.044  0.2815 -0.3987 -0.4881
  530TMC3    C2 7918   2.325   3.447   1.075 -0.1304 -0.0725  1.2129
  530TMC3    C3 7919   2.443   3.385   1.098 -0.0044  0.1500  0.3713
  530TMC3    C4 7920   2.222   3.231   1.038 -0.3046  0.0825  0.0462
  530TMC3    C5 7921   2.342   3.177   1.068 -0.2126 -0.3497 -0.4621
  530TMC3    C6 7922   2.452   3.251   1.100  0.3458  0.4754  0.1565
  530TMC3     C 7923   2.098   3.430   0.999 -0.1488  0.3262 -0.6279
  530TMC3     O 7924   1.992   3.385   1.048  0.5469 -0.4574 -0.2126
  530TMC3     H 7925   2.305   3.553   1.073 -1.5942 -0.3735 -0.0703
  530TMC3    H1 7926   2.135   3.178   1.001  0.5122 -0.8957 -0.4702
  530TMC3    H2 7927   2.540   3.195   1.128  0.5459  1.1314  0.8535
  530TMC3    C7 7928   2.367   3.030   1.079  0.9472  0.0915  0.3626
  530TMC3    C8 7929   2.550   3.460   1.156  0.2331 -0.2089 -0.7916
  530TMC3    O1 7930   2.474   2.987   1.037  0.3853  0.2992 -0.3846
  530TMC3    O2 7931   2.518   3.576   1.189 -0.6842 -0.2685 -0.1057
  531MPD2     C 7932   2.061   1.322  13.109 -0.0044 -0.3815  0.3449
  531MPD2    C1 7933   1.930   1.328  13.149 -0.1634  0.2945  0.8522
  531MPD2    C2 7934   1.842   1.245  13.079  0.4709 -0.2507 -0.2726
  531MPD2    C3 7935   1.873   1.161  12.970 -0.4503  0.3029  0.0008
  531MPD2    C4 7936   2.005   1.157  12.936 -0.2297 -0.6677  0.2552
  531MPD2    C5 7937   2.090   1.243  12.998  0.9429 -0.5349 -0.1769
  531MPD2     H 7938   1.740   1.246  13.114  1.6554  1.4708  3.1138
  531MPD2    H1 7939   2.051   1.100  12.857  1.1094 -1.0473  1.2993
  531MPD2    H2 7940   2.143   1.374  13.157 -0.5436 -1.0623  2.0176
  531MPD2    H3 7941   2.190   1.246  12.956  1.2018  2.4207  0.6516
  531MPD2     N 7942   1.784   1.072  12.911 -0.2900 -0.9804  0.1181
  531MPD2    H5 7943   1.815   1.009  12.838 -0.4671 -1.4875  0.4814
  531MPD2    N1 7944   1.895   1.386  13.275  0.1113  0.3658 -0.1888
  531MPD2    H7 7945   1.969   1.433  13.326  0.0508 -1.0060  1.1811
  532TMC3    C1 7946   1.760   1.434  13.468 -0.5637 -0.5490  0.1039
  532TMC3    C2 7947   1.630   1.474  13.488  0.2626  0.5798  0.6588
  532TMC3    C3 7948   1.569   1.441  13.602 -1.0932 -0.3924  0.0840
  532TMC3    C4 7949   1.826   1.354  13.558  0.3100  0.0359  0.1967
  532TMC3    C5 7950   1.763   1.328  13.670 -0.6198 -0.5665 -0.1048
  532TMC3    C6 7951   1.638   1.371  13.701 -0.0712 -0.0603 -0.2108
  532TMC3     C 7952   1.768   1.386  13.331 -0.9842 -0.2733 -0.8556
  532TMC3     O 7953   1.658   1.368  13.275 -0.5937 -0.4027  0.0643
  532TMC3     H 7954   1.584   1.541  13.417  0.3138  0.0329  0.1164
  532TMC3    H1 7955   1.929   1.326  13.538  0.7739  1.5659  0.4718
  532TMC3    H2 7956   1.586   1.335  13.790  1.1075  0.1383  0.5614
  532TMC3    C7 7957   1.809   1.214  13.755 -0.0725 -0.0225 -0.0476
  532TMC3    C8 7958   1.445   1.365  13.591  0.2932 -0.0874  0.2777
  532TMC3    O1 7959   1.749   1.194  13.861 -0.5249 -0.1967 -0.0540
  532TMC3    O2 7960   1.364   1.360  13.683  0.0312  0.0881 -0.1064
  533TMC3    C1 7961   2.338   2.751  14.431 -0.8832  0.5908 -0.3331
  533TMC3    C2 7962   2.441   2.819  14.481  0.1212  0.5100 -0.1730
  533TMC3    C3 7963   2.415   2.951  14.519 -0.1526  0.5101 -1.2603
  533TMC3    C4 7964   2.218   2.815  14.409  0.0795  0.1221  0.7873
  533TMC3    C5 7965   2.194   2.941  14.450  0.2357  0.1173 -0.0715
  533TMC3    C6 7966   2.296   3.018  14.500  0.3442 -0.6910 -0.3591
  533TMC3     C 7967   2.347   2.605  14.441  0.8076  0.4090 -0.2295
  533TMC3     O 7968   2.417   2.558  14.529  0.3815  0.0711  0.2917
  533TMC3     H 7969   2.528   2.765  14.519 -0.1269  0.4987  0.3771
  533TMC3    H1 7970   2.139   2.747  14.381 -2.7400  4.2155 -1.3400
  533TMC3    H2 7971   2.282   3.126  14.509 -0.3278 -0.8983  0.9584
  533TMC3    C7 7972   2.075   2.955  14.532 -0.0951 -0.1700  0.3706
  533TMC3    C8 7973   2.531   3.015  14.573  0.6096  0.2241 -0.8557
  533TMC3    O1 7974   2.009   2.854  14.546 -0.2601  0.0349 -0.3108
  533TMC3    O2 7975   2.639   2.956  14.567  0.3163  0.8973 -0.2559
  534MPD2     C 7976   0.318   4.198   1.323  0.0018 -0.7961  1.0072
  534MPD2    C1 7977   0.356   4.288   1.227 -0.1496 -0.0442  0.8220
  534MPD2    C2 7978   0.276   4.287   1.112 -0.1132  0.1963 -0.8480
  534MPD2    C3 7979   0.159   4.205   1.098  0.0161  0.3797  0.1398
  534MPD2    C4 7980   0.121   4.133   1.212 -0.3930  0.2860  0.2735
  534MPD2    C5 7981   0.200   4.128   1.317  0.6224 -0.5098  0.8858
  534MPD2     H 7982   0.315   4.357   1.039  2.3279 -0.9090 -0.5945
  534MPD2    H1 7983   0.039   4.062   1.204  2.2013 -2.9912  2.6956
  534MPD2    H2 7984   0.366   4.196   1.420  1.7669  1.4286  0.1555
  534MPD2    H3 7985   0.164   4.062   1.396 -1.8711  0.1346  0.2599
  534MPD2     N 7986   0.087   4.198   0.974 -0.4482  0.3388  0.1413
  534MPD2    H5 7987   4.735   4.147   0.971 -0.7732  0.8868  0.3212
  534MPD2    N1 7988   0.473   4.371   1.241  0.5231  0.4631 -0.2435
  534MPD2    H7 7989   0.475   4.452   1.180  0.8040  0.2380 -0.5288
  535TMC3    C1 7990   0.038   4.229   0.748  0.0708  0.0560 -0.6603
  535TMC3    C2 7991   4.638   4.224   0.771  0.2596  0.6781 -0.0929
  535TMC3    C3 7992   4.560   4.222   0.658  0.3186 -0.1337 -0.0613
  535TMC3    C4 7993   0.090   4.244   0.624  0.2821 -0.8318  0.0144
  535TMC3    C5 7994   0.003   4.243   0.521 -0.6334  0.6717 -0.5019
  535TMC3    C6 7995   4.609   4.231   0.529 -0.0638  0.3002  0.2271
  535TMC3     C 7996   0.130   4.244   0.857 -0.4235 -0.5549  0.1045
  535TMC3     O 7997   0.237   4.299   0.834 -0.5430 -0.2099 -0.0949
  535TMC3     H 7998   4.596   4.219   0.871  2.3037 -0.1552  0.7386
  535TMC3    H1 7999   0.195   4.232   0.600  0.7031 -1.1320  2.0730
  535TMC3    H2 8000   4.543   4.238   0.444 -0.3325  1.2614  0.5183
  535TMC3    C7 8001   0.057   4.254   0.392 -0.2087 -0.1709  0.0140
  535TMC3    C8 8002   4.412   4.226   0.681 -0.1716 -0.3269 -0.2785
  535TMC3    O1 8003   0.157   4.190   0.369  0.2751 -0.4154 -0.3280
  535TMC3    O2 8004   4.350   4.200   0.578  0.2165 -0.1937  0.2537
  536MPD2     C 8005   3.707   2.395  16.336  0.0863  0.2524  0.5855
  536MPD2    C1 8006   3.599   2.318  16.368 -0.1687 -0.7447 -0.7100
  536MPD2    C2 8007   3.505   2.295  16.270 -0.1333  0.0049  0.2953
  536MPD2    C3 8008   3.530   2.337  16.143  0.3285 -0.4827 -0.3784
  536MPD2    C4 8009   3.641   2.421  16.113  0.2371  0.0079  0.4918
  536MPD2    C5 8010   3.721   2.454  16.221  0.2501 -0.7474  0.3893
  536MPD2     H 8011   3.417   2.237  16.295 -1.6786  1.8902 -0.8675
  536MPD2    H1 8012   3.659   2.469  16.018  0.9493 -2.1372 -0.4629
  536MPD2    H2 8013   3.770   2.423  16.420  0.2896  0.9609  0.1890
  536MPD2    H3 8014   3.809   2.517  16.215  0.3193 -0.8692  0.0872
  536MPD2     N 8015   3.439   2.307  16.033 -0.2405  0.8267  0.3876
  536MPD2    H5 8016   3.462   2.359  15.949 -1.2891 -2.3665 -1.8838
  536MPD2    N1 8017   3.588   2.276  16.501  0.4165 -0.4180 -0.1880
  536MPD2    H7 8018   3.670   2.278  16.560 -0.0163 -2.6977  0.4872
  537TMC3    C1 8019   3.493   2.162  16.695  0.5214 -0.3517 -0.1090
  537TMC3    C2 8020   3.509   2.267  16.772 -0.1115 -0.1804  0.3442
  537TMC3    C3 8021   3.539   2.248  16.903 -0.5924 -0.2342 -0.5344
  537TMC3    C4 8022   3.498   2.031  16.738 -0.2185  0.5284  0.0617
  537TMC3    C5 8023   3.516   2.024  16.877  0.6208 -0.3213 -0.2771
  537TMC3    C6 8024   3.536   2.127  16.961 -0.1807  0.6459 -0.2701
  537TMC3     C 8025   3.482   2.191  16.552  0.4697 -0.3933 -0.4420
  537TMC3     O 8026   3.372   2.160  16.507 -0.0470  0.8127 -0.4781
  537TMC3     H 8027   3.504   2.363  16.723 -0.8493 -0.0087  0.7587
  537TMC3    H1 8028   3.466   1.945  16.679  2.9436 -0.4317 -0.2845
  537TMC3    H2 8029   3.545   2.119  17.069 -0.5205  0.0187 -0.2894
  537TMC3    C7 8030   3.453   1.906  16.941 -0.1003  0.5269  0.0450
  537TMC3    C8 8031   3.543   2.363  16.996 -0.2680 -0.2949  0.2971
  537TMC3    O1 8032   3.335   1.882  16.914 -0.1272 -0.3755  0.4571
  537TMC3    O2 8033   3.590   2.351  17.113 -0.2297 -0.0128 -0.4526
  538TMC3    C1 8034   0.140   1.276  10.994 -0.7138  0.4013 -0.9320
  538TMC3    C2 8035   0.168   1.176  10.906  0.2686 -0.3553  0.3164
  538TMC3    C3 8036   0.110   1.186  10.779  0.1861 -0.4295  0.5566
  538TMC3    C4 8037   0.079   1.392  10.957 -0.1231 -0.1701 -0.3317
  538TMC3    C5 8038   0.036   1.401  10.824 -0.0173 -0.4965  0.1746
  538TMC3    C6 8039   0.050   1.300  10.728 -0.0516  0.1308 -0.3163
  538TMC3     C 8040   0.150   1.262  11.141  0.0683 -0.2274  0.0396
  538TMC3     O 8041   0.087   1.335  11.211 -0.2291  0.5208  0.3218
  538TMC3     H 8042   0.221   1.084  10.927 -2.9424 -2.1507  0.3938
  538TMC3    H1 8043   0.067   1.472  11.029 -1.7993 -0.3779 -0.3896
  538TMC3    H2 8044   0.023   1.304  10.623 -0.8091 -1.2537 -0.1669
  538TMC3    C7 8045   4.700   1.522  10.789 -0.0014  0.2841 -0.7741
  538TMC3    C8 8046   0.156   1.088  10.680 -0.2952  0.6789  0.7419
  538TMC3    O1 8047   4.648   1.595  10.872 -0.2741 -0.4057  0.4020
  538TMC3    O2 8048   0.150   0.972  10.710 -0.0887 -0.3198  0.1945
  539MPD2     C 8049   0.128   0.681  11.083  0.4797 -0.1989 -0.7992
  539MPD2    C1 8050   0.012   0.608  11.128  0.2547  0.3194  0.9390
  539MPD2    C2 8051   4.619   0.663  11.132  0.1030  0.8630  0.2664
  539MPD2    C3 8052   4.608   0.801  11.094  0.6575  1.0606  0.3400
  539MPD2    C4 8053   4.720   0.873  11.045 -0.2587  0.0564 -0.3304
  539MPD2    C5 8054   0.106   0.811  11.045 -0.6859  1.0100 -0.1999
  539MPD2     H 8055   4.531   0.607  11.158  0.2002  0.3418 -0.5486
  539MPD2    H1 8056   4.709   0.967  10.994  2.6101  0.8246  0.4894
  539MPD2    H2 8057   0.228   0.639  11.078 -0.4347 -2.1746 -2.5519
  539MPD2    H3 8058   0.178   0.869  10.987 -0.0587  0.2864 -0.1430
  539MPD2     N 8059   4.490   0.876  11.105  0.0806  0.7888 -0.2685
  539MPD2    H5 8060   4.490   0.970  11.068  1.4146  0.9256  0.0935
  539MPD2    N1 8061   0.029   0.481  11.174 -1.1075  0.1028  0.2836
  539MPD2    H7 8062   4.675   0.438  11.196 -2.6305  1.6510 -2.9816
  540TMC3    C1 8063   4.278   0.953  11.181  0.4284 -0.2311  0.0703
  540TMC3    C2 8064   4.267   1.037  11.079  0.8035  0.4466 -0.2534
  540TMC3    C3 8065   4.177   1.140  11.097 -0.2210 -0.2251  0.2174
  540TMC3    C4 8066   4.199   0.955  11.290 -0.1571  0.3222  0.3400
  540TMC3    C5 8067   4.115   1.056  11.303 -0.0147 -0.4456 -0.2257
  540TMC3    C6 8068   4.098   1.150  11.215 -0.1444  0.0742 -0.0129
  540TMC3     C 8069   4.377   0.842  11.181 -0.7211 -0.6197 -0.8512
  540TMC3     O 8070   4.344   0.743  11.244 -0.2093 -0.7014  0.5621
  540TMC3     H 8071   4.330   1.027  10.991 -0.7203  0.0098 -1.2899
  540TMC3    H1 8072   4.211   0.881  11.368 -0.2408  2.0945  2.0552
  540TMC3    H2 8073   4.035   1.235  11.239  0.4766 -0.5150  3.7251
  540TMC3    C7 8074   4.020   1.048  11.411 -0.2804 -0.6001 -0.8376
  540TMC3    C8 8075   4.110   1.174  10.976 -0.0425 -0.1520 -0.2955
  540TMC3    O1 8076   3.973   0.940  11.444  0.3917  0.2981  0.1630
  540TMC3    O2 8077   4.057   1.286  10.965 -0.1801 -0.7363  0.1488
  541MPD2     C 8078   3.000   1.420  13.445  0.0171  0.2286  0.7163
  541MPD2    C1 8079   2.928   1.359  13.341 -0.1874 -0.3164  0.5677
  541MPD2    C2 8080   2.869   1.443  13.243 -0.7442  0.2062 -0.2461
  541MPD2    C3 8081   2.902   1.574  13.229 -0.5384 -0.3683  0.6721
  541MPD2    C4 8082   2.972   1.634  13.336 -0.4552  0.0901 -0.7513
  541MPD2    C5 8083   3.014   1.558  13.441 -0.6289 -0.0679 -0.1859
  541MPD2     H 8084   2.806   1.391  13.172 -2.4921  1.4344  0.3939
  541MPD2    H1 8085   2.996   1.739  13.327  1.2788 -0.3580 -1.2775
  541MPD2    H2 8086   3.044   1.370  13.531 -0.9919  1.1746  1.7957
  541MPD2    H3 8087   3.070   1.605  13.521 -2.4833  2.3298 -0.3076
  541MPD2     N 8088   2.869   1.659  13.122 -0.2414 -0.5106  0.4528
  541MPD2    H5 8089   2.904   1.754  13.123 -1.5402 -0.0295 -0.1781
  541MPD2    N1 8090   2.888   1.223  13.344  0.0663  0.2686  0.6133
  541MPD2    H7 8091   2.826   1.199  13.267 -0.2881 -0.8906  1.2526
  542TMC3    C1 8092   2.831   1.709  12.902  0.2038 -0.0385  0.1390
  542TMC3    C2 8093   2.899   1.671  12.796 -0.2606 -0.8074  0.1533
  542TMC3    C3 8094   2.897   1.747  12.688  0.2996 -0.6133 -0.4852
  542TMC3    C4 8095   2.757   1.824  12.917  0.2352 -0.6574  0.2059
  542TMC3    C5 8096   2.741   1.894  12.799 -0.0066 -0.6407  0.3964
  542TMC3    C6 8097   2.812   1.860  12.687  0.5770 -0.4305  0.2249
  542TMC3     C 8098   2.816   1.616  13.003  0.1926  0.1767 -0.4743
  542TMC3     O 8099   2.795   1.503  12.973  0.0464  0.2319  0.8242
  542TMC3     H 8100   2.966   1.586  12.798 -0.2503 -0.7570  2.8660
  542TMC3    H1 8101   2.698   1.848  13.005  0.3878 -1.3380  0.5001
  542TMC3    H2 8102   2.820   1.922  12.599  0.3680 -1.3635 -0.4538
  542TMC3    C7 8103   2.682   2.023  12.811  0.5192  0.1460  0.1536
  542TMC3    C8 8104   2.998   1.743  12.592 -0.1172  0.0899 -0.1232
  542TMC3    O1 8105   2.674   2.072  12.923 -0.0188 -0.1217 -0.5219
  542TMC3    O2 8106   3.106   1.696  12.623  0.4555  0.0311 -0.0208
  543TMC3    C1 8107   2.341   3.262  17.162  0.0086 -0.0595 -0.1794
  543TMC3    C2 8108   2.342   3.162  17.250  0.1004  0.7193 -0.4022
  543TMC3    C3 8109   2.321   3.180  17.388  0.3557  0.1854 -0.1389
  543TMC3    C4 8110   2.314   3.392  17.214  0.4051  0.3788  0.2847
  543TMC3    C5 8111   2.299   3.409  17.344  0.0033 -0.5006  0.1575
  543TMC3    C6 8112   2.288   3.307  17.437  0.2269 -0.3031 -0.0749
  543TMC3     C 8113   2.383   3.231  17.028 -0.2386  0.2387  0.3199
  543TMC3     O 8114   2.469   3.143  17.012  0.8587 -0.0408 -0.0864
  543TMC3     H 8115   2.373   3.063  17.219  2.0084  1.0475  0.4471
  543TMC3    H1 8116   2.304   3.473  17.143  0.6874  0.4405  0.3136
  543TMC3    H2 8117   2.257   3.317  17.540  0.7012 -1.3616  0.1728
  543TMC3    C7 8118   2.283   3.542  17.401  0.3780 -0.5114 -0.2172
  543TMC3    C8 8119   2.378   3.079  17.478 -0.5194  0.1531 -0.7503
  543TMC3    O1 8120   2.235   3.548  17.513  0.0803  0.4469  0.5156
  543TMC3    O2 8121   2.389   2.971  17.422 -0.1180  0.1167  0.4947
  544MPD2     C 8122   2.636   2.881   0.120  0.4404 -0.5212  0.3431
  544MPD2    C1 8123   2.582   2.813   0.014 -0.1908 -0.2779  0.6918
  544MPD2    C2 8124   2.498   2.889  17.682 -0.4136 -0.1579 -1.0561
  544MPD2    C3 8125   2.488   3.028  17.696  0.0370  0.1588  0.1646
  544MPD2    C4 8126   2.562   3.085   0.051 -0.5497  0.0268 -0.3646
  544MPD2    C5 8127   2.642   3.014   0.135 -0.0586  0.3664  0.3230
  544MPD2     H 8128   2.436   2.840  17.608 -0.2787 -0.3492 -1.0424
  544MPD2    H1 8129   2.550   3.190   0.077 -0.0124 -0.0063  0.0210
  544MPD2    H2 8130   2.698   2.820   0.185  1.9594  1.1791  0.5072
  544MPD2    H3 8131   2.701   3.054   0.217 -1.8605  0.4422  1.5813
  544MPD2     N 8132   2.416   3.116  17.604  0.0180 -0.6122  0.0891
  544MPD2    H5 8133   2.383   3.207  17.636 -2.4437 -1.1817 -0.8228
  544MPD2    N1 8134   2.611   2.672  17.733  0.4245 -0.4400 -0.4458
  544MPD2    H7 8135   2.680   2.636   0.056  0.1408  0.4173  0.3217
  545TMC3    C1 8136   2.567   2.461  17.630  0.5015 -0.2864 -0.1628
  545TMC3    C2 8137   2.510   2.395  17.527  0.2565 -0.1897  0.1600
  545TMC3    C3 8138   2.501   2.260  17.537 -0.3429 -0.5121  0.4486
  545TMC3    C4 8139   2.622   2.399  17.737 -0.7756  1.1753  0.6457
  545TMC3    C5 8140   2.629   2.266  17.727 -0.0687 -0.7119 -0.5025
  545TMC3    C6 8141   2.564   2.189  17.631  0.2829  0.6313  0.1642
  545TMC3     C 8142   2.553   2.605  17.628  0.3398  0.0953 -0.0513
  545TMC3     O 8143   2.491   2.655  17.532 -0.4550  0.2016  0.1323
  545TMC3     H 8144   2.467   2.449  17.443  0.6793 -2.1336 -1.3113
  545TMC3    H1 8145   2.664   2.440   0.087 -1.5082 -0.3421  1.6542
  545TMC3    H2 8146   2.550   2.081  17.637  0.9768  0.4604 -1.3723
  545TMC3    C7 8147   2.693   2.202   0.103 -0.3468 -0.2533  0.1674
  545TMC3    C8 8148   2.409   2.180  17.460  0.5343  0.2700  0.7058
  545TMC3    O1 8149   2.714   2.266   0.207  0.2460  0.0916  0.2373
  545TMC3    O2 8150   2.409   2.058  17.472  0.5954  0.0764 -0.6094
  546MPD2     C 8151   3.483   2.913  17.665  0.1862  0.0582  0.6692
  546MPD2    C1 8152   3.429   2.919  17.539  0.4359  0.2036  0.1182
  546MPD2    C2 8153   3.439   3.041  17.466  0.0981 -0.4857 -0.2444
  546MPD2    C3 8154   3.530   3.139  17.512  0.5436  0.3757 -0.5560
  546MPD2    C4 8155   3.567   3.136  17.646  0.3795  0.2351  0.8355
  546MPD2    C5 8156   3.544   3.023  17.720 -0.3169 -0.1009 -0.0232
  546MPD2     H 8157   3.405   3.054  17.364 -0.0972 -1.7249 -0.3321
  546MPD2    H1 8158   3.616   3.221  17.691  0.3332  0.7640 -0.1302
  546MPD2    H2 8159   3.474   2.829  17.733 -0.1414  0.3932  1.0344
  546MPD2    H3 8160   3.584   3.025   0.078  0.5372 -2.5266 -0.3070
  546MPD2     N 8161   3.558   3.256  17.436  0.1863 -0.3449  0.2492
  546MPD2    H5 8162   3.584   3.342  17.484  0.2959 -0.4520  0.3817
  546MPD2    N1 8163   3.347   2.814  17.492  0.3713 -0.3601  0.1180
  546MPD2    H7 8164   3.353   2.726  17.542  1.6243  1.0615  2.4484
  547TMC3    C1 8165   3.198   2.702  17.335 -0.0964  0.4138  0.5353
  547TMC3    C2 8166   3.092   2.701  17.254  0.6416 -0.1749 -0.3967
  547TMC3    C3 8167   3.051   2.583  17.206  0.5199  0.5045 -1.1548
  547TMC3    C4 8168   3.272   2.587  17.360 -0.6250 -0.4136  0.1395
  547TMC3    C5 8169   3.234   2.468  17.304  0.8843 -0.6313  0.4112
  547TMC3    C6 8170   3.113   2.463  17.246  0.2854 -0.4689 -0.1663
  547TMC3     C 8171   3.253   2.826  17.391  0.2770  0.2816 -0.2956
  547TMC3     O 8172   3.206   2.936  17.349  0.3312 -0.5344  0.1648
  547TMC3     H 8173   3.050   2.795  17.219 -0.6655 -0.5718  0.0888
  547TMC3    H1 8174   3.361   2.577  17.422  0.6753  1.4551 -1.4461
  547TMC3    H2 8175   3.076   2.365  17.218 -1.2271 -0.4079  1.5908
  547TMC3    C7 8176   3.275   2.347  17.371  0.7518 -0.0630 -0.8698
  547TMC3    C8 8177   2.953   2.583  17.094  0.4884  0.3404 -0.0854
  547TMC3    O1 8178   3.319   2.357  17.483 -0.0154 -0.0155 -0.1975
  547TMC3    O2 8179   2.883   2.684  17.065  0.0927 -0.6834  0.4181
  548MPD2     C 8180   3.600   3.320  12.890 -0.1904  0.1945 -0.0177
  548MPD2    C1 8181   3.545   3.201  12.846 -0.5068 -0.4178 -0.5436
  548MPD2    C2 8182   3.607   3.100  12.780  0.1507  0.1054 -0.1950
  548MPD2    C3 8183   3.744   3.108  12.761  0.4302  0.0449 -0.0805
  548MPD2    C4 8184   3.806   3.226  12.814 -0.5085  0.5971  0.6129
  548MPD2    C5 8185   3.734   3.329  12.875 -0.1352 -0.8357 -0.1709
  548MPD2     H 8186   3.553   3.013  12.743 -0.3166  0.3361 -0.0464
  548MPD2    H1 8187   3.914   3.237  12.810 -0.6706  2.7800  2.2200
  548MPD2    H2 8188   3.552   3.399  12.946  0.1720  0.4691 -0.0955
  548MPD2    H3 8189   3.787   3.412  12.919  0.1665 -0.7029 -0.7909
  548MPD2     N 8190   3.809   3.007  12.691 -0.0033  0.3964 -0.0197
  548MPD2    H5 8191   3.750   2.935  12.650 -0.6075 -0.3070  2.0370
  548MPD2    N1 8192   3.410   3.195  12.877 -0.6134  0.1479 -0.4013
  548MPD2    H7 8193   3.363   3.273  12.922 -0.8774 -0.0820 -0.2818
  549TMC3    C1 8194   3.187   3.107  12.869 -0.3771 -0.0267  0.3552
  549TMC3    C2 8195   3.145   3.201  12.780  0.1034  0.3077 -0.0461
  549TMC3    C3 8196   3.010   3.214  12.759 -0.2279  0.1875 -0.0856
  549TMC3    C4 8197   3.108   3.001  12.907 -0.3052  0.4160  0.6056
  549TMC3    C5 8198   2.975   3.011  12.876  0.4299  0.1808 -0.8309
  549TMC3    C6 8199   2.930   3.109  12.799 -0.2729 -0.3804 -0.5768
  549TMC3     C 8200   3.330   3.079  12.873 -0.2546 -0.6343 -0.2213
  549TMC3     O 8201   3.364   2.963  12.857 -0.7947  0.1312 -0.2373
  549TMC3     H 8202   3.218   3.271  12.741 -0.3739  0.0773 -1.3546
  549TMC3    H1 8203   3.150   2.928  12.976 -1.6436  0.3748  1.3824
  549TMC3    H2 8204   2.828   3.111  12.762  0.1934 -1.5953 -1.9430
  549TMC3    C7 8205   2.876   2.912  12.913  0.1048  0.0758 -0.0215
  549TMC3    C8 8206   2.963   3.301  12.645  0.7844 -0.5878 -0.6648
  549TMC3    O1 8207   2.762   2.947  12.941  0.1240  0.1223  0.2984
  549TMC3    O2 8208   2.873   3.259  12.570  0.3353 -0.2334 -0.1235
  550TMC3    C1 8209   2.693   1.318  12.202  0.8829 -0.3843 -0.7375
  550TMC3    C2 8210   2.681   1.370  12.324 -0.6601 -0.0368 -0.3911
  550TMC3    C3 8211   2.645   1.500  12.336  0.4499  0.1401 -0.1620
  550TMC3    C4 8212   2.652   1.390  12.093  0.0774 -0.1359  0.1048
  550TMC3    C5 8213   2.615   1.521  12.104  0.7790  0.4930 -0.1905
  550TMC3    C6 8214   2.615   1.578  12.230  0.4916  0.0206 -0.1504
  550TMC3     C 8215   2.644   1.178  12.195  0.4911 -0.3773 -0.1200
  550TMC3     O 8216   2.686   1.098  12.280 -0.4712  0.3407 -0.2449
  550TMC3     H 8217   2.697   1.307  12.411 -2.2918  1.7038  1.1776
  550TMC3    H1 8218   2.660   1.343  11.996  0.0704 -0.0833  0.0788
  550TMC3    H2 8219   2.586   1.682  12.243 -0.6632 -0.2600 -0.5364
  550TMC3    C7 8220   2.507   1.565  12.019  0.7022  0.3447 -0.0144
  550TMC3    C8 8221   2.619   1.571  12.459 -0.7316  0.1321 -0.3431
  550TMC3    O1 8222   2.445   1.477  11.960 -0.2414  0.0054  0.2466
  550TMC3    O2 8223   2.639   1.692  12.457 -0.7687 -0.0281 -0.2682
  551TMC3    C1 8224   0.080   3.691  12.936  0.6197 -0.0018 -0.2050
  551TMC3    C2 8225   0.202   3.697  12.880  0.1222  0.0819  0.3423
  551TMC3    C3 8226   0.307   3.716  12.971 -0.5064  0.3157  0.5951
  551TMC3    C4 8227   0.059   3.676  13.074 -0.1767 -0.2245 -0.3271
  551TMC3    C5 8228   0.165   3.702  13.159 -0.0291 -0.2409 -0.0000
  551TMC3    C6 8229   0.287   3.726  13.104 -0.3444 -0.7510 -0.5354
  551TMC3     C 8230   4.705   3.720  12.851  0.0183  0.3916 -0.0273
  551TMC3     O 8231   4.594   3.696  12.903  0.3826  0.2718  0.3641
  551TMC3     H 8232   0.233   3.680  12.777 -2.8085 -0.1845 -0.4986
  551TMC3    H1 8233   4.689   3.676  13.101  0.1691 -0.3179  1.0465
  551TMC3    H2 8234   0.377   3.738  13.163 -0.4224 -1.3808 -0.2974
  551TMC3    C7 8235   0.144   3.746  13.293  0.3249  0.1147  0.0390
  551TMC3    C8 8236   0.390   3.827  12.916 -0.0443  0.0938 -0.6937
  551TMC3    O1 8237   0.248   3.763  13.354  0.3565  0.1664  0.1357
  551TMC3    O2 8238   0.431   3.809  12.801  0.1706 -0.0819  0.3934
  552MPD2     C 8239   1.576   1.168  14.367  0.1644  0.3035 -0.0625
  552MPD2    C1 8240   1.648   1.046  14.369  0.7986  1.3205 -0.5517
  552MPD2    C2 8241   1.747   1.029  14.463 -0.0306 -0.2152  0.0054
  552MPD2    C3 8242   1.772   1.126  14.551  0.0592 -0.2148  0.4586
  552MPD2    C4 8243   1.693   1.235  14.563 -0.0633 -0.1396  0.0332
  552MPD2    C5 8244   1.592   1.261  14.471  0.9199  0.3070 -0.2420
  552MPD2     H 8245   1.800   0.934  14.462 -0.0323 -0.2166  0.0379
  552MPD2    H1 8246   1.711   1.309  14.640  3.8540  1.7984 -2.6949
  552MPD2    H2 8247   1.498   1.178  14.293 -2.3163  2.8716  2.9393
  552MPD2    H3 8248   1.533   1.349  14.490  1.6096  0.9775 -1.2375
  552MPD2     N 8249   1.882   1.122  14.639 -1.0175  0.2886  0.3106
  552MPD2    H5 8250   1.876   1.177  14.724  0.7252  0.1432  0.5154
  552MPD2    N1 8251   1.629   0.944  14.270  0.0675 -0.0901 -0.3942
  552MPD2    H7 8252   1.696   0.868  14.278 -0.5436 -0.7342 -1.3878
  553TMC3    C1 8253   1.563   0.838  14.065 -0.0823  0.0972  1.1841
  553TMC3    C2 8254   1.564   0.856  13.935 -0.4431  0.4652  0.2608
  553TMC3    C3 8255   1.598   0.749  13.852  0.4210  0.1436 -0.0513
  553TMC3    C4 8256   1.610   0.718  14.124  0.0799 -0.2538  0.2077
  553TMC3    C5 8257   1.625   0.617  14.038 -0.3717  0.4707  0.6148
  553TMC3    C6 8258   1.613   0.621  13.904 -0.1397  1.5373 -0.2589
  553TMC3     C 8259   1.558   0.956  14.147  0.6615 -0.5771 -0.6194
  553TMC3     O 8260   1.518   1.057  14.095 -0.3089  0.8987  0.1557
  553TMC3     H 8261   1.557   0.952  13.885 -1.7410 -1.0351 -2.4318
  553TMC3    H1 8262   1.617   0.708  14.232  1.7339 -0.6663  0.0627
  553TMC3    H2 8263   1.641   0.531  13.850 -0.1065  0.9367  0.7558
  553TMC3    C7 8264   1.679   0.490  14.084 -0.1982 -0.4938 -0.2303
  553TMC3    C8 8265   1.684   0.764  13.736  0.0935  0.0566  0.4300
  553TMC3    O1 8266   1.629   0.386  14.042  0.2155  0.3544  0.3277
  553TMC3    O2 8267   1.772   0.679  13.725 -0.1490 -0.6615 -0.2811
  554TMC3    C1 8268   3.627   0.811  11.507  0.3354 -0.3290  0.4877
  554TMC3    C2 8269   3.533   0.738  11.443  1.0684  0.2763  0.2204
  554TMC3    C3 8270   3.474   0.795  11.338 -0.0455 -0.1651 -0.7837
  554TMC3    C4 8271   3.658   0.935  11.471 -0.0007  0.3543 -0.4771
  554TMC3    C5 8272   3.592   0.996  11.362 -0.2528 -0.3962 -0.3829
  554TMC3    C6 8273   3.498   0.928  11.298  0.0279  0.1158 -0.3333
  554TMC3     C 8274   3.708   0.753  11.606 -0.1202 -0.0625 -0.3275
  554TMC3     O 8275   3.768   0.822  11.686  0.7022  0.3517 -0.4220
  554TMC3     H 8276   3.498   0.644  11.485  1.4276 -0.2401 -0.6288
  554TMC3    H1 8277   3.746   0.979  11.516  0.8652 -0.2619 -1.5510
  554TMC3    H2 8278   3.449   0.976  11.214 -2.0018 -0.5210  0.4839
  554TMC3    C7 8279   3.633   1.127  11.308 -0.2573  0.2482  0.3548
  554TMC3    C8 8280   3.437   0.701  11.237  0.5525 -0.1061  0.4445
  554TMC3    O1 8281   3.611   1.167  11.191 -0.2810 -0.3162  0.0942
  554TMC3    O2 8282   3.420   0.588  11.278  0.0921  0.0628  0.0916
  555TMC3    C1 8283   2.982   4.352  14.693 -0.2889 -0.0801  0.7940
  555TMC3    C2 8284   3.007   4.460  14.777  0.4623 -0.0130 -0.4960
  555TMC3    C3 8285   2.979   4.439  14.910 -0.0544 -0.3000  0.2617
  555TMC3    C4 8286   2.930   4.235  14.729 -0.9109  0.0220 -0.4380
  555TMC3    C5 8287   2.921   4.219  14.862 -0.0209 -0.2414  0.3310
  555TMC3    C6 8288   2.932   4.317  14.955 -0.0910  0.1187  1.0540
  555TMC3     C 8289   2.987   4.372  14.549  0.0749  0.1287  0.8673
  555TMC3     O 8290   3.075   4.440  14.497  0.1704  0.5636  0.5007
  555TMC3     H 8291   3.050   4.551  14.738  0.2916 -0.5241 -1.9004
  555TMC3    H1 8292   2.938   4.151  14.661 -0.6272  1.6963 -2.4941
  555TMC3    H2 8293   2.911   4.293  15.059  1.9955 -2.0252  0.9747
  555TMC3    C7 8294   2.901   4.082  14.917 -0.1843 -0.1112  0.0221
  555TMC3    C8 8295   3.021   4.538  15.009 -0.1523 -0.8714 -0.6300
  555TMC3    O1 8296   2.832   4.072  15.018  0.6875 -0.6510 -0.2836
  555TMC3    O2 8297   3.032   4.656  14.969 -0.5779  0.1737  0.1531
  556MPD2     C 8298   1.128   1.816  10.789  0.0520  0.6325  0.1518
  556MPD2    C1 8299   1.026   1.731  10.825 -0.3971 -0.2871  0.2504
  556MPD2    C2 8300   1.001   1.621  10.753 -0.6843 -0.0843 -0.2080
  556MPD2    C3 8301   1.072   1.600  10.633  0.2538 -0.7243 -0.8738
  556MPD2    C4 8302   1.173   1.686  10.599 -0.1000 -0.5939  0.0101
  556MPD2    C5 8303   1.213   1.783  10.688  0.0310 -0.6772 -0.4084
  556MPD2     H 8304   0.926   1.547  10.780 -1.0254  0.2856 -0.1338
  556MPD2    H1 8305   1.238   1.662  10.516 -1.9016 -0.6705 -1.3628
  556MPD2    H2 8306   1.169   1.897  10.848 -1.3739  0.6860  1.0700
  556MPD2    H3 8307   1.307   1.833  10.666 -0.1918 -1.4322 -3.1685
  556MPD2     N 8308   1.029   1.488  10.554  0.1419 -0.0918 -0.1236
  556MPD2    H5 8309   0.961   1.425  10.595  2.2129 -0.8273  2.1701
  556MPD2    N1 8310   0.947   1.760  10.935  0.2688  0.4680  0.4424
  556MPD2    H7 8311   0.899   1.681  10.977  1.3272  0.7332  2.1533
  557TMC3    C1 8312   0.994   1.353  10.359 -0.4497 -0.1649 -0.8023
  557TMC3    C2 8313   1.056   1.283  10.259  0.6694 -0.4024 -0.5309
  557TMC3    C3 8314   0.984   1.188  10.188 -0.0268  0.8084 -0.0260
  557TMC3    C4 8315   0.862   1.329  10.389 -0.2740  0.0895 -0.5208
  557TMC3    C5 8316   0.797   1.234  10.310  0.3573  0.6085 -0.6298
  557TMC3    C6 8317   0.855   1.163  10.211  0.1656  0.4108  0.2104
  557TMC3     C 8318   1.078   1.450  10.428 -0.2851  0.1024  0.8553
  557TMC3     O 8319   1.169   1.495  10.359  0.2110 -0.3695  0.1218
  557TMC3     H 8320   1.161   1.298  10.239  1.2751 -0.8525  2.2605
  557TMC3    H1 8321   0.812   1.378  10.471 -0.3840  0.3543 -0.7469
  557TMC3    H2 8322   0.793   1.107  10.142  0.0904 -0.7362  1.2125
  557TMC3    C7 8323   0.654   1.235  10.318 -0.1111 -0.3233 -0.4630
  557TMC3    C8 8324   1.057   1.119  10.083  0.1129 -0.1092  0.1807
  557TMC3    O1 8325   0.596   1.334  10.367  0.5832  0.0675 -0.3186
  557TMC3    O2 8326   1.175   1.132  10.070 -0.6316  0.4087 -0.1214
  558TMC3    C1 8327   2.990   3.982  10.081 -0.6666  0.3588 -0.0865
  558TMC3    C2 8328   2.866   3.966  10.133  0.2423 -0.1020  0.3058
  558TMC3    C3 8329   2.759   3.974  10.050  0.5908 -0.4829  0.4536
  558TMC3    C4 8330   3.005   4.030   9.952 -0.8277 -0.1843  0.1621
  558TMC3    C5 8331   2.894   4.035   9.871  0.1045 -0.3455 -0.2511
  558TMC3    C6 8332   2.778   3.995   9.920  0.2702 -0.6692 -0.4103
  558TMC3     C 8333   3.104   3.978  10.175 -0.6583 -0.2376  0.1599
  558TMC3     O 8334   3.178   4.077  10.176 -0.1908 -0.3921 -0.6338
  558TMC3     H 8335   2.855   3.934  10.236 -2.9042 -3.0333 -0.9544
  558TMC3    H1 8336   3.104   4.055   9.916 -0.9394  0.1706  0.1027
  558TMC3    H2 8337   2.683   3.986   9.868 -0.3507 -0.8442  0.7593
  558TMC3    C7 8338   2.901   4.101   9.739  0.5809 -0.2757  0.1923
  558TMC3    C8 8339   2.639   4.030  10.111 -0.2575  0.3666  0.0401
  558TMC3    O1 8340   3.012   4.110   9.684  0.4690 -0.5385 -0.3074
  558TMC3    O2 8341   2.541   4.008  10.042  0.5952 -0.0659 -0.0200
  559MPD2     C 8342   3.160   0.449  10.215 -0.3279  0.2311 -1.1495
  559MPD2    C1 8343   3.100   0.362  10.308 -0.1520  0.1527 -0.0439
  559MPD2    C2 8344   3.174   0.297  10.395 -0.4172 -0.1562 -0.2192
  559MPD2    C3 8345   3.308   0.325  10.406 -0.0293 -0.4660  0.2431
  559MPD2    C4 8346   3.376   0.410  10.322 -0.0140 -0.7026 -0.5951
  559MPD2    C5 8347   3.296   0.466  10.223  0.7705  0.7710  0.1281
  559MPD2     H 8348   3.134   0.228  10.468  1.2387 -1.2142 -0.3113
  559MPD2    H1 8349   3.479   0.445  10.322 -0.5743  0.9212  0.7413
  559MPD2    H2 8350   3.114   0.500  10.131  1.1783  0.4863 -1.8246
  559MPD2    H3 8351   3.349   0.538  10.163  1.6581 -2.5986 -3.1249
  559MPD2     N 8352   3.369   0.257  10.519  0.4583  0.5625  0.5261
  559MPD2    H5 8353   3.299   0.223  10.584  0.4984  0.0462  0.2930
  559MPD2    N1 8354   2.961   0.334  10.296  0.3399 -0.0882  0.1048
  559MPD2    H7 8355   2.916   0.389  10.224  1.6563  1.1812  0.2414
  560TMC3    C1 8356   3.534   0.211  10.689  0.3204  0.5927 -0.7192
  560TMC3    C2 8357   3.455   0.103  10.728 -0.5064  0.0590 -0.9306
  560TMC3    C3 8358   3.472   0.036  10.844 -0.1443  0.5427 -0.5007
  560TMC3    C4 8359   3.641   0.244  10.769  0.2563  0.7552  0.1510
  560TMC3    C5 8360   3.670   0.166  10.875  0.4887  0.2758 -0.4949
  560TMC3    C6 8361   3.587   0.064  10.918 -0.4484 -0.0253 -0.5413
  560TMC3     C 8362   3.493   0.282  10.569  0.7355  0.0417  0.4175
  560TMC3     O 8363   3.576   0.359  10.517 -0.0130  0.2611 -0.4982
  560TMC3     H 8364   3.377   0.066  10.661 -0.0534 -2.4702 -0.0619
  560TMC3    H1 8365   3.705   0.325  10.737  0.2337  1.0404  0.8138
  560TMC3    H2 8366   3.599   0.018  11.015 -0.4158 -0.6850 -0.8571
  560TMC3    C7 8367   3.799   0.155  10.935  0.4195  0.0388 -0.3412
  560TMC3    C8 8368   3.378   4.683  10.891 -0.6311  0.2519  0.1708
  560TMC3    O1 8369   3.823   0.046  10.989  0.9699 -0.2183 -0.0461
  560TMC3    O2 8370   3.267   4.704  10.847 -0.1666 -0.3580 -0.1836
  561TMC3    C1 8371   0.866   3.979  10.888 -0.3644 -0.1807 -0.1256
  561TMC3    C2 8372   0.779   3.918  10.968  0.2539 -0.6381  0.4841
  561TMC3    C3 8373   0.728   3.991  11.077  0.1354 -0.3137  0.3333
  561TMC3    C4 8374   0.907   4.109  10.902 -0.7654 -0.6638  0.8926
  561TMC3    C5 8375   0.848   4.184  11.000 -0.0416  0.8167 -0.7712
  561TMC3    C6 8376   0.758   4.125  11.083 -0.0764  0.0191 -0.0074
  561TMC3     C 8377   0.947   3.887  10.801  0.4491 -0.2091  0.1448
  561TMC3     O 8378   0.876   3.797  10.759  0.4908  0.3309 -0.0008
  561TMC3     H 8379   0.758   3.812  10.971 -0.6746 -0.5053 -2.1209
  561TMC3    H1 8380   0.990   4.137  10.838 -1.3534 -0.7536  0.0972
  561TMC3    H2 8381   0.731   4.183  11.170 -0.7672 -0.0895 -0.1540
  561TMC3    C7 8382   0.919   4.303  11.043  0.3117 -0.1953 -0.1485
  561TMC3    C8 8383   0.684   3.925  11.191  0.4689 -0.1603  0.2030
  561TMC3    O1 8384   0.895   4.355  11.149 -0.1258 -0.0231 -0.1812
  561TMC3    O2 8385   0.667   3.803  11.167 -0.4820 -0.5176  0.4334
  562TMC3    C1 8386   2.789   4.607  16.215 -0.1590 -0.5712  0.0783
  562TMC3    C2 8387   2.726   4.719  16.260  0.1100  0.0733 -0.4559
  562TMC3    C3 8388   2.633   0.043  16.180  0.1502  1.0120 -0.3643
  562TMC3    C4 8389   2.755   4.542  16.102  0.9065  0.7301 -0.5414
  562TMC3    C5 8390   2.645   4.592  16.040 -0.4401  0.9129 -0.6275
  562TMC3    C6 8391   2.583   4.707  16.078 -0.5720 -0.9523  0.4489
  562TMC3     C 8392   2.908   4.569  16.279  0.0699  0.0420  0.8864
  562TMC3     O 8393   2.975   4.662  16.311 -0.2948  0.4807 -0.5837
  562TMC3     H 8394   2.757   0.028  16.354 -0.6320  1.5378 -0.9100
  562TMC3    H1 8395   2.812   4.457  16.067 -0.8011 -1.0798  1.0841
  562TMC3    H2 8396   2.498   0.006  16.019 -2.4269 -1.4489  2.8073
  562TMC3    C7 8397   2.616   4.559  15.902 -0.1803 -0.6597 -0.0308
  562TMC3    C8 8398   2.551   0.146  16.240  0.1800  0.5419  0.2924
  562TMC3    O1 8399   2.581   4.649  15.829 -0.2876  0.2066 -0.4397
  562TMC3    O2 8400   2.550   0.157  16.362  0.9807 -0.1098  0.1949
  563MPD2     C 8401   0.355   1.478  15.402  0.0427 -0.1705 -1.0215
  563MPD2    C1 8402   0.333   1.368  15.476 -0.6034  0.6163 -0.1386
  563MPD2    C2 8403   0.440   1.301  15.514  0.6207  0.0219  0.3254
  563MPD2    C3 8404   0.566   1.349  15.509  0.6493  0.1231 -0.0535
  563MPD2    C4 8405   0.594   1.457  15.424  0.1403  0.0355 -0.5761
  563MPD2    C5 8406   0.483   1.514  15.361  0.5033  0.2224  0.5782
  563MPD2     H 8407   0.423   1.214  15.576 -0.2236  1.0804  1.6104
  563MPD2    H1 8408   0.698   1.484  15.411  0.5545 -1.0650  0.3559
  563MPD2    H2 8409   0.273   1.540  15.369  1.2229  2.8505  1.7340
  563MPD2    H3 8410   0.490   1.598  15.293  4.3003 -0.3892  0.1973
  563MPD2     N 8411   0.654   1.275  15.583  0.0481  0.5591  0.4651
  563MPD2    H5 8412   0.612   1.201  15.638  1.6626 -1.4665 -1.0086
  563MPD2    N1 8413   0.217   1.333  15.541  0.5896 -0.1985  0.3579
  563MPD2    H7 8414   0.222   1.255  15.605 -0.6893  0.2329  0.9893
  564TMC3    C1 8415   0.040   1.399  15.673 -0.1370  0.0067  0.1771
  564TMC3    C2 8416   4.640   1.358  15.672  0.2363  0.2254 -0.1210
  564TMC3    C3 8417   4.581   1.319  15.795  0.3206  0.1030  0.5387
  564TMC3    C4 8418   0.121   1.363  15.771  0.4284  0.1891  0.3547
  564TMC3    C5 8419   0.061   1.343  15.890  0.4227 -0.6589  0.0873
  564TMC3    C6 8420   4.663   1.313  15.904  0.3778  0.3198 -0.1725
  564TMC3     C 8421   0.096   1.401  15.541 -0.0602 -0.0213 -0.1152
  564TMC3     O 8422   0.039   1.460  15.448 -0.2533 -0.0381  0.5513
  564TMC3     H 8423   4.591   1.349  15.576  0.5617 -0.8789 -0.1751
  564TMC3    H1 8424   0.219   1.411  15.765 -0.8044  2.7974  0.9675
  564TMC3    H2 8425   4.617   1.305  16.002 -0.3292  1.1105 -0.4393
  564TMC3    C7 8426   0.157   1.293  15.986 -0.1752 -0.4344 -0.1806
  564TMC3    C8 8427   4.471   1.230  15.800 -0.0686  0.2807 -0.0367
  564TMC3    O1 8428   0.268   1.270  15.943 -0.2120 -0.1162  0.3708
  564TMC3    O2 8429   4.439   1.171  15.902 -0.1550 -0.0038 -0.4166
  565TMC3    C1 8430   1.144   2.724   9.845  0.8465 -0.2402 -0.2286
  565TMC3    C2 8431   1.151   2.660   9.964  0.2890 -0.0751  0.5034
  565TMC3    C3 8432   1.198   2.530   9.966 -0.7186 -0.1761  0.1401
  565TMC3    C4 8433   1.205   2.678   9.733  0.5550  0.4740  0.1644
  565TMC3    C5 8434   1.256   2.551   9.743  0.4866 -0.7024 -0.4194
  565TMC3    C6 8435   1.259   2.481   9.860 -0.1299 -0.2952 -0.9767
  565TMC3     C 8436   1.114   2.865   9.843  0.4755 -0.1170 -0.8968
  565TMC3     O 8437   1.185   2.931   9.770  0.3131 -0.3376 -0.5414
  565TMC3     H 8438   1.087   2.684  10.048 -1.3911 -0.9923 -0.4945
  565TMC3    H1 8439   1.194   2.729   9.638  1.4413 -1.2314 -0.8653
  565TMC3    H2 8440   1.271   2.373   9.851 -1.6314 -0.5045 -0.3890
  565TMC3    C7 8441   1.327   2.493   9.628  0.5095 -0.6595 -0.8912
  565TMC3    C8 8442   1.184   2.458  10.088 -0.3012  0.3948 -0.0604
  565TMC3    O1 8443   1.326   2.371   9.623 -0.0743  0.1951  0.3981
  565TMC3    O2 8444   1.116   2.504  10.179  0.0756 -0.0503  0.0956
  566MPD2     C 8445   2.152   3.600  14.199 -0.3378  0.6662 -0.1223
  566MPD2    C1 8446   2.187   3.661  14.079  0.1860 -0.1847  0.2912
  566MPD2    C2 8447   2.103   3.674  13.977  0.0746 -0.0426 -0.5746
  566MPD2    C3 8448   1.970   3.629  13.988  0.1563  0.0274 -0.2460
  566MPD2    C4 8449   1.933   3.569  14.110  0.4310 -1.2041  0.4912
  566MPD2    C5 8450   2.031   3.548  14.208  0.9055 -0.5883 -0.1407
  566MPD2     H 8451   2.131   3.724  13.885  3.2034 -0.2109  0.3074
  566MPD2    H1 8452   1.830   3.543  14.132  0.4733 -0.5945  1.4188
  566MPD2    H2 8453   2.228   3.587  14.275 -0.1227 -1.5439 -0.7142
  566MPD2    H3 8454   1.994   3.498  14.297 -0.0607 -1.0505 -0.8061
  566MPD2     N 8455   1.870   3.648  13.888  0.2379  0.0413 -0.5016
  566MPD2    H5 8456   1.906   3.676  13.797  0.4224 -0.6491 -0.6400
  566MPD2    N1 8457   2.322   3.714  14.077  0.1336 -0.5407 -0.7693
  566MPD2    H7 8458   2.377   3.703  14.162 -2.7892  0.4180  1.2459
  567TMC3    C1 8459   2.511   3.830  13.996  0.0909  0.5463 -0.0186
  567TMC3    C2 8460   2.581   3.867  13.893 -0.3325  0.5062 -0.3287
  567TMC3    C3 8461   2.701   3.935  13.916 -0.9215 -0.5749  0.4342
  567TMC3    C4 8462   2.542   3.868  14.123  0.4216  0.3478 -0.5024
  567TMC3    C5 8463   2.670   3.918  14.143 -0.3553  0.4440 -0.1023
  567TMC3    C6 8464   2.749   3.962  14.043  0.2876 -0.1134 -0.0106
  567TMC3     C 8465   2.377   3.777  13.971 -0.4072  0.2980  0.5118
  567TMC3     O 8466   2.348   3.784  13.851  0.8011  0.3760  0.0757
  567TMC3     H 8467   2.543   3.852  13.793  0.6771  0.1482 -0.6636
  567TMC3    H1 8468   2.482   3.832  14.205 -0.0287 -1.3734 -1.6043
  567TMC3    H2 8469   2.841   4.014  14.069  1.1040 -0.8580 -1.4359
  567TMC3    C7 8470   2.734   3.910  14.274 -0.1149 -1.2984  0.3672
  567TMC3    C8 8471   2.693   4.052  13.833 -0.0606  0.0245  0.1072
  567TMC3    O1 8472   2.851   3.887  14.289 -0.2852  0.6521  0.3260
  567TMC3    O2 8473   2.584   4.079  13.783  0.5298 -0.3383 -0.2260
  568MPD2     C 8474   4.406   4.512  16.163 -0.0200  0.3832  0.8146
  568MPD2    C1 8475   4.390   4.604  16.258 -0.0673  0.5302 -0.3405
  568MPD2    C2 8476   4.333   4.726  16.228  0.1636 -0.1733 -0.6756
  568MPD2    C3 8477   4.298   0.025  16.098  0.3944  0.0955  1.0265
  568MPD2    C4 8478   4.314   4.664  16.000 -0.0092 -0.9842  0.2267
  568MPD2    C5 8479   4.370   4.540  16.032 -0.3621 -0.2520  0.4312
  568MPD2     H 8480   4.318   0.063  16.306  1.9386 -0.3710 -0.1366
  568MPD2    H1 8481   4.285   4.674  15.896 -1.3327  0.2062  0.7058
  568MPD2    H2 8482   4.461   4.424  16.194  1.3988  0.5095 -1.3865
  568MPD2    H3 8483   4.390   4.467  15.954  2.4929  0.2252  0.7028
  568MPD2     N 8484   4.239   0.152  16.071  0.3968 -0.3332 -0.1030
  568MPD2    H5 8485   4.226   0.218  16.147 -1.3381  1.0198 -1.5706
  568MPD2    N1 8486   4.403   4.558  16.395 -0.0878 -0.4398  0.3194
  568MPD2    H7 8487   4.433   4.462  16.403 -0.3586 -0.4882  0.7319
  569TMC3    C1 8488   4.182   0.335  15.955 -0.1628  0.3675  0.3937
  569TMC3    C2 8489   4.129   0.381  16.078  0.4796  0.3442  0.3619
  569TMC3    C3 8490   4.133   0.521  16.095  0.2562  0.0640 -0.5433
  569TMC3    C4 8491   4.217   0.422  15.858 -0.5834 -0.2632  0.2117
  569TMC3    C5 8492   4.213   0.554  15.875 -0.5632 -0.3320  0.5677
  569TMC3    C6 8493   4.176   0.607  15.991  0.0852 -0.7021 -0.4101
  569TMC3     C 8494   4.219   0.201  15.949 -0.0176  1.3017 -0.1655
  569TMC3     O 8495   4.256   0.161  15.840  0.6613 -0.2867  0.3429
  569TMC3     H 8496   4.107   0.323  16.167 -0.0480 -0.5395 -0.3456
  569TMC3    H1 8497   4.234   0.375  15.762 -1.4464  1.3474 -0.7260
  569TMC3    H2 8498   4.166   0.714  16.006 -0.4865 -1.0732  1.8574
  569TMC3    C7 8499   4.233   0.637  15.755 -0.7463  0.4679 -0.3278
  569TMC3    C8 8500   4.115   0.566  16.232 -0.1547 -0.0861 -0.2591
  569TMC3    O1 8501   4.198   0.585  15.648  0.2187  0.0039  0.5249
  569TMC3    O2 8502   4.031   0.498  16.286  0.2443  0.3688 -0.6458
  570TMC3    C1 8503   3.788   3.464  16.021  0.5637 -0.0717 -0.0089
  570TMC3    C2 8504   3.843   3.427  15.899  0.1480 -0.2271 -0.2217
  570TMC3    C3 8505   3.872   3.536  15.814 -0.2926  0.1194 -0.1333
  570TMC3    C4 8506   3.780   3.590  16.066 -0.0896  0.4956  0.1070
  570TMC3    C5 8507   3.810   3.687  15.978  0.7312 -0.1116 -0.5137
  570TMC3    C6 8508   3.854   3.670  15.850  0.2360 -0.2109 -0.1957
  570TMC3     C 8509   3.752   3.358  16.115 -0.5757 -0.5894 -0.1882
  570TMC3     O 8510   3.708   3.254  16.061 -0.2023 -0.6387  0.0147
  570TMC3     H 8511   3.860   3.322  15.879 -1.6847 -0.4836 -0.4295
  570TMC3    H1 8512   3.747   3.617  16.166  1.5632 -0.5674  0.9417
  570TMC3    H2 8513   3.858   3.748  15.775  1.4997  0.3584  0.4578
  570TMC3    C7 8514   3.807   3.825  16.038  0.5863  0.8108 -0.2100
  570TMC3    C8 8515   3.981   3.535  15.728 -0.2202  0.1083  0.5039
  570TMC3    O1 8516   3.842   3.840  16.155 -0.2910 -0.2980  0.5205
  570TMC3    O2 8517   4.059   3.626  15.737 -0.6609 -0.6530 -0.3913
  571MPD2     C 8518   1.732   0.576   0.146  0.1934  0.2850  0.3804
  571MPD2    C1 8519   1.613   0.618   0.209  0.5484  0.4868  0.1281
  571MPD2    C2 8520   1.624   0.717   0.308  0.6981  0.0336  0.0646
  571MPD2    C3 8521   1.748   0.781   0.336  0.6727  0.0546 -0.6336
  571MPD2    C4 8522   1.863   0.734   0.268  0.2869  0.3060  0.1415
  571MPD2    C5 8523   1.855   0.629   0.183  0.6431  0.0589 -0.3695
  571MPD2     H 8524   1.538   0.746   0.366 -0.1660  0.5385 -1.4748
  571MPD2    H1 8525   1.962   0.776   0.282  0.2656  0.0163  1.1632
  571MPD2    H2 8526   1.735   0.515   0.056  0.4219  0.9238 -0.0403
  571MPD2    H3 8527   1.943   0.610   0.123 -0.5351 -0.9948 -1.7671
  571MPD2     N 8528   1.763   0.897   0.421 -0.2550 -0.2207 -0.7878
  571MPD2    H5 8529   1.857   0.936   0.427 -0.6605  0.5581  0.5012
  571MPD2    N1 8530   1.493   0.549   0.174 -0.3527 -0.1714 -0.2114
  571MPD2    H7 8531   1.499   0.476   0.104  0.7230 -0.8943  0.6294
  572TMC3    C1 8532   1.707   1.080   0.563 -0.0958 -0.5353 -0.0649
  572TMC3    C2 8533   1.614   1.118   0.656 -0.2926 -0.2060 -0.0253
  572TMC3    C3 8534   1.651   1.210   0.746  0.3497 -0.5960  0.0744
  572TMC3    C4 8535   1.822   1.157   0.534 -0.1383 -0.4322 -0.1840
  572TMC3    C5 8536   1.845   1.268   0.616 -0.1391 -0.2563 -0.0586
  572TMC3    C6 8537   1.764   1.283   0.728  0.0682  0.4136  0.2711
  572TMC3     C 8538   1.660   0.970   0.479 -0.2211  0.0905 -0.2466
  572TMC3     O 8539   1.539   0.960   0.453 -0.2134 -0.0465 -0.2442
  572TMC3     H 8540   1.531   1.052   0.677  0.5955 -1.4923 -0.4951
  572TMC3    H1 8541   1.889   1.144   0.449 -1.4828 -2.3008 -0.9339
  572TMC3    H2 8542   1.788   1.352   0.809  2.0319 -0.6966  0.6492
  572TMC3    C7 8543   1.877   1.383   0.544  0.3594  0.5311  0.1919
  572TMC3    C8 8544   1.568   1.237   0.867  0.1236 -0.3430  0.0511
  572TMC3    O1 8545   1.881   1.379   0.420 -0.2675  0.2546 -0.0758
  572TMC3    O2 8546   1.617   1.289   0.964  0.2243  0.9197 -0.5457
  573MPD2     C 8547   3.520   1.704   0.495  0.6493 -0.3367  0.6378
  573MPD2    C1 8548   3.384   1.712   0.499  0.2236  0.8099  0.4718
  573MPD2    C2 8549   3.307   1.634   0.408 -0.8172  0.2761  0.0203
  573MPD2    C3 8550   3.380   1.560   0.317 -0.5587  0.1863  0.1364
  573MPD2    C4 8551   3.515   1.556   0.315 -0.3127 -0.2038  0.7322
  573MPD2    C5 8552   3.585   1.635   0.392  0.0002 -0.2935  0.0856
  573MPD2     H 8553   3.200   1.621   0.408 -0.7316 -0.3788  2.1158
  573MPD2    H1 8554   3.571   1.502   0.240 -0.4886 -0.3679  0.7190
  573MPD2    H2 8555   3.576   1.764   0.566 -1.2968  2.5581 -0.2736
  573MPD2    H3 8556   3.693   1.629   0.391 -0.0070 -0.5793  1.1872
  573MPD2     N 8557   3.302   1.481   0.226  0.4466 -0.0011 -0.3193
  573MPD2    H5 8558   3.202   1.482   0.247  0.8328  0.5832  1.5701
  573MPD2    N1 8559   3.323   1.810   0.593  0.0426 -0.3357  0.6357
  573MPD2    H7 8560   3.399   1.858   0.640 -0.5858  2.0890 -0.8168
  574TMC3    C1 8561   3.216   1.323   0.077  0.0138 -0.4518 -0.5864
  574TMC3    C2 8562   3.104   1.353   0.149 -0.5679  0.1573  0.2063
  574TMC3    C3 8563   3.005   1.425   0.090 -0.3717 -0.0757 -0.2240
  574TMC3    C4 8564   3.216   1.341  17.684  0.1443  0.0099 -0.0168
  574TMC3    C5 8565   3.116   1.411  17.623  0.2251  0.4064  0.1565
  574TMC3    C6 8566   3.008   1.457  17.696  0.0807  0.7099  0.1709
  574TMC3     C 8567   3.337   1.386   0.129 -0.0686 -0.0248  0.6631
  574TMC3     O 8568   3.447   1.363   0.082 -0.0950 -0.5651  0.5242
  574TMC3     H 8569   3.088   1.316   0.250  1.3717  0.2593  0.5392
  574TMC3    H1 8570   3.303   1.317  17.625 -0.7120  1.9736 -2.0701
  574TMC3    H2 8571   2.924   1.502  17.645 -1.0524 -0.3551  1.1030
  574TMC3    C7 8572   3.119   1.432  17.482 -0.8378 -0.0074 -0.7238
  574TMC3    C8 8573   2.949   1.525   0.179  1.3918  0.6071  0.2922
  574TMC3    O1 8574   3.185   1.357  17.413 -0.2372 -0.1036 -0.2403
  574TMC3    O2 8575   2.990   1.519   0.299 -0.1987  0.1293 -0.3338
  575TMC3    C1 8576   0.695   2.118  10.755  0.2596  0.0204  0.2702
  575TMC3    C2 8577   0.673   1.986  10.739 -0.8912  0.3561 -0.0565
  575TMC3    C3 8578   0.753   1.908  10.666 -0.5039 -0.2052  0.3583
  575TMC3    C4 8579   0.793   2.186  10.684  0.1374 -0.4061  0.8665
  575TMC3    C5 8580   0.870   2.101  10.601 -0.2193  0.4236  0.2687
  575TMC3    C6 8581   0.849   1.964  10.590  0.1023 -0.5947  0.3891
  575TMC3     C 8582   0.644   2.172  10.884 -0.9587  0.0359 -0.0964
  575TMC3     O 8583   0.625   2.089  10.972 -0.4913  0.1448  0.2443
  575TMC3     H 8584   0.590   1.948  10.798 -0.6647  0.5029  0.3563
  575TMC3    H1 8585   0.829   2.286  10.706 -0.3109 -0.1683  0.5051
  575TMC3    H2 8586   0.915   1.897  10.537  1.2746  0.4266  0.5631
  575TMC3    C7 8587   0.950   2.167  10.499  0.2914  0.1239  0.3333
  575TMC3    C8 8588   0.730   1.762  10.650  0.1856 -0.1652  0.7582
  575TMC3    O1 8589   0.928   2.282  10.471  0.3865  0.4199 -0.9710
  575TMC3    O2 8590   0.749   1.704  10.542 -0.0647 -0.1269  0.2707
  576MPD2     C 8591   0.210   4.156  12.579 -0.3463  0.7525 -0.2945
  576MPD2    C1 8592   0.243   4.277  12.520 -0.7728  0.1931  0.3471
  576MPD2    C2 8593   0.220   4.398  12.588  0.3767  0.1376  0.3376
  576MPD2    C3 8594   0.182   4.394  12.720  0.4282  0.8177 -1.1497
  576MPD2    C4 8595   0.156   4.271  12.779 -0.3388  1.5750 -0.0086
  576MPD2    C5 8596   0.166   4.160  12.708 -0.1008 -0.8947 -0.3278
  576MPD2     H 8597   0.247   4.494  12.545 -1.3696  0.4189 -0.1104
  576MPD2    H1 8598   0.125   4.274  12.883  0.1094 -1.6176  0.2233
  576MPD2    H2 8599   0.211   4.055  12.540 -2.3729  1.8570 -3.1476
  576MPD2    H3 8600   0.140   4.068  12.759  1.9369 -0.7421  1.0021
  576MPD2     N 8601   0.160   4.521  12.782 -0.0989  0.4299  0.1802
  576MPD2    H5 8602   0.195   4.601  12.731 -0.6641  1.7355  1.8233
  576MPD2    N1 8603   0.284   4.283  12.387  0.0075 -0.0738  0.5987
  576MPD2    H7 8604   0.290   4.377  12.348 -2.1983 -0.5043 -0.7660
  577TMC3    C1 8605   0.325   4.200  12.164  0.4604 -0.9607 -0.0571
  577TMC3    C2 8606   0.350   4.094  12.079 -0.3043  0.7812  0.1355
  577TMC3    C3 8607   0.380   4.109  11.946 -0.2143 -0.1326 -0.1918
  577TMC3    C4 8608   0.348   4.324  12.121  0.6543  0.1016  0.3414
  577TMC3    C5 8609   0.372   4.339  11.993  0.0384  0.6326  0.0808
  577TMC3    C6 8610   0.380   4.241  11.898 -0.7081 -0.4437 -0.2434
  577TMC3     C 8611   0.305   4.181  12.302  0.2264  0.2457 -0.6006
  577TMC3     O 8612   0.324   4.062  12.327 -0.4918 -0.4484  0.0756
  577TMC3     H 8613   0.325   3.994  12.111  1.3059  0.0608 -0.8840
  577TMC3    H1 8614   0.341   4.410  12.187 -1.5575  0.2415 -0.0624
  577TMC3    H2 8615   0.426   4.261  11.802  2.1795 -0.1403  1.2138
  577TMC3    C7 8616   0.420   4.469  11.946 -0.7742 -0.1351  0.0803
  577TMC3    C8 8617   0.426   3.996  11.865  0.2381  0.1886  0.1452
  577TMC3    O1 8618   0.462   4.544  12.033 -0.7034  0.1687  0.2403
  577TMC3    O2 8619   0.433   3.889  11.924 -0.3467  0.0507 -0.1785
  578MPD2     C 8620   3.121   4.465   0.702 -0.0606  0.0745  0.0543
  578MPD2    C1 8621   3.247   4.501   0.752 -0.3408  0.0475 -0.4574
  578MPD2    C2 8622   3.342   4.397   0.764 -0.0823 -0.4647 -0.3717
  578MPD2    C3 8623   3.319   4.280   0.685  0.0974  0.6623  0.3450
  578MPD2    C4 8624   3.200   4.256   0.628 -0.0045 -0.1931  0.1418
  578MPD2    C5 8625   3.094   4.344   0.643  0.6188  0.6074  0.0864
  578MPD2     H 8626   3.436   4.411   0.817 -1.0817 -0.4633  1.3982
  578MPD2    H1 8627   3.185   4.169   0.566 -0.9472  0.4759 -0.5706
  578MPD2    H2 8628   3.037   4.533   0.699 -1.4046 -1.5512  0.4026
  578MPD2    H3 8629   3.002   4.315   0.593  0.0370  0.0835  1.4898
  578MPD2     N 8630   3.430   4.194   0.667  0.3080  0.2322  0.3477
  578MPD2    H5 8631   3.521   4.224   0.700  0.5347 -2.2916  2.0588
  578MPD2    N1 8632   3.262   4.632   0.813 -0.0182  0.1729 -0.3762
  578MPD2    H7 8633   3.189   4.699   0.790 -1.1113 -0.8033  0.2451
  579TMC3    C1 8634   3.551   3.986   0.603 -0.2114 -0.2822  0.1232
  579TMC3    C2 8635   3.677   4.051   0.613  0.3522  0.0673  1.0605
  579TMC3    C3 8636   3.788   3.973   0.616 -0.2647 -0.6864  0.2144
  579TMC3    C4 8637   3.535   3.849   0.609  0.1642 -0.2284 -0.2726
  579TMC3    C5 8638   3.657   3.782   0.615 -0.5101  0.5570 -0.6587
  579TMC3    C6 8639   3.784   3.841   0.621 -0.3719  0.4525 -0.5207
  579TMC3     C 8640   3.423   4.060   0.621  0.0649  0.1870 -0.1355
  579TMC3     O 8641   3.319   3.997   0.615 -0.3187  0.1979 -0.0739
  579TMC3     H 8642   3.685   4.157   0.590  1.2695  0.1245  1.6620
  579TMC3    H1 8643   3.443   3.796   0.587 -0.1900  0.2624  0.0442
  579TMC3    H2 8644   3.875   3.781   0.623  0.2261  1.3792  0.1247
  579TMC3    C7 8645   3.668   3.636   0.603  0.1067  0.1317 -0.4547
  579TMC3    C8 8646   3.917   4.030   0.660 -0.0066 -0.5018  0.2419
  579TMC3    O1 8647   3.780   3.593   0.575 -0.1447 -0.6812 -0.4264
  579TMC3    O2 8648   4.013   3.955   0.661  0.0597  0.4603  0.0561
  580TMC3    C1 8649   3.046   3.171  12.320 -0.1057  0.1403 -0.2847
  580TMC3    C2 8650   3.170   3.216  12.363  0.0655  0.0296  0.1671
  580TMC3    C3 8651   3.244   3.149  12.450 -0.2807  0.1924 -0.5575
  580TMC3    C4 8652   3.009   3.048  12.353 -0.1583 -0.5108 -0.3616
  580TMC3    C5 8653   3.092   2.973  12.424 -0.4944 -0.3107  0.0688
  580TMC3    C6 8654   3.214   3.018  12.475 -0.2595 -0.2940 -0.1952
  580TMC3     C 8655   2.986   3.250  12.213 -0.1745 -0.0006 -0.1311
  580TMC3     O 8656   3.057   3.327  12.148  0.0858 -0.6570  0.3847
  580TMC3     H 8657   3.188   3.321  12.345 -1.1684  0.3113  0.5715
  580TMC3    H1 8658   2.929   2.996  12.300 -0.6343  0.5105 -0.6572
  580TMC3    H2 8659   3.272   2.945  12.529 -1.7359  0.2527  2.1282
  580TMC3    C7 8660   3.053   2.834  12.461  0.5833 -0.2171 -0.1113
  580TMC3    C8 8661   3.376   3.177  12.416 -0.0189 -0.1477 -0.4678
  580TMC3    O1 8662   3.129   2.774  12.539  0.5946  0.3740 -0.1249
  580TMC3    O2 8663   3.450   3.207  12.505  0.3747 -0.2987  0.5111
  581MPD2     C 8664   1.128   2.655  15.038 -0.9796 -0.8409  0.1414
  581MPD2    C1 8665   1.026   2.588  14.976  0.2115  0.3667 -0.4052
  581MPD2    C2 8666   0.941   2.658  14.895  0.2032 -0.0040 -0.4461
  581MPD2    C3 8667   0.946   2.794  14.883  0.2715 -1.0143  0.3329
  581MPD2    C4 8668   1.051   2.857  14.949  0.2752  0.2702 -0.0685
  581MPD2    C5 8669   1.137   2.787  15.027 -0.5677  0.1124 -0.1642
  581MPD2     H 8670   0.866   2.604  14.839 -0.0510  1.1571 -1.2261
  581MPD2    H1 8671   1.064   2.964  14.950  1.5373  0.1281 -1.6695
  581MPD2    H2 8672   1.188   2.606  15.114  0.3299 -1.4757 -1.3070
  581MPD2    H3 8673   1.214   2.840  15.082  0.2511 -0.6733 -0.5670
  581MPD2     N 8674   0.851   2.864  14.806 -0.0372 -0.0055 -0.2023
  581MPD2    H5 8675   0.772   2.814  14.766 -0.2256  0.4537 -0.4071
  581MPD2    N1 8676   1.011   2.449  15.001 -0.5048 -0.3078 -0.2919
  581MPD2    H7 8677   1.057   2.416  15.085  2.2072  1.2572 -1.1511
  582TMC3    C1 8678   0.810   2.342  15.033  0.0224 -0.3965  0.3758
  582TMC3    C2 8679   0.836   2.358  15.170  0.4030  0.3665 -0.2957
  582TMC3    C3 8680   0.747   2.413  15.254  0.7105 -0.0394 -0.2983
  582TMC3    C4 8681   0.689   2.380  14.986 -0.2840 -0.1873 -0.2691
  582TMC3    C5 8682   0.612   2.453  15.070 -0.1691  0.8571  0.3026
  582TMC3    C6 8683   0.637   2.473  15.204  0.4508 -0.7166 -1.0794
  582TMC3     C 8684   0.919   2.366  14.943 -0.1616  0.0556  0.4446
  582TMC3     O 8685   0.879   2.363  14.822  0.0634 -0.1277  0.2179
  582TMC3     H 8686   0.927   2.308  15.202  0.4909  0.8678  0.2219
  582TMC3    H1 8687   0.663   2.374  14.881 -0.6937 -0.5687 -0.1466
  582TMC3    H2 8688   0.566   2.540  15.252  1.8902 -0.1793  0.2789
  582TMC3    C7 8689   0.566   2.572  14.996  0.2331  0.0352  0.9759
  582TMC3    C8 8690   0.773   2.433  15.394 -0.3473  0.0686  0.1269
  582TMC3    O1 8691   0.498   2.548  14.901 -0.2084 -0.2502  0.5160
  582TMC3    O2 8692   0.701   2.520  15.439  0.5960 -0.4036 -0.4338
  583MPD2     C 8693   0.822   4.192  16.384 -0.2401 -0.2582 -0.0731
  583MPD2    C1 8694   0.858   4.326  16.347 -0.1154  0.1431 -0.0474
  583MPD2    C2 8695   0.802   4.427  16.424 -0.6782  0.4445 -0.6263
  583MPD2    C3 8696   0.739   4.410  16.538 -0.2963  0.1226 -0.4012
  583MPD2    C4 8697   0.713   4.277  16.579 -0.8153  0.5222  0.0911
  583MPD2    C5 8698   0.751   4.169  16.500  0.2741  0.0379  0.9389
  583MPD2     H 8699   0.816   4.530  16.392 -0.0542  1.1571  1.8660
  583MPD2    H1 8700   0.661   4.252  16.671  0.7132  0.9150  1.0500
  583MPD2    H2 8701   0.861   4.116  16.317 -0.1843 -0.3301  0.0410
  583MPD2    H3 8702   0.738   4.065  16.528 -0.0534  0.0034  0.6551
  583MPD2     N 8703   0.700   4.529  16.610  0.4213  0.1961 -0.2271
  583MPD2    H5 8704   0.727   4.613  16.561 -0.5230 -0.7551 -2.3647
  583MPD2    N1 8705   0.927   4.358  16.228  0.6726  0.1453  0.5421
  583MPD2    H7 8706   0.936   4.457  16.206  0.3359 -0.2179 -1.2236
  584TMC3    C1 8707   0.625   4.662  16.794  0.4400  0.3262 -0.1413
  584TMC3    C2 8708   0.701   0.032  16.754 -0.7009  0.2269 -0.1007
  584TMC3    C3 8709   0.672   0.159  16.805  0.7214 -0.6304 -0.4997
  584TMC3    C4 8710   0.527   4.681  16.892  0.2962 -0.2310  0.4747
  584TMC3    C5 8711   0.499   0.074  16.936  0.0753  0.0519  0.1321
  584TMC3    C6 8712   0.584   0.177  16.904 -0.2405  0.2835 -0.1254
  584TMC3     C 8713   0.641   4.531  16.737  0.3611 -0.0240  0.3962
  584TMC3     O 8714   0.594   4.438  16.804  0.2295 -0.0223 -0.1508
  584TMC3     H 8715   0.789   0.009  16.695 -0.1277  3.6510 -0.5642
  584TMC3    H1 8716   0.457   4.601  16.916 -0.1795 -0.2568 -1.0205
  584TMC3    H2 8717   0.565   0.274  16.949 -3.2746  0.4240 -1.6830
  584TMC3    C7 8718   0.424   0.075  17.059  0.2770  0.0721 -0.5696
  584TMC3    C8 8719   0.772   0.258  16.766  0.1975 -0.5019 -0.7184
  584TMC3    O1 8720   0.419   4.707  17.121  0.1674  0.3633 -0.7303
  584TMC3    O2 8721   0.837   0.237  16.664  0.2620  0.0038 -0.3818
  585MPD2     C 8722   0.312   3.709   0.131  1.3662 -0.4386  0.4130
  585MPD2    C1 8723   0.374   3.726   0.011 -0.0835 -0.4131 -0.4391
  585MPD2    C2 8724   0.331   3.654  17.645  0.4261 -0.2342  0.4638
  585MPD2    C3 8725   0.231   3.560  17.659 -0.0348 -0.6442  0.0871
  585MPD2    C4 8726   0.169   3.547   0.040  0.3428  0.5198 -0.5587
  585MPD2    C5 8727   0.211   3.615   0.147  0.4180  0.1658  0.3772
  585MPD2     H 8728   0.387   3.669  17.553 -0.4251  0.3925  0.0373
  585MPD2    H1 8729   0.088   3.478   0.062  1.8547 -0.4452  1.8921
  585MPD2    H2 8730   0.342   3.758   0.223  2.1954 -1.2204  0.5612
  585MPD2    H3 8731   0.165   3.612   0.245 -0.7175  0.0004 -0.1586
  585MPD2     N 8732   0.174   3.495  17.548  0.2409  0.0429 -0.3664
  585MPD2    H5 8733   0.087   3.444  17.556  0.0558  0.0344 -2.5723
  585MPD2    N1 8734   0.456   3.841  17.729 -0.0147 -0.4024 -0.2961
  585MPD2    H7 8735   0.423   3.923   0.037 -0.1582 -0.1507 -0.8084
  586TMC3    C1 8736   0.153   3.469  17.309 -0.2189  0.0703 -0.7821
  586TMC3    C2 8737   0.208   3.422  17.198 -0.4275 -0.0985  0.1395
  586TMC3    C3 8738   0.138   3.364  17.099  0.2154  0.1660  0.5009
  586TMC3    C4 8739   0.021   3.478  17.315  0.1444 -0.1892  0.2498
  586TMC3    C5 8740   4.683   3.426  17.214 -0.0042  0.7015  0.0979
  586TMC3    C6 8741   0.003   3.359  17.112 -0.0097  0.2549 -0.0098
  586TMC3     C 8742   0.236   3.488  17.427  0.4093  0.1963  0.3696
  586TMC3     O 8743   0.354   3.491  17.409  0.1062 -0.4389  0.0448
  586TMC3     H 8744   0.316   3.419  17.183 -0.2464  2.2059  0.9551
  586TMC3    H1 8745   4.700   3.521  17.397  0.8319 -0.1308  0.7015
  586TMC3    H2 8746   4.681   3.292  17.051 -0.1798  0.8646 -0.5227
  586TMC3    C7 8747   4.553   3.375  17.259 -0.2219 -0.0467  0.1084
  586TMC3    C8 8748   0.203   3.264  17.020  0.0741 -0.8348  0.0578
  586TMC3    O1 8749   4.542   3.255  17.234 -0.1723  0.1586  0.2552
  586TMC3    O2 8750   0.320   3.236  17.044 -0.0899  0.4911 -0.1443
  587TMC3    C1 8751   2.307   1.805  16.971 -0.6164  0.7252  0.0394
  587TMC3    C2 8752   2.358   1.922  17.024  1.1164  0.5752 -0.5535
  587TMC3    C3 8753   2.473   1.921  17.096  0.2998 -0.2997 -0.6314
  587TMC3    C4 8754   2.363   1.685  17.016 -0.5290 -0.0319 -0.5815
  587TMC3    C5 8755   2.473   1.695  17.102 -0.7905 -0.8630 -0.1157
  587TMC3    C6 8756   2.533   1.808  17.135 -0.5891 -0.0532  0.1452
  587TMC3     C 8757   2.171   1.807  16.922  0.1436  0.7322  0.3732
  587TMC3     O 8758   2.104   1.718  16.967 -0.0501 -0.4988  0.6267
  587TMC3     H 8759   2.298   2.010  17.003 -0.8293 -0.7356 -0.5036
  587TMC3    H1 8760   2.310   1.592  16.997 -0.3398 -0.6973  2.1537
  587TMC3    H2 8761   2.620   1.813  17.199  0.2755 -0.3645 -0.9975
  587TMC3    C7 8762   2.523   1.569  17.148 -0.3783  0.6500 -0.2095
  587TMC3    C8 8763   2.526   2.047  17.146  0.1016 -0.4441 -0.3879
  587TMC3    O1 8764   2.539   1.476  17.071  0.4078 -0.1752 -0.4752
  587TMC3    O2 8765   2.607   2.037  17.240  0.0940 -0.1734  0.2544
  588TMC3    C1 8766   4.304   0.145   9.707  0.0382 -0.3472 -0.6823
  588TMC3    C2 8767   4.225   0.033   9.726  0.1715  0.1547 -0.6039
  588TMC3    C3 8768   4.283   4.658   9.784 -0.5675 -0.2606  0.0863
  588TMC3    C4 8769   4.441   0.141   9.732 -0.9214  0.0696  0.0437
  588TMC3    C5 8770   4.489   0.030   9.787  0.0647 -0.1785 -0.1804
  588TMC3    C6 8771   4.417   4.652   9.815 -0.0227 -0.7255 -0.4504
  588TMC3     C 8772   4.244   0.272   9.716 -1.1354 -0.4000  0.2140
  588TMC3     O 8773   4.119   0.278   9.721 -0.5665 -0.1175  0.3899
  588TMC3     H 8774   4.117   0.034   9.718  0.0832  1.7957  0.8710
  588TMC3    H1 8775   4.511   0.219   9.704  0.4662 -0.0677  3.1167
  588TMC3    H2 8776   4.464   4.564   9.858 -0.8076 -0.0239  1.8481
  588TMC3    C7 8777   4.621   0.040   9.843  0.1672  0.2061  0.5610
  588TMC3    C8 8778   4.193   4.552   9.831  0.3986 -0.1530 -0.1620
  588TMC3    O1 8779   4.698   4.682   9.815 -0.3288 -0.3571 -0.5755
  588TMC3    O2 8780   4.089   4.544   9.769 -0.1597  0.1421 -0.1901
  589TMC3    C1 8781   3.495   1.862   1.112 -0.1110  0.6834  0.8610
  589TMC3    C2 8782   3.605   1.943   1.134 -0.3566 -0.0114 -0.2377
  589TMC3    C3 8783   3.729   1.910   1.084 -0.2218 -0.1006 -0.2841
  589TMC3    C4 8784   3.503   1.757   1.031  0.0352  0.0211  0.7586
  589TMC3    C5 8785   3.625   1.733   0.984 -1.0080  0.2029  0.0007
  589TMC3    C6 8786   3.744   1.798   1.011  0.3434 -0.2713  0.1326
  589TMC3     C 8787   3.375   1.886   1.181 -0.3300 -1.0111 -0.0760
  589TMC3     O 8788   3.285   1.804   1.172 -0.4853 -0.1676  0.5216
  589TMC3     H 8789   3.602   2.034   1.193  0.4842 -0.6720  0.8320
  589TMC3    H1 8790   3.416   1.696   1.008 -0.3516  1.3760 -1.4362
  589TMC3    H2 8791   3.838   1.754   0.979 -0.3754 -0.6643 -1.4647
  589TMC3    C7 8792   3.623   1.616   0.896 -0.7860  0.1714  0.0264
  589TMC3    C8 8793   3.840   1.996   1.116  0.0453 -0.3177 -0.1678
  589TMC3    O1 8794   3.523   1.546   0.895  0.3599 -0.2885  0.2029
  589TMC3    O2 8795   3.809   2.089   1.185  0.3155 -0.8668  0.3294
  590MPD2     C 8796   3.633   0.552  16.688  0.2437 -0.0953 -0.2618
  590MPD2    C1 8797   3.589   0.541  16.558 -0.4094 -0.1082 -0.2728
  590MPD2    C2 8798   3.662   0.608  16.461  0.0733 -0.8592 -0.2965
  590MPD2    C3 8799   3.771   0.693  16.489  0.5951 -0.3171  0.3415
  590MPD2    C4 8800   3.808   0.697  16.620  0.1583  0.1949  0.0067
  590MPD2    C5 8801   3.738   0.637  16.721  0.1143 -0.3725 -0.1390
  590MPD2     H 8802   3.645   0.600  16.355 -1.3596  0.5455 -0.1756
  590MPD2    H1 8803   3.897   0.748  16.657 -0.1163  0.2164  0.6518
  590MPD2    H2 8804   3.586   0.503  16.772  3.5567 -2.4982  0.1941
  590MPD2    H3 8805   3.775   0.644  16.823  1.2663 -0.7256 -0.5294
  590MPD2     N 8806   3.834   0.767  16.391  0.3563  0.0733 -0.4722
  590MPD2    H5 8807   3.808   0.744  16.296 -1.9168  2.3877 -0.3874
  590MPD2    N1 8808   3.456   0.491  16.543 -0.1769  0.1660 -0.0866
  590MPD2    H7 8809   3.406   0.446  16.620 -1.1119  0.8749 -0.2761
  591TMC3    C1 8810   3.932   0.963  16.301  1.2929  0.5131 -0.0469
  591TMC3    C2 8811   3.946   0.914  16.170 -0.2987  0.1464  0.7444
  591TMC3    C3 8812   3.965   1.001  16.066  0.0121  0.2658 -0.1740
  591TMC3    C4 8813   3.947   1.094  16.328 -0.7540 -0.2345 -0.3352
  591TMC3    C5 8814   3.964   1.182  16.221  0.3797 -0.3428  0.1078
  591TMC3    C6 8815   3.972   1.136  16.088 -0.1251  0.4178  0.4260
  591TMC3     C 8816   3.917   0.884  16.413 -0.3502 -0.0497 -0.2602
  591TMC3     O 8817   3.939   0.939  16.518  0.1897  0.5826 -0.0162
  591TMC3     H 8818   3.950   0.806  16.156 -0.8407  0.2263  0.0009
  591TMC3    H1 8819   3.914   1.125  16.427  2.3962 -2.5635  1.4547
  591TMC3    H2 8820   3.964   1.202  16.002 -1.0772  1.4569  1.3085
  591TMC3    C7 8821   3.882   1.298  16.241 -0.1332  0.0934  0.2893
  591TMC3    C8 8822   3.940   0.941  15.939  0.2661 -0.0707 -0.1659
  591TMC3    O1 8823   3.805   1.312  16.335  0.7059  0.2787  0.3360
  591TMC3    O2 8824   3.917   0.821  15.938  0.4640  0.1393 -0.2474
  592MPD2     C 8825   3.823   2.428  11.548  0.3903  0.3016 -0.0324
  592MPD2    C1 8826   3.777   2.501  11.657  0.1279 -0.5512  0.2897
  592MPD2    C2 8827   3.675   2.446  11.738 -0.3110 -0.2361 -0.3327
  592MPD2    C3 8828   3.642   2.314  11.721 -0.4022  0.0884  0.5410
  592MPD2    C4 8829   3.704   2.239  11.623 -0.4254  0.5631  0.1985
  592MPD2    C5 8830   3.784   2.299  11.531 -0.1434  0.0790  0.3124
  592MPD2     H 8831   3.620   2.492  11.819  0.4536 -0.0487  0.0817
  592MPD2    H1 8832   3.683   2.135  11.604 -0.3378  0.4637  0.6474
  592MPD2    H2 8833   3.884   2.472  11.470 -2.5152  1.6575 -1.5325
  592MPD2    H3 8834   3.830   2.248  11.447 -0.4706 -0.7047  0.6091
  592MPD2     N 8835   3.544   2.254  11.805  0.1904  0.0662  0.8724
  592MPD2    H5 8836   3.523   2.302  11.892 -0.4416  1.5062 -0.0836
  592MPD2    N1 8837   3.831   2.636  11.687 -0.6295  0.0191 -0.5544
  592MPD2    H7 8838   3.870   2.691  11.612 -2.2355 -2.3459 -3.1197
  593TMC3    C1 8839   3.872   2.828  11.823 -0.4592  0.3850 -0.7131
  593TMC3    C2 8840   3.895   2.875  11.948  0.1946  0.8104 -0.5936
  593TMC3    C3 8841   3.957   2.996  11.960 -0.2430  0.3925 -0.0532
  593TMC3    C4 8842   3.908   2.898  11.708 -0.2074  0.2639  0.5441
  593TMC3    C5 8843   3.962   3.020  11.726 -0.7525  0.1892  0.1901
  593TMC3    C6 8844   3.985   3.075  11.851 -0.0412 -0.5652 -0.3288
  593TMC3     C 8845   3.812   2.693  11.808 -0.2029 -0.0654 -0.1653
  593TMC3     O 8846   3.761   2.652  11.910 -0.2947  0.1615  0.6816
  593TMC3     H 8847   3.865   2.825  12.040  0.0683  2.1857  0.1189
  593TMC3    H1 8848   3.869   2.860  11.614  0.0026 -0.6002  0.8056
  593TMC3    H2 8849   4.051   3.160  11.865  1.0287 -1.0920 -2.1651
  593TMC3    C7 8850   3.981   3.112  11.604  0.2543 -0.6970 -0.2697
  593TMC3    C8 8851   3.934   3.078  12.079 -0.4565 -0.3226  0.3611
  593TMC3    O1 8852   4.028   3.223  11.625 -0.0302 -0.1046  0.3662
  593TMC3    O2 8853   3.841   3.045  12.145 -0.0350  0.4718 -0.5318
  594MPD2     C 8854   2.553   0.973  14.279  0.2387 -0.1499 -0.1090
  594MPD2    C1 8855   2.564   1.058  14.388  0.1841  0.4030  0.1980
  594MPD2    C2 8856   2.669   1.147  14.392 -0.2495 -0.1875  0.5405
  594MPD2    C3 8857   2.740   1.178  14.280 -0.2421 -0.5278 -0.3003
  594MPD2    C4 8858   2.711   1.107  14.162  0.3991  0.1858 -0.6124
  594MPD2    C5 8859   2.621   1.005  14.165  0.0587  0.4741  0.4656
  594MPD2     H 8860   2.683   1.222  14.468  0.2578  0.2870 -0.0252
  594MPD2    H1 8861   2.746   1.118  14.060  0.0961  1.1528 -0.6070
  594MPD2    H2 8862   2.473   0.902  14.260 -0.5111  1.4355 -2.9064
  594MPD2    H3 8863   2.603   0.950  14.073 -0.8442 -2.3026  2.2895
  594MPD2     N 8864   2.828   1.288  14.291 -0.2591 -0.7631  0.0876
  594MPD2    H5 8865   2.830   1.333  14.382 -5.1502  1.8927 -1.0785
  594MPD2    N1 8866   2.467   1.044  14.489 -0.1254 -1.3974 -0.1160
  594MPD2    H7 8867   2.396   0.973  14.475 -1.4829 -0.2060  0.7519
  595TMC3    C1 8868   3.185   1.472  14.331  0.3048 -0.8118  0.5133
  595TMC3    C2 8869   3.113   1.421  14.226 -0.9802 -0.4411  0.1010
  595TMC3    C3 8870   2.982   1.446  14.216 -0.0221 -0.4300  0.0981
  595TMC3    C4 8871   3.123   1.551  14.424 -0.2476  0.4101  0.1450
  595TMC3    C5 8872   2.989   1.573  14.410  0.2346  0.5556  0.8738
  595TMC3    C6 8873   2.917   1.525  14.305  0.5847 -0.3611 -0.1713
  595TMC3     C 8874   3.319   1.436  14.362 -0.5046  0.9880  0.7206
  595TMC3     O 8875   3.389   1.519  14.418 -0.3894  0.0396  0.7957
  595TMC3     H 8876   3.155   1.352  14.153  1.1445 -1.7287  2.5208
  595TMC3    H1 8877   3.185   1.597  14.500 -0.6082  0.6431  0.3004
  595TMC3    H2 8878   2.814   1.551  14.281  0.4581 -0.7680 -0.0814
  595TMC3    C7 8879   2.913   1.610  14.533  0.3153 -0.0899  0.0748
  595TMC3    C8 8880   2.902   1.332  14.187  0.0203  0.4527  0.2254
  595TMC3    O1 8881   2.793   1.597  14.525  0.7527  0.2372 -0.9843
  595TMC3    O2 8882   2.917   1.275  14.080  0.2302 -0.5260 -0.0729
  596MPD2     C 8883   1.588   3.969  16.533 -0.2172  0.3021  0.2228
  596MPD2    C1 8884   1.621   4.093  16.485  0.0424  0.0497  0.4533
  596MPD2    C2 8885   1.661   4.111  16.357  1.2324  0.5035  0.3012
  596MPD2    C3 8886   1.663   4.003  16.268  0.7956 -0.2679 -0.3232
  596MPD2    C4 8887   1.634   3.880  16.316 -0.3548  0.6867  0.2759
  596MPD2    C5 8888   1.597   3.866  16.450  0.8203  0.1553 -1.0174
  596MPD2     H 8889   1.709   4.201  16.322 -0.6591  0.9966 -1.0081
  596MPD2    H1 8890   1.625   3.791  16.254 -1.0017  1.4035 -0.6488
  596MPD2    H2 8891   1.580   3.944  16.638  1.9437 -0.9658  0.0907
  596MPD2    H3 8892   1.572   3.769  16.491 -0.0121  0.4465 -0.8279
  596MPD2     N 8893   1.687   4.020  16.127  1.4090  0.5573 -0.4232
  596MPD2    H5 8894   1.684   3.935  16.070 -0.7479 -0.3330  1.0082
  596MPD2    N1 8895   1.615   4.215  16.561  0.1927 -0.0178 -0.4988
  596MPD2    H7 8896   1.644   4.303  16.520  1.9915 -0.6523 -0.5955
  597TMC3    C1 8897   1.544   4.367  16.730  0.7674  0.2285 -0.8057
  597TMC3    C2 8898   1.659   4.441  16.714 -0.3509  0.5523  0.0297
  597TMC3    C3 8899   1.649   4.574  16.740 -0.7182 -0.3181 -0.5219
  597TMC3    C4 8900   1.430   4.417  16.784  0.2427  0.9732  1.4552
  597TMC3    C5 8901   1.433   4.539  16.834 -0.3581 -0.4709  0.0550
  597TMC3    C6 8902   1.535   4.623  16.813 -1.3191  0.4069  0.8222
  597TMC3     C 8903   1.546   4.231  16.685 -0.5864  0.8667 -0.1574
  597TMC3     O 8904   1.482   4.147  16.746  0.5893  0.2383  0.1134
  597TMC3     H 8905   1.753   4.391  16.696  0.0900  0.8500  1.5064
  597TMC3    H1 8906   1.350   4.344  16.796  1.6870 -0.9924 -0.9075
  597TMC3    H2 8907   1.540   4.726  16.847  0.1989  0.7208 -0.3188
  597TMC3    C7 8908   1.335   4.569  16.933  0.0454  0.5074  0.1198
  597TMC3    C8 8909   1.764   4.660  16.723 -0.2080 -0.7164 -0.3512
  597TMC3    O1 8910   1.267   4.475  16.975  0.0153  0.1912 -0.0180
  597TMC3    O2 8911   1.781   0.033  16.782 -0.2742  0.3341 -0.2773
  598TMC3    C1 8912   4.673   0.966  15.422 -0.4779  0.3152  1.0577
  598TMC3    C2 8913   4.562   0.895  15.387 -0.0491 -0.0502 -0.3527
  598TMC3    C3 8914   4.535   0.869  15.251 -0.1758 -0.1270  0.0182
  598TMC3    C4 8915   0.020   1.020  15.332 -0.3448  0.2220 -0.1012
  598TMC3    C5 8916   4.726   1.002  15.199 -0.5845  0.0945  0.2155
  598TMC3    C6 8917   4.618   0.928  15.160  0.0723  0.1842 -0.1178
  598TMC3     C 8918   4.717   0.984  15.563  0.4994 -0.4445 -0.5469
  598TMC3     O 8919   0.065   1.073  15.589  0.1961 -0.0782  0.1943
  598TMC3     H 8920   4.488   0.861  15.459 -1.4003  3.8700  0.1205
  598TMC3    H1 8921   0.109   1.078  15.355 -0.3514  0.2826 -0.2274
  598TMC3    H2 8922   4.604   0.907  15.055 -0.5552 -0.6610  0.1272
  598TMC3    C7 8923   0.082   1.031  15.095  0.5278  0.9118  0.3333
  598TMC3    C8 8924   4.428   0.784  15.198  0.4997 -0.4629  0.1578
  598TMC3    O1 8925   0.094   0.941  15.015 -0.3293  0.2415  0.2034
  598TMC3    O2 8926   4.407   0.787  15.077  0.2668 -0.1185  0.1840
  599MPD2     C 8927   4.405   2.968  15.418 -0.0345  0.3193 -0.0129
  599MPD2    C1 8928   4.489   3.023  15.506 -0.2424  0.6096 -0.2434
  599MPD2    C2 8929   4.430   3.099  15.609  0.3147 -0.1508 -0.4665
  599MPD2    C3 8930   4.289   3.117  15.614 -0.0629  0.2478 -0.2204
  599MPD2    C4 8931   4.205   3.063  15.513 -0.5577 -0.1225 -0.9832
  599MPD2    C5 8932   4.268   2.988  15.417 -0.3625 -0.4415 -0.2608
  599MPD2     H 8933   4.485   3.129  15.697 -1.5608  3.0813 -0.4123
  599MPD2    H1 8934   4.097   3.078  15.513 -0.5118  0.2338 -1.3266
  599MPD2    H2 8935   4.455   2.904  15.346  0.8255  0.9715  0.0188
  599MPD2    H3 8936   4.210   2.953  15.332 -1.0660  0.8463 -0.3265
  599MPD2     N 8937   4.230   3.198  15.711  0.1732  0.5839 -0.1111
  599MPD2    H5 8938   4.129   3.208  15.705  0.0357 -0.2586  0.7656
  599MPD2    N1 8939   4.626   2.988  15.505 -0.0156  0.2869  0.3616
  599MPD2    H7 8940   4.664   2.930  15.431  0.7237  0.3929  0.6679
  600TMC3    C1 8941   4.206   3.328  15.902  0.3321  0.0581  0.4480
  600TMC3    C2 8942   4.114   3.239  15.946  0.1344 -0.3519  0.1950
  600TMC3    C3 8943   4.066   3.259  16.073 -0.4753  0.0727 -0.3991
  600TMC3    C4 8944   4.234   3.444  15.965 -0.3442 -0.0077 -0.7958
  600TMC3    C5 8945   4.187   3.458  16.093  0.4177  0.6418 -0.1106
  600TMC3    C6 8946   4.105   3.365  16.149 -0.3422  0.2027  0.0905
  600TMC3     C 8947   4.292   3.289  15.789  0.2703  0.5129 -0.0570
  600TMC3     O 8948   4.406   3.326  15.801  0.2214  0.1729 -0.2006
  600TMC3     H 8949   4.097   3.142  15.900 -1.5971 -0.0539  0.2335
  600TMC3    H1 8950   4.300   3.515  15.919  0.4550 -0.3283 -0.1535
  600TMC3    H2 8951   4.065   3.376  16.250  0.1117 -0.2682  0.3220
  600TMC3    C7 8952   4.202   3.587  16.158  0.4573  0.2586  0.2126
  600TMC3    C8 8953   4.031   3.143  16.160 -0.1830  0.1733  0.0476
  600TMC3    O1 8954   4.124   3.610  16.248  0.2603 -0.3689 -0.1006
  600TMC3    O2 8955   4.082   3.144  16.271  0.4964  0.0652  0.4990
  601MPD2     C 8956   1.910   1.888   0.578  0.0237  0.7243 -0.0976
  601MPD2    C1 8957   1.870   1.805   0.470  0.1596 -1.1610 -0.4085
  601MPD2    C2 8958   1.862   1.668   0.484 -0.4677  0.6886 -0.1075
  601MPD2    C3 8959   1.900   1.615   0.610 -0.1130  0.4647  1.2636
  601MPD2    C4 8960   1.945   1.696   0.712  0.2854  0.1841 -0.0728
  601MPD2    C5 8961   1.944   1.832   0.698  0.8415 -0.6404 -0.6046
  601MPD2     H 8962   1.836   1.607   0.398 -1.5036 -0.5540  1.0957
  601MPD2    H1 8963   1.978   1.647   0.804  2.2766  2.7338  0.5722
  601MPD2    H2 8964   1.915   1.996   0.567 -0.7665  0.5960 -1.6828
  601MPD2    H3 8965   1.991   1.898   0.769 -1.8877  0.5855  0.0559
  601MPD2     N 8966   1.909   1.480   0.639 -0.4096 -0.6220  0.7893
  601MPD2    H5 8967   1.922   1.447   0.734 -1.8055  0.4165  1.3432
  601MPD2    N1 8968   1.851   1.853   0.340  0.4813 -0.1047 -0.5817
  601MPD2    H7 8969   1.824   1.786   0.268  0.0492 -2.4947  1.7857
  602TMC3    C1 8970   1.824   2.016   0.181  0.3670 -0.6153 -0.4239
  602TMC3    C2 8971   1.846   2.142   0.136 -0.0772  0.0162 -0.0614
  602TMC3    C3 8972   1.780   2.196   0.032 -0.4879  0.3926 -0.0887
  602TMC3    C4 8973   1.743   1.937   0.108 -0.0549 -1.3660 -1.0497
  602TMC3    C5 8974   1.683   1.978  17.738 -0.4567 -0.1187 -0.3831
  602TMC3    C6 8975   1.705   2.109  17.695  0.1291  0.6955  0.2350
  602TMC3     C 8976   1.892   1.977   0.306  0.0029  0.2536 -0.6151
  602TMC3     O 8977   1.952   2.072   0.359  0.2540  0.1753 -0.1899
  602TMC3     H 8978   1.917   2.207   0.187  0.0883 -0.4034  0.2455
  602TMC3    H1 8979   1.708   1.840   0.140 -1.1872 -1.3026 -2.1179
  602TMC3    H2 8980   1.644   2.158  17.620  0.2138  1.3318  0.5806
  602TMC3    C7 8981   1.601   1.890  17.653 -0.2866 -0.3026  0.0522
  602TMC3    C8 8982   1.833   2.312  17.708 -0.5958 -0.3090 -0.0787
  602TMC3    O1 8983   1.524   1.814  17.707 -0.6707  0.5018 -0.1913
  602TMC3    O2 8984   1.861   2.411   0.033 -0.8332 -0.5683 -0.2242
  603TMC3    C1 8985   0.229   2.320  10.957  0.1178  0.9576 -0.0634
  603TMC3    C2 8986   0.237   2.281  11.089  0.1806  0.2475 -0.2471
  603TMC3    C3 8987   0.206   2.374  11.185 -0.0922  0.0874  0.0540
  603TMC3    C4 8988   0.193   2.448  10.931  0.8401  0.2530 -0.5660
  603TMC3    C5 8989   0.159   2.542  11.031 -0.2369 -0.3803 -1.3495
  603TMC3    C6 8990   0.175   2.504  11.159  0.2319 -0.2342 -0.2354
  603TMC3     C 8991   0.271   2.233  10.845  0.0103  0.0761  1.0208
  603TMC3     O 8992   0.280   2.293  10.735  0.1606  0.0398 -0.5759
  603TMC3     H 8993   0.281   2.185  11.115 -0.5192  0.3892  1.4571
  603TMC3    H1 8994   0.197   2.492  10.832 -0.3546  0.6275 -0.4406
  603TMC3    H2 8995   0.134   2.568  11.236  1.7267  2.2063 -1.4652
  603TMC3    C7 8996   0.117   2.681  11.008 -0.1481  0.1162 -0.0368
  603TMC3    C8 8997   0.180   2.318  11.313 -0.6693 -0.3016  0.0392
  603TMC3    O1 8998   0.150   2.767  11.088  0.1755 -0.5763  0.0192
  603TMC3    O2 8999   0.195   2.199  11.323  0.9006 -0.2060  0.3488
  604MPD2     C 9000   1.236   0.883  16.027 -0.3603 -0.1906  0.3390
  604MPD2    C1 9001   1.146   0.791  16.008  0.0818 -0.1697 -0.1234
  604MPD2    C2 9002   1.157   0.707  15.902  0.8719 -0.1898  0.8226
  604MPD2    C3 9003   1.263   0.716  15.813  0.9372 -0.2259 -0.1077
  604MPD2    C4 9004   1.363   0.812  15.843 -0.1074 -0.4173  0.4880
  604MPD2    C5 9005   1.348   0.896  15.952  0.2453 -0.3487  0.2754
  604MPD2     H 9006   1.083   0.629  15.887  1.7589 -0.7993 -0.4588
  604MPD2    H1 9007   1.451   0.823  15.779 -0.3821 -0.1182  0.1577
  604MPD2    H2 9008   1.223   0.955  16.106 -1.4531  2.8376 -2.5928
  604MPD2    H3 9009   1.408   0.985  15.965  1.3782 -0.9234 -0.9996
  604MPD2     N 9010   1.291   0.632  15.705 -0.6874 -0.8590  0.8870
  604MPD2    H5 9011   1.365   0.666  15.644 -0.5666 -1.3507  0.7533
  604MPD2    N1 9012   1.032   0.779  16.094  0.7608  0.1974  0.4103
  604MPD2    H7 9013   1.047   0.831  16.180 -1.0294  0.7408  0.3900
  605TMC3    C1 9014   0.830   0.730  16.180 -0.2625  0.4920  0.2726
  605TMC3    C2 9015   0.880   0.682  16.295  0.0055 -0.3573  0.7777
  605TMC3    C3 9016   0.819   0.710  16.411  0.2677  0.2163 -0.6687
  605TMC3    C4 9017   0.707   0.792  16.170  0.3381  0.1642  0.1512
  605TMC3    C5 9018   0.647   0.819  16.284 -0.5314  0.7389 -0.8870
  605TMC3    C6 9019   0.702   0.782  16.411 -0.3899 -0.0439  0.4348
  605TMC3     C 9020   0.912   0.726  16.065 -0.7651  0.0887  0.6633
  605TMC3     O 9021   0.871   0.680  15.959 -0.0017 -0.2939  0.1469
  605TMC3     H 9022   0.981   0.643  16.289  0.7293  1.7488 -0.7788
  605TMC3    H1 9023   0.668   0.828  16.076 -0.6852  0.4052  0.6717
  605TMC3    H2 9024   0.643   0.814  16.497 -1.9132  0.6864 -0.8933
  605TMC3    C7 9025   0.498   0.831  16.301  0.4970 -0.1052  0.5207
  605TMC3    C8 9026   0.910   0.708  16.530  0.5710  0.5767 -0.3221
  605TMC3    O1 9027   0.452   0.761  16.393 -0.5966  0.2083  0.4610
  605TMC3    O2 9028   1.034   0.696  16.511  0.0525 -0.5124  0.1940
  606TMC3    C1 9029   1.696   4.642  17.234  0.0301 -0.1590  0.4618
  606TMC3    C2 9030   1.727   4.599  17.361 -0.2578  0.3297 -0.6005
  606TMC3    C3 9031   1.785   4.469  17.375  0.3313 -0.4036 -0.8910
  606TMC3    C4 9032   1.737   4.563  17.128 -0.1220  0.8736 -0.5054
  606TMC3    C5 9033   1.809   4.449  17.142  0.0808 -0.1525 -0.1434
  606TMC3    C6 9034   1.833   4.401  17.267 -0.5582 -0.1140 -0.7155
  606TMC3     C 9035   1.670   0.048  17.196 -0.4101 -0.1066 -0.5310
  606TMC3     O 9036   1.612   0.060  17.089  0.4858 -0.5589  0.4160
  606TMC3     H 9037   1.701   4.658  17.449 -1.1723 -0.5013 -0.3069
  606TMC3    H1 9038   1.721   4.603  17.029  2.1714  0.3062 -1.1012
  606TMC3    H2 9039   1.896   4.316  17.294  1.2537  1.4338 -0.0632
  606TMC3    C7 9040   1.845   4.375  17.023 -0.3960  0.1730  0.0113
  606TMC3    C8 9041   1.815   4.415  17.513  0.1680 -0.0394 -0.4106
  606TMC3    O1 9042   1.866   4.433  16.916  0.2432  0.1868  0.1084
  606TMC3    O2 9043   1.869   4.306  17.517 -0.0604  0.0286 -0.4688
  607MPD2     C 9044   3.899   2.007  11.771  0.5810  0.2454  0.6313
  607MPD2    C1 9045   3.891   2.087  11.878  0.6825  0.5079 -0.1545
  607MPD2    C2 9046   3.814   2.054  11.989 -0.0447  0.2669 -0.5506
  607MPD2    C3 9047   3.751   1.940  11.998  0.3426 -0.6838 -0.4306
  607MPD2    C4 9048   3.746   1.861  11.890  0.4154  0.3427  0.2241
  607MPD2    C5 9049   3.808   1.900  11.772  0.4311  0.3962 -0.4318
  607MPD2     H 9050   3.811   2.128  12.068  0.6146  1.5246 -1.6901
  607MPD2    H1 9051   3.688   1.769  11.890  0.9181  0.0289 -0.3906
  607MPD2    H2 9052   3.966   2.023  11.688 -0.5738  0.7120 -0.2172
  607MPD2    H3 9053   3.795   1.853  11.675 -0.7966 -2.5201  1.1377
  607MPD2     N 9054   3.692   1.911  12.126 -0.1739 -0.1478  0.1421
  607MPD2    H5 9055   3.719   1.972  12.202  1.5727  0.3417 -0.8744
  607MPD2    N1 9056   3.960   2.209  11.889  0.3631 -0.5933 -0.2141
  607MPD2    H7 9057   3.926   2.266  11.966  0.3715  0.2396 -0.8403
  608TMC3    C1 9058   4.115   2.366  11.865  0.3050  0.7774  0.4009
  608TMC3    C2 9059   4.141   2.367  11.999 -0.2200 -0.5768 -0.6009
  608TMC3    C3 9060   4.206   2.473  12.051 -0.4362 -0.4259  0.8901
  608TMC3    C4 9061   4.128   2.481  11.788 -0.4569 -0.1652  0.1858
  608TMC3    C5 9062   4.185   2.588  11.845 -0.4823  0.0510 -0.9853
  608TMC3    C6 9063   4.228   2.585  11.978  0.3426 -0.8803  0.1945
  608TMC3     C 9064   4.056   2.252  11.805 -0.6908  0.7481  1.0105
  608TMC3     O 9065   4.100   2.209  11.701 -0.1843  0.1235 -0.0288
  608TMC3     H 9066   4.146   2.272  12.050 -0.1444 -0.3150 -0.1221
  608TMC3    H1 9067   4.096   2.477  11.684 -1.6004 -1.7727  0.5948
  608TMC3    H2 9068   4.273   2.667  12.032 -0.5165 -0.0635 -0.3298
  608TMC3    C7 9069   4.234   2.690  11.764  0.4110 -0.3596  0.1554
  608TMC3    C8 9070   4.210   2.486  12.191 -0.8840 -0.6383  0.1357
  608TMC3    O1 9071   4.235   2.660  11.643 -0.1539  0.0016 -0.2774
  608TMC3    O2 9072   4.269   2.579  12.246  0.1343 -0.8399 -0.5358
  609TMC3    C1 9073   2.237   1.956   8.949 -0.1941 -0.2993  0.0261
  609TMC3    C2 9074   2.183   2.032   8.848 -0.1738 -0.4028  0.0849
  609TMC3    C3 9075   2.222   1.990   8.723  0.4091  0.3763 -0.5072
  609TMC3    C4 9076   2.287   1.833   8.932  0.4867  0.3451  0.1339
  609TMC3    C5 9077   2.312   1.789   8.807  1.0996  0.1693  1.2593
  609TMC3    C6 9078   2.285   1.872   8.701  0.2266 -0.7152  0.1452
  609TMC3     C 9079   2.192   1.987   9.087  0.0378 -0.2364  0.7783
  609TMC3     O 9080   2.146   1.892   9.148  0.3579  0.0853  0.4691
  609TMC3     H 9081   2.143   2.132   8.860 -0.7604 -0.5030 -1.0710
  609TMC3    H1 9082   2.331   1.785   9.019  0.2498 -0.0551  0.0290
  609TMC3    H2 9083   2.311   1.844   8.600 -0.9234  1.1466 -0.6503
  609TMC3    C7 9084   2.406   1.677   8.798  0.2861  0.4281 -0.1418
  609TMC3    C8 9085   2.196   2.066   8.596  0.6543  0.3073 -0.1906
  609TMC3    O1 9086   2.471   1.654   8.896  0.4049 -0.2160 -0.5660
  609TMC3    O2 9087   2.272   2.033   8.506 -0.5640 -0.4893 -0.7442
  610TMC3    C1 9088   4.158   1.348  12.569  0.5132 -0.3297  0.0304
  610TMC3    C2 9089   4.071   1.343  12.672 -0.3630 -0.5061  0.3975
  610TMC3    C3 9090   4.098   1.427  12.776 -0.1050 -0.1451 -1.0832
  610TMC3    C4 9091   4.269   1.429  12.565  0.2991  0.1595 -0.0896
  610TMC3    C5 9092   4.293   1.515  12.667 -0.3313  0.2199 -0.7547
  610TMC3    C6 9093   4.203   1.519  12.775  0.4712  0.0787  0.0421
  610TMC3     C 9094   4.149   1.236  12.479  0.3732  0.0042 -0.1225
  610TMC3     O 9095   4.037   1.195  12.455 -0.0280 -1.0681 -0.5451
  610TMC3     H 9096   3.984   1.278  12.672 -0.7130 -0.0442 -0.5940
  610TMC3    H1 9097   4.337   1.436  12.480  1.7453  2.1154  1.2221
  610TMC3    H2 9098   4.221   1.583  12.860 -0.3352  2.0907 -1.3023
  610TMC3    C7 9099   4.430   1.551  12.703  0.3754 -0.2741  0.4101
  610TMC3    C8 9100   3.992   1.445  12.876 -0.3226 -0.0663 -0.2900
  610TMC3    O1 9101   4.522   1.483  12.658  0.6093 -0.1702 -0.2970
  610TMC3    O2 9102   3.900   1.366  12.854  0.5551  0.1094  0.5123
  611MPD2     C 9103   4.053   2.175  10.589  0.3200 -0.3154  0.6911
  611MPD2    C1 9104   3.959   2.253  10.518  0.0626 -0.8573 -0.4186
  611MPD2    C2 9105   4.002   2.359  10.439 -0.0348  0.3030  0.0211
  611MPD2    C3 9106   4.134   2.397  10.445 -0.1705  0.2487 -0.2884
  611MPD2    C4 9107   4.226   2.320  10.503  0.0692  0.1308  0.6575
  611MPD2    C5 9108   4.186   2.207  10.577  0.4532 -0.5145 -0.1579
  611MPD2     H 9109   3.932   2.419  10.382  0.0443  0.4661  0.0935
  611MPD2    H1 9110   4.333   2.340  10.504 -0.0256  0.6386 -0.5379
  611MPD2    H2 9111   4.019   2.095  10.654 -0.1822 -0.4875  0.2237
  611MPD2    H3 9112   4.259   2.146  10.628  1.3818  1.2274  0.5896
  611MPD2     N 9113   4.183   2.527  10.403  0.2653  0.2243 -0.0177
  611MPD2    H5 9114   4.277   2.560  10.423  0.8181 -0.3257 -1.6689
  611MPD2    N1 9115   3.824   2.227  10.540  0.0810  0.1993 -0.7080
  611MPD2    H7 9116   3.789   2.154  10.602  0.6874  0.9904  0.5785
  612TMC3    C1 9117   4.173   2.747  10.325  0.0131 -0.2927  0.0290
  612TMC3    C2 9118   4.241   2.795  10.434  0.2057  1.3235  0.8559
  612TMC3    C3 9119   4.291   2.925  10.438 -0.4203  0.8538  0.5274
  612TMC3    C4 9120   4.139   2.829  10.217 -0.3640  0.5865  0.9753
  612TMC3    C5 9121   4.173   2.965  10.234 -0.2902 -0.1876  0.2360
  612TMC3    C6 9122   4.249   3.011  10.339  1.0430 -0.4461 -0.6913
  612TMC3     C 9123   4.108   2.621  10.335 -0.2152  0.4039 -0.1731
  612TMC3     O 9124   4.002   2.611  10.271  0.1111 -0.0803  0.1761
  612TMC3     H 9125   4.252   2.735  10.524 -0.7141 -1.1268 -0.6765
  612TMC3    H1 9126   4.064   2.807  10.142  0.2979  0.2733  0.3967
  612TMC3    H2 9127   4.279   3.115  10.339  0.3713 -0.2514  0.4433
  612TMC3    C7 9128   4.083   3.061  10.172 -1.1283  0.7124 -0.2057
  612TMC3    C8 9129   4.393   2.971  10.524 -0.5804  0.1070  0.2290
  612TMC3    O1 9130   4.019   3.027  10.074  0.2943 -0.4769  0.8947
  612TMC3    O2 9131   4.411   3.096  10.522 -0.7743  0.2347 -0.5501
  613MPD2     C 9132   3.077   3.836  16.239 -0.2710  0.6757 -0.5816
  613MPD2    C1 9133   3.022   3.920  16.152 -0.0212  0.2307  0.9766
  613MPD2    C2 9134   2.933   3.879  16.062 -0.1294 -0.0932 -0.1136
  613MPD2    C3 9135   2.913   3.741  16.041  0.3438  0.4484 -0.0135
  613MPD2    C4 9136   2.981   3.658  16.126 -0.3165 -0.6671 -0.2647
  613MPD2    C5 9137   3.058   3.709  16.230 -0.1830  0.5327 -0.1665
  613MPD2     H 9138   2.885   3.950  15.996 -2.4570 -0.9603  0.6483
  613MPD2    H1 9139   2.965   3.550  16.126 -1.5670 -0.4837 -1.2299
  613MPD2    H2 9140   3.149   3.867  16.313 -0.4252 -0.1325 -0.0858
  613MPD2    H3 9141   3.097   3.643  16.306 -1.4807  0.2444  0.2413
  613MPD2     N 9142   2.828   3.683  15.939  0.4520 -0.6928 -0.6513
  613MPD2    H5 9143   2.822   3.583  15.921 -3.8080 -0.4775 -0.4110
  613MPD2    N1 9144   3.077   4.054  16.156  0.1749  0.6058 -0.6386
  613MPD2    H7 9145   3.165   4.063  16.205  3.0466 -1.4788 -5.4709
  614TMC3    C1 9146   3.147   4.222  16.008  0.0847 -0.1731 -0.1305
  614TMC3    C2 9147   3.244   4.140  15.955 -1.1079  0.7197 -0.0202
  614TMC3    C3 9148   3.291   4.167  15.828 -0.1693 -0.4530 -0.8521
  614TMC3    C4 9149   3.109   4.344  15.949  0.1317 -0.1084  0.2485
  614TMC3    C5 9150   3.141   4.355  15.813  0.7886 -0.4564 -0.1748
  614TMC3    C6 9151   3.235   4.273  15.753 -0.2603  0.3929 -1.0906
  614TMC3     C 9152   3.042   4.156  16.076  1.4029 -0.1335 -0.6988
  614TMC3     O 9153   2.928   4.192  16.053  0.0309  0.1130  0.2966
  614TMC3     H 9154   3.268   4.049  16.008  0.7513  0.3118 -1.5854
  614TMC3    H1 9155   3.026   4.404  15.984  0.6120 -0.5031  2.0693
  614TMC3    H2 9156   3.274   4.294  15.654  0.4666 -1.3710 -1.1698
  614TMC3    C7 9157   3.094   4.463  15.735 -0.0519 -0.6106  0.0899
  614TMC3    C8 9158   3.300   4.040  15.750  0.3745 -1.2608 -0.2456
  614TMC3    O1 9159   3.058   4.555  15.800  1.0396 -0.1155 -0.1664
  614TMC3    O2 9160   3.258   3.937  15.803 -0.1974  0.2899 -0.2767
  615MPD2     C 9161   2.621   0.739  16.437  0.4051  0.5444  0.2263
  615MPD2    C1 9162   2.559   0.860  16.425  0.5139  0.1484  0.1700
  615MPD2    C2 9163   2.469   0.878  16.323 -0.0969 -0.2695 -0.2932
  615MPD2    C3 9164   2.465   0.784  16.219 -0.8556 -0.2997  0.8486
  615MPD2    C4 9165   2.542   0.674  16.228  0.6373 -0.1444 -0.1900
  615MPD2    C5 9166   2.604   0.644  16.340  0.7816  0.1772  0.0577
  615MPD2     H 9167   2.421   0.972  16.300  0.4952  0.4591  1.4099
  615MPD2    H1 9168   2.531   0.600  16.150  0.7176 -0.0092 -0.3300
  615MPD2    H2 9169   2.676   0.717  16.528 -0.2658  0.6485  0.6502
  615MPD2    H3 9170   2.648   0.546  16.351  0.3703 -0.1316 -1.0740
  615MPD2     N 9171   2.387   0.800  16.096  0.0637 -0.4214  0.1447
  615MPD2    H5 9172   2.400   0.729  16.024  0.6235  0.0447 -0.2198
  615MPD2    N1 9173   2.584   0.963  16.515  0.1173 -0.2205  0.2510
  615MPD2    H7 9174   2.535   1.051  16.520  2.5889  1.3392 -3.1525
  616TMC3    C1 9175   2.656   1.025  16.737 -0.0340  0.2217  0.7907
  616TMC3    C2 9176   2.751   1.021  16.831 -0.3771  0.1282 -0.2796
  616TMC3    C3 9177   2.722   1.073  16.956 -0.9301  0.0678  0.2531
  616TMC3    C4 9178   2.541   1.090  16.758  0.6803  0.7374 -0.3655
  616TMC3    C5 9179   2.512   1.134  16.883  0.7401 -0.4841 -0.4418
  616TMC3    C6 9180   2.595   1.123  16.994 -0.3459 -0.0103 -0.0835
  616TMC3     C 9181   2.687   0.966  16.609  0.3528  0.7704  0.4787
  616TMC3     O 9182   2.790   0.899  16.613  0.2724  0.1883  0.2163
  616TMC3     H 9183   2.849   0.977  16.813 -1.8514 -3.7269  1.0408
  616TMC3    H1 9184   2.472   1.113  16.678  0.6228  0.6400 -0.3434
  616TMC3    H2 9185   2.569   1.143  17.098 -0.3264 -0.0970 -0.0620
  616TMC3    C7 9186   2.372   1.182  16.903  0.0581  0.0044  0.1778
  616TMC3    C8 9187   2.834   1.092  17.051  0.1074 -0.3671 -0.3117
  616TMC3    O1 9188   2.292   1.181  16.810 -0.7095  0.2585 -0.0349
  616TMC3    O2 9189   2.810   1.080  17.169 -1.1550 -0.3498 -0.4357
  617MPD2     C 9190   0.790   3.907  13.292 -0.5748 -0.4652  0.0258
  617MPD2    C1 9191   0.822   3.846  13.410  0.7193  0.1856  0.1922
  617MPD2    C2 9192   0.723   3.809  13.501 -0.0357 -0.5691 -0.0426
  617MPD2    C3 9193   0.590   3.832  13.472  0.7023 -0.0326  0.5106
  617MPD2    C4 9194   0.560   3.890  13.351 -0.5034  0.0542  0.3358
  617MPD2    C5 9195   0.661   3.922  13.257  0.1599  0.7322 -0.9120
  617MPD2     H 9196   0.753   3.767  13.597 -1.3595 -1.2246  0.0882
  617MPD2    H1 9197   0.463   3.927  13.320 -1.0601 -1.6388  0.0881
  617MPD2    H2 9198   0.867   3.941  13.223 -0.1313  1.4261  1.4296
  617MPD2    H3 9199   0.633   3.962  13.160  0.4008 -0.1319 -1.3368
  617MPD2     N 9200   0.482   3.808  13.559 -0.5043 -0.0916 -0.8047
  617MPD2    H5 9201   0.387   3.819  13.525 -0.4423 -1.8709 -1.4945
  617MPD2    N1 9202   0.959   3.818  13.424 -0.4651 -0.0255 -0.1505
  617MPD2    H7 9203   1.023   3.851  13.352  0.6006 -1.1033  0.3041
  618TMC3    C1 9204   1.160   3.757  13.519  0.3818  0.0136 -0.1620
  618TMC3    C2 9205   1.231   3.642  13.528  0.0774 -0.1954  0.0264
  618TMC3    C3 9206   1.359   3.643  13.489 -0.1885 -0.6781  0.1208
  618TMC3    C4 9207   1.221   3.869  13.473  0.0809  0.6964 -0.5893
  618TMC3    C5 9208   1.351   3.868  13.437  0.3145 -0.1810 -0.2238
  618TMC3    C6 9209   1.423   3.756  13.447 -0.1800  0.6010 -0.2552
  618TMC3     C 9210   1.014   3.740  13.523  0.4506  0.0901  0.6634
  618TMC3     O 9211   0.958   3.682  13.615  0.2187  0.3143  0.1396
  618TMC3     H 9212   1.173   3.556  13.559 -0.0832 -1.0706 -2.7256
  618TMC3    H1 9213   1.167   3.962  13.463 -2.6663 -0.7828  0.3580
  618TMC3    H2 9214   1.527   3.754  13.415  0.5485  0.0197  2.1722
  618TMC3    C7 9215   1.430   3.996  13.435  0.1790  0.2887 -0.3986
  618TMC3    C8 9216   1.407   3.521  13.429  0.4645 -0.3756  0.5119
  618TMC3    O1 9217   1.428   4.069  13.532  0.3347  0.5963 -0.3992
  618TMC3    O2 9218   1.376   3.412  13.481 -0.6906  0.2659 -0.4469
  619MPD2     C 9219   2.083   0.196  13.684 -0.3559 -0.8271 -0.0204
  619MPD2    C1 9220   2.017   0.292  13.614  0.3623  0.3946  0.3629
  619MPD2    C2 9221   1.879   0.307  13.636  1.0229  0.5930 -0.5147
  619MPD2    C3 9222   1.823   0.221  13.730  0.5784 -0.3917 -0.2882
  619MPD2    C4 9223   1.894   0.136  13.814  0.7930 -1.1587  0.4736
  619MPD2    C5 9224   2.025   0.116  13.785 -0.2740 -0.0947 -0.3595
  619MPD2     H 9225   1.822   0.378  13.577 -2.0507 -2.0355 -0.6475
  619MPD2    H1 9226   1.838   0.091  13.895 -0.1602 -1.8175 -0.5334
  619MPD2    H2 9227   2.188   0.172  13.672 -0.2560  0.4428 -1.5775
  619MPD2    H3 9228   2.080   0.036  13.833  0.9555  0.7794 -0.2984
  619MPD2     N 9229   1.682   0.224  13.762 -0.4515  1.4061  1.0457
  619MPD2    H5 9230   1.648   0.152  13.824 -0.8446  1.2778  0.6757
  619MPD2    N1 9231   2.082   0.374  13.529  0.3081 -0.5329 -0.7203
  619MPD2    H7 9232   2.023   0.432  13.470  0.0450  1.4262  1.4884
  620TMC3    C1 9233   2.256   0.491  13.426 -0.1102  0.8401  0.4854
  620TMC3    C2 9234   2.163   0.516  13.331 -0.2286 -0.7922 -0.3006
  620TMC3    C3 9235   2.141   0.641  13.294 -0.3086  0.5260 -0.2885
  620TMC3    C4 9236   2.314   0.599  13.481 -0.1583 -0.4710 -0.0832
  620TMC3    C5 9237   2.311   0.725  13.428  0.3455  0.2719  0.2449
  620TMC3    C6 9238   2.233   0.739  13.318  0.6882  0.5909 -0.8189
  620TMC3     C 9239   2.219   0.392  13.528  0.5942 -0.1348 -0.0394
  620TMC3     O 9240   2.308   0.361  13.604 -0.3379  0.8101  0.0031
  620TMC3     H 9241   2.093   0.442  13.292 -0.8699 -0.1487 -0.3771
  620TMC3    H1 9242   2.375   0.587  13.570  1.7740 -0.6652 -1.4265
  620TMC3    H2 9243   2.208   0.839  13.284 -0.2979 -0.0079 -1.8338
  620TMC3    C7 9244   2.273   0.830  13.518  0.8068 -1.0768 -0.4612
  620TMC3    C8 9245   2.004   0.676  13.334 -0.5911 -0.8299  0.6094
  620TMC3    O1 9246   2.295   0.946  13.481  0.0290  0.0954  0.3222
  620TMC3    O2 9247   1.950   0.593  13.403 -0.4054 -0.3150  0.1882
  621MPD2     C 9248   2.652   0.775  10.013 -0.5859 -0.6545 -0.5821
  621MPD2    C1 9249   2.524   0.765   9.954 -0.4042  0.4481 -0.2015
  621MPD2    C2 9250   2.462   0.883   9.917  0.2322 -0.3064 -0.3330
  621MPD2    C3 9251   2.518   1.006   9.942  0.4241 -0.3361  0.3517
  621MPD2    C4 9252   2.640   1.006  10.001 -0.3572 -0.4865 -1.1123
  621MPD2    C5 9253   2.707   0.896  10.034  0.1407  0.0458  0.2391
  621MPD2     H 9254   2.365   0.875   9.869 -0.0447  1.4497 -0.0630
  621MPD2    H1 9255   2.697   1.098  10.008 -0.7284 -0.2517 -1.2156
  621MPD2    H2 9256   2.712   0.693  10.052 -0.6328  0.4196  1.7433
  621MPD2    H3 9257   2.802   0.913  10.083  1.3499 -0.9102 -1.7579
  621MPD2     N 9258   2.464   1.137   9.908  0.0934  0.3036 -0.5447
  621MPD2    H5 9259   2.516   1.218   9.940  0.3768 -0.5376  1.1372
  621MPD2    N1 9260   2.456   0.646   9.916 -0.2699 -0.0442  0.0239
  621MPD2    H7 9261   2.366   0.650   9.869 -0.0467  0.8322 -0.3225
  622TMC3    C1 9262   2.404   0.428   9.892 -0.2862  0.1205 -0.0397
  622TMC3    C2 9263   2.395   0.306   9.955  0.5996 -0.4226  0.8489
  622TMC3    C3 9264   2.309   0.215   9.902  0.2894  0.4246  0.7671
  622TMC3    C4 9265   2.334   0.458   9.771 -0.9018 -0.0946  0.3994
  622TMC3    C5 9266   2.251   0.360   9.720 -0.0298  0.2050  0.4349
  622TMC3    C6 9267   2.237   0.237   9.782  0.0108  0.3776  1.0374
  622TMC3     C 9268   2.493   0.524   9.958 -0.2800 -0.1143 -0.1467
  622TMC3     O 9269   2.589   0.496  10.030  0.4214  0.0033  0.2267
  622TMC3     H 9270   2.440   0.300  10.054  0.2024  0.3441  1.0770
  622TMC3    H1 9271   2.353   0.553   9.722  3.8681 -1.2742 -0.0615
  622TMC3    H2 9272   2.173   0.158   9.743 -0.3297  0.7480  0.8474
  622TMC3    C7 9273   2.227   0.372   9.577 -0.2799  0.3963 -0.0508
  622TMC3    C8 9274   2.308   0.080   9.967 -0.3604  0.7977 -1.2137
  622TMC3    O1 9275   2.204   0.272   9.515  0.3352 -0.2246 -0.1139
  622TMC3    O2 9276   2.413   0.020   9.976 -0.0887  0.3859 -0.0268
  623MPD2     C 9277   1.290   1.525  15.990  0.0433  0.0977 -0.0644
  623MPD2    C1 9278   1.230   1.405  16.038  0.2394 -0.4058  0.0259
  623MPD2    C2 9279   1.273   1.360  16.161 -0.3097 -1.1896  0.3343
  623MPD2    C3 9280   1.379   1.418  16.228  0.4580 -0.5621 -0.1616
  623MPD2    C4 9281   1.435   1.537  16.188  0.2744  1.0768  0.2060
  623MPD2    C5 9282   1.391   1.588  16.068  0.4436 -0.4568  0.4637
  623MPD2     H 9283   1.234   1.268  16.201 -1.4745 -0.1051  1.6557
  623MPD2    H1 9284   1.522   1.579  16.237 -0.0361 -0.0184  1.6810
  623MPD2    H2 9285   1.265   1.570  15.895  1.7877  2.2776  0.5082
  623MPD2    H3 9286   1.445   1.671  16.023 -0.0732 -0.2879  0.1647
  623MPD2     N 9287   1.415   1.352  16.352 -0.5991  0.4900 -0.4575
  623MPD2    H5 9288   1.375   1.260  16.363  1.0252 -0.1245  0.3404
  623MPD2    N1 9289   1.138   1.339  15.956 -0.7046 -1.2261 -0.8905
  623MPD2    H7 9290   1.101   1.381  15.872  1.9041  3.2206  0.2050
  624TMC3    C1 9291   1.594   1.215  16.737  0.3119  0.3797  0.8480
  624TMC3    C2 9292   1.478   1.154  16.762  0.5663  0.3441 -0.0792
  624TMC3    C3 9293   1.372   1.178  16.685 -0.1531 -0.0484 -0.1701
  624TMC3    C4 9294   1.606   1.303  16.635 -0.9274 -1.1191  0.1434
  624TMC3    C5 9295   1.491   1.314  16.557 -0.0406  0.3774 -0.5726
  624TMC3    C6 9296   1.370   1.253  16.573  0.8419 -0.1663 -0.8118
  624TMC3     C 9297   1.714   1.141  16.758 -0.0411 -0.7671 -0.2438
  624TMC3     O 9298   1.717   1.093  16.873 -0.2066 -0.2992 -0.3439
  624TMC3     H 9299   1.469   1.091  16.850  1.2551  1.7410  1.0003
  624TMC3    H1 9300   1.698   1.349  16.600 -0.2953 -1.1450  1.7426
  624TMC3    H2 9301   1.280   1.259  16.514  1.0832  0.5062 -1.1163
  624TMC3    C7 9302   1.495   1.404  16.448 -0.4849  0.3194  0.2808
  624TMC3    C8 9303   1.278   1.074  16.674 -0.1300 -0.1583 -0.9616
  624TMC3    O1 9304   1.572   1.498  16.452 -0.4368 -0.4012 -0.1722
  624TMC3    O2 9305   1.268   1.010  16.572 -0.2248 -0.1685 -0.0420
  625MPD2     C 9306   1.565   2.306   0.479  0.1169  0.9334  0.8067
  625MPD2    C1 9307   1.544   2.441   0.508  1.0167  0.2428  0.6903
  625MPD2    C2 9308   1.636   2.497   0.586  0.0935  0.6830 -0.3802
  625MPD2    C3 9309   1.744   2.431   0.629  0.0027 -0.1033 -0.5421
  625MPD2    C4 9310   1.767   2.301   0.595 -0.6898 -1.1087  0.5304
  625MPD2    C5 9311   1.685   2.242   0.516  0.6643 -0.0313  0.3040
  625MPD2     H 9312   1.631   2.600   0.621 -0.2451  0.4813  0.1841
  625MPD2    H1 9313   1.853   2.244   0.629  0.5383  0.5500  0.2184
  625MPD2    H2 9314   1.508   2.245   0.410  0.6005 -0.7115  1.8471
  625MPD2    H3 9315   1.713   2.146   0.473 -2.9039  0.0001 -2.0841
  625MPD2     N 9316   1.824   2.495   0.726 -0.0513 -0.1462  0.1096
  625MPD2    H5 9317   1.790   2.579   0.771  1.0145  1.3257 -1.8261
  625MPD2    N1 9318   1.431   2.518   0.465 -0.4107  0.1833 -0.0812
  625MPD2    H7 9319   1.437   2.619   0.473  1.3924 -0.1399  2.5208
  626TMC3    C1 9320   1.249   2.577   0.323  0.2291  0.2437  0.1035
  626TMC3    C2 9321   1.211   2.561   0.189 -0.4346  0.7798 -0.1631
  626TMC3    C3 9322   1.158   2.666   0.129 -0.0245 -0.5268 -0.8842
  626TMC3    C4 9323   1.213   2.688   0.397  0.6971  0.2666 -0.0818
  626TMC3    C5 9324   1.150   2.791   0.329  0.1852  0.0216 -0.2518
  626TMC3    C6 9325   1.120   2.774   0.199 -0.9792 -0.0032 -0.6201
  626TMC3     C 9326   1.332   2.471   0.383 -0.6662  0.2627 -0.0420
  626TMC3     O 9327   1.305   2.353   0.355  0.0195  0.5856 -0.4569
  626TMC3     H 9328   1.242   2.468   0.143  2.2038  1.4350  0.2705
  626TMC3    H1 9329   1.233   2.685   0.503 -4.0911  0.2212  0.8122
  626TMC3    H2 9330   1.082   2.856   0.140 -2.0626  1.1859  1.7488
  626TMC3    C7 9331   1.076   2.892   0.411 -0.4286 -0.3939  0.7503
  626TMC3    C8 9332   1.117   2.652  17.730 -0.1132  0.4835  0.7434
  626TMC3    O1 9333   1.102   2.892   0.532  0.7384 -0.4847 -0.5029
  626TMC3    O2 9334   1.091   2.757  17.673 -0.5808 -0.4474  0.1455
  627MPD2     C 9335   0.604   2.760  14.140  0.3954 -0.5932  0.1938
  627MPD2    C1 9336   0.581   2.757  14.277 -0.5055 -0.2013 -0.6767
  627MPD2    C2 9337   0.496   2.655  14.330 -0.4647  1.1222  0.3365
  627MPD2    C3 9338   0.435   2.569  14.241  0.1053  0.0161 -0.6199
  627MPD2    C4 9339   0.458   2.580  14.107 -0.2103  0.3339 -0.3937
  627MPD2    C5 9340   0.542   2.668  14.055  0.0353 -0.6382 -0.3469
  627MPD2     H 9341   0.471   2.655  14.436  1.5531 -0.7418  0.8212
  627MPD2    H1 9342   0.416   2.506  14.039  0.4262 -0.5328  0.1678
  627MPD2    H2 9343   0.672   2.833  14.098 -3.6201  1.6603 -2.4136
  627MPD2    H3 9344   0.554   2.670  13.947  0.5483 -0.0715 -0.2836
  627MPD2     N 9345   0.340   2.479  14.294  0.0351  0.0541  0.0377
  627MPD2    H5 9346   0.347   2.479  14.395  0.8192  1.4357 -0.0186
  627MPD2    N1 9347   0.638   2.853  14.367  0.3238  0.5411 -0.3727
  627MPD2    H7 9348   0.606   2.850  14.463  0.3404 -1.0231 -0.4174
  628TMC3    C1 9349   0.752   3.036  14.465  0.1686  0.5178 -0.8740
  628TMC3    C2 9350   0.762   2.964  14.585  0.1858  0.3633 -0.0238
  628TMC3    C3 9351   0.758   3.046  14.693 -0.1381 -0.3404 -0.2794
  628TMC3    C4 9352   0.731   3.173  14.452 -0.1326  0.3794  0.1823
  628TMC3    C5 9353   0.705   3.237  14.576  0.4661  0.1312  0.3337
  628TMC3    C6 9354   0.712   3.175  14.694 -0.5872  0.4500 -0.2053
  628TMC3     C 9355   0.716   2.965  14.338 -0.0566 -0.5083  0.2590
  628TMC3     O 9356   0.754   3.010  14.230  0.2524 -0.5734  0.5645
  628TMC3     H 9357   0.790   2.860  14.585 -2.7717 -0.4504  0.9355
  628TMC3    H1 9358   0.723   3.217  14.354 -1.5744  1.0328  0.5920
  628TMC3    H2 9359   0.698   3.228  14.788 -1.4262  0.5865 -0.4072
  628TMC3    C7 9360   0.691   3.385  14.580  0.0288  0.3034 -0.4381
  628TMC3    C8 9361   0.841   2.999  14.802  0.7049  0.4746 -0.1621
  628TMC3    O1 9362   0.729   3.443  14.678  0.8649  0.4767  0.3534
  628TMC3    O2 9363   0.880   3.080  14.879 -0.0816  0.2285  0.4971
  629MPD2     C 9364   3.328   1.118  17.118 -0.2992  0.2587 -0.6652
  629MPD2    C1 9365   3.307   1.175  16.992 -0.2867  0.1135  0.6922
  629MPD2    C2 9366   3.177   1.183  16.949  0.8979 -0.9592  0.2599
  629MPD2    C3 9367   3.076   1.138  17.039 -0.3668  0.5054  0.2782
  629MPD2    C4 9368   3.096   1.096  17.173 -0.5372  0.0814 -0.2137
  629MPD2    C5 9369   3.229   1.073  17.204 -0.5688  0.5330 -0.0109
  629MPD2     H 9370   3.155   1.216  16.848 -0.8633 -2.0789  0.2787
  629MPD2    H1 9371   3.027   1.041  17.236 -0.5793  1.1198  0.6485
  629MPD2    H2 9372   3.427   1.103  17.159 -0.6004  2.1122  0.7095
  629MPD2    H3 9373   3.251   1.031  17.302 -3.1402 -0.1952  0.2586
  629MPD2     N 9374   2.948   1.125  16.981  0.1190  0.4807  0.5636
  629MPD2    H5 9375   2.951   1.136  16.881  0.0151 -2.1707  0.2725
  629MPD2    N1 9376   3.423   1.221  16.923  0.0574 -0.0969  0.4168
  629MPD2    H7 9377   3.510   1.210  16.975  0.5837 -1.3344 -0.7290
  630TMC3    C1 9378   3.540   1.383  16.812 -0.9756  0.2159  0.4659
  630TMC3    C2 9379   3.538   1.496  16.735  0.3031  0.0861  0.4257
  630TMC3    C3 9380   3.649   1.572  16.736 -0.0625 -0.8575  0.1315
  630TMC3    C4 9381   3.649   1.347  16.892 -0.0593 -0.2359 -0.6043
  630TMC3    C5 9382   3.753   1.431  16.886 -0.7500  0.3590 -0.2736
  630TMC3    C6 9383   3.756   1.547  16.820 -0.0149  0.1968 -0.1257
  630TMC3     C 9384   3.428   1.294  16.805  0.2324 -0.1764  0.2287
  630TMC3     O 9385   3.336   1.333  16.738  0.0958 -0.2421  0.3349
  630TMC3     H 9386   3.451   1.515  16.674  0.2604 -0.0165  0.4559
  630TMC3    H1 9387   3.662   1.243  16.922  0.1853  0.3218  1.2075
  630TMC3    H2 9388   3.831   1.625  16.823  1.9961 -1.7992  0.6827
  630TMC3    C7 9389   3.864   1.396  16.966 -0.1368  0.0288  0.1455
  630TMC3    C8 9390   3.664   1.689  16.651  0.3305  0.3570 -0.5728
  630TMC3    O1 9391   3.855   1.294  17.034  0.4412 -0.0941  0.1468
  630TMC3    O2 9392   3.773   1.742  16.648 -0.3880  0.3367 -0.0282
  631MPD2     C 9393   1.546   1.314  15.697  0.5799  0.0206 -0.2029
  631MPD2    C1 9394   1.649   1.333  15.618  0.4018  0.8290  0.3602
  631MPD2    C2 9395   1.757   1.244  15.622  0.2140 -0.1307 -0.0574
  631MPD2    C3 9396   1.756   1.129  15.709  0.4010 -0.5433 -0.3840
  631MPD2    C4 9397   1.649   1.113  15.792 -0.0630  0.5247 -0.1436
  631MPD2    C5 9398   1.546   1.206  15.791 -0.0220  0.2115 -0.2559
  631MPD2     H 9399   1.843   1.266  15.560  0.0501 -1.7885 -0.8558
  631MPD2    H1 9400   1.639   1.028  15.858 -1.1333 -0.6240 -1.7932
  631MPD2    H2 9401   1.463   1.383  15.691  0.7220  0.0898 -1.4623
  631MPD2    H3 9402   1.462   1.189  15.856 -1.6279  1.1747 -2.0849
  631MPD2     N 9403   1.885   1.061  15.729 -0.2798  0.0902 -1.1578
  631MPD2    H5 9404   1.965   1.086  15.671  0.3269  0.6217 -0.0960
  631MPD2    N1 9405   1.650   1.443  15.532  0.0523 -0.3284 -0.3737
  631MPD2    H7 9406   1.572   1.506  15.544  0.0086 -0.3040 -0.7891
  632TMC3    C1 9407   1.707   1.603  15.375  0.2396  0.0829 -0.2906
  632TMC3    C2 9408   1.706   1.715  15.448 -0.1817  0.6158  0.1986
  632TMC3    C3 9409   1.682   1.832  15.378  0.0397  0.5456 -0.6944
  632TMC3    C4 9410   1.699   1.597  15.240 -1.5801  0.1350  0.1988
  632TMC3    C5 9411   1.682   1.717  15.170  0.4581  0.1322  0.1554
  632TMC3    C6 9412   1.673   1.836  15.243  0.1247  0.0044 -0.9462
  632TMC3     C 9413   1.745   1.472  15.439  0.0211 -0.3489 -0.0910
  632TMC3     O 9414   1.836   1.406  15.391 -0.0120  0.3362  0.0864
  632TMC3     H 9415   1.735   1.701  15.551 -1.8305  0.2344  0.6126
  632TMC3    H1 9416   1.709   1.498  15.198 -1.4900  0.2911 -0.1442
  632TMC3    H2 9417   1.661   1.934  15.198 -0.1746  0.4792  0.1531
  632TMC3    C7 9418   1.750   1.712  15.046  0.2374 -0.5650  0.0388
  632TMC3    C8 9419   1.615   1.936  15.458 -0.2532 -0.3216  0.1888
  632TMC3    O1 9420   1.707   1.774  14.949 -0.8733  0.2511  0.1255
  632TMC3    O2 9421   1.517   1.995  15.408  0.5959  0.2445 -0.0131
  633MPD2     C 9422   1.165   4.070  17.092 -0.7672 -0.4357  0.2765
  633MPD2    C1 9423   1.182   3.970  16.997  0.0479 -0.5023  0.4496
  633MPD2    C2 9424   1.243   3.852  17.026  0.5723  0.7845 -0.2456
  633MPD2    C3 9425   1.289   3.825  17.154  0.2656 -0.0085 -0.7726
  633MPD2    C4 9426   1.277   3.924  17.243 -0.2756 -0.4427 -0.2984
  633MPD2    C5 9427   1.215   4.044  17.218  0.2514  0.6219 -0.1197
  633MPD2     H 9428   1.260   3.786  16.943  0.4820  0.9515 -0.3982
  633MPD2    H1 9429   1.317   3.924  17.343 -0.0710  2.8234 -0.3763
  633MPD2    H2 9430   1.109   4.160  17.068  0.6819  0.8483  1.6590
  633MPD2    H3 9431   1.192   4.116  17.295 -0.5245 -0.0786  0.3094
  633MPD2     N 9432   1.366   3.711  17.190 -0.7870  0.1019  0.6558
  633MPD2    H5 9433   1.403   3.721  17.283  1.9788 -0.9353 -0.3327
  633MPD2    N1 9434   1.149   3.990  16.862  0.1229  0.5161 -0.4360
  633MPD2    H7 9435   1.173   3.920  16.793  1.9481  2.2435 -1.5655
  634TMC3    C1 9436   1.089   4.110  16.655  0.1329 -0.2468 -0.4510
  634TMC3    C2 9437   1.157   4.011  16.585  0.2665  0.2819 -0.5140
  634TMC3    C3 9438   1.224   4.044  16.468  0.5410 -0.5705  0.3192
  634TMC3    C4 9439   1.099   4.239  16.614  0.5222 -0.2453 -0.5737
  634TMC3    C5 9440   1.165   4.269  16.502  0.6192 -0.0256 -0.8438
  634TMC3    C6 9441   1.232   4.172  16.426 -0.2972  0.1069  0.2264
  634TMC3     C 9442   1.109   4.108  16.800  0.0683 -0.2007 -0.5191
  634TMC3     O 9443   1.103   4.218  16.846 -0.0204 -0.4525  0.4182
  634TMC3     H 9444   1.169   3.911  16.623  1.6601  0.7532  0.2914
  634TMC3    H1 9445   1.025   4.308  16.653 -0.3314 -0.2174 -2.2491
  634TMC3    H2 9446   1.291   4.204  16.340 -2.9938  0.1777 -1.6016
  634TMC3    C7 9447   1.179   4.404  16.457  0.0711  0.2718 -0.4992
  634TMC3    C8 9448   1.261   3.943  16.380 -0.4880  0.4169  0.6199
  634TMC3    O1 9449   1.245   4.422  16.354 -0.7900 -0.8166 -0.5671
  634TMC3    O2 9450   1.269   3.828  16.428  0.0501 -0.0622 -0.4503
  635TMC3    C1 9451   1.267   0.482   0.153 -0.4019  0.3247 -0.8775
  635TMC3    C2 9452   1.311   0.363   0.111 -0.5047 -0.1464 -0.1887
  635TMC3    C3 9453   1.221   0.272   0.057 -1.1724 -1.0047 -0.0694
  635TMC3    C4 9454   1.130   0.511   0.161 -0.0687  0.6722  0.5475
  635TMC3    C5 9455   1.046   0.422   0.094  0.2454 -0.0590 -0.0399
  635TMC3    C6 9456   1.090   0.304   0.043  0.9573 -1.3010 -0.4227
  635TMC3     C 9457   1.364   0.578   0.209  0.4265  0.6932 -0.0383
  635TMC3     O 9458   1.325   0.681   0.264  0.1007  0.5312 -0.0310
  635TMC3     H 9459   1.416   0.334   0.108 -0.6291 -0.6195  0.0713
  635TMC3    H1 9460   1.105   0.609   0.200  0.1823 -0.1875  2.9117
  635TMC3    H2 9461   1.016   0.231   0.013 -0.3289 -0.5581  0.9189
  635TMC3    C7 9462   0.911   0.463   0.062 -0.0509  0.2977 -0.1799
  635TMC3    C8 9463   1.281   0.157  17.737 -0.1901 -0.5255 -0.0231
  635TMC3    O1 9464   0.875   0.569   0.108  0.0809  0.4238 -0.8442
  635TMC3    O2 9465   1.394   0.159  17.688  0.4865  0.1665  0.1675
  636MPD2     C 9466   2.609   4.445  15.629 -0.1645  0.3926  0.2307
  636MPD2    C1 9467   2.646   4.375  15.743 -0.2692  0.0694  0.1582
  636MPD2    C2 9468   2.671   4.238  15.733  0.0123  0.1191  0.4005
  636MPD2    C3 9469   2.668   4.180  15.606 -0.2465  0.5598 -0.3952
  636MPD2    C4 9470   2.655   4.249  15.494  0.3668  0.9063 -0.2193
  636MPD2    C5 9471   2.624   4.385  15.508  0.3699  0.3708  0.4885
  636MPD2     H 9472   2.680   4.168  15.816  3.1042  0.6294  0.4945
  636MPD2    H1 9473   2.659   4.214  15.392 -2.1212  1.7000 -0.5996
  636MPD2    H2 9474   2.596   4.553  15.623  0.6780  0.5874  1.9031
  636MPD2    H3 9475   2.616   4.450  15.422  2.9561 -2.2293 -1.6645
  636MPD2     N 9476   2.697   4.042  15.600  0.3790  0.2489  0.1103
  636MPD2    H5 9477   2.726   3.993  15.684 -0.3182 -0.2032  0.0903
  636MPD2    N1 9478   2.646   4.426  15.870 -0.3878 -0.0344 -0.4404
  636MPD2    H7 9479   2.660   4.359  15.945  1.0795  2.0276  1.1116
  637TMC3    C1 9480   2.700   3.812  15.518 -0.1934 -0.1351  0.5958
  637TMC3    C2 9481   2.662   3.778  15.644  0.2428 -0.5798 -0.1050
  637TMC3    C3 9482   2.741   3.694  15.714 -0.4667  0.7454  0.2717
  637TMC3    C4 9483   2.818   3.763  15.462 -1.1443 -0.6217 -0.0042
  637TMC3    C5 9484   2.890   3.663  15.527  0.5247 -0.1988  0.1590
  637TMC3    C6 9485   2.848   3.632  15.655 -0.7677 -0.5712 -0.1685
  637TMC3     C 9486   2.686   3.960  15.485  0.1922  0.1578  0.4717
  637TMC3     O 9487   2.675   3.989  15.370 -0.3342  0.1944 -0.1625
  637TMC3     H 9488   2.589   3.841  15.695 -1.4735 -2.3574 -0.3458
  637TMC3    H1 9489   2.848   3.811  15.369 -1.4711 -1.7409 -0.6898
  637TMC3    H2 9490   2.889   3.550  15.714  1.5955  1.7457  1.4244
  637TMC3    C7 9491   3.039   3.669  15.524 -0.3855  0.7973  0.5676
  637TMC3    C8 9492   2.768   3.758  15.843  0.3599  0.3039  0.5081
  637TMC3    O1 9493   3.095   3.649  15.627 -0.4839  0.2645  0.2004
  637TMC3    O2 9494   2.760   3.875  15.836 -0.5288 -0.0608  0.1915
  638MPD2     C 9495   2.030   3.135  14.855 -0.3510  0.1035  0.2238
  638MPD2    C1 9496   2.060   3.028  14.765 -0.6173  0.5372 -0.5132
  638MPD2    C2 9497   2.090   2.904  14.821 -0.2982 -0.1537  0.1628
  638MPD2    C3 9498   2.086   2.881  14.952 -0.7889 -0.4672  0.2169
  638MPD2    C4 9499   2.058   2.987  15.040 -0.2744 -0.4085  0.1176
  638MPD2    C5 9500   2.021   3.109  14.991 -0.1293 -0.5432 -0.4135
  638MPD2     H 9501   2.114   2.818  14.760 -0.2299  0.2442 -0.3742
  638MPD2    H1 9502   2.052   2.966  15.146  0.7986  1.6639  0.5855
  638MPD2    H2 9503   2.002   3.234  14.821  0.4249 -0.6454 -2.5588
  638MPD2    H3 9504   1.990   3.188  15.059 -0.8785  0.3719 -1.8144
  638MPD2     N 9505   2.118   2.753  14.994 -0.0277  0.5610 -0.2849
  638MPD2    H5 9506   2.139   2.688  14.919 -0.6977 -1.7729  1.5422
  638MPD2    N1 9507   2.088   3.050  14.629  0.3987  0.4425  0.9696
  638MPD2    H7 9508   2.109   3.140  14.586 -1.5887 -0.0760 -1.0721
  639TMC3    C1 9509   2.128   2.566  15.120  0.1571  0.3435  0.6336
  639TMC3    C2 9510   2.065   2.515  15.009  0.3142 -0.6857  0.2119
  639TMC3    C3 9511   2.127   2.407  14.951 -0.2330  0.1220 -0.2566
  639TMC3    C4 9512   2.248   2.522  15.168  0.2592  0.4590  0.1745
  639TMC3    C5 9513   2.309   2.422  15.107  0.7143 -0.1258 -0.3830
  639TMC3    C6 9514   2.257   2.369  14.996 -0.3294  0.4707 -0.0533
  639TMC3     C 9515   2.122   2.706  15.125 -0.0633 -0.4505 -0.5971
  639TMC3     O 9516   2.109   2.759  15.234 -0.1199 -0.2142  0.4735
  639TMC3     H 9517   1.962   2.546  14.998  0.7683  0.0873 -1.8938
  639TMC3    H1 9518   2.290   2.568  15.257  0.2295 -0.7635  0.8065
  639TMC3    H2 9519   2.308   2.284  14.952 -0.4488  0.5228 -0.2925
  639TMC3    C7 9520   2.431   2.371  15.176  0.0990 -0.6012 -0.3155
  639TMC3    C8 9521   2.076   2.348  14.834 -0.6597 -0.3377  0.5042
  639TMC3    O1 9522   2.423   2.357  15.298 -0.2843  0.0721 -0.2858
  639TMC3    O2 9523   2.151   2.284  14.759  0.6738  0.0859 -0.0902
  640MPD2     C 9524   3.348   2.342   9.678  0.3036 -0.6193  0.0076
  640MPD2    C1 9525   3.212   2.364   9.672  0.3093 -0.3099  0.2922
  640MPD2    C2 9526   3.159   2.450   9.768 -0.0520  0.3953 -0.4957
  640MPD2    C3 9527   3.238   2.518   9.858 -0.3485 -0.3026 -0.3482
  640MPD2    C4 9528   3.369   2.484   9.866  0.2663 -0.3313 -0.6989
  640MPD2    C5 9529   3.424   2.405   9.767 -0.0047  0.3690  0.1169
  640MPD2     H 9530   3.051   2.459   9.769 -0.1149 -0.3198 -0.7432
  640MPD2    H1 9531   3.427   2.523   9.949  0.5559 -1.9553 -0.1281
  640MPD2    H2 9532   3.399   2.269   9.616 -0.6806 -0.1248 -1.3824
  640MPD2    H3 9533   3.528   2.374   9.770 -0.5384 -1.1767  3.4908
  640MPD2     N 9534   3.191   2.600   9.959  0.7435  0.3299  0.2515
  640MPD2    H5 9535   3.259   2.623  10.029  1.1473 -1.1225  0.3442
  640MPD2    N1 9536   3.136   2.286   9.577  0.3648 -0.3022  0.1735
  640MPD2    H7 9537   3.181   2.217   9.518  1.9033  0.8028  0.0786
  641TMC3    C1 9538   2.949   2.197   9.475 -0.5392  0.5698 -0.1571
  641TMC3    C2 9539   3.026   2.113   9.395 -0.2610 -0.4393  0.6814
  641TMC3    C3 9540   2.957   2.037   9.299  0.4094  0.5174  0.2405
  641TMC3    C4 9541   2.810   2.202   9.463 -0.0057 -0.4102 -0.2602
  641TMC3    C5 9542   2.756   2.101   9.381  0.4009  0.3973  0.1725
  641TMC3    C6 9543   2.817   2.023   9.295 -0.0850 -0.2833 -0.1206
  641TMC3     C 9544   3.001   2.299   9.551  0.0751 -0.8384 -0.0254
  641TMC3     O 9545   2.925   2.383   9.597 -0.6847 -0.1904  0.0750
  641TMC3     H 9546   3.134   2.121   9.389 -0.2464 -1.8553 -1.0285
  641TMC3    H1 9547   2.742   2.267   9.517  0.8269  0.3392 -0.1021
  641TMC3    H2 9548   2.767   1.949   9.235 -2.9972  0.7008  1.0998
  641TMC3    C7 9549   2.616   2.058   9.395  0.2757  0.1152  0.6667
  641TMC3    C8 9550   3.021   1.906   9.259 -0.5188 -0.2407 -0.5119
  641TMC3    O1 9551   2.567   1.989   9.310 -0.1964  0.0358  0.8888
  641TMC3    O2 9552   2.959   1.841   9.174 -0.3946  0.0528 -0.1568
  642TMC3    C1 9553   3.971   2.919  12.541 -0.8090 -0.4722 -0.3186
  642TMC3    C2 9554   4.058   2.950  12.446 -0.1664 -1.5111 -0.2836
  642TMC3    C3 9555   4.087   2.862  12.337  0.5500  0.0910  0.3433
  642TMC3    C4 9556   3.898   2.804  12.531  0.7689  0.1238  1.0886
  642TMC3    C5 9557   3.916   2.722  12.418 -0.5902  0.3245 -0.7755
  642TMC3    C6 9558   4.007   2.752  12.315 -0.3727 -0.3241  0.5419
  642TMC3     C 9559   3.938   3.012  12.640 -0.6108  0.2856 -0.0597
  642TMC3     O 9560   4.016   3.103  12.658  0.4489 -0.6933 -0.3819
  642TMC3     H 9561   4.100   3.050  12.454 -0.7168 -1.1603 -1.8087
  642TMC3    H1 9562   3.841   2.767  12.616  1.1830 -0.7520  0.9907
  642TMC3    H2 9563   4.020   2.695  12.224  0.5870  1.4035 -0.3978
  642TMC3    C7 9564   3.832   2.608  12.392  0.2424 -0.0022  0.3531
  642TMC3    C8 9565   4.183   2.890  12.241 -0.3879  0.4101  0.0895
  642TMC3    O1 9566   3.816   2.582  12.274 -0.3872 -0.2963 -0.1964
  642TMC3    O2 9567   4.171   2.845  12.127  0.6270  0.6697 -0.0335
  643TMC3    C1 9568   3.306   1.934   0.230 -0.3178 -0.0982 -0.6666
  643TMC3    C2 9569   3.185   1.884   0.182 -0.2556 -1.3437  0.0816
  643TMC3    C3 9570   3.183   1.817   0.061 -0.4283  0.1299 -0.0097
  643TMC3    C4 9571   3.421   1.907   0.164  0.2993  0.3805  0.2217
  643TMC3    C5 9572   3.422   1.834   0.044  0.2959 -0.2451  0.1588
  643TMC3    C6 9573   3.302   1.764   0.011 -0.5735 -0.0278 -0.0688
  643TMC3     C 9574   3.288   2.057   0.300 -0.1269  0.2152 -0.3539
  643TMC3     O 9575   3.178   2.114   0.293 -0.0995 -0.0539 -0.4930
  643TMC3     H 9576   3.086   1.905   0.222 -0.2995  0.7035 -1.1239
  643TMC3    H1 9577   3.514   1.961   0.183  0.2150  0.1220  1.4012
  643TMC3    H2 9578   3.297   1.687  17.676 -1.5835 -0.3591  0.3237
  643TMC3    C7 9579   3.463   1.914  17.672  0.2351 -0.1155 -0.0214
  643TMC3    C8 9580   3.099   1.876  17.706  0.2780  0.7315  0.0581
  643TMC3    O1 9581   3.495   2.029  17.687  0.2107 -1.0193 -0.2562
  643TMC3    O2 9582   3.069   1.798  17.614 -0.5137 -0.3442 -0.7920
  644MPD2     C 9583   2.915   3.047   9.919  0.4480 -0.4043  0.5112
  644MPD2    C1 9584   2.864   2.944   9.845 -0.2426 -0.4597 -0.0469
  644MPD2    C2 9585   2.741   2.891   9.875 -0.7968 -0.7514 -0.0859
  644MPD2    C3 9586   2.668   2.939   9.984 -0.5404 -0.0292 -0.6244
  644MPD2    C4 9587   2.716   3.052  10.046 -0.0106 -0.5360  0.4754
  644MPD2    C5 9588   2.836   3.099  10.016  0.9389 -0.0636  0.2189
  644MPD2     H 9589   2.710   2.797   9.830  0.3876 -1.3954  0.4471
  644MPD2    H1 9590   2.666   3.111  10.123 -2.0629 -0.6614 -0.7676
  644MPD2    H2 9591   3.011   3.091   9.896  0.8941 -1.2881  0.6952
  644MPD2    H3 9592   2.870   3.190  10.065  0.1127  0.6065 -0.4319
  644MPD2     N 9593   2.544   2.887  10.036  0.2411 -0.3484 -0.0014
  644MPD2    H5 9594   2.514   2.801   9.991  0.4347  0.7368 -2.1831
  644MPD2    N1 9595   2.957   2.888   9.757  0.0678  0.0159  0.7756
  644MPD2    H7 9596   3.047   2.935   9.752  0.5562 -0.6325  3.4645
  645TMC3    C1 9597   2.343   2.861  10.174 -0.2583  0.8682  0.4354
  645TMC3    C2 9598   2.324   2.730  10.126  0.2793 -0.3487 -0.2823
  645TMC3    C3 9599   2.218   2.660  10.160  0.6238 -0.2296  0.3534
  645TMC3    C4 9600   2.246   2.928  10.243  0.6687  0.7469  0.1643
  645TMC3    C5 9601   2.134   2.855  10.266  0.7720  0.2974  0.6290
  645TMC3    C6 9602   2.119   2.723  10.227 -0.2279  0.1727  0.9536
  645TMC3     C 9603   2.462   2.938  10.135  0.3224  0.4048 -0.1384
  645TMC3     O 9604   2.475   3.031  10.211  0.5703  0.2966  0.4725
  645TMC3     H 9605   2.394   2.680  10.059 -0.1012  0.8347 -1.5443
  645TMC3    H1 9606   2.256   3.028  10.285  0.5808  1.0777 -0.5922
  645TMC3    H2 9607   2.025   2.676  10.254 -0.6750 -0.7370 -2.1600
  645TMC3    C7 9608   2.028   2.919  10.348 -0.5609 -0.1096  0.9920
  645TMC3    C8 9609   2.204   2.526  10.104  0.9506  0.1515  0.0681
  645TMC3    O1 9610   2.025   3.040  10.351  0.2529  0.4106 -0.2244
  645TMC3    O2 9611   2.291   2.472  10.039  0.0679 -0.3742 -0.0587
  646MPD2     C 9612   2.434   1.403  14.410  0.1757  0.4229 -0.5518
  646MPD2    C1 9613   2.400   1.499  14.508  0.4148 -0.4588  0.2214
  646MPD2    C2 9614   2.316   1.607  14.474  0.8773  0.0450 -0.2687
  646MPD2    C3 9615   2.256   1.604  14.346 -0.0951  0.8419  0.6179
  646MPD2    C4 9616   2.291   1.502  14.261 -0.0598  1.0321 -0.5026
  646MPD2    C5 9617   2.376   1.402  14.292 -0.5540  0.4546  0.2592
  646MPD2     H 9618   2.301   1.691  14.541  0.7426  1.7518 -2.4386
  646MPD2    H1 9619   2.247   1.487  14.163 -1.7734 -0.9998  0.5757
  646MPD2    H2 9620   2.500   1.325  14.446 -2.1269 -0.2307  2.2291
  646MPD2    H3 9621   2.398   1.327  14.218 -1.3839 -0.0242  0.5033
  646MPD2     N 9622   2.178   1.719  14.304  0.2649 -0.0295 -0.4057
  646MPD2    H5 9623   2.143   1.786  14.371  0.9053  0.0870 -0.1902
  646MPD2    N1 9624   2.474   1.484  14.631  0.2739 -0.0023  0.6160
  646MPD2    H7 9625   2.535   1.405  14.647  1.5715  1.0252  0.7712
  647TMC3    C1 9626   2.542   1.515  14.855  0.5649 -0.0550  0.1283
  647TMC3    C2 9627   2.496   1.537  14.979  0.1004 -0.7729  0.2093
  647TMC3    C3 9628   2.575   1.488  15.080  0.1939 -0.6802 -0.1886
  647TMC3    C4 9629   2.653   1.439  14.824 -0.6912  0.1539 -0.0426
  647TMC3    C5 9630   2.725   1.382  14.929 -0.6555  0.0322  0.2602
  647TMC3    C6 9631   2.686   1.409  15.053  0.3034 -0.8088  0.5126
  647TMC3     C 9632   2.461   1.566  14.741 -0.3131  0.4781 -0.4915
  647TMC3     O 9633   2.379   1.656  14.770  0.2064  0.2089  0.0253
  647TMC3     H 9634   2.410   1.600  14.996  1.0002  0.3031  0.7589
  647TMC3    H1 9635   2.690   1.429  14.723 -1.1705 -0.7152 -0.1314
  647TMC3    H2 9636   2.748   1.360  15.128 -1.6019 -1.0942  1.8936
  647TMC3    C7 9637   2.832   1.283  14.911 -0.2234  0.3113  0.2101
  647TMC3    C8 9638   2.538   1.497  15.216 -0.2584  0.5026  0.1057
  647TMC3    O1 9639   2.911   1.267  15.002  0.2682 -0.2455  0.9798
  647TMC3    O2 9640   2.567   1.395  15.276 -0.1279 -0.2616 -0.1165
  648TMC3    C1 9641   1.742   4.110  15.923 -0.4747 -0.2330 -0.4960
  648TMC3    C2 9642   1.820   3.999  15.900 -0.2955  0.1858  0.3543
  648TMC3    C3 9643   1.932   4.017  15.823 -0.6849 -0.3152 -0.7197
  648TMC3    C4 9644   1.759   4.226  15.859 -0.0109  0.4780  0.2638
  648TMC3    C5 9645   1.876   4.245  15.777 -0.0921  0.1337  0.8526
  648TMC3    C6 9646   1.965   4.138  15.755  0.4144 -0.4437 -0.6292
  648TMC3     C 9647   1.723   4.135  16.060  0.0418  0.3564  0.1678
  648TMC3     O 9648   1.738   4.248  16.097  0.2150 -1.0101  0.3530
  648TMC3     H 9649   1.803   3.906  15.953 -0.9855  0.7391  1.0973
  648TMC3    H1 9650   1.678   4.298  15.865 -0.6944 -0.2249 -0.6601
  648TMC3    H2 9651   2.052   4.150  15.692 -1.0130  1.8702 -2.1715
  648TMC3    C7 9652   1.906   4.373  15.710 -0.2776 -0.5356 -0.3180
  648TMC3    C8 9653   2.039   3.931  15.864  0.3456  0.3461 -0.0686
  648TMC3    O1 9654   1.961   4.365  15.604 -0.1586 -0.0773  0.4409
  648TMC3    O2 9655   2.049   3.916  15.987 -0.5462  0.0742  0.5768
  649TMC3    C1 9656   0.820   0.279  13.143  0.6719  0.4182  0.1520
  649TMC3    C2 9657   0.935   0.205  13.147 -0.6786 -0.5551 -0.3465
  649TMC3    C3 9658   0.930   0.089  13.219 -0.6713 -0.5452 -0.2050
  649TMC3    C4 9659   0.705   0.238  13.209  1.1092 -0.5607 -0.8467
  649TMC3    C5 9660   0.706   0.125  13.290 -0.0219 -0.4590 -0.0405
  649TMC3    C6 9661   0.814   0.050  13.291 -0.3925 -0.1421 -0.3847
  649TMC3     C 9662   0.818   0.386  13.046  0.4076  0.4232 -0.0786
  649TMC3     O 9663   0.718   0.456  13.048  0.2111 -0.1243 -0.2336
  649TMC3     H 9664   1.031   0.229  13.102 -0.8978  2.4329  0.7757
  649TMC3    H1 9665   0.618   0.303  13.215  0.6154 -1.2501 -0.4548
  649TMC3    H2 9666   0.813   4.694  13.348 -1.6088  1.0251  1.4828
  649TMC3    C7 9667   0.647   0.163  13.423 -0.1060 -0.3140 -0.8858
  649TMC3    C8 9668   1.044   0.035  13.294  0.2192  0.6225  0.0184
  649TMC3    O1 9669   0.567   0.255  13.424 -0.0796  0.1060  0.7799
  649TMC3    O2 9670   1.025   4.689  13.382  0.0876 -0.1447  0.5856
  650TMC3    C1 9671   3.263   2.025  12.739 -0.0501 -0.4414 -0.3980
  650TMC3    C2 9672   3.222   2.113  12.834 -0.3819  1.7529  0.2335
  650TMC3    C3 9673   3.099   2.170  12.819  0.0169  1.6023  0.0349
  650TMC3    C4 9674   3.189   2.026  12.624 -0.2486  0.2690 -0.1429
  650TMC3    C5 9675   3.068   2.084  12.607  0.0099 -0.0109  0.4311
  650TMC3    C6 9676   3.019   2.154  12.711 -0.0719 -0.1094 -0.2676
  650TMC3     C 9677   3.365   1.930  12.779 -0.1076 -0.5239  0.3044
  650TMC3     O 9678   3.443   1.962  12.868 -0.1378 -0.1038  0.5634
  650TMC3     H 9679   3.275   2.107  12.929 -0.5037 -1.0759  0.1082
  650TMC3    H1 9680   3.222   1.970  12.537  0.1529  1.0587 -0.5009
  650TMC3    H2 9681   2.937   2.224  12.699 -1.1853 -1.0702  1.7366
  650TMC3    C7 9682   3.034   2.149  12.485  0.2844  0.1501 -0.2879
  650TMC3    C8 9683   3.076   2.292  12.898  0.9437 -0.3755  0.9463
  650TMC3    O1 9684   3.008   2.079  12.391  0.4017 -0.0478  0.0266
  650TMC3    O2 9685   3.161   2.376  12.912  0.4358 -0.0232 -0.1446
  651MPD2     C 9686   2.061   4.475  10.200 -1.1614 -0.6545  0.2482
  651MPD2    C1 9687   2.040   4.575  10.294  0.3578  0.3719 -1.1795
  651MPD2    C2 9688   2.140   4.661  10.321  0.1798 -0.0822 -0.4308
  651MPD2    C3 9689   2.263   4.636  10.275  0.3865  0.5962  0.6047
  651MPD2    C4 9690   2.296   4.524  10.208 -0.2027  0.1558  0.3868
  651MPD2    C5 9691   2.190   4.453  10.164 -0.2231 -0.0152 -0.5304
  651MPD2     H 9692   2.113   0.005  10.389  0.7792  1.1732 -1.6715
  651MPD2    H1 9693   2.395   4.510  10.166  0.8169  0.2512  2.7824
  651MPD2    H2 9694   1.985   4.404  10.169 -2.2834  0.9281 -0.6197
  651MPD2    H3 9695   2.207   4.369  10.098  0.0713 -1.5520  1.5392
  651MPD2     N 9696   2.359   4.735  10.282  0.6382 -0.5036 -0.1430
  651MPD2    H5 9697   2.337   0.083  10.334 -0.5372  0.9559 -2.9648
  651MPD2    N1 9698   1.912   4.602  10.348  0.4739  0.5073  0.5111
  651MPD2    H7 9699   1.903   4.687  10.402 -2.7987  0.5195 -0.0134
  652TMC3    C1 9700   2.746   0.244  10.340 -0.1024  0.2126 -0.4303
  652TMC3    C2 9701   2.691   0.125  10.318  0.3438  1.1311  0.9521
  652TMC3    C3 9702   2.553   0.121  10.293  0.3567 -0.6895  0.5438
  652TMC3    C4 9703   2.680   0.362  10.346  0.0596 -0.6146  0.1731
  652TMC3    C5 9704   2.542   0.353  10.321 -0.1487  0.2236 -0.8577
  652TMC3    C6 9705   2.477   0.234  10.292 -0.3273 -0.0952 -0.7156
  652TMC3     C 9706   2.888   0.235  10.363 -0.1009  0.6518  0.2503
  652TMC3     O 9707   2.927   0.133  10.410  0.2622  0.6079  0.3396
  652TMC3     H 9708   2.744   0.031  10.322 -0.7752  0.5023  1.2920
  652TMC3    H1 9709   2.735   0.452  10.372  0.5538 -1.1974  1.1625
  652TMC3    H2 9710   2.369   0.236  10.284 -0.3955 -0.2604  0.1822
  652TMC3    C7 9711   2.456   0.471  10.358  0.1830  0.0052 -0.4995
  652TMC3    C8 9712   2.496   4.727  10.263  0.5721  0.1170 -0.2516
  652TMC3    O1 9713   2.336   0.456  10.364  0.2440 -0.0336  0.1268
  652TMC3    O2 9714   2.567   4.626  10.253 -0.0639 -0.0673 -0.1670
  653MPD2     C 9715   0.839   4.025  17.424  0.4353  0.1662 -0.1380
  653MPD2    C1 9716   0.822   4.140  17.350  0.1863 -0.5522  0.1352
  653MPD2    C2 9717   0.816   4.129  17.214  0.1247  0.1363  0.2192
  653MPD2    C3 9718   0.820   4.004  17.155  0.0812  0.3224 -0.4832
  653MPD2    C4 9719   0.858   3.896  17.226 -0.1353  0.1641  0.4601
  653MPD2    C5 9720   0.865   3.902  17.364 -0.1288 -0.6446  0.8377
  653MPD2     H 9721   0.802   4.222  17.161  2.3728  0.5199  0.3033
  653MPD2    H1 9722   0.873   3.800  17.177  1.1801 -0.3500  1.8725
  653MPD2    H2 9723   0.821   4.018  17.530  1.7307 -0.7418  0.0306
  653MPD2    H3 9724   0.871   3.816  17.428 -1.7399 -0.8967  0.6651
  653MPD2     N 9725   0.790   3.997  17.016  0.5281  0.3799  0.3170
  653MPD2    H5 9726   0.791   4.087  16.969  0.5266 -0.4760 -1.3266
  653MPD2    N1 9727   0.811   4.272  17.408  0.3142 -0.5693 -0.1531
  653MPD2    H7 9728   0.808   4.350  17.342 -0.0692 -0.5518 -0.1151
  654TMC3    C1 9729   0.727   3.906  16.810 -0.2418  0.3494 -0.4936
  654TMC3    C2 9730   0.612   3.987  16.790  0.1253  0.1296 -0.2839
  654TMC3    C3 9731   0.521   3.948  16.689 -0.2426  0.7022  0.2532
  654TMC3    C4 9732   0.745   3.799  16.732  0.2998  0.2012 -0.3838
  654TMC3    C5 9733   0.661   3.770  16.634  0.0188 -0.3867  0.3700
  654TMC3    C6 9734   0.548   3.844  16.602 -0.7739 -0.0443  0.2178
  654TMC3     C 9735   0.777   3.880  16.938 -0.3449 -0.1304  0.6573
  654TMC3     O 9736   0.799   3.759  16.960 -0.4130 -0.1044 -0.2060
  654TMC3     H 9737   0.567   4.046  16.870  0.0204  1.5811 -1.4015
  654TMC3    H1 9738   0.835   3.740  16.748 -0.8668 -1.4027  0.3368
  654TMC3    H2 9739   0.495   3.824  16.510 -0.9393 -0.4514  0.4022
  654TMC3    C7 9740   0.634   3.635  16.598 -0.1774 -0.4687  0.2092
  654TMC3    C8 9741   0.386   4.006  16.698  0.1077  0.9041 -0.6608
  654TMC3    O1 9742   0.527   3.616  16.539  0.0881 -0.1614 -0.0785
  654TMC3    O2 9743   0.365   4.112  16.752  0.2019  0.1350 -0.0650
  655MPD2     C 9744   2.298   4.248  15.755  0.4236  0.2872  0.2804
  655MPD2    C1 9745   2.254   4.360  15.691 -0.8490 -0.2559  0.8056
  655MPD2    C2 9746   2.246   4.356  15.557 -0.0666 -0.1933 -0.6615
  655MPD2    C3 9747   2.289   4.244  15.483 -0.5546  0.5085  0.0212
  655MPD2    C4 9748   2.338   4.129  15.546  0.0176  0.2665 -0.4747
  655MPD2    C5 9749   2.341   4.141  15.685 -0.1401  0.0580  0.3348
  655MPD2     H 9750   2.207   4.439  15.499  0.3078  1.1315  0.9998
  655MPD2    H1 9751   2.382   4.045  15.495  1.1574  0.1102  0.7580
  655MPD2    H2 9752   2.314   4.249  15.862 -1.4136 -0.7470  0.5593
  655MPD2    H3 9753   2.376   4.058  15.746 -1.3459 -0.0531  0.8624
  655MPD2     N 9754   2.288   4.259  15.343  0.2917 -0.0279 -0.0492
  655MPD2    H5 9755   2.262   4.353  15.314  2.9618  0.7454  0.1076
  655MPD2    N1 9756   2.230   4.480  15.755 -0.0693  0.2302 -0.1399
  655MPD2    H7 9757   2.225   4.551  15.683 -1.9695  0.1530 -0.0676
  656TMC3    C1 9758   2.227   4.642  15.936 -0.5653  0.1319  0.2490
  656TMC3    C2 9759   2.140   4.658  16.041 -0.3876 -0.3050  0.2202
  656TMC3    C3 9760   2.070   0.039  16.048  0.3613  1.0786  0.0837
  656TMC3    C4 9761   2.247   0.000  15.844  0.0997  1.0072 -0.0760
  656TMC3    C5 9762   2.164   0.114  15.845  0.3937  0.4965 -0.2772
  656TMC3    C6 9763   2.071   0.139  15.946  0.1360  0.0524 -0.2098
  656TMC3     C 9764   2.250   4.508  15.894 -0.5660 -0.2387  0.1003
  656TMC3     O 9765   2.239   4.422  15.982  0.2902  0.0696  0.1378
  656TMC3     H 9766   2.125   4.588  16.122 -1.6675 -0.9019 -0.5352
  656TMC3    H1 9767   2.315   4.727  15.759 -3.0403 -2.5873 -2.2216
  656TMC3    H2 9768   2.009   0.228  15.949  1.8386  1.2210 -0.0305
  656TMC3    C7 9769   2.145   0.192  15.721  0.2967 -0.0547 -0.3290
  656TMC3    C8 9770   1.958   0.048  16.130 -0.5254  0.0275 -0.1542
  656TMC3    O1 9771   2.238   0.193  15.643 -0.3302  0.0844  0.3053
  656TMC3    O2 9772   1.923   0.159  16.166 -0.5917  0.3930  0.0452
  657TMC3    C1 9773   0.880   4.035  14.968  0.4198 -0.3436  0.3727
  657TMC3    C2 9774   0.760   4.061  14.917  0.8769  1.0201 -0.8307
  657TMC3    C3 9775   0.752   4.167  14.823  0.1207 -0.2705  0.5796
  657TMC3    C4 9776   0.997   4.101  14.938 -0.3562  0.1852 -0.8939
  657TMC3    C5 9777   0.983   4.199  14.847 -0.1795  0.0913 -0.5305
  657TMC3    C6 9778   0.863   4.235  14.795  0.0406 -0.6862  0.1771
  657TMC3     C 9779   0.885   3.928  15.061  0.6993 -0.2211 -0.6790
  657TMC3     O 9780   0.987   3.945  15.137  0.4382 -0.4099  0.6464
  657TMC3     H 9781   0.666   4.025  14.957  1.5395 -0.4375 -0.5869
  657TMC3    H1 9782   1.087   4.058  14.979 -0.0020  0.9226 -0.8979
  657TMC3    H2 9783   0.860   4.306  14.714  1.6461 -0.0912  0.6362
  657TMC3    C7 9784   1.099   4.265  14.797  0.0427  0.0081 -0.0414
  657TMC3    C8 9785   0.629   4.183  14.741 -0.0657  0.8023  0.0719
  657TMC3    O1 9786   1.087   4.332  14.698  0.6503  0.3715  0.3020
  657TMC3    O2 9787   0.608   4.286  14.680  0.2820 -0.2684  0.2159
  658MPD2     C 9788   2.658   3.883  14.778 -0.1131  0.2838  0.1622
  658MPD2    C1 9789   2.561   3.962  14.724 -0.0821 -0.3660 -0.3798
  658MPD2    C2 9790   2.563   3.979  14.591  0.3297  0.5580 -0.0956
  658MPD2    C3 9791   2.646   3.916  14.505 -0.0259 -0.9882 -0.1516
  658MPD2    C4 9792   2.735   3.825  14.560  0.2792  0.3529 -0.1198
  658MPD2    C5 9793   2.747   3.817  14.698  0.2506 -0.5254  0.8185
  658MPD2     H 9794   2.490   4.046  14.547 -0.4761 -0.5047 -0.3648
  658MPD2    H1 9795   2.801   3.763  14.500 -3.2116 -0.5084 -3.0917
  658MPD2    H2 9796   2.672   3.875  14.885  1.0951  0.4865  0.0205
  658MPD2    H3 9797   2.819   3.760  14.756 -1.0369 -2.3958  0.5846
  658MPD2     N 9798   2.638   3.933  14.366  0.3863 -0.6318 -0.2982
  658MPD2    H5 9799   2.562   3.991  14.331  1.0950  0.0823 -0.6550
  658MPD2    N1 9800   2.470   4.030  14.809  0.2065  0.4986  0.4530
  658MPD2    H7 9801   2.488   4.011  14.907  2.2452  1.1870  0.2093
  659TMC3    C1 9802   2.305   4.201  14.885 -0.7282 -0.0533  0.0765
  659TMC3    C2 9803   2.336   4.153  15.008  0.1143  0.5581 -0.1805
  659TMC3    C3 9804   2.299   4.230  15.116 -0.0159  0.6341 -0.1058
  659TMC3    C4 9805   2.239   4.323  14.857 -0.0409 -0.8281  0.9066
  659TMC3    C5 9806   2.207   4.392  14.965 -0.3402 -0.7769  0.1111
  659TMC3    C6 9807   2.241   4.350  15.091  0.0135  0.3191  0.1964
  659TMC3     C 9808   2.384   4.140  14.778 -1.5157  0.2095 -0.5018
  659TMC3     O 9809   2.364   4.190  14.668  0.0708  0.7518 -0.8072
  659TMC3     H 9810   2.367   4.051  15.031 -2.0776 -0.1829 -0.4518
  659TMC3    H1 9811   2.215   4.364  14.760 -1.1387 -1.9906  0.6934
  659TMC3    H2 9812   2.215   4.417  15.172  0.3522 -0.1234  0.6719
  659TMC3    C7 9813   2.130   4.516  14.949 -0.1652  0.4903 -0.1977
  659TMC3    C8 9814   2.313   4.169  15.243  1.2872 -0.4758 -0.2103
  659TMC3    O1 9815   2.147   4.581  14.851  0.3321  0.4987 -0.1656
  659TMC3    O2 9816   2.334   4.049  15.256  0.0503 -0.0065 -0.0207
  660MPD2     C 9817   0.189   3.321  12.825 -0.3174  0.1293  0.3018
  660MPD2    C1 9818   0.062   3.310  12.781  0.3697  0.1890  0.0961
  660MPD2    C2 9819   4.719   3.215  12.845 -1.1234  0.5082  0.0019
  660MPD2    C3 9820   0.024   3.142  12.952  0.6383 -0.6428 -0.3655
  660MPD2    C4 9821   0.154   3.152  12.989 -0.8244 -0.0380 -0.0131
  660MPD2    C5 9822   0.234   3.243  12.924 -0.4725  0.1565  0.4252
  660MPD2     H 9823   4.623   3.210  12.796 -1.9170 -0.6004  1.6819
  660MPD2    H1 9824   0.192   3.096  13.074  0.6194  0.7154 -0.1585
  660MPD2    H2 9825   0.255   3.399  12.788  0.9430  0.0756  2.4720
  660MPD2    H3 9826   0.341   3.253  12.941 -0.1774 -0.1606 -1.2059
  660MPD2     N 9827   4.674   3.044  13.019  0.3145 -0.0039  0.8039
  660MPD2    H5 9828   4.714   2.988  13.094  3.4085  0.7735 -0.2910
  660MPD2    N1 9829   0.006   3.388  12.682  0.5614 -0.1354 -0.2508
  660MPD2    H7 9830   4.654   3.352  12.645  0.5448  0.0726 -0.4110
  661TMC3    C1 9831   4.715   3.525  12.493 -0.1326 -0.2673 -0.2232
  661TMC3    C2 9832   0.025   3.548  12.370  0.3060 -0.0560 -0.2647
  661TMC3    C3 9833   4.671   3.573  12.277 -0.2858 -0.0345  0.2422
  661TMC3    C4 9834   4.582   3.538  12.525  0.2343 -0.1918 -0.1325
  661TMC3    C5 9835   4.497   3.584  12.433 -0.3227  0.0195 -0.1065
  661TMC3    C6 9836   4.536   3.601  12.302 -0.2129 -0.8770 -0.2438
  661TMC3     C 9837   0.068   3.478  12.595 -0.2991  0.1869 -0.1872
  661TMC3     O 9838   0.185   3.512  12.593 -0.4040  0.1719  0.2276
  661TMC3     H 9839   0.131   3.531  12.352 -0.4293 -4.1924 -0.8254
  661TMC3    H1 9840   4.546   3.516  12.625  1.8269 -0.1609  0.4397
  661TMC3    H2 9841   4.480   3.635  12.216 -1.8202  0.5382  1.3516
  661TMC3    C7 9842   4.359   3.540  12.463  0.2255  0.0341  0.6189
  661TMC3    C8 9843   4.718   3.566  12.139  0.8661  0.1575  0.3065
  661TMC3    O1 9844   4.320   3.528  12.580 -0.2471 -0.3536 -0.0649
  661TMC3    O2 9845   4.665   3.634  12.053  0.4673  0.4827  0.1151
  662MPD2     C 9846   0.329   3.085  16.563  0.0439 -0.3963 -0.9498
  662MPD2    C1 9847   0.353   3.032  16.686 -0.5602  0.6813 -0.5721
  662MPD2    C2 9848   0.286   3.095  16.788  0.7925 -0.0165 -0.4968
  662MPD2    C3 9849   0.196   3.206  16.780  0.2067 -0.5994  0.0833
  662MPD2    C4 9850   0.181   3.256  16.657  0.5653 -0.3347  0.6253
  662MPD2    C5 9851   0.245   3.195  16.550  0.2481 -0.2116 -0.4387
  662MPD2     H 9852   0.293   3.059  16.890 -1.2686  1.7513  0.2840
  662MPD2    H1 9853   0.105   3.333  16.651  1.7617  0.7086 -1.2815
  662MPD2    H2 9854   0.377   3.047  16.474  2.1327  1.0054 -0.4127
  662MPD2    H3 9855   0.231   3.227  16.447  1.8975 -3.5414 -1.7072
  662MPD2     N 9856   0.136   3.261  16.900 -0.8444  0.6388 -0.2538
  662MPD2    H5 9857   0.064   3.332  16.889 -1.6074  0.0453  0.8440
  662MPD2    N1 9858   0.431   2.919  16.712 -0.1969  0.2034  0.6256
  662MPD2    H7 9859   0.431   2.893  16.810  1.0942  2.9789  1.3652
  663TMC3    C1 9860   0.535   2.710  16.664 -0.2894 -0.1477 -0.1879
  663TMC3    C2 9861   0.563   2.699  16.798 -0.5554  0.1085  0.4937
  663TMC3    C3 9862   0.614   2.573  16.837 -0.2352  0.2367 -0.0704
  663TMC3    C4 9863   0.515   2.597  16.581  0.2981 -0.1175  0.2781
  663TMC3    C5 9864   0.546   2.475  16.634  0.0811 -0.6876 -0.4037
  663TMC3    C6 9865   0.580   2.462  16.769 -0.4191  0.2970 -0.0467
  663TMC3     C 9866   0.483   2.839  16.615  0.3217  0.1475 -0.5387
  663TMC3     O 9867   0.489   2.847  16.494 -0.0470 -0.1784 -0.7954
  663TMC3     H 9868   0.608   2.786  16.844  0.5141 -0.9075  1.3634
  663TMC3    H1 9869   0.491   2.601  16.475 -2.1537 -0.8195  0.8164
  663TMC3    H2 9870   0.630   2.372  16.803  1.2916  1.0013 -0.6867
  663TMC3    C7 9871   0.520   2.362  16.547  0.1780  0.2052 -0.1270
  663TMC3    C8 9872   0.644   2.564  16.975  0.5232  1.2619 -0.1844
  663TMC3    O1 9873   0.511   2.377  16.428 -0.3513 -0.2671 -0.7884
  663TMC3    O2 9874   0.706   2.463  17.008 -0.0456 -0.2870  0.0153
  664MPD2     C 9875   3.525   0.886  17.336  0.4378  0.3639 -0.0791
  664MPD2    C1 9876   3.551   0.942  17.456  0.3682 -0.3951 -0.6260
  664MPD2    C2 9877   3.452   0.939  17.553  0.4084 -0.3377  0.2265
  664MPD2    C3 9878   3.333   0.867  17.536 -1.1131  0.2389  0.4084
  664MPD2    C4 9879   3.316   0.804  17.419  0.0782 -0.3436 -0.0117
  664MPD2    C5 9880   3.411   0.816  17.320  0.6469  0.5859 -0.0593
  664MPD2     H 9881   3.472   0.991  17.646 -1.3017  0.6207  0.0620
  664MPD2    H1 9882   3.227   0.749  17.392 -1.0097  2.4619 -2.2008
  664MPD2    H2 9883   3.597   0.887  17.254  2.2457 -1.4897  1.4874
  664MPD2    H3 9884   3.371   0.765  17.234 -1.0722  1.4087  0.2435
  664MPD2     N 9885   3.239   0.875  17.646  0.4439  0.7012  0.0330
  664MPD2    H5 9886   3.260   0.937  17.723 -3.7870  2.0385  0.0969
  664MPD2    N1 9887   3.664   1.025  17.473  0.0729  0.8718 -0.4538
  664MPD2    H7 9888   3.664   1.095  17.547  0.0634 -0.6941  1.0140
  665TMC3    C1 9889   3.051   0.851   0.019  0.2669  0.5060 -0.4196
  665TMC3    C2 9890   2.940   0.931   0.008  0.1176  0.6873  0.5511
  665TMC3    C3 9891   2.915   1.006   0.118  0.0914 -0.6807 -0.2914
  665TMC3    C4 9892   3.140   0.858   0.122  0.1731  0.7114  0.0075
  665TMC3    C5 9893   3.118   0.943   0.220  0.6062  0.0556  0.0642
  665TMC3    C6 9894   3.007   1.018   0.221  0.2434 -0.4089 -0.1811
  665TMC3     C 9895   3.113   0.827  17.641  0.0165 -0.0586  0.3962
  665TMC3     O 9896   3.049   0.781  17.549  0.9621 -0.6003 -0.1088
  665TMC3     H 9897   2.880   0.936  17.660  1.9743  1.7816 -0.6270
  665TMC3    H1 9898   3.221   0.787   0.135  0.4002  0.3994 -2.9878
  665TMC3    H2 9899   2.979   1.079   0.307 -4.5136 -1.1585 -1.1861
  665TMC3    C7 9900   3.238   1.001   0.275  0.3484  0.1582 -0.1333
  665TMC3    C8 9901   2.779   1.060   0.143  0.3513 -0.8256 -0.8191
  665TMC3    O1 9902   3.331   0.994   0.198  0.2121 -0.3349 -0.1785
  665TMC3    O2 9903   2.761   1.124   0.247 -0.0866 -0.6115  0.1139
  666TMC3    C1 9904   2.321   1.298   9.803  0.1325  0.0064  0.0820
  666TMC3    C2 9905   2.355   1.340   9.678 -0.2035  0.0669  0.0777
  666TMC3    C3 9906   2.365   1.473   9.663 -0.1227  0.0338 -0.4042
  666TMC3    C4 9907   2.306   1.381   9.915 -0.1598 -0.3413  0.1903
  666TMC3    C5 9908   2.304   1.515   9.888  0.5449  0.1322 -0.9673
  666TMC3    C6 9909   2.335   1.562   9.763  0.9392  0.2526  0.4394
  666TMC3     C 9910   2.354   1.157   9.821  1.3510 -0.4567 -0.3231
  666TMC3     O 9911   2.318   1.081   9.735 -0.1963  0.6620 -0.3946
  666TMC3     H 9912   2.383   1.270   9.600  0.9419  1.7566 -1.0234
  666TMC3    H1 9913   2.278   1.336  10.010 -1.8998  1.6017  0.5771
  666TMC3    H2 9914   2.354   1.667   9.744  0.5754  0.0597 -0.9514
  666TMC3    C7 9915   2.288   1.601  10.000  0.8473 -0.1496  0.3363
  666TMC3    C8 9916   2.413   1.525   9.533 -0.4216 -0.0353  0.1694
  666TMC3    O1 9917   2.219   1.568  10.096  0.0595 -0.3515 -0.1472
  666TMC3    O2 9918   2.342   1.487   9.438  0.6133 -0.5768 -0.0721
  667MPD2     C 9919   4.396   0.484  14.621  0.0720  0.3276 -0.5162
  667MPD2    C1 9920   4.294   0.548  14.686  0.2906  0.1330 -0.2495
  667MPD2    C2 9921   4.167   0.497  14.681  0.2309  0.0873  0.4808
  667MPD2    C3 9922   4.136   0.374  14.635  1.0694 -0.1349 -0.1827
  667MPD2    C4 9923   4.241   0.302  14.584 -0.8063  1.1689  0.3560
  667MPD2    C5 9924   4.371   0.356  14.582 -0.8349  0.4303  0.2949
  667MPD2     H 9925   4.087   0.562  14.716  1.3708  1.5372  0.3808
  667MPD2    H1 9926   4.217   0.206  14.541  0.3690 -0.7401  3.9772
  667MPD2    H2 9927   4.501   0.512  14.626 -0.3683  2.2167 -1.6027
  667MPD2    H3 9928   4.451   0.292  14.547  0.7370  1.2723  2.3376
  667MPD2     N 9929   4.005   0.315  14.645 -0.7460  0.1443 -0.1257
  667MPD2    H5 9930   3.987   0.223  14.607 -0.1022 -0.0584  0.0708
  667MPD2    N1 9931   4.304   0.686  14.747  0.4201 -0.7141  0.7140
  667MPD2    H7 9932   4.216   0.727  14.776  0.7120  1.7537 -1.8695
  668TMC3    C1 9933   4.400   0.905  14.742 -0.3970 -0.5403 -0.5894
  668TMC3    C2 9934   4.509   0.973  14.777 -0.6392 -0.6526 -0.7597
  668TMC3    C3 9935   4.482   1.096  14.836  0.3589  0.0825  0.7520
  668TMC3    C4 9936   4.274   0.953  14.745  0.1576 -0.4415 -0.1009
  668TMC3    C5 9937   4.254   1.085  14.781 -0.5783  0.4050 -0.6442
  668TMC3    C6 9938   4.357   1.155  14.835 -0.5778  0.7250 -0.0833
  668TMC3     C 9939   4.422   0.758  14.741  0.2029  0.2642 -0.3055
  668TMC3     O 9940   4.540   0.720  14.732 -0.2486  0.6590  0.2005
  668TMC3     H 9941   4.603   0.923  14.794 -0.0965  1.1606  1.5878
  668TMC3    H1 9942   4.194   0.895  14.699 -0.2870 -0.6702  0.9421
  668TMC3    H2 9943   4.344   1.260  14.861  0.5536  0.3331  2.0541
  668TMC3    C7 9944   4.125   1.142  14.796  0.0114  0.3254 -0.1898
  668TMC3    C8 9945   4.584   1.192  14.869 -0.1579 -0.1158 -0.3087
  668TMC3    O1 9946   4.122   1.251  14.856 -0.3466 -0.3352 -0.6479
  668TMC3    O2 9947   4.547   1.260  14.964 -0.2952  0.3578 -0.2319
  669TMC3    C1 9948   2.222   1.123  14.884  0.6826  0.2893  0.3219
  669TMC3    C2 9949   2.102   1.115  14.821  0.4270  0.4485 -1.1218
  669TMC3    C3 9950   2.105   1.095  14.686  0.3967  0.3169 -0.0084
  669TMC3    C4 9951   2.338   1.131  14.818 -0.1565  0.4073  0.8896
  669TMC3    C5 9952   2.340   1.112  14.681 -0.6082  0.1921 -0.4290
  669TMC3    C6 9953   2.220   1.101  14.614 -0.2349  0.3552 -0.0533
  669TMC3     C 9954   2.214   1.044  15.005  0.3418  0.1918 -0.3742
  669TMC3     O 9955   2.126   1.069  15.086 -0.0013  0.2448 -0.7630
  669TMC3     H 9956   2.014   1.097  14.882  1.3002  1.0262  0.3172
  669TMC3    H1 9957   2.428   1.117  14.877  0.6477 -0.9889 -0.6539
  669TMC3    H2 9958   2.207   1.103  14.507 -0.5663  3.8999  0.0415
  669TMC3    C7 9959   2.472   1.118  14.603  0.5025 -0.2231  0.0213
  669TMC3    C8 9960   1.995   1.051  14.610 -0.7262  1.1411 -0.7047
  669TMC3    O1 9961   2.557   1.195  14.647 -0.3032  0.2638 -0.5838
  669TMC3    O2 9962   2.018   0.971  14.521  0.1383 -0.3545 -0.2254
  670MPD2     C 9963   0.492   3.460  13.187  0.0449  0.1802  0.4620
  670MPD2    C1 9964   0.622   3.496  13.213 -0.4664  0.2900 -0.4873
  670MPD2    C2 9965   0.664   3.482  13.340  0.5880 -0.0711  0.8547
  670MPD2    C3 9966   0.575   3.459  13.440 -0.0659  0.2505 -0.0364
  670MPD2    C4 9967   0.441   3.445  13.414  0.0884 -0.1637  0.1264
  670MPD2    C5 9968   0.398   3.438  13.285 -0.1703 -0.0400  0.0404
  670MPD2     H 9969   0.766   3.511  13.363  0.6574 -1.1735  1.9211
  670MPD2    H1 9970   0.363   3.428  13.487  0.0288  0.5391  0.2226
  670MPD2    H2 9971   0.451   3.448  13.087 -0.0561  0.5524  0.4604
  670MPD2    H3 9972   0.296   3.401  13.273  0.2018 -0.3788 -2.1646
  670MPD2     N 9973   0.632   3.462  13.574 -0.0528 -0.2403 -0.0888
  670MPD2    H5 9974   0.725   3.500  13.587 -0.6468  0.1333  3.1609
  670MPD2    N1 9975   0.715   3.531  13.112 -0.0924  0.6665  0.2192
  670MPD2    H7 9976   0.815   3.532  13.133 -0.2788  0.8898  1.0855
  671TMC3    C1 9977   0.639   3.401  13.802 -0.8386 -0.2438  0.4676
  671TMC3    C2 9978   0.775   3.389  13.793 -0.1504  0.0920 -0.2243
  671TMC3    C3 9979   0.843   3.336  13.901  0.8069 -0.5440 -0.6441
  671TMC3    C4 9980   0.560   3.361  13.910 -0.8518  0.2768  0.1116
  671TMC3    C5 9981   0.633   3.336  14.028  0.5996  0.0333 -0.2640
  671TMC3    C6 9982   0.769   3.319  14.015 -0.4083  0.4470 -0.1548
  671TMC3     C 9983   0.560   3.401  13.677  0.0072  0.3341 -0.6462
  671TMC3     O 9984   0.465   3.323  13.670 -0.0365 -0.9035  0.1191
  671TMC3     H 9985   0.815   3.370  13.694  0.6709  1.2779 -0.1264
  671TMC3    H1 9986   0.451   3.359  13.912 -0.8468 -1.8314 -1.9127
  671TMC3    H2 9987   0.820   3.295  14.108  1.0608 -0.0975 -1.1159
  671TMC3    C7 9988   0.557   3.235  14.098  0.7490 -0.2533 -0.1776
  671TMC3    C8 9989   0.962   3.258  13.877 -0.0873 -0.7673 -0.3948
  671TMC3    O1 9990   0.520   3.252  14.216  0.4560  0.5937 -0.2358
  671TMC3    O2 9991   0.980   3.229  13.759 -0.0572 -0.2220  0.5899
  672MPD2     C 9992   1.372   4.276  17.740 -0.1389  0.1827 -0.1335
  672MPD2    C1 9993   1.312   4.182   0.074 -0.3390  1.3285  0.6888
  672MPD2    C2 9994   1.320   4.197   0.210  0.5212  0.3894  0.0506
  672MPD2    C3 9995   1.385   4.301   0.268 -0.1353  0.6943  0.4575
  672MPD2    C4 9996   1.442   4.398   0.191  0.0936 -0.3319  0.6525
  672MPD2    C5 9997   1.432   4.389   0.057  0.2689  0.8124 -0.1346
  672MPD2     H 9998   1.276   4.124   0.277 -0.4049 -1.5779 -2.7260
  672MPD2    H1 9999   1.501   4.482   0.223  2.3005 -0.2465 -3.6144
  672MPD2    H210000   1.365   4.277  17.632 -1.5206 -0.1012 -0.0397
  672MPD2    H310001   1.458   4.466  17.727  1.5039  1.2727  0.8058
  672MPD2     N10002   1.389   4.318   0.405 -1.1813  0.1147  0.3961
  672MPD2    H510003   1.419   4.408   0.441 -0.4393 -0.1994  0.5749
  672MPD2    N110004   1.226   4.084   0.023  1.3737 -0.9635 -0.1661
  672MPD2    H710005   1.190   4.021   0.094 -2.1550  0.6781 -0.5186
  673TMC3    C110006   1.091   3.962  17.625  0.3707  0.1153 -0.2116
  673TMC3    C210007   1.116   3.840  17.560  0.0875  0.3031  0.0865
  673TMC3    C310008   1.045   3.730  17.604 -0.1251 -0.3502  0.6936
  673TMC3    C410009   0.999   3.972  17.723 -0.8693 -1.1009  0.3244
  673TMC3    C510010   0.924   3.860   0.016 -0.2102  0.5238  0.3489
  673TMC3    C610011   0.955   3.738  17.709 -0.0751  0.1849 -0.2786
  673TMC3     C10012   1.193   4.067  17.632  0.1349  0.0032  0.6825
  673TMC3     O10013   1.257   4.099  17.534 -0.8119  0.1743  0.2151
  673TMC3     H10014   1.197   3.837  17.488 -0.4005  4.1629 -0.5859
  673TMC3    H110015   0.984   4.068   0.030  0.7773  0.1372 -1.6269
  673TMC3    H210016   0.912   3.652   0.016 -0.0019 -0.0819 -0.6905
  673TMC3    C710017   0.817   3.869   0.126 -0.2970 -1.1182  0.1244
  673TMC3    C810018   1.127   3.611  17.603  0.2084  0.0016 -0.5403
  673TMC3    O110019   0.792   3.773   0.196  0.5947 -0.3178 -0.0382
  673TMC3    O210020   1.196   3.588  17.506 -0.3561 -0.0921 -0.4671
  674MPD2     C10021   0.374   3.543  16.893 -0.0311 -0.0407  0.2599
  674MPD2    C110022   0.488   3.526  16.968  0.2236 -0.6730  0.7467
  674MPD2    C210023   0.525   3.623  17.060  0.0279 -0.1714 -0.0276
  674MPD2    C310024   0.461   3.748  17.054  0.0298  0.2246  0.1737
  674MPD2    C410025   0.356   3.771  16.961  1.3148  0.1873  0.5014
  674MPD2    C510026   0.304   3.664  16.894 -0.0619 -0.2857  0.0204
  674MPD2     H10027   0.605   3.619  17.133 -1.2434  0.2957  1.4061
  674MPD2    H110028   0.311   3.869  16.953 -2.4230 -1.8772 -3.6841
  674MPD2    H210029   0.343   3.461  16.829 -1.8813  1.7056 -1.0766
  674MPD2    H310030   0.214   3.680  16.835  0.6725  1.9437 -0.5133
  674MPD2     N10031   0.496   3.837  17.156 -0.4569 -0.5274  0.1132
  674MPD2    H510032   0.559   3.809  17.231  2.6294 -0.7939 -2.5784
  674MPD2    N110033   0.557   3.403  16.964 -0.1562 -0.5968 -0.0561
  674MPD2    H710034   0.505   3.329  16.918  1.1259 -1.6060  0.1298
  675TMC3    C110035   0.705   3.230  17.045 -0.4494  0.4675  0.5093
  675TMC3    C210036   0.623   3.127  16.995  0.3209 -0.0544 -0.1767
  675TMC3    C310037   0.622   3.002  17.048  0.1899 -0.2237  0.2814
  675TMC3    C410038   0.790   3.206  17.149  0.5961 -0.1460 -0.2693
  675TMC3    C510039   0.786   3.083  17.210  0.2594 -0.2683 -0.1887
  675TMC3    C610040   0.700   2.983  17.160  0.2657 -0.4566  0.2783
  675TMC3     C10041   0.677   3.372  17.021  0.6059 -0.1897 -0.0728
  675TMC3     O10042   0.752   3.444  17.083 -0.0864  0.3850  0.0400
  675TMC3     H10043   0.545   3.142  16.921 -0.4458 -0.6945  0.4914
  675TMC3    H110044   0.864   3.277  17.182  0.8783 -1.7773  2.6845
  675TMC3    H210045   0.697   2.882  17.198  0.8155 -1.1588 -1.5144
  675TMC3    C710046   0.815   3.082  17.351 -0.2899  0.6044 -0.8334
  675TMC3    C810047   0.492   2.946  17.071  0.1052 -0.3739  0.9135
  675TMC3    O110048   0.837   2.975  17.407 -0.1053 -0.5361  0.1796
  675TMC3    O210049   0.427   2.892  16.982  0.5077  0.0703  0.1637
  676MPD2     C10050   2.838   2.238  11.112  0.2673 -0.2449  1.0923
  676MPD2    C110051   2.804   2.170  11.226 -0.6065  0.1780  0.5753
  676MPD2    C210052   2.774   2.036  11.221 -0.0068  0.3024  0.1474
  676MPD2    C310053   2.797   1.960  11.113  0.1025  0.3346 -0.2385
  676MPD2    C410054   2.828   2.032  10.997 -0.3228 -0.5311 -0.0509
  676MPD2    C510055   2.836   2.167  10.996 -0.1832 -0.4320 -0.8305
  676MPD2     H10056   2.767   1.986  11.317  0.0168 -0.5655 -0.3091
  676MPD2    H110057   2.828   1.983  10.900  2.4008 -0.8530  0.1138
  676MPD2    H210058   2.854   2.345  11.104 -0.4248 -0.1265  1.2984
  676MPD2    H310059   2.854   2.225  10.906  2.3618 -0.4513 -0.3321
  676MPD2     N10060   2.782   1.816  11.108 -0.6548 -0.5744 -0.0348
  676MPD2    H510061   2.809   1.763  11.026  1.3182 -0.4356  0.5106
  676MPD2    N110062   2.775   2.233  11.349  0.1071 -1.0814  0.2053
  676MPD2    H710063   2.734   2.179  11.424 -1.0339 -1.1223 -0.4599
  677TMC3    C110064   2.750   2.412  11.501  0.2814 -0.0955  0.0092
  677TMC3    C210065   2.629   2.354  11.545  0.4741  0.1844 -0.3837
  677TMC3    C310066   2.549   2.418  11.630 -0.6005  0.0188 -0.2521
  677TMC3    C410067   2.785   2.542  11.528  0.2206  0.6479  0.2516
  677TMC3    C510068   2.694   2.605  11.610  0.3731  0.7205  0.5725
  677TMC3    C610069   2.582   2.549  11.663  0.1933 -0.0855 -0.4684
  677TMC3     C10070   2.804   2.364  11.379 -0.5605 -0.4439 -0.5265
  677TMC3     O10071   2.878   2.442  11.319 -0.1025  0.0026 -0.1558
  677TMC3     H10072   2.612   2.249  11.526 -0.3492  0.2386  0.0310
  677TMC3    H110073   2.875   2.586  11.487  1.0030 -1.4118 -0.2629
  677TMC3    H210074   2.533   2.589  11.751  0.3513 -0.0905 -0.3773
  677TMC3    C710075   2.716   2.750  11.644  0.6971  0.3118 -0.3708
  677TMC3    C810076   2.510   2.344  11.747  0.0673  0.6850  0.4518
  677TMC3    O110077   2.632   2.803  11.713 -0.3331  0.4571  0.3164
  677TMC3    O210078   2.434   2.408  11.818  0.2824  0.1892 -0.3652
  678MPD2     C10079   4.295   2.219   1.116 -0.4304  0.6809  0.5849
  678MPD2    C110080   4.296   2.124   1.020 -0.2040 -0.2717 -0.6153
  678MPD2    C210081   4.194   2.035   0.993  0.0598  0.0692 -0.9714
  678MPD2    C310082   4.080   2.047   1.074  0.3413 -0.5316 -0.0110
  678MPD2    C410083   4.086   2.138   1.180  0.0774  0.3119 -0.4163
  678MPD2    C510084   4.194   2.218   1.204 -0.1294  0.0718  0.3297
  678MPD2     H10085   4.197   1.973   0.904 -2.4063 -2.0809  0.4508
  678MPD2    H110086   4.004   2.159   1.247  1.3686  1.0066  0.9641
  678MPD2    H210087   4.382   2.279   1.142  1.1442 -0.9308 -1.0158
  678MPD2    H310088   4.213   2.289   1.284 -0.7791  1.8720 -1.0957
  678MPD2     N10089   3.958   1.973   1.049 -0.4940  0.3531 -0.5142
  678MPD2    H510090   3.964   1.911   0.969 -0.3204  0.5757 -0.6749
  678MPD2    N110091   4.393   2.131   0.920 -0.1087 -0.5323 -0.3251
  678MPD2    H710092   4.398   2.049   0.861  0.3534 -0.9099  0.2384
  679TMC3    C110093   4.722   2.010   0.725  0.3855  0.1308  0.2849
  679TMC3    C210094   4.620   2.045   0.814 -0.1601 -0.2972 -0.4213
  679TMC3    C310095   4.604   2.184   0.830  0.7283 -0.8493  0.6212
  679TMC3    C410096   0.067   2.096   0.658  0.3637 -0.2218 -0.3407
  679TMC3    C510097   0.053   2.227   0.688  0.1124  0.2560 -0.0927
  679TMC3    C610098   4.690   2.277   0.767 -0.4417 -0.3608  0.1575
  679TMC3     C10099   0.044   1.876   0.727  0.0956 -0.8550  0.4508
  679TMC3     O10100   0.158   1.866   0.688  0.4993  0.1119  0.3060
  679TMC3     H10101   4.580   1.975   0.887 -3.5799  2.8037  0.7456
  679TMC3    H110102   0.137   2.067   0.580 -0.0275  0.5636 -0.9808
  679TMC3    H210103   4.662   2.382   0.772  0.8791 -0.0454  0.9653
  679TMC3    C710104   0.110   2.331   0.609 -0.7415  0.1723  0.1272
  679TMC3    C810105   4.491   2.229   0.915  0.1249 -0.6877  0.7729
  679TMC3    O110106   0.036   2.423   0.581  0.0645  0.4869 -0.5255
  679TMC3    O210107   4.483   2.352   0.937  0.6239 -1.0448 -0.2398
  680MPD2     C10108   4.729   0.873  13.820 -0.4787 -0.6846  0.1598
  680MPD2    C110109   0.102   0.802  13.878 -0.0033 -1.2135  0.5425
  680MPD2    C210110   0.204   0.884  13.923 -0.0538 -0.3847 -0.0374
  680MPD2    C310111   0.207   1.019  13.904 -0.3589  0.7017 -0.6204
  680MPD2    C410112   0.108   1.080  13.842 -0.1625  0.5138  1.0451
  680MPD2    C510113   4.732   1.006  13.803 -0.4445  0.1984 -0.5377
  680MPD2     H10114   0.300   0.837  13.946 -0.1786  0.8142  3.0027
  680MPD2    H110115   0.094   1.187  13.835  0.2904  0.4814 -0.3540
  680MPD2    H210116   4.637   0.822  13.794 -0.6591  0.0985 -0.7422
  680MPD2    H310117   4.646   1.053  13.756 -0.7473 -1.1206 -1.3001
  680MPD2     N10118   0.318   1.094  13.957  0.5287 -0.5633  0.5031
  680MPD2    H510119   0.316   1.195  13.950 -0.6292 -0.5862  0.4575
  680MPD2    N110120   0.111   0.665  13.900 -0.0411  0.0473  0.1409
  680MPD2    H710121   0.200   0.629  13.932  0.5344  0.2481 -1.2316
  681TMC3    C110122   0.060   0.441  13.927  0.2449 -0.1719  0.0179
  681TMC3    C210123   0.011   0.438  14.054 -0.1993 -0.1463 -0.5869
  681TMC3    C310124   0.074   0.374  14.157  0.3049 -0.6529  0.2280
  681TMC3    C410125   0.195   0.410  13.913  0.2215 -0.0534 -0.2175
  681TMC3    C510126   0.261   0.350  14.022 -0.5333 -0.7045  0.0557
  681TMC3    C610127   0.202   0.330  14.141  0.5406 -0.3335  0.1095
  681TMC3     C10128   0.016   0.571  13.876  0.0538  0.6146 -0.4664
  681TMC3     O10129   4.631   0.602  13.858  0.6349 -0.6473 -0.2309
  681TMC3     H10130   4.646   0.478  14.057 -0.3572 -0.9383  3.6802
  681TMC3    H110131   0.244   0.433  13.819 -0.7034  4.7990  0.4906
  681TMC3    H210132   0.249   0.272  14.219  1.2261  2.3338  1.6865
  681TMC3    C710133   0.394   0.292  14.011 -0.5031 -0.4924 -0.5606
  681TMC3    C810134   0.030   0.400  14.298  0.0740  0.4828  0.1061
  681TMC3    O110135   0.450   0.264  14.118 -0.2708  0.2096 -0.0100
  681TMC3    O210136   4.649   0.435  14.319 -0.0886  0.6330  0.0228
  682MPD2     C10137   2.077   2.503  11.047 -0.4753 -0.7492 -0.0114
  682MPD2    C110138   1.996   2.394  11.028  0.3451 -0.0001 -0.1137
  682MPD2    C210139   1.880   2.378  11.099  0.0464  0.0698 -0.3355
  682MPD2    C310140   1.852   2.465  11.205 -0.4027 -0.6109 -0.1226
  682MPD2    C410141   1.948   2.568  11.231  0.1229 -0.4089 -0.0703
  682MPD2    C510142   2.049   2.590  11.147  0.3889 -0.0540  0.6164
  682MPD2     H10143   1.814   2.295  11.077 -0.2309  0.2848 -0.3211
  682MPD2    H110144   1.925   2.638  11.310  0.8905  1.9072 -1.9241
  682MPD2    H210145   2.166   2.535  10.995 -1.6086  0.8926 -0.9500
  682MPD2    H310146   2.112   2.676  11.168 -0.2027  0.5962 -0.2571
  682MPD2     N10147   1.746   2.448  11.298  0.0942 -0.1071 -0.0100
  682MPD2    H510148   1.738   2.514  11.376 -1.3964 -0.1662 -0.1221
  682MPD2    N110149   2.031   2.297  10.936  0.2862 -0.3170  0.1118
  682MPD2    H710150   1.975   2.212  10.939  0.2112 -0.2403  0.8843
  683TMC3    C110151   1.689   2.199  11.598  0.3441  0.2084 -0.3123
  683TMC3    C210152   1.639   2.074  11.584  1.0156 -0.0876 -0.4146
  683TMC3    C310153   1.546   2.067  11.481  0.2707  0.5881  0.0220
  683TMC3    C410154   1.668   2.310  11.522 -1.0296  0.2320  0.4044
  683TMC3    C510155   1.583   2.297  11.414 -0.2332  0.1253  0.2594
  683TMC3    C610156   1.524   2.176  11.396  0.2683 -0.2094  0.0727
  683TMC3     C10157   1.784   2.210  11.710  0.2215 -0.3666  0.2021
  683TMC3     O10158   1.841   2.319  11.726 -0.1272  0.1347 -0.0916
  683TMC3     H10159   1.660   1.987  11.646 -1.0015 -0.1378  0.1912
  683TMC3    H110160   1.718   2.400  11.556 -1.0149 -0.0936  1.2489
  683TMC3    H210161   1.455   2.156  11.315  0.3252 -2.9329  0.6889
  683TMC3    C710162   1.661   2.339  11.298 -0.6867  0.0470 -0.4311
  683TMC3    C810163   1.480   1.937  11.444 -0.0011 -0.1553 -0.0726
  683TMC3    O110164   1.653   2.254  11.213  0.1300 -0.0154  0.0294
  683TMC3    O210165   1.373   1.946  11.392 -0.4888 -0.5216  0.5338
  684MPD2     C10166   0.583   1.318  16.328 -0.5079  0.6500  0.2440
  684MPD2    C110167   0.592   1.383  16.209  0.1891  0.4255 -0.0982
  684MPD2    C210168   0.584   1.522  16.210  0.5599 -0.5761  0.1571
  684MPD2    C310169   0.593   1.594  16.324 -0.4538  0.4861  1.0568
  684MPD2    C410170   0.602   1.525  16.444  0.0541 -0.4769 -0.3782
  684MPD2    C510171   0.590   1.388  16.446 -0.1814 -0.6693 -0.3634
  684MPD2     H10172   0.593   1.569  16.113  0.4728  1.6126  1.2155
  684MPD2    H110173   0.610   1.570  16.543  1.0058  0.2080 -0.7677
  684MPD2    H210174   0.572   1.211  16.340  0.0952  0.8023  2.1138
  684MPD2    H310175   0.584   1.343  16.545  0.4257 -0.6416 -0.3103
  684MPD2     N10176   0.596   1.733  16.324  0.2402  0.1297  0.0473
  684MPD2    H510177   0.605   1.778  16.414  0.5174  2.8374 -1.3185
  684MPD2    N110178   0.620   1.325  16.082  0.8490  0.5570  0.2212
  684MPD2    H710179   0.623   1.382  15.998  1.7326  0.0853 -0.0626
  685TMC3    C110180   0.738   1.171  15.948 -0.3360 -0.5346  0.4764
  685TMC3    C210181   0.716   1.235  15.832 -0.6635  0.0068  0.9529
  685TMC3    C310182   0.818   1.262  15.749  0.1484 -0.2169  0.3336
  685TMC3    C410183   0.862   1.139  15.982  0.1730  0.2473  0.2434
  685TMC3    C510184   0.968   1.191  15.908  0.4843 -0.3136  0.0858
  685TMC3    C610185   0.949   1.249  15.784  0.1721  0.0325  0.0696
  685TMC3     C10186   0.644   1.194  16.060 -0.0613  0.4975 -0.0435
  685TMC3     O10187   0.639   1.107  16.143 -0.2110  0.0392 -0.7485
  685TMC3     H10188   0.613   1.261  15.810 -0.8346 -1.2536  0.2844
  685TMC3    H110189   0.880   1.110  16.085 -0.0562 -2.1383 -0.3913
  685TMC3    H210190   1.031   1.279  15.721 -0.9857  2.7608 -0.1257
  685TMC3    C710191   1.079   1.216  15.994 -0.2498  0.3470  0.2946
  685TMC3    C810192   0.781   1.321  15.622 -0.2199 -0.4411 -0.0893
  685TMC3    O110193   1.095   1.147  16.091 -0.3557  0.7367  0.1466
  685TMC3    O210194   0.855   1.413  15.582  1.1425  0.2641 -0.3067
  686MPD2     C10195   2.118   1.391  15.569 -0.4247 -0.5043  0.0765
  686MPD2    C110196   2.146   1.323  15.687  0.6387  0.3856 -0.1725
  686MPD2    C210197   2.217   1.203  15.671 -0.6023  0.8952  0.1453
  686MPD2    C310198   2.271   1.161  15.548 -0.5596 -0.1345 -0.0254
  686MPD2    C410199   2.249   1.242  15.443  0.1670 -0.7504  0.0191
  686MPD2    C510200   2.171   1.356  15.452 -0.3994 -0.5402 -0.1910
  686MPD2     H10201   2.255   1.151  15.759  1.8846  1.9836 -0.2717
  686MPD2    H110202   2.281   1.213  15.343  1.5406 -0.3146  0.3323
  686MPD2    H210203   2.053   1.477  15.575 -0.5075 -0.5601 -0.0213
  686MPD2    H310204   2.165   1.420  15.364  0.8219  1.2094  1.0025
  686MPD2     N10205   2.340   1.038  15.526 -0.3270 -0.4177 -0.3914
  686MPD2    H510206   2.401   1.036  15.445 -1.4136  0.4085 -1.2371
  686MPD2    N110207   2.078   1.358  15.805 -0.0911  0.1494  0.0409
  686MPD2    H710208   2.024   1.443  15.807 -0.0994  0.1754 -0.9797
  687TMC3    C110209   2.257   0.895  15.718 -0.7004  0.1925 -0.6178
  687TMC3    C210210   2.120   0.920  15.703 -0.1258  0.3051  0.7399
  687TMC3    C310211   2.045   0.916  15.820  0.7646  0.4974 -0.8717
  687TMC3    C410212   2.306   0.851  15.837 -0.5546  0.0143  0.2884
  687TMC3    C510213   2.226   0.847  15.949  0.1952 -0.1102  0.1787
  687TMC3    C610214   2.094   0.880  15.940 -0.3573 -0.3843  0.6507
  687TMC3     C10215   2.353   0.925  15.608 -0.0289 -0.0327 -0.3912
  687TMC3     O10216   2.432   0.835  15.590 -0.7174 -0.0397  0.0374
  687TMC3     H10217   2.073   0.949  15.610 -0.0133 -1.3826  0.1771
  687TMC3    H110218   2.414   0.849  15.840 -0.6012 -2.0214  0.6209
  687TMC3    H210219   2.034   0.902  16.027  2.3651 -1.1664  2.7489
  687TMC3    C710220   2.287   0.884  16.075  0.1790 -0.3596  0.6478
  687TMC3    C810221   1.909   0.968  15.827  0.0342  0.5912  0.4430
  687TMC3    O110222   2.222   0.952  16.154  0.2024 -0.8577 -0.6489
  687TMC3    O210223   1.834   0.920  15.912 -0.0716 -0.2655 -0.5529
  688MPD2     C10224   1.094   0.180  17.230 -0.1671  0.1211 -0.7688
  688MPD2    C110225   1.095   0.042  17.237 -0.2362  0.1485 -0.2011
  688MPD2    C210226   1.167   4.696  17.147 -0.6037  0.0225  1.1029
  688MPD2    C310227   1.235   0.025  17.045  0.2460 -0.3256  0.3549
  688MPD2    C410228   1.229   0.164  17.035  0.3359 -0.2326  0.2813
  688MPD2    C510229   1.161   0.233  17.125  0.4899 -0.8827  0.7913
  688MPD2     H10230   1.170   4.587  17.148  1.9804  0.0926  0.1531
  688MPD2    H110231   1.288   0.221  16.964  2.4829 -2.4447  0.2603
  688MPD2    H210232   1.036   0.245  17.295  1.2514  1.0563 -0.4299
  688MPD2    H310233   1.159   0.341  17.117  3.5220 -0.7946  0.9771
  688MPD2     N10234   1.329   4.704  16.960  0.0564 -0.2408  0.1596
  688MPD2    H510235   1.380   0.039  16.909  1.5741 -1.1221  0.4433
  688MPD2    N110236   1.016   4.706  17.328  0.0691  0.3070  0.4134
  688MPD2    H710237   1.003   4.607  17.312  1.5758  0.3082 -0.8138
  689TMC3    C110238   0.856   4.665  17.498  0.1338  0.1313  0.2012
  689TMC3    C210239   0.810   4.704  17.624  0.2741 -0.0813 -0.3125
  689TMC3    C310240   0.779   4.612  17.713 -0.1921  0.3229  0.3649
  689TMC3    C410241   0.864   4.532  17.457 -0.7149  0.2634 -0.7696
  689TMC3    C510242   0.832   4.446  17.564  0.6018  0.3597  0.0604
  689TMC3    C610243   0.790   4.476  17.692  0.1578  0.8697  0.8709
  689TMC3     C10244   0.943   0.023  17.430  0.1316  0.7031  0.3217
  689TMC3     O10245   0.939   0.139  17.466  0.3044 -0.0382  0.3087
  689TMC3     H10246   0.808   0.072  17.657  0.3981 -0.4963  0.9743
  689TMC3    H110247   0.893   4.500  17.357 -1.9654 -0.0390 -1.0332
  689TMC3    H210248   0.743   4.403   0.015 -1.1657  1.9481  1.1311
  689TMC3    C710249   0.816   4.301  17.539 -0.6940 -0.4651  0.2316
  689TMC3    C810250   0.711   4.648   0.095  0.3111  0.5769 -0.0361
  689TMC3    O110251   0.825   4.220  17.631  0.8861 -0.0271  0.0855
  689TMC3    O210252   0.754   4.588   0.195  0.1505 -0.4454 -0.3001
  690MPD2     C10253   3.815   2.088  15.546 -0.3244  0.0801 -0.0866
  690MPD2    C110254   3.725   2.011  15.469  0.8837  0.4458  0.0402
  690MPD2    C210255   3.751   2.005  15.336 -0.1237  0.3187 -0.2664
  690MPD2    C310256   3.869   2.043  15.283  0.0021 -0.9434  0.1998
  690MPD2    C410257   3.956   2.114  15.358 -0.5376 -0.4813 -1.1138
  690MPD2    C510258   3.935   2.119  15.493 -0.6830 -0.1898  0.0517
  690MPD2     H10259   3.676   1.946  15.285 -1.3980  1.5927  0.1370
  690MPD2    H110260   4.050   2.155  15.322  0.2062  0.9630  2.4644
  690MPD2    H210261   3.797   2.115  15.649 -0.3335 -0.9238  0.1724
  690MPD2    H310262   4.003   2.166  15.562  1.7575 -2.2945 -0.9225
  690MPD2     N10263   3.896   2.010  15.151 -0.1409 -0.1966 -0.6387
  690MPD2    H510264   3.811   1.979  15.104  0.6019  0.1282 -2.1892
  690MPD2    N110265   3.604   1.954  15.525  0.3594  0.1992  0.0616
  690MPD2    H710266   3.538   1.907  15.464  0.1835 -0.1808  0.5364
  691TMC3    C110267   3.432   1.924  15.689 -0.5668  0.6455 -0.0248
  691TMC3    C210268   3.334   1.936  15.594 -0.7598  0.3345 -0.0487
  691TMC3    C310269   3.206   1.902  15.638 -0.1749 -0.8342  0.1005
  691TMC3    C410270   3.402   1.880  15.819 -0.2526  0.3298 -0.1680
  691TMC3    C510271   3.279   1.843  15.844  0.0744  0.0928  0.4594
  691TMC3    C610272   3.175   1.861  15.762  0.1862 -0.9931 -0.2123
  691TMC3     C10273   3.572   1.956  15.658 -0.0435  0.0144  0.5281
  691TMC3     O10274   3.660   1.948  15.743  0.0017 -0.7322 -0.0845
  691TMC3     H10275   3.363   1.981  15.499  0.1873 -1.1394 -0.4536
  691TMC3    H110276   3.478   1.876  15.896 -0.9759 -0.8726  0.4892
  691TMC3    H210277   3.079   1.811  15.771 -0.3700  0.4760  2.0012
  691TMC3    C710278   3.253   1.770  15.971  0.2184 -0.9000  0.1045
  691TMC3    C810279   3.102   1.907  15.537 -0.3438  0.4523 -0.1801
  691TMC3    O110280   3.348   1.738  16.041  0.2027 -1.2118 -0.0864
  691TMC3    O210281   3.134   1.869  15.426  0.0374 -0.2817 -0.2602
  692TMC3    C110282   0.109   2.972  15.601  0.1763 -0.1365 -0.0336
  692TMC3    C210283   0.191   3.031  15.695  0.1639 -1.4928  0.4301
  692TMC3    C310284   0.310   2.967  15.713 -0.2343  0.3769 -0.9323
  692TMC3    C410285   0.128   2.841  15.567  0.9434  0.8450 -0.1232
  692TMC3    C510286   0.243   2.772  15.606 -0.3227  0.4734 -0.4423
  692TMC3    C610287   0.331   2.833  15.685  0.6010  0.2974 -0.1073
  692TMC3     C10288   4.721   3.048  15.589  0.8147  0.8361  0.1535
  692TMC3     O10289   4.710   3.153  15.646 -0.5138  0.3336  0.1752
  692TMC3     H10290   0.193   3.139  15.685 -0.3400 -1.5049  0.2218
  692TMC3    H110291   0.053   2.800  15.500  1.3077 -0.9168  0.5593
  692TMC3    H210292   0.435   2.802  15.684  0.8405  1.0410  1.2738
  692TMC3    C710293   0.282   2.644  15.558 -0.1368  0.4305 -0.6043
  692TMC3    C810294   0.382   2.998  15.836 -0.0329 -0.1635  0.3884
  692TMC3    O110295   0.252   2.608  15.442 -0.2202  0.0469  0.1728
  692TMC3    O210296   0.480   2.935  15.869  0.2246 -0.6138  0.5372
  693MPD2     C10297   4.430   1.698  10.382  0.2995  0.7594  0.4574
  693MPD2    C110298   4.397   1.701  10.518 -0.7271  0.1676  0.1718
  693MPD2    C210299   4.488   1.651  10.612  0.3616  0.7112  0.9436
  693MPD2    C310300   4.604   1.605  10.567 -0.3382  0.6188  0.0332
  693MPD2    C410301   4.652   1.627  10.434  0.1410  0.4430  0.6657
  693MPD2    C510302   4.561   1.671  10.341  0.2175  0.3677  1.1482
  693MPD2     H10303   4.467   1.626  10.715 -3.4620  0.1173  0.0367
  693MPD2    H110304   0.012   1.603  10.389  0.4936  1.6957  0.7713
  693MPD2    H210305   4.364   1.750  10.313 -0.8975 -0.8354  0.3987
  693MPD2    H310306   4.593   1.689  10.239 -2.9472 -1.8971 -0.2612
  693MPD2     N10307   4.698   1.540  10.653 -0.5194  0.0331  0.3844
  693MPD2    H510308   0.039   1.498  10.601 -0.5349  0.1962  0.2264
  693MPD2    N110309   4.270   1.731  10.568  0.2075 -0.4456  0.2767
  693MPD2    H710310   4.195   1.730  10.500  1.3116  0.3554 -0.9285
  694TMC3    C110311   4.094   1.724  10.728  0.2120  1.0955 -0.7537
  694TMC3    C210312   4.026   1.635  10.646  0.3746  0.0303 -0.4475
  694TMC3    C310313   3.933   1.549  10.700 -0.2682  0.3411  0.6442
  694TMC3    C410314   4.076   1.727  10.862 -0.4613 -0.0130 -0.2676
  694TMC3    C510315   3.990   1.631  10.911 -0.0232  0.2581 -0.0512
  694TMC3    C610316   3.912   1.542  10.838  0.4333 -0.6424  0.6592
  694TMC3     C10317   4.233   1.752  10.699  0.3301 -0.5799 -0.4715
  694TMC3     O10318   4.305   1.788  10.789  0.3283  0.0745  0.1733
  694TMC3     H10319   4.042   1.635  10.539 -1.0595  2.2079 -0.6625
  694TMC3    H110320   4.127   1.797  10.927 -0.1667 -0.1240 -0.3781
  694TMC3    H210321   3.828   1.488  10.880  0.0141 -1.2889 -1.0118
  694TMC3    C710322   3.976   1.629  11.056 -1.2175 -0.2090 -0.1365
  694TMC3    C810323   3.820   1.489  10.625  0.0335  0.7907  0.5034
  694TMC3    O110324   4.034   1.712  11.122 -0.0691  0.6849  0.4154
  694TMC3    O210325   3.771   1.385  10.669 -0.1197 -0.4224  0.0967
  695MPD2     C10326   0.946   2.586  13.091 -0.4913 -0.5268 -0.6305
  695MPD2    C110327   0.936   2.623  13.227 -0.1548 -0.0478 -0.2949
  695MPD2    C210328   0.820   2.630  13.287  0.4983  0.2630 -0.5341
  695MPD2    C310329   0.703   2.613  13.220  0.0343  0.3320 -0.2795
  695MPD2    C410330   0.708   2.580  13.082 -0.6105 -0.4091 -0.1737
  695MPD2    C510331   0.830   2.574  13.016  0.5897  0.2035  0.2366
  695MPD2     H10332   0.808   2.666  13.389 -0.0684  0.8647 -0.8110
  695MPD2    H110333   0.620   2.557  13.023 -1.8098  2.4330  0.5248
  695MPD2    H210334   1.039   2.574  13.038 -0.3098 -0.5616 -0.3055
  695MPD2    H310335   0.832   2.547  12.911  2.3580  1.4882 -0.0661
  695MPD2     N10336   0.581   2.628  13.295  0.3251  0.8656 -0.1609
  695MPD2    H510337   0.581   2.643  13.396  0.3416  1.0838 -0.1943
  695MPD2    N110338   1.044   2.641  13.320 -0.0118 -0.4165 -0.0425
  695MPD2    H710339   1.013   2.687  13.404  0.0946  1.1241 -0.8483
  696TMC3    C110340   0.357   2.650  13.358  0.5866 -0.8928  0.0833
  696TMC3    C210341   0.388   2.644  13.491  0.4150  0.6161 -0.1894
  696TMC3    C310342   0.301   2.701  13.580 -0.2361  0.4852 -0.4795
  696TMC3    C410343   0.249   2.728  13.306  0.0617  0.3779 -0.6716
  696TMC3    C510344   0.175   2.801  13.399  0.0802 -0.0844 -0.5870
  696TMC3    C610345   0.205   2.788  13.535 -0.1065  0.0495 -0.4799
  696TMC3     C10346   0.454   2.617  13.253 -0.0926  0.0558  0.4863
  696TMC3     O10347   0.414   2.592  13.142  0.1361 -0.1255  0.6030
  696TMC3     H10348   0.459   2.573  13.532 -0.6306  0.0687  0.6898
  696TMC3    H110349   0.231   2.745  13.200 -0.3736  1.7709 -0.3786
  696TMC3    H210350   0.139   2.837  13.606 -0.1492  1.0335 -1.1811
  696TMC3    C710351   0.121   2.922  13.352 -0.1935 -0.1765  0.1915
  696TMC3    C810352   0.359   2.751  13.704  0.5363  0.8070 -0.2400
  696TMC3    O110353   0.088   2.921  13.232 -0.1407 -0.0284 -0.0413
  696TMC3    O210354   0.475   2.780  13.689  0.3482  0.0301  1.4223
  697MPD2     C10355   4.236   4.562  15.475 -0.5795 -0.0756  0.0689
  697MPD2    C110356   4.310   4.528  15.369  0.1363  0.4869 -0.0088
  697MPD2    C210357   4.389   4.626  15.304  0.1418  0.2807  0.4409
  697MPD2    C310358   4.405   0.010  15.363 -0.5755  0.1050 -0.9257
  697MPD2    C410359   4.336   0.035  15.483  0.1668  0.3893 -0.3489
  697MPD2    C510360   4.255   4.683  15.540 -0.2653 -0.0804  0.3755
  697MPD2     H10361   4.431   4.606  15.206  0.1450  0.0583  0.4884
  697MPD2    H110362   4.339   0.135  15.526  2.1029  0.6916 -1.1725
  697MPD2    H210363   4.167   4.497  15.528  0.3906 -1.7711 -0.7658
  697MPD2    H310364   4.204   4.708  15.633  0.9179  1.8615  0.5106
  697MPD2     N10365   4.494   0.097  15.301 -0.4283  0.3275 -0.3014
  697MPD2    H510366   4.536   0.074  15.212 -0.4914 -2.0652  0.2969
  697MPD2    N110367   4.315   4.396  15.312 -1.1228  0.2879  0.2475
  697MPD2    H710368   4.365   4.379  15.226  0.9138  2.2905  1.0477
  698TMC3    C110369   4.639   0.275  15.278  0.3441  0.4033 -0.4360
  698TMC3    C210370   4.662   0.408  15.303 -0.4474 -0.6467 -0.7148
  698TMC3    C310371   0.045   0.453  15.252  0.1536  0.8672 -0.7547
  698TMC3    C410372   4.728   0.188  15.226 -0.1940  0.7910  0.2269
  698TMC3    C510373   0.112   0.242  15.187 -0.3138  0.3829  0.6637
  698TMC3    C610374   0.147   0.365  15.207 -0.1589 -0.2295  0.4558
  698TMC3     C10375   4.528   0.223  15.347 -0.1149  0.9399  0.2131
  698TMC3     O10376   4.501   0.281  15.454  0.1076  0.1103  0.4135
  698TMC3     H10377   4.590   0.484  15.332 -0.6736 -0.6443 -1.2750
  698TMC3    H110378   4.713   0.083  15.204 -1.5755  0.5978  2.0976
  698TMC3    H210379   0.248   0.397  15.185  0.2616 -2.0470 -0.2149
  698TMC3    C710380   0.192   0.172  15.089 -0.3354 -0.5024 -0.7844
  698TMC3    C810381   0.092   0.582  15.304 -0.0138  0.1968 -0.5885
  698TMC3    O110382   0.314   0.182  15.095  0.4732 -0.1036 -0.1954
  698TMC3    O210383   0.033   0.615  15.407  0.0637  0.3274 -0.4776
  699TMC3    C110384   4.461   2.969  13.108  0.0364  0.2680  0.2405
  699TMC3    C210385   4.523   2.866  13.179  0.2414  0.7322  0.1481
  699TMC3    C310386   4.457   2.813  13.291  0.5340  0.8322 -0.0186
  699TMC3    C410387   4.350   3.030  13.159  0.9838  0.8345  0.3631
  699TMC3    C510388   4.287   2.975  13.269 -0.4057  0.2786  0.0486
  699TMC3    C610389   4.336   2.860  13.325 -0.1924  0.2135 -0.3257
  699TMC3     C10390   4.534   3.045  13.005 -0.9848  0.7516  0.4881
  699TMC3     O10391   4.468   3.131  12.945 -0.3098  0.4509 -0.5917
  699TMC3     H10392   4.622   2.833  13.149  0.4072 -0.3035  1.8647
  699TMC3    H110393   4.319   3.127  13.122  1.6411  1.4530  1.4148
  699TMC3    H210394   4.283   2.820  13.411 -2.2471  0.0226 -1.6748
  699TMC3    C710395   4.154   3.025  13.312  0.6868 -0.0319 -0.5851
  699TMC3    C810396   4.503   2.692  13.357 -0.0567  0.4864 -0.1665
  699TMC3    O110397   4.137   3.006  13.431  0.4169 -0.5835 -0.4354
  699TMC3    O210398   4.437   2.641  13.445  0.0628 -0.2148 -0.2210
  700TMC3    C110399   3.704   0.533  17.209 -0.0387  0.3204  0.3253
  700TMC3    C210400   3.738   0.409  17.168  0.3503  0.5502  0.1241
  700TMC3    C310401   3.842   0.359  17.235  0.4295 -0.2069  0.6807
  700TMC3    C410402   3.755   0.605  17.320  0.0780 -0.1404  0.1964
  700TMC3    C510403   3.861   0.544  17.382 -0.0369  0.3362 -0.3734
  700TMC3    C610404   3.905   0.424  17.340  0.4607  0.2485 -0.3610
  700TMC3     C10405   3.639   0.617  17.115 -0.0748  0.0574  0.4372
  700TMC3     O10406   3.536   0.588  17.054 -0.4496 -0.4912 -0.0564
  700TMC3     H10407   3.697   0.366  17.077  0.7180  1.7585 -0.6119
  700TMC3    H110408   3.724   0.709  17.332 -0.1295  0.0414 -1.8899
  700TMC3    H210409   3.981   0.376  17.401 -2.4195 -3.9478 -0.0569
  700TMC3    C710410   3.923   0.603  17.496 -0.0497 -0.1530 -0.0530
  700TMC3    C810411   3.895   0.232  17.188  0.7145 -0.8883  0.4654
  700TMC3    O110412   4.041   0.596  17.522  0.2116  0.1618  0.5235
  700TMC3    O210413   4.017   0.227  17.189  0.2703  0.5171 -0.1841
  701TMC3    C110414   3.709   3.971  15.475  0.0783 -1.2977  0.4376
  701TMC3    C210415   3.711   3.935  15.343  0.0070 -0.1524 -0.2352
  701TMC3    C310416   3.777   4.021  15.257 -0.4840  0.8202  0.3343
  701TMC3    C410417   3.777   4.076  15.525 -0.5799  0.5169  0.0846
  701TMC3    C510418   3.854   4.147  15.438 -0.0247  0.6025 -0.0209
  701TMC3    C610419   3.854   4.124  15.305  0.0393  0.4505  0.7963
  701TMC3     C10420   3.684   3.859  15.570  0.8617 -0.2592 -0.4061
  701TMC3     O10421   3.675   3.886  15.689  0.5109 -0.1381  0.1981
  701TMC3     H10422   3.624   3.885  15.304 -0.7222 -0.8076  2.2443
  701TMC3    H110423   3.752   4.106  15.627 -0.7630 -1.0601  0.5049
  701TMC3    H210424   3.896   4.195  15.235  0.3307 -1.7213 -1.2448
  701TMC3    C710425   3.868   4.293  15.460 -0.7203  0.7452  0.1166
  701TMC3    C810426   3.705   4.052  15.133 -0.1110 -0.1796  0.1397
  701TMC3    O110427   3.850   4.365  15.368  0.5563  0.1917  0.2174
  701TMC3    O210428   3.698   4.173  15.109 -0.8712 -0.1635  0.4248
  702MPD2     C10429   3.257   1.452  10.784  0.2933 -0.5306 -1.9275
  702MPD2    C110430   3.175   1.555  10.810 -0.1765 -0.1424 -0.7617
  702MPD2    C210431   3.192   1.679  10.757 -0.9377 -0.7293 -0.2456
  702MPD2    C310432   3.306   1.708  10.678  0.1103  0.4467 -0.0088
  702MPD2    C410433   3.391   1.602  10.665  0.5787  0.0505 -0.1817
  702MPD2    C510434   3.362   1.477  10.704  0.3486 -0.2827 -0.1574
  702MPD2     H10435   3.110   1.748  10.775  1.5861  2.0222  0.7252
  702MPD2    H110436   3.489   1.605  10.617  0.8166  0.2148  0.3240
  702MPD2    H210437   3.236   1.348  10.806 -0.1607  0.0452  0.3486
  702MPD2    H310438   3.430   1.396  10.681  0.5413  0.5246 -2.3565
  702MPD2     N10439   3.339   1.844  10.632 -0.7613  0.0989 -0.6540
  702MPD2    H510440   3.264   1.913  10.633 -0.5035  0.3786  0.3720
  702MPD2    N110441   3.067   1.536  10.903  0.2539 -0.2836 -0.1157
  702MPD2    H710442   3.018   1.623  10.923 -1.0013 -0.5979 -1.8228
  703TMC3    C110443   3.474   2.011  10.544 -1.1587  0.2576  0.2873
  703TMC3    C210444   3.367   2.052  10.469 -0.6133  0.7629  0.4808
  703TMC3    C310445   3.365   2.181  10.426 -0.7003  0.6738  0.1121
  703TMC3    C410446   3.589   2.087  10.558 -0.2706  0.0202  0.3875
  703TMC3    C510447   3.589   2.214  10.510  0.2115  0.4023 -0.2310
  703TMC3    C610448   3.474   2.268  10.446 -0.2379  0.0145  0.1560
  703TMC3     C10449   3.469   1.889  10.612  0.4439 -0.2246 -0.3896
  703TMC3     O10450   3.575   1.849  10.651  0.1425 -0.1042  0.5618
  703TMC3     H10451   3.279   1.997  10.440 -0.2332 -0.1077  0.9986
  703TMC3    H110452   3.677   2.046  10.606 -0.3045 -1.4993 -0.8655
  703TMC3    H210453   3.479   2.362  10.393  1.1330 -1.0120 -1.5173
  703TMC3    C710454   3.717   2.277  10.476 -0.5189 -0.6591  0.5277
  703TMC3    C810455   3.250   2.227  10.350 -0.2854  0.3133  0.5255
  703TMC3    O110456   3.722   2.364  10.388 -0.2905  0.3127 -0.4740
  703TMC3    O210457   3.262   2.269  10.235 -0.4723  0.0717  0.0328
  704TMC3    C110458   1.089   4.629  12.490 -0.4069  0.0410  0.3076
  704TMC3    C210459   1.164   4.676  12.380  0.0669  0.5243 -0.6775
  704TMC3    C310460   1.297   4.677  12.377 -1.1357  0.9882  0.2518
  704TMC3    C410461   1.155   4.611  12.614 -0.1770 -0.0044  0.3014
  704TMC3    C510462   1.292   4.602  12.604 -0.1168 -0.3209  0.2347
  704TMC3    C610463   1.361   4.633  12.493  0.1987 -0.2260 -0.1499
  704TMC3     C10464   0.980   4.537  12.453 -0.0372 -0.6360  0.4294
  704TMC3     O10465   0.926   4.486  12.548  0.6855  0.5094 -0.3561
  704TMC3     H10466   1.120   4.717  12.290 -1.3297 -1.6590 -0.9863
  704TMC3    H110467   1.108   4.573  12.704 -0.2040 -2.3773 -0.6867
  704TMC3    H210468   1.469   4.635  12.502  0.3235  0.8667 -1.8458
  704TMC3    C710469   1.369   4.526  12.713  0.1434  0.4578 -0.8652
  704TMC3    C810470   1.367   4.697  12.255 -0.4774  0.2193 -0.7488
  704TMC3    O110471   1.470   4.580  12.753  0.1827 -0.2850  0.0688
  704TMC3    O210472   1.297   4.693  12.156 -0.1638  0.6214 -0.1588
  705MPD2     C10473   0.165   2.930  16.154  0.0861 -0.2481  0.6763
  705MPD2    C110474   0.226   2.880  16.263  0.4661  0.1113  0.4382
  705MPD2    C210475   0.158   2.877  16.385 -0.7424 -0.5530  0.3693
  705MPD2    C310476   0.020   2.905  16.398  0.5167  0.2711 -0.9103
  705MPD2    C410477   4.701   2.960  16.282 -0.0456 -0.2695  0.0430
  705MPD2    C510478   0.038   2.977  16.164 -0.4856 -0.7641  0.3502
  705MPD2     H10479   0.219   2.827  16.460 -0.7854 -1.1541  0.0079
  705MPD2    H110480   4.595   2.979  16.271  0.1282  1.0529  0.6245
  705MPD2    H210481   0.209   2.936  16.055  0.1086  1.0514  0.7684
  705MPD2    H310482   4.722   3.007  16.074  0.1954 -3.1128 -0.8192
  705MPD2     N10483   4.683   2.889  16.517  0.2334 -0.2212 -0.0034
  705MPD2    H510484   4.589   2.926  16.521  0.2975  0.0982 -1.2599
  705MPD2    N110485   0.359   2.832  16.243  0.6584 -0.1893 -0.1759
  705MPD2    H710486   0.411   2.812  16.328  2.0056 -2.5682 -1.5471
  706TMC3    C110487   0.746   2.632  16.103  0.0681  0.1268  0.6057
  706TMC3    C210488   0.812   2.698  16.211  0.0585 -1.2136 -0.2870
  706TMC3    C310489   0.742   2.802  16.266 -0.6044  0.3571 -0.0189
  706TMC3    C410490   0.619   2.666  16.057 -0.2649  0.2964  0.3889
  706TMC3    C510491   0.552   2.764  16.131  0.6413  0.1884 -0.3056
  706TMC3    C610492   0.618   2.838  16.223 -0.2239 -0.3802  1.2402
  706TMC3     C10493   0.820   2.523  16.043  0.5283 -0.7577 -0.2866
  706TMC3     O10494   0.911   2.480  16.114 -0.1499  0.0882  0.0174
  706TMC3     H10495   0.902   2.665  16.262 -0.7811 -1.4073  1.0660
  706TMC3    H110496   0.571   2.598  15.988  1.1538 -2.5589  2.2289
  706TMC3    H210497   0.575   2.934  16.252 -1.9227 -0.4542 -1.0890
  706TMC3    C710498   0.404   2.774  16.123  0.2182  0.0082  0.6458
  706TMC3    C810499   0.831   2.913  16.299  0.5631  0.0595  0.1180
  706TMC3    O110500   0.344   2.732  16.027  0.3345 -0.7337 -0.4340
  706TMC3    O210501   0.909   2.907  16.395  0.4618 -0.2006 -0.4441
  707TMC3    C110502   2.419   2.494   0.267 -0.9212  0.4564 -0.1108
  707TMC3    C210503   2.358   2.391   0.207 -0.4666  0.8145  0.8587
  707TMC3    C310504   2.268   2.425   0.114 -0.5690 -0.5996 -0.1900
  707TMC3    C410505   2.391   2.622   0.246  0.1839 -0.3681 -0.8554
  707TMC3    C510506   2.295   2.651   0.151  0.2862  0.3068 -1.1021
  707TMC3    C610507   2.238   2.550   0.076 -0.3340  0.1390 -0.3156
  707TMC3     C10508   2.509   2.468   0.373  0.0672 -0.3201 -0.2416
  707TMC3     O10509   2.617   2.522   0.364 -0.4244 -0.1408 -0.0709
  707TMC3     H10510   2.379   2.291   0.242  1.1687  0.9449  0.2677
  707TMC3    H110511   2.434   2.707   0.297  0.8946 -2.5793  2.2260
  707TMC3    H210512   2.156   2.567   0.007 -0.5520 -2.6277 -0.7286
  707TMC3    C710513   2.246   2.791   0.139 -0.9370  0.0889  0.1376
  707TMC3    C810514   2.208   2.323   0.035 -0.1295 -0.3474  0.9164
  707TMC3    O110515   2.254   2.856   0.244  0.1591  0.1382  0.2534
  707TMC3    O210516   2.166   2.350  17.664  0.3332  0.1016  0.1648
  708MPD2     C10517   3.761   0.389  13.712  0.2751 -0.6729  0.0084
  708MPD2    C110518   3.774   0.512  13.768  0.0781  0.0495 -0.0279
  708MPD2    C210519   3.837   0.532  13.886  0.2738  0.0074  0.8914
  708MPD2    C310520   3.881   0.425  13.963 -1.0663  0.0585 -0.3551
  708MPD2    C410521   3.892   0.307  13.888  0.3930  0.1330  0.2474
  708MPD2    C510522   3.828   0.288  13.768 -0.1804  0.4935  0.3492
  708MPD2     H10523   3.837   0.633  13.926 -0.1570  0.5234 -0.4186
  708MPD2    H110524   3.948   0.227  13.935 -1.8826 -1.7751 -0.2768
  708MPD2    H210525   3.718   0.365  13.615  0.5827 -2.5551  0.3319
  708MPD2    H310526   3.831   0.189  13.724  0.1769 -0.3494  2.2691
  708MPD2     N10527   3.919   0.443  14.095  0.7893  0.1071  0.0831
  708MPD2    H510528   3.916   0.536  14.134  3.3359 -0.5660  1.8694
  708MPD2    N110529   3.715   0.626  13.712 -0.2140 -0.0246 -0.3160
  708MPD2    H710530   3.732   0.719  13.750 -0.6564  0.2489 -0.7962
  709TMC3    C110531   3.534   0.742  13.615  0.1804 -0.6139  0.3943
  709TMC3    C210532   3.411   0.710  13.565 -0.0810 -0.2760  0.6610
  709TMC3    C310533   3.303   0.763  13.631 -0.3602  0.6745  1.1679
  709TMC3    C410534   3.546   0.821  13.729 -0.1635  0.0484  0.0713
  709TMC3    C510535   3.432   0.849  13.800 -0.6833  0.8612  0.5148
  709TMC3    C610536   3.308   0.820  13.749  0.4137 -0.2093  1.1530
  709TMC3     C10537   3.616   0.621  13.616  0.5253 -0.5110 -0.3218
  709TMC3     O10538   3.598   0.542  13.532 -0.0338  0.4529  0.2606
  709TMC3     H10539   3.407   0.636  13.486 -3.4120  1.2588 -0.6364
  709TMC3    H110540   3.641   0.856  13.767 -0.3174 -0.1280  0.6141
  709TMC3    H210541   3.219   0.864  13.793 -0.8172 -0.0159 -1.5366
  709TMC3    C710542   3.467   0.823  13.945  1.4922 -0.0833  0.3975
  709TMC3    C810543   3.183   0.769  13.551 -0.7327  0.0506 -0.5768
  709TMC3    O110544   3.584   0.796  13.956  0.1940 -0.2927 -0.3699
  709TMC3    O210545   3.080   0.725  13.603 -0.3579  0.7195  0.2967
  710TMC3    C110546   4.684   2.822  17.670  0.0675 -0.6945 -0.1656
  710TMC3    C210547   0.008   2.776  17.550  0.6697  0.6243  0.1309
  710TMC3    C310548   0.121   2.698  17.565  0.3354  0.2076  0.2580
  710TMC3    C410549   4.732   2.786   0.055 -0.3036 -0.1053  0.2275
  710TMC3    C510550   0.116   2.720   0.061 -0.0787 -0.9101  0.8818
  710TMC3    C610551   0.181   2.677  17.693 -0.1980  0.5150  0.8212
  710TMC3     C10552   4.573   2.915  17.650 -0.1344  0.7539 -0.0456
  710TMC3     O10553   4.520   2.929  17.536  0.2010 -0.0184 -0.1891
  710TMC3     H10554   4.718   2.813  17.452  0.1136 -0.5636 -0.1641
  710TMC3    H110555   4.677   2.818   0.143 -2.6615 -1.6623 -0.6945
  710TMC3    H210556   0.262   2.606  17.703 -1.2137 -0.2482  3.8763
  710TMC3    C710557   0.151   2.658   0.186  0.1812  0.1278  0.4785
  710TMC3    C810558   0.207   2.677  17.454 -0.1699 -1.0863 -0.2831
  710TMC3    O110559   0.051   2.639   0.259 -0.1795  0.2446  0.0646
  710TMC3    O210560   0.155   2.667  17.343  0.1587  0.4319 -0.3490
  711TMC3    C110561   4.446   3.359  15.038 -0.1857  0.4549 -0.3976
  711TMC3    C210562   4.499   3.242  15.088 -0.1140  0.0598  0.0674
  711TMC3    C310563   4.540   3.239  15.219 -1.1699 -0.1845 -0.9218
  711TMC3    C410564   4.428   3.467  15.121  0.6566  0.0067  0.3011
  711TMC3    C510565   4.469   3.464  15.251 -0.4143 -0.0982 -0.3831
  711TMC3    C610566   4.527   3.351  15.299  0.2358  0.1677 -0.2934
  711TMC3     C10567   4.359   3.337  14.926  0.2407 -0.5562  0.4720
  711TMC3     O10568   4.243   3.377  14.931  0.0070 -0.6946  0.6906
  711TMC3     H10569   4.508   3.144  15.042 -0.8972  0.1067 -0.1842
  711TMC3    H110570   4.386   3.558  15.081 -0.7185 -0.1385  1.4257
  711TMC3    H210571   4.560   3.347  15.402  1.4328 -0.2406 -0.6873
  711TMC3    C710572   4.548   3.579  15.298 -0.8137  0.8168  0.2174
  711TMC3    C810573   4.659   3.160  15.242 -0.6227  0.9661 -0.0286
  711TMC3    O110574   4.482   3.672  15.349  0.1916 -0.3634 -1.0207
  711TMC3    O210575   4.676   3.050  15.184 -0.1274  0.4337  0.1057
  712MPD2     C10576   1.220   4.248  13.810  0.1003  1.0679  0.1229
  712MPD2    C110577   1.152   4.330  13.726 -0.4193 -0.7930  0.0746
  712MPD2    C210578   1.187   4.461  13.710 -0.0371 -0.9567 -0.0761
  712MPD2    C310579   1.264   4.516  13.807 -0.0655 -0.3019  0.4008
  712MPD2    C410580   1.323   4.431  13.902  0.3136 -0.1456  0.0796
  712MPD2    C510581   1.316   4.295  13.892 -0.0116  0.4835  0.3664
  712MPD2     H10582   1.128   4.519  13.639 -0.4570 -0.4300  0.7023
  712MPD2    H110583   1.391   4.471  13.976  1.9837  0.0210 -1.5516
  712MPD2    H210584   1.197   4.142  13.818  2.1874  0.4104 -2.6910
  712MPD2    H310585   1.367   4.237  13.968 -0.0754 -0.2064 -0.1192
  712MPD2     N10586   1.290   4.649  13.809  0.4274 -0.1928 -0.2914
  712MPD2    H510587   1.365   4.679  13.871 -2.0898  0.0116  2.6571
  712MPD2    N110588   1.049   4.290  13.640 -0.1282 -0.0645 -0.1380
  712MPD2    H710589   1.015   4.369  13.585  0.7578 -1.3196 -2.4823
  713TMC3    C110590   1.268   0.142  13.767  0.3919  0.2563 -0.5571
  713TMC3    C210591   1.407   0.158  13.774  0.5225  0.8203  0.1890
  713TMC3    C310592   1.454   0.284  13.767 -0.3638  0.0995 -0.0937
  713TMC3    C410593   1.178   0.246  13.762 -0.6339 -0.1816  0.0654
  713TMC3    C510594   1.233   0.375  13.778  0.2237  0.5035  0.0487
  713TMC3    C610595   1.370   0.390  13.770 -1.1050 -0.2259 -0.3736
  713TMC3     C10596   1.216   0.016  13.749 -0.4678  0.2400  0.2753
  713TMC3     O10597   1.108   0.003  13.694 -0.1091 -0.2087 -0.2146
  713TMC3     H10598   1.473   0.078  13.740 -2.7572 -1.4608 -0.8291
  713TMC3    H110599   1.080   0.223  13.804  0.7782 -0.7161  3.0670
  713TMC3    H210600   1.424   0.484  13.765  0.2080 -0.9563 -0.0189
  713TMC3    C710601   1.155   0.486  13.836 -0.2211 -0.6969  0.5767
  713TMC3    C810602   1.591   0.314  13.720 -0.6232 -0.0839 -0.1540
  713TMC3    O110603   1.214   0.587  13.866  0.2391  0.1925 -0.2096
  713TMC3    O210604   1.613   0.407  13.649 -0.1956 -0.4269  0.1087
  714MPD2     C10605   3.031   3.594   1.251  0.0277 -0.6108  0.5875
  714MPD2    C110606   3.037   3.476   1.188 -0.3942  0.3925 -0.2480
  714MPD2    C210607   2.921   3.405   1.150  0.2852  0.0657  0.4294
  714MPD2    C310608   2.796   3.462   1.180 -0.4761  0.1401 -0.0846
  714MPD2    C410609   2.797   3.586   1.257 -0.5567  0.2179 -0.1784
  714MPD2    C510610   2.914   3.648   1.292  0.1991 -0.3310 -0.6324
  714MPD2     H10611   2.929   3.321   1.083  1.6726  1.0627 -0.6483
  714MPD2    H110612   2.711   3.641   1.292  1.4185  1.3127  2.8912
  714MPD2    H210613   3.128   3.634   1.279  1.6662 -2.7871 -1.9463
  714MPD2    H310614   2.922   3.746   1.339 -1.9514 -1.1132  1.4036
  714MPD2     N10615   2.673   3.403   1.145 -0.1738  0.8069 -0.3267
  714MPD2    H510616   2.675   3.319   1.088  0.8987  0.3588  0.3897
  714MPD2    N110617   3.163   3.442   1.135  0.1354  0.6256 -0.0901
  714MPD2    H710618   3.245   3.499   1.155  1.0936 -0.7204 -0.1302
  715TMC3    C110619   3.336   3.333   1.031 -0.0893  0.5697  0.2606
  715TMC3    C210620   3.397   3.211   0.997  0.5431  0.1058 -1.1942
  715TMC3    C310621   3.526   3.211   0.952  0.0849  1.2904  0.1275
  715TMC3    C410622   3.400   3.450   1.000 -0.6024 -0.4645 -0.4566
  715TMC3    C510623   3.531   3.442   0.955  0.2555  0.2627 -0.0318
  715TMC3    C610624   3.595   3.328   0.947 -0.1877  0.5493 -0.0350
  715TMC3     C10625   3.192   3.333   1.062 -0.2469 -0.6076 -0.4631
  715TMC3     O10626   3.119   3.232   1.051  0.0283 -0.0111  0.3557
  715TMC3     H10627   3.344   3.119   1.018 -1.7785  2.3893  2.9019
  715TMC3    H110628   3.340   3.541   1.003  1.5691  1.0023 -1.3938
  715TMC3    H210629   3.690   3.335   0.897 -0.3445  1.9153 -0.1398
  715TMC3    C710630   3.616   3.567   0.960 -0.0378  0.3346  0.3713
  715TMC3    C810631   3.592   3.082   0.957  0.0990 -0.3543  0.4346
  715TMC3    O110632   3.737   3.547   0.975  0.0278  0.3405  0.7789
  715TMC3    O210633   3.527   2.989   0.924 -0.2398 -0.3689 -0.0550
  716MPD2     C10634   3.314   1.734   9.385  0.4464  0.3971 -0.3787
  716MPD2    C110635   3.216   1.761   9.297 -1.0404 -0.2526  0.0273
  716MPD2    C210636   3.178   1.661   9.213 -0.6854  0.1719 -0.3314
  716MPD2    C310637   3.231   1.535   9.216 -0.4016  0.5927 -0.8028
  716MPD2    C410638   3.332   1.506   9.310  0.7454 -0.1723  0.1452
  716MPD2    C510639   3.373   1.610   9.387 -0.1771 -0.8295  0.0144
  716MPD2     H10640   3.096   1.665   9.143 -1.9875 -1.3885  1.1218
  716MPD2    H110641   3.379   1.409   9.319  1.1900  0.0277 -0.0218
  716MPD2    H210642   3.330   1.801   9.469  0.9601 -0.7052  0.3954
  716MPD2    H310643   3.458   1.598   9.452  0.0739  0.1930 -0.1362
  716MPD2     N10644   3.167   1.444   9.130  0.5502 -0.7328 -0.0470
  716MPD2    H510645   3.078   1.469   9.090  1.1657 -0.4853 -1.2618
  716MPD2    N110646   3.142   1.875   9.317 -0.9103 -0.0278  0.2498
  716MPD2    H710647   3.175   1.938   9.389  3.6564 -0.7322 -1.2133
  717TMC3    C110648   3.099   1.241   9.032  0.1500 -0.1157 -0.4238
  717TMC3    C210649   2.976   1.294   9.005  0.2766  0.2672 -0.0791
  717TMC3    C310650   2.890   1.214   8.932  0.5902  0.2165 -0.3357
  717TMC3    C410651   3.136   1.118   8.982 -0.1071  0.1855  0.3949
  717TMC3    C510652   3.052   1.051   8.903 -0.0239 -0.2898 -0.2258
  717TMC3    C610653   2.923   1.095   8.877 -0.2775  0.2070 -0.5234
  717TMC3     C10654   3.201   1.313   9.108  0.4981 -0.3140  0.2640
  717TMC3     O10655   3.310   1.261   9.139  0.7603  0.1567  0.3570
  717TMC3     H10656   2.946   1.391   9.041  1.0487  0.5765 -0.2714
  717TMC3    H110657   3.232   1.083   9.018  0.7134  2.7191  0.7353
  717TMC3    H210658   2.862   1.037   8.808  0.4994 -0.3778 -0.7187
  717TMC3    C710659   3.063   0.906   8.888 -0.6006 -0.3459 -0.1792
  717TMC3    C810660   2.771   1.281   8.899  0.5400  0.0931  0.7234
  717TMC3    O110661   2.963   0.841   8.908  0.1758 -0.1190 -0.6010
  717TMC3    O210662   2.754   1.385   8.959 -0.2264 -0.5349 -0.3429
  718MPD2     C10663   3.334   4.296  12.810  0.3080 -0.8414  0.9587
  718MPD2    C110664   3.272   4.270  12.691 -0.3773  0.5506  0.4376
  718MPD2    C210665   3.139   4.223  12.705 -0.9161 -0.2731  0.3756
  718MPD2    C310666   3.072   4.228  12.823 -0.0526  0.2032  0.3468
  718MPD2    C410667   3.134   4.269  12.934 -0.3962 -1.0176 -0.8326
  718MPD2    C510668   3.265   4.302  12.926  0.6633 -0.4157  0.0716
  718MPD2     H10669   3.085   4.218  12.611  0.7341  3.3351 -0.7739
  718MPD2    H110670   3.087   4.275  13.032  1.0940  0.8653 -0.2334
  718MPD2    H210671   3.438   4.324  12.805  0.0290 -0.0410 -0.2598
  718MPD2    H310672   3.313   4.337  13.016  0.8403 -1.5034  0.3932
  718MPD2     N10673   2.930   4.209  12.814  0.2398  0.3139  0.4642
  718MPD2    H510674   2.897   4.171  12.725  1.3272  0.1379  0.1387
  718MPD2    N110675   3.342   4.307  12.568  0.7507 -0.6494 -0.4427
  718MPD2    H710676   3.434   4.349  12.575 -0.0653  1.2015 -0.9284
  719TMC3    C110677   3.354   4.381  12.341 -0.7792 -1.6355 -0.6399
  719TMC3    C210678   3.293   4.355  12.220  0.1792 -0.9443 -0.1030
  719TMC3    C310679   3.284   4.463  12.133 -0.5698 -0.7285 -0.2033
  719TMC3    C410680   3.398   4.508  12.372 -0.4554  0.1133  0.3716
  719TMC3    C510681   3.397   4.609  12.274 -0.2212 -0.0674 -0.2869
  719TMC3    C610682   3.339   4.582  12.152 -0.0922  0.0933 -0.3855
  719TMC3     C10683   3.278   4.314  12.445  0.9950 -0.4380 -0.0464
  719TMC3     O10684   3.167   4.281  12.413 -0.1280  0.1196 -0.7880
  719TMC3     H10685   3.251   4.261  12.186 -2.5351  1.6283 -3.9877
  719TMC3    H110686   3.443   4.527  12.469 -1.8801 -1.0276  1.2447
  719TMC3    H210687   3.322   4.662  12.080 -2.5243 -1.2974 -1.3443
  719TMC3    C710688   3.467   0.000  12.285 -0.3460 -0.5594 -0.2143
  719TMC3    C810689   3.151   4.473  12.079 -1.0051 -0.2939  0.9210
  719TMC3    O110690   3.459   0.069  12.181 -0.0582 -0.1352 -0.1146
  719TMC3    O210691   3.131   4.539  11.977  0.4774 -0.0173 -0.1888
  720MPD2     C10692   1.512   1.884  13.770  0.0054  1.0013  0.2153
  720MPD2    C110693   1.479   1.754  13.756 -0.7444  0.3247 -0.0010
  720MPD2    C210694   1.523   1.664  13.855 -0.3525 -0.2141  0.5092
  720MPD2    C310695   1.597   1.704  13.964  0.1759 -0.4558  0.6122
  720MPD2    C410696   1.624   1.840  13.986 -0.3743 -0.3734  0.6016
  720MPD2    C510697   1.575   1.927  13.888 -0.0590  0.0802 -0.2158
  720MPD2     H10698   1.511   1.558  13.835 -0.0491 -0.3386  0.9959
  720MPD2    H110699   1.680   1.878  14.071  0.4134  0.0193 -0.0907
  720MPD2    H210700   1.479   1.953  13.693  0.0464  1.8872  0.9943
  720MPD2    H310701   1.591   2.034  13.896 -2.3800  0.4556 -0.8657
  720MPD2     N10702   1.651   1.606  14.051 -0.8493 -0.2109  0.4340
  720MPD2    H510703   1.644   1.507  14.027  0.0014 -0.5550  1.6199
  720MPD2    N110704   1.383   1.709  13.657  0.0714 -0.9908  0.3915
  720MPD2    H710705   1.333   1.622  13.672 -0.8257 -0.8218 -1.6489
  721TMC3    C110706   1.801   1.512  14.206 -0.0246  0.0953  0.3640
  721TMC3    C210707   1.845   1.508  14.336  0.5947 -0.2368 -0.2718
  721TMC3    C310708   1.936   1.407  14.375  0.0067  0.3498  0.6286
  721TMC3    C410709   1.861   1.434  14.117  0.5597 -0.8176 -0.1712
  721TMC3    C510710   1.950   1.340  14.150  0.1623  0.4876  0.2377
  721TMC3    C610711   1.993   1.325  14.279 -0.4416 -0.6403 -0.4445
  721TMC3     C10712   1.717   1.624  14.167 -0.1509  0.3161 -0.3919
  721TMC3     O10713   1.738   1.728  14.224  0.0676  0.1739  0.3800
  721TMC3     H10714   1.816   1.591  14.400  0.6118  0.6038 -1.3495
  721TMC3    H110715   1.836   1.434  14.011 -2.0620 -0.5388  0.4564
  721TMC3    H210716   2.082   1.271  14.309  0.6674  0.8147 -1.1140
  721TMC3    C710717   2.031   1.299  14.041 -0.0533  0.0902  0.8170
  721TMC3    C810718   2.002   1.413  14.509 -0.3264  0.7100  0.4232
  721TMC3    O110719   2.037   1.373  13.947 -0.4795 -0.3440 -0.5172
  721TMC3    O210720   2.091   1.331  14.515  0.2446  0.4073  0.2812
  722MPD2     C10721   0.079   0.255  13.538  0.0534  0.5199 -0.1812
  722MPD2    C110722   0.006   0.369  13.555 -0.2002 -0.0593 -0.0665
  722MPD2    C210723   4.605   0.366  13.564 -0.2386 -0.7224  0.2954
  722MPD2    C310724   4.535   0.249  13.553  0.8390 -0.3392  1.1986
  722MPD2    C410725   4.608   0.130  13.552 -0.1459  0.3922 -1.0508
  722MPD2    C510726   0.008   0.141  13.548  0.5194 -0.4935 -0.3751
  722MPD2     H10727   4.551   0.460  13.574 -3.2029 -2.4662  0.9655
  722MPD2    H110728   4.565   0.031  13.555 -0.8169  0.7481  0.9079
  722MPD2    H210729   0.185   0.256  13.515 -0.2114  0.4066 -1.4174
  722MPD2    H310730   0.056   0.048  13.517  1.4449 -0.2981  0.4703
  722MPD2     N10731   4.392   0.248  13.569 -0.5045 -0.6626 -0.0052
  722MPD2    H510732   4.358   0.337  13.602  0.1551 -0.6238  0.5688
  722MPD2    N110733   0.068   0.499  13.553 -0.2597  0.1152 -0.1605
  722MPD2    H710734   0.013   0.584  13.556 -0.3061  0.0939 -0.3692
  723TMC3    C110735   4.168   0.173  13.537  0.8086  0.0532 -0.0622
  723TMC3    C210736   4.106   0.088  13.451  0.1741  0.4109  0.0718
  723TMC3    C310737   3.974   0.116  13.403  0.1292  0.5588 -0.3583
  723TMC3    C410738   4.121   0.301  13.540 -0.0795 -0.7283  0.1128
  723TMC3    C510739   4.007   0.332  13.473  0.0907  0.4742 -0.6571
  723TMC3    C610740   3.920   0.238  13.416 -0.2455 -0.7670  0.1644
  723TMC3     C10741   4.314   0.141  13.540  0.5623 -0.0903  0.0026
  723TMC3     O10742   4.342   0.023  13.524 -0.0329 -0.4027 -0.7388
  723TMC3     H10743   4.133   4.720  13.436 -1.6849 -0.0938  0.2393
  723TMC3    H110744   4.146   0.373  13.617 -0.2789 -0.8016  0.2476
  723TMC3    H210745   3.829   0.268  13.366  0.8363  3.3071  0.6905
  723TMC3    C710746   3.987   0.473  13.443 -0.3869 -0.6941 -0.4985
  723TMC3    C810747   3.901   0.014  13.338 -0.4012  0.1121 -0.5296
  723TMC3    O110748   4.056   0.555  13.505 -0.8828 -0.4035 -0.4204
  723TMC3    O210749   3.781   0.020  13.349 -0.9797  0.2550 -0.4814
  724TMC3    C110750   0.520   3.360   9.804 -0.5493  0.5831 -0.2021
  724TMC3    C210751   0.622   3.372   9.711  0.7474 -0.0938 -0.3518
  724TMC3    C310752   0.657   3.503   9.677 -0.4770  1.0435 -0.0044
  724TMC3    C410753   0.442   3.472   9.837  0.1465 -0.1937  0.3289
  724TMC3    C510754   0.474   3.593   9.779  0.2231 -0.0291 -0.3473
  724TMC3    C610755   0.576   3.613   9.696 -1.1324 -0.1756  0.3527
  724TMC3     C10756   0.464   3.229   9.833 -0.4083 -0.6710 -0.3751
  724TMC3     O10757   0.364   3.224   9.908 -0.0682 -0.1988 -0.5925
  724TMC3     H10758   0.697   3.293   9.709  0.9933  0.1370 -0.3694
  724TMC3    H110759   0.367   3.459   9.913 -1.2012  2.4822 -0.5698
  724TMC3    H210760   0.605   3.712   9.661 -0.1288 -0.3776  0.5959
  724TMC3    C710761   0.443   3.713   9.857  0.2879 -0.1075  0.5882
  724TMC3    C810762   0.790   3.526   9.634 -1.3991 -0.3428  0.0142
  724TMC3    O110763   0.437   3.705   9.978  0.2044  0.5509  0.5267
  724TMC3    O210764   0.843   3.436   9.571 -0.0340  0.5180 -0.3582
  725TMC3    C110765   2.181   2.197  12.853 -0.2557 -0.0224  0.1059
  725TMC3    C210766   2.077   2.244  12.779 -0.2391 -0.4915 -0.1738
  725TMC3    C310767   2.014   2.150  12.701 -0.6603 -0.5407 -0.0876
  725TMC3    C410768   2.240   2.074  12.835  0.1105 -0.0755  0.2446
  725TMC3    C510769   2.187   1.998  12.734  0.1123 -0.0583 -0.0824
  725TMC3    C610770   2.067   2.029  12.668 -0.8031  0.2916 -0.1435
  725TMC3     C10771   2.202   2.268  12.972 -0.3027 -0.5025 -0.4203
  725TMC3     O10772   2.151   2.382  12.983 -0.0198 -0.5771 -0.0946
  725TMC3     H10773   2.039   2.345  12.792  0.1520 -0.2462 -0.9448
  725TMC3    H110774   2.333   2.035  12.877  0.7672 -1.1292 -2.2129
  725TMC3    H210775   2.010   1.965  12.602 -1.2360 -1.6879  2.1646
  725TMC3    C710776   2.257   1.878  12.697  0.8689 -0.7701 -0.5822
  725TMC3    C810777   1.895   2.191  12.624  0.3277  0.7681  0.0928
  725TMC3    O110778   2.251   1.842  12.579  0.2035  0.0736 -0.1815
  725TMC3    O210779   1.874   2.139  12.517  0.8506  0.2659 -0.4869
  726MPD2     C10780   4.117   4.422  10.575 -0.5661  0.3921  0.3697
  726MPD2    C110781   4.028   4.406  10.475  0.1030 -0.6770  0.0842
  726MPD2    C210782   3.942   4.303  10.474 -0.0362 -0.3229  0.2331
  726MPD2    C310783   3.953   4.208  10.578  1.0260 -0.3960  0.3516
  726MPD2    C410784   4.043   4.229  10.676  0.2080 -0.6879  0.1277
  726MPD2    C510785   4.117   4.341  10.675  0.4889 -0.4160 -0.5048
  726MPD2     H10786   3.876   4.294  10.389 -1.2354 -0.7188  1.2052
  726MPD2    H110787   4.047   4.168  10.765 -0.9843 -1.3411 -0.2744
  726MPD2    H210788   4.193   4.500  10.573 -0.8622  0.6907  0.8794
  726MPD2    H310789   4.179   4.369  10.760 -0.6385  1.2665 -0.2453
  726MPD2     N10790   3.874   4.085  10.590 -0.1231 -0.5523 -0.6255
  726MPD2    H510791   3.896   4.016  10.661 -1.3702 -0.9268 -0.5989
  726MPD2    N110792   4.010   4.498  10.368  0.8189  0.2703 -0.1614
  726MPD2    H710793   3.959   4.458  10.289 -1.5681  1.0327  0.9835
  727TMC3    C110794   4.074   4.685  10.221  0.6806  0.1589 -0.4191
  727TMC3    C210795   4.188   0.022  10.187  0.1025  0.0208  1.0540
  727TMC3    C310796   4.166   0.116  10.092  0.5148  0.1655 -0.4762
  727TMC3    C410797   3.954   4.702  10.156  0.6308 -0.3638 -0.0396
  727TMC3    C510798   3.942   0.062  10.060 -0.1105  0.7497  0.1385
  727TMC3    C610799   4.050   0.137  10.026 -0.2236 -0.0335 -0.4686
  727TMC3     C10800   4.081   4.616  10.355 -0.1997  0.5365 -0.1538
  727TMC3     O10801   4.164   4.665  10.429 -0.2805 -1.1883  0.3974
  727TMC3     H10802   4.275   0.033  10.251  1.1950 -1.1124 -0.2492
  727TMC3    H110803   3.862   4.657  10.193  1.2433 -1.1073  0.5919
  727TMC3    H210804   4.045   0.199   9.936 -0.4079 -1.1581 -1.2360
  727TMC3    C710805   3.828   0.069   9.973 -0.3029 -0.3757  0.0596
  727TMC3    C810806   4.269   0.217  10.078 -0.0974 -1.0748  0.9018
  727TMC3    O110807   3.850   0.128   9.866 -0.4642 -0.1524  0.3448
  727TMC3    O210808   4.387   0.178  10.067 -0.0549  0.3967  0.0277
  728TMC3    C110809   4.031   2.001  14.946 -0.2114  0.1803  0.2721
  728TMC3    C210810   4.152   1.954  14.909 -1.0958 -0.3316  0.4153
  728TMC3    C310811   4.157   1.923  14.779 -0.1908 -0.5749 -0.0688
  728TMC3    C410812   3.921   2.012  14.863  0.7749  0.5338  0.2944
  728TMC3    C510813   3.952   1.998  14.728  0.3500  0.9029 -0.0463
  728TMC3    C610814   4.057   1.930  14.686  0.4317 -0.0388 -0.1051
  728TMC3     C10815   4.019   2.031  15.087 -0.1257 -0.2583  0.4155
  728TMC3     O10816   4.124   2.068  15.134 -0.0907  0.0215 -0.0136
  728TMC3     H10817   4.223   1.903  14.974 -1.0334 -0.2924  0.3784
  728TMC3    H110818   3.824   2.055  14.887  0.1792 -0.3721 -0.4627
  728TMC3    H210819   4.080   1.925  14.580 -1.6264 -0.2204 -0.5463
  728TMC3    C710820   3.872   2.067  14.617 -0.5958 -0.6560 -0.3399
  728TMC3    C810821   4.290   1.899  14.726  0.2564  0.0570 -0.1619
  728TMC3    O110822   3.838   1.998  14.520  0.1279  0.2923 -0.2956
  728TMC3    O210823   4.298   1.827  14.627 -0.2919  0.5716 -0.8694
  729MPD2     C10824   1.234   3.275  16.489  0.4197  0.6272  0.2996
  729MPD2    C110825   1.370   3.270  16.494  0.0177  0.4407 -0.3709
  729MPD2    C210826   1.443   3.293  16.610 -0.2095  0.2078  0.0332
  729MPD2    C310827   1.370   3.319  16.728  0.4572 -0.4316  0.1210
  729MPD2    C410828   1.232   3.329  16.726 -0.1190  0.1508  0.5738
  729MPD2    C510829   1.170   3.303  16.604  0.1550  0.3205  0.6230
  729MPD2     H10830   1.550   3.307  16.612 -0.1993  0.0484  0.8444
  729MPD2    H110831   1.176   3.338  16.818 -0.1359 -0.1560  0.5933
  729MPD2    H210832   1.177   3.267  16.397  1.4060 -0.2837 -0.2244
  729MPD2    H310833   1.062   3.289  16.603  0.1905 -0.0239  1.9041
  729MPD2     N10834   1.433   3.327  16.854  0.3420  0.5634 -0.0734
  729MPD2    H510835   1.377   3.374  16.925  0.8334 -0.5785  1.0642
  729MPD2    N110836   1.425   3.257  16.359 -0.0290 -0.5819  0.1907
  729MPD2    H710837   1.357   3.237  16.286 -1.2749 -0.2359  1.2537
  730TMC3    C110838   1.608   3.361  17.007 -0.3296 -0.8364 -0.5394
  730TMC3    C210839   1.717   3.434  16.995  0.2424  0.2495  0.3524
  730TMC3    C310840   1.715   3.562  17.041 -0.1892 -0.1269  0.0036
  730TMC3    C410841   1.501   3.400  17.084 -0.2622 -0.2019 -0.3597
  730TMC3    C510842   1.507   3.521  17.142 -0.5315 -0.0455  0.5279
  730TMC3    C610843   1.621   3.597  17.135  0.1386 -0.4387  0.0753
  730TMC3     C10844   1.568   3.308  16.883 -0.5061 -0.9165  0.2049
  730TMC3     O10845   1.655   3.262  16.813  0.8485 -0.1287  0.2256
  730TMC3     H10846   1.801   3.406  16.932  1.3992  1.8622  1.1746
  730TMC3    H110847   1.407   3.346  17.085 -0.9282  0.9642  1.0814
  730TMC3    H210848   1.609   3.698  17.172  0.4614 -0.2317 -0.3790
  730TMC3    C710849   1.391   3.602  17.107  0.2261  0.0958 -0.6321
  730TMC3    C810850   1.774   3.658  16.952  0.1659 -0.0693  0.2446
  730TMC3    O110851   1.324   3.557  17.015  0.0507  0.1204  0.0312
  730TMC3    O210852   1.816   3.617  16.848  0.4020 -0.1554  0.9281
  731MPD2     C10853   1.277   1.204  12.126 -0.6621 -0.0544 -1.3206
  731MPD2    C110854   1.398   1.246  12.171 -0.7027  1.0024  0.1917
  731MPD2    C210855   1.436   1.187  12.294 -0.5795 -0.2837  0.5241
  731MPD2    C310856   1.367   1.090  12.357  0.3858  0.1197 -0.2032
  731MPD2    C410857   1.247   1.054  12.306 -0.1142  0.2353 -0.1959
  731MPD2    C510858   1.201   1.113  12.195  0.1542 -0.0007  0.2911
  731MPD2     H10859   1.526   1.230  12.336 -0.7351  0.2064  0.3578
  731MPD2    H110860   1.182   0.978  12.349  0.9783 -0.3378  0.4478
  731MPD2    H210861   1.233   1.237  12.033 -0.0540  1.4257 -1.0846
  731MPD2    H310862   1.107   1.079  12.152 -0.4085 -0.1813  1.6450
  731MPD2     N10863   1.423   1.040  12.477  0.5848  0.3263 -0.0739
  731MPD2    H510864   1.503   1.094  12.508  1.0300 -0.7547  0.6393
  731MPD2    N110865   1.483   1.341  12.106 -0.1914  0.2382 -0.2010
  731MPD2    H710866   1.441   1.385  12.024 -2.1362  0.0935  0.7120
  732TMC3    C110867   1.657   1.480  12.042 -0.5366  0.2544  0.0226
  732TMC3    C210868   1.565   1.554  11.971 -0.5142 -0.0614 -0.7096
  732TMC3    C310869   1.616   1.643  11.890 -0.0845 -0.4330  0.7052
  732TMC3    C410870   1.794   1.488  12.021 -0.0328 -0.3529 -0.3774
  732TMC3    C510871   1.837   1.587  11.932 -0.5121  0.2232 -0.3827
  732TMC3    C610872   1.749   1.666  11.863  0.1860 -0.0891  0.1256
  732TMC3     C10873   1.614   1.373  12.135  0.0944 -0.0468 -0.2681
  732TMC3     O10874   1.689   1.308  12.206 -0.2554  0.2001 -0.3144
  732TMC3     H10875   1.460   1.549  11.997 -0.4043  1.6799  0.0270
  732TMC3    H110876   1.867   1.426  12.070  1.0431  1.3580  0.1950
  732TMC3    H210877   1.787   1.728  11.783 -1.1489  0.3282 -0.1987
  732TMC3    C710878   1.984   1.608  11.920 -0.0139 -0.2031 -0.1013
  732TMC3    C810879   1.527   1.746  11.836  0.4916 -0.3354 -0.1052
  732TMC3    O110880   2.056   1.517  11.961  0.4648 -0.4379  0.1414
  732TMC3    O210881   1.576   1.858  11.816 -0.3590  0.5884 -0.0873
  733TMC3    C110882   2.480   4.350  12.871 -0.0847  0.8791  0.3143
  733TMC3    C210883   2.592   4.286  12.916 -0.4732  0.5284 -0.4270
  733TMC3    C310884   2.696   4.248  12.834  0.4266  0.1120 -0.0669
  733TMC3    C410885   2.476   4.378  12.737 -0.2279 -1.1660 -0.6538
  733TMC3    C510886   2.578   4.330  12.650  0.5367 -0.1541  0.5190
  733TMC3    C610887   2.688   4.268  12.699  0.3560 -0.1777  0.0168
  733TMC3     C10888   2.369   4.397  12.953  0.7136 -0.3967  0.3067
  733TMC3     O10889   2.287   4.459  12.889  0.1483 -0.0778  0.0498
  733TMC3     H10890   2.613   4.280  13.023 -1.0638 -2.2340 -0.4535
  733TMC3    H110891   2.384   4.422  12.699 -1.0920 -1.3873  1.1903
  733TMC3    H210892   2.774   4.233  12.643  0.7403  0.3403  0.2785
  733TMC3    C710893   2.577   4.385  12.514  0.2440  0.4155  0.1037
  733TMC3    C810894   2.831   4.248  12.899  0.0981  0.6954 -0.2945
  733TMC3    O110895   2.473   4.437  12.472 -0.7142  0.2182  0.0180
  733TMC3    O210896   2.833   4.271  13.019 -0.2040  0.0524  0.0451
  734MPD2     C10897   4.051   2.251  12.613  0.3447  0.6579 -0.2672
  734MPD2    C110898   3.976   2.203  12.509 -0.5072  0.1069  0.7988
  734MPD2    C210899   4.007   2.253  12.379  0.0296  0.4858 -0.4101
  734MPD2    C310900   4.093   2.357  12.366 -0.1466 -0.4547  0.5994
  734MPD2    C410901   4.152   2.417  12.478 -0.0127  0.1301 -0.6119
  734MPD2    C510902   4.131   2.362  12.597  0.3536 -0.3376 -0.1420
  734MPD2     H10903   3.956   2.214  12.292  1.1471  1.0252 -1.3084
  734MPD2    H110904   4.214   2.504  12.462  2.5252 -1.6956 -0.6325
  734MPD2    H210905   4.042   2.219  12.716 -1.5213  1.1223 -0.2783
  734MPD2    H310906   4.167   2.420  12.681 -0.0953  0.3585 -0.4292
  734MPD2     N10907   4.114   2.404  12.238 -0.8769 -0.5150  0.0899
  734MPD2    H510908   4.066   2.351  12.166 -0.0683 -2.3878  0.9078
  734MPD2    N110909   3.879   2.103  12.535 -0.1790  0.5998  0.6847
  734MPD2    H710910   3.866   2.076  12.632  2.2191 -0.7250  0.6263
  735TMC3    C110911   3.748   1.922  12.469  0.9150  0.1645  0.5724
  735TMC3    C210912   3.653   1.895  12.371  0.6495 -0.0540  0.0631
  735TMC3    C310913   3.656   1.780  12.301 -0.2177  0.2652  0.3616
  735TMC3    C410914   3.840   1.820  12.499 -1.2628  0.3026  0.2185
  735TMC3    C510915   3.853   1.716  12.412 -0.7920 -0.0446  0.5351
  735TMC3    C610916   3.756   1.693  12.320  0.2447  0.0802  0.0347
  735TMC3     C10917   3.804   2.049  12.436  0.1686 -0.1106 -0.2244
  735TMC3     O10918   3.800   2.071  12.317  0.3057 -0.0262 -0.2125
  735TMC3     H10919   3.588   1.977  12.342 -0.3710 -0.7096  0.4957
  735TMC3    H110920   3.925   1.845  12.561 -0.8732  1.2796 -0.7142
  735TMC3    H210921   3.760   1.612  12.248 -2.0527 -0.7388  0.8290
  735TMC3    C710922   3.989   1.678  12.372  0.1201 -0.6972  0.3827
  735TMC3    C810923   3.635   1.798  12.160 -0.3815  0.3054  0.6579
  735TMC3    O110924   4.075   1.770  12.379  0.3027 -0.2112 -0.6251
  735TMC3    O210925   3.602   1.696  12.093 -0.5434  0.2386  0.3976
  736MPD2     C10926   4.099   1.380  12.181  0.2512 -0.4410  0.3668
  736MPD2    C110927   4.097   1.514  12.220 -0.1647  0.3852 -0.0777
  736MPD2    C210928   4.199   1.602  12.171 -0.4435 -0.4185  0.3590
  736MPD2    C310929   4.296   1.549  12.083 -0.7273  0.0437 -0.2576
  736MPD2    C410930   4.298   1.410  12.055 -0.2669  0.1996  0.1407
  736MPD2    C510931   4.195   1.324  12.096 -0.1778 -0.4292  0.4083
  736MPD2     H10932   4.193   1.706  12.200  0.0778 -0.5694  1.0127
  736MPD2    H110933   4.381   1.373  11.995 -1.3114 -0.9547 -0.5728
  736MPD2    H210934   4.013   1.320  12.207  0.3587 -1.4835 -1.7060
  736MPD2    H310935   4.191   1.222  12.060 -0.3395 -0.4419  0.4605
  736MPD2     N10936   4.406   1.622  12.032 -0.2973 -0.4762  0.4170
  736MPD2    H510937   4.463   1.570  11.966 -0.8442 -0.3102 -0.1945
  736MPD2    N110938   3.992   1.558  12.302  0.2464 -0.5139  0.2245
  736MPD2    H710939   3.910   1.502  12.321 -1.2110  1.1525 -1.1737
  737TMC3    C110940   4.563   1.793  11.987  0.1039 -0.7118  0.3815
  737TMC3    C210941   4.614   1.919  12.016 -0.1018  0.6719 -0.4889
  737TMC3    C310942   4.723   1.957  11.939 -0.3108 -0.1815 -0.0424
  737TMC3    C410943   4.623   1.698  11.907  0.3412 -0.0589  0.4930
  737TMC3    C510944   4.730   1.742  11.833 -0.4823  0.2251  0.6965
  737TMC3    C610945   0.042   1.870  11.844  0.0740  0.1188 -0.9492
  737TMC3     C10946   4.445   1.745  12.069  0.6860  0.3248 -0.0669
  737TMC3     O10947   4.404   1.822  12.151  0.2172 -0.1906  0.0690
  737TMC3     H10948   4.570   1.977  12.097 -0.8182 -0.7719  0.1705
  737TMC3    H110949   4.588   1.596  11.895 -0.2512  0.2341 -0.2764
  737TMC3    H210950   0.132   1.901  11.791  1.5771 -0.2426  1.3572
  737TMC3    C710951   0.074   1.650  11.756  0.0380  0.0148 -0.1938
  737TMC3    C810952   0.009   2.101  11.919 -0.0838 -0.6132  1.0359
  737TMC3    O110953   0.049   1.529  11.768  0.4054  0.9461  0.0447
  737TMC3    O210954   4.691   2.170  12.005 -0.0039  0.0299  0.0678
  738MPD2     C10955   0.270   0.787  15.415 -0.6529  0.1305  0.0478
  738MPD2    C110956   0.279   0.750  15.282 -0.4994  0.0598  0.2643
  738MPD2    C210957   0.376   0.807  15.204 -0.6489  0.1065  0.5743
  738MPD2    C310958   0.463   0.902  15.254 -0.4435  0.8544 -0.0324
  738MPD2    C410959   0.436   0.949  15.384 -0.2263  0.0253  0.3231
  738MPD2    C510960   0.343   0.891  15.463  0.3926 -0.1323 -0.1603
  738MPD2     H10961   0.392   0.769  15.105 -1.9587  0.0558  0.3733
  738MPD2    H110962   0.493   1.027  15.433 -0.1443 -0.2148  0.6100
  738MPD2    H210963   0.207   0.737  15.488 -1.3103  0.1189 -0.5356
  738MPD2    H310964   0.332   0.927  15.564  2.1754  0.6847 -0.2608
  738MPD2     N10965   0.587   0.943  15.197  0.4391 -0.5745  0.0315
  738MPD2    H510966   0.656   0.979  15.263 -0.5245  0.4704  0.4844
  738MPD2    N110967   0.200   0.640  15.234 -0.0266 -0.1594  0.0840
  738MPD2    H710968   0.230   0.588  15.153  0.3480  0.2166 -0.0216
  739TMC3    C110969   0.742   0.982  15.028 -0.2222 -0.4155  0.0637
  739TMC3    C210970   0.754   1.017  14.896  0.1007  0.1460 -0.3361
  739TMC3    C310971   0.874   1.061  14.854  0.7973 -0.7588 -0.3274
  739TMC3    C410972   0.847   0.975  15.119 -0.0984  0.1513 -0.5418
  739TMC3    C510973   0.970   1.014  15.064 -0.0314 -0.1084  0.2079
  739TMC3    C610974   0.985   1.062  14.936 -0.4298 -0.2103  0.6010
  739TMC3     C10975   0.622   0.915  15.066 -0.4686 -0.0262  0.5017
  739TMC3     O10976   0.559   0.862  14.973 -0.1712  0.0484 -0.3847
  739TMC3     H10977   0.670   1.013  14.828 -1.6120 -0.9682  1.8458
  739TMC3    H110978   0.837   0.912  15.206  0.5527 -1.0021 -1.2953
  739TMC3    H210979   1.089   1.078  14.908 -0.4317 -2.7653 -0.9538
  739TMC3    C710980   1.079   1.045  15.154  0.4943  0.4971 -0.2499
  739TMC3    C810981   0.892   1.103  14.712  0.5014  0.0422  0.2316
  739TMC3    O110982   1.178   1.106  15.111  0.7704 -0.1722 -0.2166
  739TMC3    O210983   0.801   1.077  14.638 -0.2144  0.2379  0.3104
  740TMC3    C110984   0.759   2.385  14.082 -0.5619 -0.4888 -0.1624
  740TMC3    C210985   0.801   2.455  14.194 -0.5687 -0.6650 -0.5432
  740TMC3    C310986   0.896   2.553  14.179 -0.1881 -1.2991  0.4944
  740TMC3    C410987   0.806   2.421  13.958 -0.2751  0.1585 -0.8911
  740TMC3    C510988   0.906   2.512  13.950 -0.2914 -0.0110 -0.0099
  740TMC3    C610989   0.952   2.582  14.059 -0.1754  0.7772 -0.1429
  740TMC3     C10990   0.659   2.292  14.092 -0.6971  0.7520  0.2303
  740TMC3     O10991   0.589   2.282  13.992 -0.4893 -0.0980  0.5194
  740TMC3     H10992   0.769   2.438  14.296 -1.5785 -0.2723 -0.7928
  740TMC3    H110993   0.781   2.354  13.876 -0.6316 -0.1042 -0.5637
  740TMC3    H210994   1.038   2.646  14.066 -0.4152  1.1261 -0.3708
  740TMC3    C710995   1.006   2.465  13.859 -0.1927 -0.5086 -0.2530
  740TMC3    C810996   0.958   2.599  14.297 -0.1227 -0.7806 -0.4318
  740TMC3    O110997   1.117   2.453  13.909 -0.0424 -0.0596 -0.0924
  740TMC3    O210998   0.978   2.515  14.386  0.6420  0.0386  0.4776
  741TMC3    C110999   0.879   1.547  14.406  0.0150 -0.0953  0.4153
  741TMC3    C211000   0.775   1.466  14.362  0.5951  0.2882 -0.2118
  741TMC3    C311001   0.723   1.373  14.446  0.4199 -0.1740 -0.3164
  741TMC3    C411002   0.914   1.560  14.539  0.4541 -0.3117  0.0957
  741TMC3    C511003   0.846   1.474  14.625 -0.2957  0.0828 -0.1064
  741TMC3    C611004   0.753   1.379  14.582 -0.6868  0.0402 -0.2299
  741TMC3     C11005   0.958   1.614  14.305  0.1130 -0.0927  0.5144
  741TMC3     O11006   0.956   1.564  14.192  0.2029  0.4296  0.1710
  741TMC3     H11007   0.749   1.473  14.257 -1.9075  1.7754  0.5172
  741TMC3    H111008   0.994   1.621  14.580  1.4362 -1.0511 -0.7167
  741TMC3    H211009   0.708   1.315  14.657  0.5781 -0.9547 -0.3144
  741TMC3    C711010   0.902   1.462  14.755 -0.3444  0.0501  0.4459
  741TMC3    C811011   0.609   1.306  14.392  0.1063 -0.2405 -0.1953
  741TMC3    O111012   1.022   1.456  14.764 -0.2566  0.4670 -0.0822
  741TMC3    O211013   0.559   1.348  14.291  0.2836  0.3038  1.2084
  742TMC3    C111014   0.254   4.544  15.087  0.4315 -0.0627 -0.3577
  742TMC3    C211015   0.203   4.501  14.965 -0.1150 -0.5502  0.6318
  742TMC3    C311016   0.297   4.478  14.865 -0.8514  0.9695 -0.0726
  742TMC3    C411017   0.396   4.539  15.111 -0.1179 -0.1545  0.5681
  742TMC3    C511018   0.476   4.485  15.017 -0.7300 -0.1942 -0.0767
  742TMC3    C611019   0.430   4.458  14.894  0.1962 -0.8949 -0.3157
  742TMC3     C11020   0.165   4.569  15.197  0.0506 -0.2742 -0.4294
  742TMC3     O11021   0.049   4.538  15.197  0.4856 -0.0582  0.3587
  742TMC3     H11022   0.098   4.512  14.941  0.3686 -0.2654 -1.2964
  742TMC3    H111023   0.448   4.573  15.199 -0.1306 -2.0813  1.3286
  742TMC3    H211024   0.493   4.421  14.814  1.1819 -3.0703  1.4767
  742TMC3    C711025   0.619   4.493  15.045 -1.1275  0.2580  0.7109
  742TMC3    C811026   0.255   4.468  14.723 -0.2872  1.3423 -0.3535
  742TMC3    O111027   0.658   4.476  15.160 -0.2167 -0.5256  0.1482
  742TMC3    O211028   0.338   4.501  14.642  0.1174 -0.3418 -0.1378
  743MPD2     C11029   2.198   1.740   0.998  0.1935 -0.6018  0.4359
  743MPD2    C111030   2.257   1.628   0.940  0.0528  1.4985 -0.0496
  743MPD2    C211031   2.352   1.564   1.015  0.2665  0.6089  0.7049
  743MPD2    C311032   2.370   1.596   1.142 -0.2215 -0.3494 -0.1395
  743MPD2    C411033   2.293   1.689   1.205  0.0540 -0.1097 -0.4260
  743MPD2    C511034   2.208   1.755   1.129  0.0944  0.6006  0.1884
  743MPD2     H11035   2.425   1.505   0.961  0.5238  0.4373  1.2405
  743MPD2    H111036   2.312   1.715   1.308 -0.6587 -1.0586 -0.0446
  743MPD2    H211037   2.130   1.812   0.953  2.7098  1.5019  0.0661
  743MPD2    H311038   2.159   1.834   1.184 -1.9233  1.1190 -2.3280
  743MPD2     N11039   2.478   1.529   1.212 -0.1713  0.3413 -0.5258
  743MPD2    H511040   2.528   1.460   1.157  1.2251  0.2705  0.8245
  743MPD2    N111041   2.247   1.615   0.800 -0.6725 -0.1367 -0.0196
  743MPD2    H711042   2.220   1.694   0.743 -2.3244 -1.6682 -1.3429
  744TMC3    C111043   2.254   1.494   0.591 -0.1946  0.1708  0.2300
  744TMC3    C211044   2.234   1.614   0.526  0.1465 -0.3009 -0.6135
  744TMC3    C311045   2.208   1.608   0.392  0.1276 -0.4753  0.1703
  744TMC3    C411046   2.243   1.381   0.532 -0.1311  0.3399  0.6130
  744TMC3    C511047   2.226   1.372   0.399  0.9755 -0.2048  0.0278
  744TMC3    C611048   2.210   1.485   0.325 -0.5964  0.1928 -0.4494
  744TMC3     C11049   2.270   1.494   0.734 -0.4601  0.1876 -0.3983
  744TMC3     O11050   2.295   1.392   0.793 -0.6747 -0.3434  0.2704
  744TMC3     H11051   2.246   1.712   0.570  1.6695 -0.8678  0.2099
  744TMC3    H111052   2.264   1.288   0.583 -1.4749  0.0941  0.7295
  744TMC3    H211053   2.213   1.478   0.217  0.0913 -1.2507 -0.3322
  744TMC3    C711054   2.295   1.264   0.336  0.1682 -0.5716 -0.7734
  744TMC3    C811055   2.225   1.737   0.320 -0.3881  0.5553 -0.1250
  744TMC3    O111056   2.365   1.189   0.405 -0.0205  0.1454  0.3629
  744TMC3    O211057   2.296   1.826   0.372 -0.1828  0.1789  0.0736
  745TMC3    C111058   0.888   4.155  13.542  0.3528  0.1309 -0.2732
  745TMC3    C211059   0.766   4.151  13.603 -0.0017 -0.3617 -0.5640
  745TMC3    C311060   0.661   4.221  13.551  0.0124  0.0597  0.5377
  745TMC3    C411061   0.913   4.225  13.427  0.3666  0.8982  0.3031
  745TMC3    C511062   0.803   4.282  13.371 -0.0424  0.3752 -0.7679
  745TMC3    C611063   0.682   4.286  13.430  0.0746 -0.0093  0.3432
  745TMC3     C11064   0.983   4.169  13.649 -0.2691 -0.4772  0.6152
  745TMC3     O11065   0.973   4.105  13.751 -0.1886  0.2653 -0.2650
  745TMC3     H11066   0.742   4.077  13.679 -0.9343 -1.8628 -2.2910
  745TMC3    H111067   1.013   4.239  13.388 -0.3611 -1.1060 -2.2258
  745TMC3    H211068   0.598   4.342  13.391  0.6586 -0.0921 -1.0163
  745TMC3    C711069   0.817   4.381  13.259  0.1909 -0.2740  0.2496
  745TMC3    C811070   0.604   4.317  13.651  1.0243 -0.2911 -0.1227
  745TMC3    O111071   0.714   4.430  13.211 -0.7185 -0.2255 -0.0725
  745TMC3    O211072   0.506   4.383  13.624  0.4512  0.3096  0.5261
  746TMC3    C111073   2.784   1.593  11.183  0.1705  0.7003 -0.2019
  746TMC3    C211074   2.897   1.569  11.110 -0.1689 -0.0766  0.1542
  746TMC3    C311075   2.926   1.442  11.065 -0.2035 -0.4738 -0.1039
  746TMC3    C411076   2.720   1.488  11.250  0.4694 -0.1416  0.0117
  746TMC3    C511077   2.749   1.362  11.202  0.5782 -0.0519 -0.3450
  746TMC3    C611078   2.841   1.337  11.101  0.6936  0.4612  0.0208
  746TMC3     C11079   2.743   1.733  11.212 -0.4013 -0.0844  0.6581
  746TMC3     O11080   2.690   1.758  11.318 -0.1249 -0.0882  0.1567
  746TMC3     H11081   2.970   1.647  11.090  1.1492 -1.5990 -0.9463
  746TMC3    H111082   2.639   1.504  11.321 -1.8199 -1.1168 -2.3703
  746TMC3    H211083   2.860   1.233  11.077 -2.0386  0.4297 -1.9499
  746TMC3    C711084   2.649   1.258  11.221  0.7258  0.2064  0.6566
  746TMC3    C811085   3.023   1.421  10.958  0.9698 -0.3413 -0.2301
  746TMC3    O111086   2.619   1.195  11.119  0.2223 -0.1159  0.1915
  746TMC3    O211087   3.042   1.305  10.930 -0.2394 -0.4154 -0.1796
  747TMC3    C111088   0.855   1.902  11.102  0.2167  0.7921  0.0882
  747TMC3    C211089   0.787   1.796  11.158  0.0083  0.0159 -0.5625
  747TMC3    C311090   0.725   1.814  11.278 -0.3801  0.2245  0.2132
  747TMC3    C411091   0.873   2.018  11.169 -0.9693 -0.2195  0.1543
  747TMC3    C511092   0.799   2.032  11.286  0.8044  0.8183 -0.0205
  747TMC3    C611093   0.721   1.936  11.343 -0.1766 -0.8137  0.5886
  747TMC3     C11094   0.925   1.897  10.974  0.3705  0.3002  0.3800
  747TMC3     O11095   0.955   1.999  10.919  0.1272  0.1734 -0.4407
  747TMC3     H11096   0.783   1.699  11.110  0.8863  0.2971 -1.2119
  747TMC3    H111097   0.942   2.094  11.135 -1.1797 -0.5878 -1.1131
  747TMC3    H211098   0.662   1.948  11.433 -0.4859 -0.7863  0.3844
  747TMC3    C711099   0.835   2.129  11.380  0.1364 -0.3319  0.0013
  747TMC3    C811100   0.642   1.706  11.320  0.1961 -0.1891 -0.2013
  747TMC3    O111101   0.740   2.180  11.441  0.1305 -0.2223 -0.1040
  747TMC3    O211102   0.671   1.600  11.273  0.1215 -0.0496  0.2093
  748MPD2     C11103   1.704   2.021   1.203  0.0838 -0.0749 -0.5165
  748MPD2    C111104   1.766   2.004   1.322  0.0121  0.4909  0.5056
  748MPD2    C211105   1.903   2.044   1.322  0.3745  0.1661  0.0283
  748MPD2    C311106   1.965   2.096   1.212  0.1173 -0.1682 -0.2338
  748MPD2    C411107   1.891   2.118   1.101  0.8563  0.1474  0.4029
  748MPD2    C511108   1.763   2.072   1.092  0.6853 -0.4518 -0.8239
  748MPD2     H11109   1.953   2.023   1.416 -1.5864  0.9246  1.2374
  748MPD2    H111110   1.944   2.162   1.017  0.3070  0.0354 -0.0072
  748MPD2    H211111   1.601   1.988   1.192  0.0212 -0.3833  1.0776
  748MPD2    H311112   1.701   2.097   1.007 -1.7734  0.3812  1.2221
  748MPD2     N11113   2.110   2.108   1.219 -0.3203 -0.0068  0.0668
  748MPD2    H511114   2.158   2.080   1.305 -0.6424  0.7696  0.5000
  748MPD2    N111115   1.689   1.959   1.429  0.0377 -0.3098  0.3296
  748MPD2    H711116   1.588   1.961   1.424  0.0931 -0.0881 -0.8442
  749TMC3    C111117   2.335   2.144   1.157  0.2909 -0.1381 -0.2748
  749TMC3    C211118   2.382   2.056   1.245  0.2408 -0.2044 -0.0933
  749TMC3    C311119   2.512   2.047   1.256  0.6155  0.2061  0.4698
  749TMC3    C411120   2.424   2.212   1.069  0.1971  0.8028  0.8176
  749TMC3    C511121   2.564   2.196   1.078 -0.3933  0.0911  0.2306
  749TMC3    C611122   2.608   2.105   1.171  0.1109 -0.0232  0.3104
  749TMC3     C11123   2.194   2.156   1.123  0.7536  0.6269  0.2607
  749TMC3     O11124   2.163   2.216   1.021  0.0821 -0.2058 -0.1469
  749TMC3     H11125   2.316   1.983   1.292  0.6130 -0.5246 -0.0663
  749TMC3    H111126   2.379   2.294   1.015 -1.8130 -0.6848  0.2753
  749TMC3    H211127   2.715   2.092   1.185  0.5862  1.3356 -1.9963
  749TMC3    C711128   2.649   2.312   1.063  0.4340 -0.0261 -0.3362
  749TMC3    C811129   2.564   1.963   1.360  1.0287 -0.1748  1.0349
  749TMC3    O111130   2.607   2.423   1.092  0.2822  0.1664 -0.0261
  749TMC3    O211131   2.511   1.972   1.470  0.0130  0.1584 -0.0527
  750MPD2     C11132   3.265   3.630  11.191  0.5321  0.7823 -0.0839
  750MPD2    C111133   3.171   3.573  11.273 -0.3750  0.1281 -0.6885
  750MPD2    C211134   3.142   3.440  11.248  0.1762  0.1095 -0.3417
  750MPD2    C311135   3.210   3.362  11.154 -0.1396  0.3789 -0.1440
  750MPD2    C411136   3.318   3.420  11.087  0.6613 -0.2191 -0.6331
  750MPD2    C511137   3.339   3.556  11.097 -0.1720 -0.0136  0.1611
  750MPD2     H11138   3.062   3.392  11.302  0.8717 -0.3337  0.2978
  750MPD2    H111139   3.377   3.371  11.011  1.3745 -1.2584  0.5875
  750MPD2    H211140   3.298   3.730  11.217 -1.2068  1.2456  0.2958
  750MPD2    H311141   3.420   3.600  11.040  0.2192  0.4912  1.0977
  750MPD2     N11142   3.188   3.223  11.128 -0.0615 -0.0504  0.3559
  750MPD2    H511143   3.256   3.183  11.064 -0.7077 -0.1973 -0.2387
  750MPD2    N111144   3.107   3.645  11.375 -0.0376 -0.3149  0.6498
  750MPD2    H711145   3.107   3.747  11.368 -0.5609 -0.3268  0.4967
  751TMC3    C111146   3.081   3.013  11.106 -0.2663  0.0623 -0.2769
  751TMC3    C211147   3.004   2.919  11.162  0.2370 -0.4718  0.2523
  751TMC3    C311148   3.004   2.793  11.099 -0.1402 -0.4322  0.5858
  751TMC3    C411149   3.160   2.988  10.987  0.0532 -0.1545 -0.2794
  751TMC3    C511150   3.171   2.859  10.954 -0.1222  0.2622  1.2843
  751TMC3    C611151   3.091   2.760  11.002 -0.0965 -0.2300  0.6035
  751TMC3     C11152   3.092   3.143  11.178 -0.6966  0.3440 -0.4548
  751TMC3     O11153   3.011   3.162  11.269 -0.2348 -0.0353  0.8413
  751TMC3     H11154   2.941   2.933  11.249  1.0685 -4.1939  1.4558
  751TMC3    H111155   3.212   3.062  10.928  1.0602 -0.1578  0.6016
  751TMC3    H211156   3.115   2.657  10.977 -0.8091 -0.5580  1.2887
  751TMC3    C711157   3.232   2.832  10.825  0.3365  0.6317 -0.3073
  751TMC3    C811158   2.884   2.711  11.099 -0.4992 -0.4990 -0.0059
  751TMC3    O111159   3.317   2.912  10.790 -0.6531 -0.1741 -0.5526
  751TMC3    O211160   2.892   2.631  11.005  0.1458  0.6967 -0.1380
  752TMC3    C111161   2.237   3.742  16.642 -0.7188 -0.4506  0.0884
  752TMC3    C211162   2.186   3.666  16.748 -0.5963 -0.1845 -0.2524
  752TMC3    C311163   2.141   3.742  16.854 -0.0802 -0.5352  0.0977
  752TMC3    C411164   2.238   3.876  16.637  0.6032  0.4612 -0.0198
  752TMC3    C511165   2.191   3.945  16.749  0.6380 -0.4264 -0.0442
  752TMC3    C611166   2.147   3.874  16.857  0.1390  0.5346 -0.0477
  752TMC3     C11167   2.283   3.668  16.525 -0.4202  0.5517 -0.2282
  752TMC3     O11168   2.375   3.723  16.467  0.0935  0.5990  0.4845
  752TMC3     H11169   2.194   3.558  16.746 -0.2329 -0.1414 -1.2167
  752TMC3    H111170   2.267   3.921  16.542 -1.7072  0.5015 -0.6948
  752TMC3    H211171   2.098   3.918  16.944  0.4255  0.3754  0.1950
  752TMC3    C711172   2.184   4.091  16.752 -0.8750  0.9830 -0.2692
  752TMC3    C811173   2.118   3.659  16.971 -0.0875  0.8610  0.1375
  752TMC3    O111174   2.196   4.146  16.645  0.7196  0.5026 -0.2220
  752TMC3    O211175   2.146   3.539  16.961 -0.3278  0.6903  0.2209
  753TMC3    C111176   4.036   3.931  13.969  0.0620  0.5380 -1.0541
  753TMC3    C211177   3.991   3.954  14.098 -0.2334  0.7831  0.5960
  753TMC3    C311178   4.043   3.878  14.201  1.1543 -0.1633 -0.0264
  753TMC3    C411179   4.131   3.835  13.936  0.9489  0.9524  0.5224
  753TMC3    C511180   4.167   3.755  14.043  0.4364  0.6252  0.2652
  753TMC3    C611181   4.130   3.780  14.175 -0.7213  0.7407  0.0567
  753TMC3     C11182   3.974   4.005  13.859  0.1536 -0.4031  0.1781
  753TMC3     O11183   3.858   4.041  13.862 -0.6226 -0.3838  0.3431
  753TMC3     H11184   3.936   4.046  14.117 -2.7804 -0.4587 -0.7747
  753TMC3    H111185   4.166   3.812  13.837 -1.2845  0.9474 -0.2607
  753TMC3    H211186   4.160   3.715  14.257 -1.3575  1.3397  0.7622
  753TMC3    C711187   4.277   3.659  14.029  0.0733 -0.4902  0.0814
  753TMC3    C811188   4.047   3.933  14.333  0.2151  0.8421  0.0854
  753TMC3    O111189   4.347   3.627  14.126 -0.1535 -0.0110  0.6746
  753TMC3    O211190   4.067   3.857  14.430  0.3074  0.6091  0.0472
  754MPD2     C11191   3.347   2.802  13.218  0.1953 -0.3112 -0.2034
  754MPD2    C111192   3.254   2.697  13.236  0.3181  0.2527 -0.1766
  754MPD2    C211193   3.116   2.726  13.250  1.3340 -0.5862 -0.7410
  754MPD2    C311194   3.077   2.856  13.262 -0.3323  0.5401  0.3326
  754MPD2    C411195   3.173   2.961  13.259  0.0665  0.0239  0.1468
  754MPD2    C511196   3.302   2.929  13.240 -0.2566  0.1555  0.4169
  754MPD2     H11197   3.047   2.643  13.247  1.5400 -0.7400 -1.3055
  754MPD2    H111198   3.142   3.064  13.267 -1.9576 -0.4267 -2.1463
  754MPD2    H211199   3.451   2.787  13.195  1.1335  3.6191  1.4607
  754MPD2    H311200   3.380   3.004  13.235 -1.1516  0.8871 -2.7478
  754MPD2     N11201   2.942   2.894  13.273 -0.3325  0.7866  0.1398
  754MPD2    H511202   2.915   2.992  13.267  0.4487  0.7525 -3.4781
  754MPD2    N111203   3.308   2.567  13.228  0.0856  0.4880 -0.5920
  754MPD2    H711204   3.400   2.570  13.185  0.6152 -0.3506  0.4777
  755MPD2     C11205   2.520   3.507  12.825 -0.0085  0.5937 -0.6633
  755MPD2    C111206   2.415   3.447  12.890 -0.0340 -0.6899 -0.2684
  755MPD2    C211207   2.434   3.335  12.965 -0.2623 -0.0736  0.0752
  755MPD2    C311208   2.558   3.266  12.966 -0.0700  0.0298  0.2798
  755MPD2    C411209   2.664   3.320  12.899  0.0507  0.1650 -0.5198
  755MPD2    C511210   2.641   3.441  12.832 -0.9951 -0.3483  0.3155
  755MPD2     H11211   2.348   3.303  13.023  0.4170  0.6992  1.5241
  755MPD2    H111212   2.760   3.270  12.900  0.5400  1.1014  0.9926
  755MPD2    H211213   2.512   3.604  12.777 -2.0584  0.2828 -0.9707
  755MPD2    H311214   2.727   3.488  12.785 -3.1248  1.5117 -1.7237
  755MPD2     N11215   2.585   3.148  13.037 -0.2168 -0.6590  0.5844
  755MPD2    H511216   2.682   3.117  13.039  0.2471  0.6495 -1.5710
  755MPD2    N111217   2.287   3.506  12.886 -0.1613  0.2501  0.2275
  755MPD2    H711218   2.231   3.480  12.967 -0.3060  0.0452  0.0609
  756MPD2     C11219   2.864   4.254   9.484 -0.0750 -0.1404 -0.0852
  756MPD2    C111220   2.759   4.211   9.566  0.2991  0.5200 -0.1076
  756MPD2    C211221   2.634   4.251   9.533  0.8795  0.3016 -0.0986
  756MPD2    C311222   2.613   4.325   9.421  0.4404 -0.1629 -0.1869
  756MPD2    C411223   2.721   4.385   9.353 -0.0125 -0.2530  0.4497
  756MPD2    C511224   2.845   4.345   9.382  0.2069 -1.0467  0.9094
  756MPD2     H11225   2.550   4.224   9.597  2.6308 -0.4221  1.9065
  756MPD2    H111226   2.714   4.454   9.270  0.1143  1.0366  1.5067
  756MPD2    H211227   2.968   4.229   9.501  0.2375  0.3390 -1.2859
  756MPD2    H311228   2.925   4.382   9.319 -0.6701  0.8159  0.8996
  756MPD2     N11229   2.479   4.355   9.397  0.0150 -0.0898  0.1951
  756MPD2    H511230   2.410   4.302   9.450 -0.9591 -0.1491 -1.1430
  756MPD2    N111231   2.778   4.147   9.691  0.2582  0.0533  0.0849
  756MPD2    H711232   2.697   4.138   9.751  0.2638  0.7460  0.1919
  757MPD2     C11233   1.888   3.826   9.613 -0.3698  0.6447 -0.0156
  757MPD2    C111234   2.024   3.846   9.643  0.0746  0.7620 -0.0832
  757MPD2    C211235   2.081   3.959   9.599 -0.5467  0.7854 -0.3218
  757MPD2    C311236   2.007   4.053   9.533  0.2880  0.1290 -0.3186
  757MPD2    C411237   1.879   4.025   9.490 -0.3465 -0.5282 -0.3718
  757MPD2    C511238   1.814   3.912   9.536  0.0137 -0.2379  0.2301
  757MPD2     H11239   2.183   3.989   9.621 -0.9071  1.9695 -0.2148
  757MPD2    H111240   1.821   4.096   9.433  1.7065  0.8923 -0.6979
  757MPD2    H211241   1.841   3.737   9.652 -0.6098  0.2129 -1.2789
  757MPD2    H311242   1.708   3.910   9.515 -0.4042  0.2623  2.3157
  757MPD2     N11243   2.076   4.170   9.502  0.2451 -0.6783  0.3335
  757MPD2    H511244   2.176   4.160   9.510 -0.0643 -3.2804  1.0118
  757MPD2    N111245   2.086   3.741   9.723  0.1460 -0.4942  0.2552
  757MPD2    H711246   2.031   3.657   9.740 -0.2310  0.1193  2.0442
  758MPD2     C11247   2.788   2.653  15.668  0.3930 -0.0872  0.9829
  758MPD2    C111248   2.803   2.567  15.768  0.5811  0.4871  0.1364
  758MPD2    C211249   2.725   2.588  15.877 -0.5982 -0.3405  0.5768
  758MPD2    C311250   2.648   2.708  15.895 -0.1251 -0.0073 -0.3988
  758MPD2    C411251   2.645   2.799  15.795 -0.1063 -0.0430 -0.0807
  758MPD2    C511252   2.719   2.769  15.682  0.1253 -0.0136 -0.3871
  758MPD2     H11253   2.740   2.528  15.966 -0.9275  1.1943  1.6904
  758MPD2    H111254   2.594   2.894  15.805  0.9581  0.6125 -0.8971
  758MPD2    H211255   2.832   2.635  15.571  2.8054 -1.5337  2.3691
  758MPD2    H311256   2.715   2.851  15.612  2.4190  0.7128  0.3363
  758MPD2     N11257   2.586   2.739  16.018 -0.4590  0.6069  0.1955
  758MPD2    H511258   2.563   2.836  16.040 -0.3320  0.9609 -1.2662
  758MPD2    N111259   2.888   2.460  15.751 -0.1342 -0.1655 -0.5317
  758MPD2    H711260   2.943   2.457  15.665  1.8494 -1.4153  0.7986
  759MPD2     C11261   1.992   1.128   9.717  0.1101  0.1944 -0.6335
  759MPD2    C111262   1.942   1.163   9.840 -0.5735  0.2542 -0.0970
  759MPD2    C211263   1.899   1.295   9.858 -0.4488 -0.3908  0.1077
  759MPD2    C311264   1.916   1.392   9.756 -0.1597 -0.6994 -0.8498
  759MPD2    C411265   1.970   1.351   9.635  0.2756  0.4729  0.4072
  759MPD2    C511266   2.018   1.225   9.620 -0.3373  0.0566  0.2718
  759MPD2     H11267   1.865   1.335   9.953 -1.4069 -0.4651 -0.2117
  759MPD2    H111268   1.997   1.422   9.557  0.7615  1.2371  1.2788
  759MPD2    H211269   2.031   1.033   9.683  0.3723  1.0614 -2.7739
  759MPD2    H311270   2.062   1.197   9.525  2.5430  0.7542  1.3998
  759MPD2     N11271   1.870   1.523   9.781 -0.0609 -0.6667  0.4654
  759MPD2    H511272   1.823   1.543   9.869  0.2836  0.9356  0.3015
  759MPD2    N111273   1.926   1.076   9.950 -0.1309 -0.1818  0.0531
  759MPD2    H711274   1.872   1.105  10.031 -0.4038 -0.3309 -0.0748
  760MPD2     C11275   1.080   3.162  11.843  0.0632 -0.2935  0.0795
  760MPD2    C111276   1.211   3.159  11.813 -1.0726  0.1550  0.4765
  760MPD2    C211277   1.270   3.035  11.827 -0.2188 -0.0049 -0.3174
  760MPD2    C311278   1.208   2.922  11.877 -0.1836  0.2005 -0.2594
  760MPD2    C411279   1.074   2.929  11.902 -0.4274  0.6003  0.0782
  760MPD2    C511280   1.012   3.050  11.887 -0.0177 -0.3212 -0.0457
  760MPD2     H11281   1.372   3.030  11.789 -0.2723 -1.3244 -0.2938
  760MPD2    H111282   1.015   2.840  11.918  0.7593  0.0080  1.2005
  760MPD2    H211283   1.018   3.251  11.841 -0.7844 -0.8777  0.3154
  760MPD2    H311284   0.906   3.055  11.908 -0.1666 -1.5126 -0.5505
  760MPD2     N11285   1.276   2.800  11.896 -0.3347 -0.7683 -0.4698
  760MPD2    H511286   1.230   2.729  11.951 -1.2205 -0.6424 -1.0542
  760MPD2    N111287   1.289   3.262  11.765  0.2908 -0.3238 -0.1579
  760MPD2    H711288   1.388   3.243  11.754  0.1073 -1.5181  0.2814
  761MPD2     C11289   2.449   2.506  11.252  0.6379  0.2601  0.6382
  761MPD2    C111290   2.529   2.485  11.138 -0.3912  0.8313 -0.4174
  761MPD2    C211291   2.632   2.564  11.111  0.6993 -0.0214  0.4936
  761MPD2    C311292   2.666   2.672  11.192 -0.2205  0.0183  0.2630
  761MPD2    C411293   2.587   2.700  11.294 -0.0825  0.4779 -0.0922
  761MPD2    C511294   2.483   2.613  11.328  0.4124  0.5569  0.1952
  761MPD2     H11295   2.699   2.524  11.035 -0.8644  0.8076 -1.2887
  761MPD2    H111296   2.605   2.784  11.360  0.2223  2.0075 -2.1134
  761MPD2    H211297   2.362   2.448  11.281  1.1710 -0.6703  0.3508
  761MPD2    H311298   2.434   2.636  11.421  0.9295 -1.0545  0.8626
  761MPD2     N11299   2.782   2.749  11.176 -0.4186 -0.1066  0.0409
  761MPD2    H511300   2.800   2.835  11.229 -0.5304 -0.1806  0.2019
  761MPD2    N111301   2.494   2.365  11.064 -0.4568  0.8542 -0.2013
  761MPD2    H711302   2.415   2.308  11.093 -0.8593  1.9405  0.8461
  762MPD2     C11303   2.740   2.263  10.311 -0.1474 -0.2797 -0.3727
  762MPD2    C111304   2.767   2.191  10.426 -0.6590  0.4291  0.5760
  762MPD2    C211305   2.900   2.176  10.466  0.7044  0.6482 -0.4083
  762MPD2    C311306   3.001   2.231  10.384 -0.0862 -0.2268  0.2556
  762MPD2    C411307   2.967   2.299  10.272 -0.4693  0.1130  0.3429
  762MPD2    C511308   2.835   2.318  10.236  1.1157  1.4868  0.6789
  762MPD2     H11309   2.924   2.118  10.555  0.7027  1.4956  0.1413
  762MPD2    H111310   3.040   2.325  10.196  0.0461  1.1234  1.1834
  762MPD2    H211311   2.636   2.261  10.281  0.3348  0.4095 -2.0718
  762MPD2    H311312   2.809   2.370  10.145 -0.4515 -0.6067 -0.0433
  762MPD2     N11313   3.132   2.197  10.423  0.1986  0.2441  0.1642
  762MPD2    H511314   3.151   2.159  10.515 -0.4189 -2.5574 -0.8661
  762MPD2    N111315   2.662   2.148  10.510 -0.6634 -0.4918  0.1633
  762MPD2    H711316   2.573   2.190  10.487 -0.5722 -1.0111 -1.1191
  763MPD2     C11317   4.386   2.796  15.974  0.0868 -0.0046 -0.5886
  763MPD2    C111318   4.481   2.870  15.902  0.4441  0.1120 -0.1420
  763MPD2    C211319   4.511   2.997  15.935  0.7751  0.3602 -0.1566
  763MPD2    C311320   4.443   3.053  16.044  1.0777  0.4715 -0.5816
  763MPD2    C411321   4.348   2.981  16.113 -0.6791  0.3762  0.6541
  763MPD2    C511322   4.313   2.850  16.079 -0.4540  0.1450 -0.6864
  763MPD2     H11323   4.591   3.046  15.880 -0.0141 -1.4945 -2.9684
  763MPD2    H111324   4.322   3.015  16.213  3.0175  0.0882  1.7204
  763MPD2    H211325   4.356   2.694  15.950 -0.6515 -0.1790  1.0745
  763MPD2    H311326   4.241   2.791  16.135 -0.9490  0.7547 -0.6864
  763MPD2     N11327   4.478   3.175  16.110 -0.3179 -0.3772 -1.0600
  763MPD2    H511328   4.414   3.216  16.177 -0.2736 -0.6391 -0.8556
  763MPD2    N111329   4.549   2.809  15.792 -0.1426  0.7849  0.0226
  763MPD2    H711330   4.595   2.870  15.725 -1.5165  0.0689 -1.5672
  764MPD2     C11331   2.926   4.040  17.667  0.1950 -0.4974 -0.5555
  764MPD2    C111332   2.818   4.100  17.611  1.1666 -0.3393  0.4538
  764MPD2    C211333   2.705   4.111  17.691  0.3095 -0.1581 -0.4227
  764MPD2    C311334   2.707   4.081   0.086  0.2052 -0.5392 -0.2998
  764MPD2    C411335   2.827   4.039   0.145  0.3451 -0.0829 -0.6003
  764MPD2    C511336   2.933   4.020   0.065  0.5278 -0.3170 -0.6122
  764MPD2     H11337   2.613   4.147  17.646  1.4274  0.6706 -2.0552
  764MPD2    H111338   2.830   4.012   0.250 -0.1706 -1.2027 -0.8733
  764MPD2    H211339   3.009   4.004  17.607 -1.4493 -1.5387 -2.2316
  764MPD2    H311340   3.024   3.981   0.111  0.3811  2.7329  2.3063
  764MPD2     N11341   2.585   4.103   0.160 -0.4483  0.0071  0.1860
  764MPD2    H511342   2.507   4.130   0.101  0.6593  2.0105 -0.3551
  764MPD2    N111343   2.808   4.150  17.476 -0.1495 -0.4561 -0.1680
  764MPD2    H711344   2.719   4.188  17.445  1.0493  1.6629 -1.0153
  765MPD2     C11345   2.610   1.951  15.398  0.6022 -0.0716  0.2791
  765MPD2    C111346   2.635   2.027  15.512 -0.0338 -0.0602  0.9770
  765MPD2    C211347   2.760   2.027  15.567 -0.5562 -0.0292  0.2982
  765MPD2    C311348   2.860   1.946  15.515  0.1034  0.1559  0.0524
  765MPD2    C411349   2.827   1.865  15.407  0.6888  0.2052  0.2476
  765MPD2    C511350   2.704   1.873  15.349  0.0938 -0.1186  0.1953
  765MPD2     H11351   2.782   2.088  15.654  0.7456  0.8829 -0.6749
  765MPD2    H111352   2.893   1.784  15.376  1.6811  0.7947  0.7964
  765MPD2    H211353   2.512   1.957  15.351  1.1745  2.1067 -0.6045
  765MPD2    H311354   2.686   1.806  15.266 -1.9094 -0.3552  0.8305
  765MPD2     N11355   2.983   1.954  15.581  0.0262  0.1223  0.0825
  765MPD2    H511356   2.974   1.998  15.672 -0.2131  1.6573 -0.6831
  765MPD2    N111357   2.530   2.115  15.552  0.0978  0.8877  0.0299
  765MPD2    H711358   2.448   2.118  15.492 -0.5725 -2.0781  0.7989
  766MPD2     C11359   1.825   2.323  15.227 -0.5176 -0.0502 -0.4681
  766MPD2    C111360   1.928   2.255  15.273 -0.6457  0.5608 -0.0154
  766MPD2    C211361   1.970   2.149  15.197  0.0334  0.4380 -1.0494
  766MPD2    C311362   1.898   2.097  15.087  0.3874  0.6396 -0.4060
  766MPD2    C411363   1.793   2.175  15.038 -1.0198  0.8234  0.4905
  766MPD2    C511364   1.763   2.291  15.107 -0.6185 -0.0945 -0.4272
  766MPD2     H11365   2.071   2.120  15.224 -0.2723  2.0471  1.7851
  766MPD2    H111366   1.748   2.146  14.944  0.4888  0.3502 -0.0833
  766MPD2    H211367   1.796   2.413  15.279 -1.8674 -0.0671 -1.2070
  766MPD2    H311368   1.683   2.360  15.084  0.9552  1.5681 -0.9085
  766MPD2     N11369   1.940   1.992  15.004  0.2545  0.5696  0.4904
  766MPD2    H511370   1.907   1.986  14.908 -1.6076 -1.3241  1.2498
  766MPD2    N111371   2.004   2.312  15.379  0.3438  0.2113  0.0734
  766MPD2    H711372   1.981   2.399  15.425  0.1219 -0.1977  0.7434
  767MPD2     C11373   1.721   2.331  14.731  0.0955  0.0856  0.3260
  767MPD2    C111374   1.855   2.300  14.732 -0.1820  0.2020  0.2322
  767MPD2    C211375   1.897   2.211  14.637  0.4504  0.5053 -0.3236
  767MPD2    C311376   1.821   2.175  14.528  0.1598  0.1650  0.3100
  767MPD2    C411377   1.692   2.211  14.532 -0.2592  0.4949  0.2314
  767MPD2    C511378   1.638   2.287  14.631 -0.0847  0.4972  0.3252
  767MPD2     H11379   1.998   2.171  14.633  0.2304 -0.2071  1.3897
  767MPD2    H111380   1.618   2.185  14.457 -1.3315  2.2565  0.6791
  767MPD2    H211381   1.681   2.398  14.806 -0.0740  0.2199  0.1175
  767MPD2    H311382   1.533   2.310  14.617  0.4091  1.3563 -1.9319
  767MPD2     N11383   1.874   2.093  14.426 -0.2174  0.0707 -0.3520
  767MPD2    H511384   1.962   2.043  14.440 -0.2013  1.2742  3.6877
  767MPD2    N111385   1.939   2.353  14.833  0.4446 -0.1114  0.2899
  767MPD2    H711386   1.898   2.403  14.912 -2.1132 -1.4112 -0.2092
  768MPD2     C11387   2.404   0.907  10.707  0.5130  1.0895  0.2190
  768MPD2    C111388   2.377   0.883  10.839  0.5401 -0.0784 -0.0558
  768MPD2    C211389   2.465   0.831  10.928 -0.0492  0.0199  0.2246
  768MPD2    C311390   2.602   0.815  10.891 -0.4162  0.2555  0.2898
  768MPD2    C411391   2.630   0.847  10.761 -0.1492 -0.1226  0.2432
  768MPD2    C511392   2.536   0.894  10.671 -1.0644  0.4234 -0.1498
  768MPD2     H11393   2.442   0.802  11.030  0.8986  0.8834  0.6921
  768MPD2    H111394   2.737   0.856  10.745 -0.1554 -2.3344 -1.1024
  768MPD2    H211395   2.327   0.944  10.640  1.3585  0.6637 -0.9700
  768MPD2    H311396   2.581   0.927  10.578  0.1440  1.3849  0.7691
  768MPD2     N11397   2.708   0.780  10.978 -0.6838 -0.1896  0.2488
  768MPD2    H511398   2.800   0.786  10.935 -0.4647  1.0611  0.8916
  768MPD2    N111399   2.251   0.906  10.890  0.3391 -0.6544  0.1348
  768MPD2    H711400   2.234   0.867  10.982 -1.1885  0.5368  0.3734
  769MPD2     C11401   3.483   3.948  14.690 -0.3160  0.1613 -0.5922
  769MPD2    C111402   3.496   3.827  14.758 -0.2705  0.3706  0.5097
  769MPD2    C211403   3.543   3.836  14.884 -0.3503  1.1640  0.7536
  769MPD2    C311404   3.589   3.954  14.944 -0.2304  0.2478 -0.0400
  769MPD2    C411405   3.577   4.073  14.867 -0.8476  0.2273 -0.1124
  769MPD2    C511406   3.521   4.065  14.744 -0.0284 -0.1966  0.0173
  769MPD2     H11407   3.559   3.748  14.946 -0.6532  0.5451 -0.0486
  769MPD2    H111408   3.608   4.167  14.910 -0.6880  0.9920 -1.8977
  769MPD2    H211409   3.443   3.955  14.589 -2.4702  0.4402  0.2788
  769MPD2    H311410   3.527   4.156  14.685 -0.8681  0.8980  1.6241
  769MPD2     N11411   3.649   3.944  15.071  0.4409  0.3063 -0.1491
  769MPD2    H511412   3.651   3.847  15.102  1.7534  0.1860 -0.5919
  769MPD2    N111413   3.452   3.705  14.697 -0.2683 -0.5662  0.7405
  769MPD2    H711414   3.411   3.701  14.604 -0.4063 -0.4343  0.7954
  770MPD2     C11415   3.527   2.664  14.983 -0.6538  0.3324 -0.0534
  770MPD2    C111416   3.434   2.656  14.879  0.0276  0.7789  0.4216
  770MPD2    C211417   3.378   2.770  14.825  0.0921  0.3133 -0.1170
  770MPD2    C311418   3.420   2.891  14.873 -0.2784 -0.1046 -0.1145
  770MPD2    C411419   3.523   2.900  14.966 -0.1366  0.8637 -0.0675
  770MPD2    C511420   3.577   2.785  15.022  0.2349  0.3629  0.4289
  770MPD2     H11421   3.314   2.777  14.738 -1.0753  0.1321  0.7338
  770MPD2    H111422   3.552   2.996  15.005  3.7172 -0.6040  0.6303
  770MPD2    H211423   3.558   2.577  15.040 -1.3850  0.8895  1.2000
  770MPD2    H311424   3.658   2.797  15.092  1.6931  1.0496 -1.3733
  770MPD2     N11425   3.368   3.010  14.821  0.1901 -0.4111  0.4014
  770MPD2    H511426   3.297   3.004  14.749  1.0528 -2.0234 -0.3074
  770MPD2    N111427   3.399   2.527  14.827  0.1230  0.2116  0.1120
  770MPD2    H711428   3.456   2.455  14.869  0.6549  1.1471  0.9879
  771MPD2     C11429   4.591   1.475  13.743 -0.1654  0.3480 -0.6717
  771MPD2    C111430   4.500   1.572  13.779 -0.6089 -0.9539 -0.7511
  771MPD2    C211431   4.368   1.533  13.803 -0.6548 -0.1811 -0.0755
  771MPD2    C311432   4.328   1.402  13.784 -0.7201 -0.6573  0.0799
  771MPD2    C411433   4.425   1.305  13.765 -0.0468 -0.3115  0.3790
  771MPD2    C511434   4.553   1.342  13.732 -0.0602 -0.2592  0.3438
  771MPD2     H11435   4.293   1.609  13.824 -2.2448 -2.0303  0.8527
  771MPD2    H111436   4.403   1.199  13.753 -3.3134  0.2407  1.3536
  771MPD2    H211437   4.696   1.492  13.722 -0.1854  0.0883 -0.9820
  771MPD2    H311438   4.627   1.265  13.715  0.6514  0.1630  1.5025
  771MPD2     N11439   4.192   1.368  13.780  0.1600 -0.4556  0.2716
  771MPD2    H511440   4.135   1.447  13.808 -2.3233 -1.8556 -0.7620
  771MPD2    N111441   4.526   1.714  13.804 -0.5366  0.3483  0.3152
  771MPD2    H711442   4.453   1.780  13.830  2.2648  3.4691  0.2443
  772MPD2     C11443   4.253   2.220  14.198  0.2994  0.4348  0.0601
  772MPD2    C111444   4.246   2.112  14.109 -0.0967 -0.5613 -0.4644
  772MPD2    C211445   4.144   2.022  14.116  1.1213 -0.3003 -0.1037
  772MPD2    C311446   4.052   2.025  14.222  0.3314 -0.4409  0.4027
  772MPD2    C411447   4.065   2.123  14.315  0.3341 -0.0270  0.1103
  772MPD2    C511448   4.164   2.214  14.303 -0.1494 -0.2306  0.6700
  772MPD2     H11449   4.143   1.946  14.039  3.1574 -0.8065  0.3733
  772MPD2    H111450   3.996   2.132  14.399  0.0732 -0.5087 -0.0511
  772MPD2    H211451   4.330   2.297  14.188 -0.5607  1.3487  0.4698
  772MPD2    H311452   4.169   2.289  14.381 -0.7229  3.0678 -2.4924
  772MPD2     N11453   3.946   1.934  14.247  0.1953  0.0254  0.1144
  772MPD2    H511454   3.884   1.952  14.325  1.3025  0.0351  0.9877
  772MPD2    N111455   4.350   2.101  14.012  0.5162  0.6905 -1.0229
  772MPD2    H711456   4.342   2.034  13.936  0.0645  0.9667 -1.2194
  773MPD2     C11457   3.454   2.884   0.310  0.1720  0.3764 -0.2874
  773MPD2    C111458   3.394   2.775   0.249  0.0653  0.1785 -0.3815
  773MPD2    C211459   3.472   2.657   0.266 -0.7193  0.6095  0.6694
  773MPD2    C311460   3.591   2.652   0.342  0.1463 -0.1849 -0.4379
  773MPD2    C411461   3.633   2.768   0.411  0.3239  0.5567 -0.7101
  773MPD2    C511462   3.569   2.881   0.387 -0.2039 -0.3821  0.2764
  773MPD2     H11463   3.443   2.566   0.216  2.5742  0.0014 -0.1404
  773MPD2    H111464   3.715   2.770   0.482  1.3918  0.4793 -1.9544
  773MPD2    H211465   3.403   2.979   0.302  0.7452  0.7270  0.2658
  773MPD2    H311466   3.604   2.972   0.433 -4.3786  1.4813 -0.2113
  773MPD2     N11467   3.664   2.530   0.342  0.5246  0.2134 -0.2867
  773MPD2    H511468   3.631   2.456   0.281  0.5804 -0.9545  1.0807
  773MPD2    N111469   3.274   2.763   0.171  0.2136  0.0217 -0.5949
  773MPD2    H711470   3.264   2.671   0.130 -1.7141 -0.5862  1.2198
  774MPD2     C11471   2.587   1.733  13.358 -0.2122 -0.3739  0.9212
  774MPD2    C111472   2.654   1.755  13.475  0.1020 -0.4408 -0.3574
  774MPD2    C211473   2.718   1.879  13.485 -0.3800  0.7841 -0.8177
  774MPD2    C311474   2.728   1.973  13.384  0.2370 -0.0307 -0.3528
  774MPD2    C411475   2.668   1.941  13.269 -0.7116 -0.1393 -0.0408
  774MPD2    C511476   2.596   1.824  13.257 -0.2715 -0.8103  1.6658
  774MPD2     H11477   2.780   1.902  13.571 -1.6319  1.7879 -0.1780
  774MPD2    H111478   2.673   2.009  13.184 -0.1188  0.6428  0.6193
  774MPD2    H211479   2.519   1.648  13.353 -0.8550  0.2292 -0.7104
  774MPD2    H311480   2.542   1.805  13.165 -0.5516 -0.9253  1.8550
  774MPD2     N11481   2.801   2.092  13.407 -0.4117  0.3267  0.1800
  774MPD2    H511482   2.843   2.097  13.498  2.2348 -1.5045 -0.9474
  774MPD2    N111483   2.646   1.664  13.585  0.4648  0.3199 -0.5236
  774MPD2    H711484   2.618   1.568  13.567 -0.0898  0.4553 -0.3663
  775MPD2     C11485   4.022   3.334  15.424 -0.0600  0.4563 -0.7766
  775MPD2    C111486   4.031   3.444  15.509  0.0419  0.0044  0.4612
  775MPD2    C211487   4.061   3.567  15.459 -0.2270 -0.5551 -0.2438
  775MPD2    C311488   4.116   3.577  15.336  0.7370  0.5482 -0.5528
  775MPD2    C411489   4.115   3.474  15.251  0.0217  0.5942  0.0795
  775MPD2    C511490   4.060   3.356  15.294  0.2007 -0.3133 -0.9364
  775MPD2     H11491   4.033   3.656  15.513 -1.1481 -0.9616 -0.0646
  775MPD2    H111492   4.151   3.474  15.148  0.2635 -0.7779  0.1681
  775MPD2    H211493   3.979   3.238  15.451  2.8668 -0.5649  0.3163
  775MPD2    H311494   4.049   3.283  15.214  0.4477  0.8717 -2.0580
  775MPD2     N11495   4.164   3.703  15.282  0.3308  0.6020  0.2080
  775MPD2    H511496   4.219   3.690  15.197 -1.2786  1.0229 -0.8936
  775MPD2    N111497   3.978   3.432  15.637 -0.2090  0.8679  0.0369
  775MPD2    H711498   3.928   3.348  15.663 -0.4042  0.4528 -1.7244
  776MPD2     C11499   2.497   4.249  11.606  0.6464 -0.1912  0.0674
  776MPD2    C111500   2.623   4.222  11.561 -0.0741  0.0883  0.5540
  776MPD2    C211501   2.674   4.317  11.478 -0.1688 -1.1554  0.8324
  776MPD2    C311502   2.614   4.439  11.448 -0.1977 -0.6399  0.3713
  776MPD2    C411503   2.495   4.464  11.512 -0.0419 -0.3138 -0.5869
  776MPD2    C511504   2.440   4.371  11.593 -0.0389  0.5120 -0.1656
  776MPD2     H11505   2.771   4.299  11.433  0.2002 -3.3716  2.5179
  776MPD2    H111506   2.435   4.553  11.498  0.9477  0.7062  1.7225
  776MPD2    H211507   2.446   4.170  11.659  2.5235 -0.9684  0.7083
  776MPD2    H311508   2.342   4.389  11.635 -0.7016 -1.8111 -0.7089
  776MPD2     N11509   2.677   4.553  11.379 -0.4777  0.1543  0.3324
  776MPD2    H511510   2.630   4.642  11.373 -0.2861  0.3168  1.2938
  776MPD2    N111511   2.674   4.086  11.582  0.5214 -0.7846  0.1956
  776MPD2    H711512   2.612   4.034  11.642 -1.4644  2.6211  1.1245
  777MPD2     C11513   3.481   1.330   0.577  0.1355 -0.1198 -0.1139
  777MPD2    C111514   3.355   1.301   0.626  0.3664 -0.0681 -0.0481
  777MPD2    C211515   3.267   1.215   0.565 -0.6115 -0.0126 -0.5701
  777MPD2    C311516   3.311   1.160   0.449 -0.5283  0.2858 -0.3209
  777MPD2    C411517   3.436   1.188   0.395 -0.4343 -0.0913  0.1967
  777MPD2    C511518   3.517   1.287   0.449 -0.0258 -0.3093  0.6610
  777MPD2     H11519   3.164   1.201   0.595 -0.9951 -1.7787 -2.6421
  777MPD2    H111520   3.463   1.158   0.294  3.4445  2.9254  0.3517
  777MPD2    H211521   3.554   1.398   0.619  0.4819 -2.0202  2.4098
  777MPD2    H311522   3.611   1.313   0.402 -0.5535 -2.3981 -1.5012
  777MPD2     N11523   3.217   1.073   0.389 -0.3799 -0.0168  0.5763
  777MPD2    H511524   3.126   1.063   0.434 -1.8650  1.7026 -2.0358
  777MPD2    N111525   3.335   1.347   0.762 -0.1359 -0.0954 -0.3555
  777MPD2    H711526   3.415   1.397   0.799 -1.3269  1.2141  0.4654
  778MPD2     C11527   0.014   1.444  14.849 -0.5463  0.0468  0.2804
  778MPD2    C111528   0.009   1.344  14.753 -0.3130  0.8025 -0.4662
  778MPD2    C211529   0.089   1.368  14.645 -0.0049  0.0127 -0.3570
  778MPD2    C311530   0.154   1.490  14.622  0.5046  0.0244  0.0279
  778MPD2    C411531   0.153   1.589  14.718  0.3673 -0.0681  0.5086
  778MPD2    C511532   0.087   1.556  14.834 -0.1923  0.2272 -0.9515
  778MPD2     H11533   0.094   1.287  14.574  0.3933  0.2517 -0.5995
  778MPD2    H111534   0.210   1.681  14.723  0.4473 -0.1740  1.5417
  778MPD2    H211535   4.701   1.422  14.943 -0.6798 -1.2046 -0.0753
  778MPD2    H311536   0.105   1.621  14.919 -2.2143 -0.4493 -0.0280
  778MPD2     N11537   0.217   1.508  14.493  0.3521 -0.4961  0.1451
  778MPD2    H511538   0.215   1.425  14.435  1.5339  0.7640 -1.6916
  778MPD2    N111539   4.666   1.226  14.760 -0.1269 -0.1331 -0.1416
  778MPD2    H711540   4.684   1.148  14.697 -1.0143 -0.3780 -0.0866
  779MPD2     C11541   4.254   0.493  14.025  0.2270 -0.0044  0.7156
  779MPD2    C111542   4.362   0.486  14.112 -0.1344  0.0156 -1.2345
  779MPD2    C211543   4.435   0.605  14.125  0.6534 -0.8464 -0.4205
  779MPD2    C311544   4.399   0.724  14.070  0.1234 -0.0531  0.3644
  779MPD2    C411545   4.275   0.727  14.012 -0.1386  1.1285 -0.2483
  779MPD2    C511546   4.212   0.617  13.983 -0.4359 -0.4674  0.3979
  779MPD2     H11547   4.527   0.601  14.182  0.8391  0.5524 -0.6276
  779MPD2    H111548   4.225   0.816  13.976 -4.6503 -1.0170  0.7626
  779MPD2    H211549   4.193   0.408  13.996  1.5339 -0.1664 -1.5947
  779MPD2    H311550   4.116   0.633  13.936  0.6985 -0.9527 -2.1108
  779MPD2     N11551   4.470   0.844  14.095  0.0574  0.0314 -0.2772
  779MPD2    H511552   4.541   0.842  14.168  1.3894 -0.9968 -1.5897
  779MPD2    N111553   4.408   0.363  14.164  0.2876  0.0941  0.1275
  779MPD2    H711554   4.487   0.364  14.228  0.9449  1.3897 -0.7161
  780MPD2     C11555   4.477   0.676   0.978 -0.5467 -0.7780  0.0617
  780MPD2    C111556   4.347   0.681   1.029 -0.3247 -0.1613  0.8073
  780MPD2    C211557   4.238   0.667   0.941  0.3569 -0.0180 -0.4943
  780MPD2    C311558   4.263   0.649   0.807  0.1093  0.3593 -0.2576
  780MPD2    C411559   4.389   0.633   0.758 -0.5899 -0.7414  0.3907
  780MPD2    C511560   4.493   0.655   0.845 -0.1945 -0.5229 -0.2508
  780MPD2     H11561   4.136   0.672   0.979  1.1158 -1.2877  1.6753
  780MPD2    H111562   4.417   0.618   0.654 -0.7716  1.6727 -0.0075
  780MPD2    H211563   4.563   0.708   1.036 -0.2939 -2.4677  0.6434
  780MPD2    H311564   4.593   0.657   0.803  0.6604 -2.5730  1.6766
  780MPD2     N11565   4.152   0.642   0.722  0.1032  0.2384 -0.5044
  780MPD2    H511566   4.064   0.679   0.757  0.8442  0.8670  0.6948
  780MPD2    N111567   4.335   0.707   1.171  0.1301 -0.3021 -0.3316
  780MPD2    H711568   4.429   0.707   1.211  1.0621  0.6086 -2.5257
  781MPD2     C11569   0.160   2.500  12.501 -0.0987 -0.1351  0.4142
  781MPD2    C111570   0.231   2.383  12.506  1.0497  0.7993 -0.4157
  781MPD2    C211571   0.357   2.384  12.445  0.3592  0.2754  0.8577
  781MPD2    C311572   0.411   2.499  12.390  0.1616 -0.0726  0.2510
  781MPD2    C411573   0.337   2.610  12.389  0.2777  0.3051 -0.1111
  781MPD2    C511574   0.218   2.615  12.455  0.1804  0.1033  0.2338
  781MPD2     H11575   0.432   2.305  12.446 -1.3949 -1.4244 -3.1622
  781MPD2    H111576   0.365   2.708  12.351  1.2239 -0.4589 -1.3708
  781MPD2    H211577   0.058   2.512  12.537  0.1024  1.8085  0.3737
  781MPD2    H311578   0.162   2.708  12.456 -3.3236 -2.0202  0.4429
  781MPD2     N11579   0.538   2.501  12.324 -0.5660  0.7057 -0.1970
  781MPD2    H511580   0.568   2.592  12.292 -0.1629 -0.5030 -3.2242
  781MPD2    N111581   0.184   2.266  12.573  0.5091 -0.1090 -0.5430
  781MPD2    H711582   0.242   2.183  12.570 -1.9680 -1.7751 -3.0180
  782MPD2     C11583   3.462   3.289  10.085 -0.2627 -0.0896  0.1904
  782MPD2    C111584   3.543   3.254  10.184 -0.1464 -0.1897  0.4630
  782MPD2    C211585   3.550   3.341  10.287  0.6581  0.4793  0.2666
  782MPD2    C311586   3.498   3.466  10.285  0.3734  0.2668  0.1006
  782MPD2    C411587   3.412   3.497  10.184  0.0400 -0.3036 -0.1414
  782MPD2    C511588   3.395   3.409  10.083 -0.3643 -0.5311  0.4806
  782MPD2     H11589   3.611   3.323  10.375  2.9976  1.0281 -1.2665
  782MPD2    H111590   3.345   3.582  10.180 -3.3751 -3.0229 -0.6752
  782MPD2    H211591   3.443   3.224  10.000  0.0748 -1.6708  1.3452
  782MPD2    H311592   3.325   3.437  10.005  1.3798  0.7492 -0.6085
  782MPD2     N11593   3.524   3.558  10.395 -0.4545  1.0828  0.1880
  782MPD2    H511594   3.587   3.526  10.468 -0.2124 -0.4878 -0.6998
  782MPD2    N111595   3.616   3.135  10.194  0.4660 -0.1892  0.0684
  782MPD2    H711596   3.679   3.124  10.272  1.6314  3.4013 -0.3849
  783MPD2     C11597   3.065   2.657  10.560 -0.0566 -0.1831 -0.2857
  783MPD2    C111598   3.174   2.710  10.622 -0.2511 -1.4149  0.9232
  783MPD2    C211599   3.298   2.712  10.562 -0.0331 -0.2934 -0.1648
  783MPD2    C311600   3.312   2.642  10.445 -0.0249 -0.0322  0.4407
  783MPD2    C411601   3.202   2.572  10.391  0.5961  0.1969  0.1305
  783MPD2    C511602   3.084   2.581  10.445  0.3451  0.3926 -0.1541
  783MPD2     H11603   3.382   2.768  10.600 -1.2506  1.1253  0.4584
  783MPD2    H111604   3.213   2.510  10.302  0.9545  0.3396  0.0730
  783MPD2    H211605   2.966   2.673  10.602 -0.5124  0.1926 -1.4860
  783MPD2    H311606   2.997   2.538  10.397 -0.3346  2.1343 -0.4994
  783MPD2     N11607   3.444   2.653  10.385 -0.2246 -0.5438  0.0495
  783MPD2    H511608   3.523   2.695  10.432 -0.8196 -0.0862  0.6272
  783MPD2    N111609   3.150   2.754  10.758 -0.1666 -0.0135  0.2014
  783MPD2    H711610   3.060   2.738  10.803 -0.6420  1.3477 -0.2564
  784MPD2     C11611   1.276   3.186   0.110 -0.3404  0.6454 -0.3487
  784MPD2    C111612   1.242   3.286   0.199  1.2943 -0.0435  0.1247
  784MPD2    C211613   1.193   3.406   0.153  0.1820  0.0324  0.2602
  784MPD2    C311614   1.188   3.437   0.025  0.0098 -0.2160 -0.0485
  784MPD2    C411615   1.231   3.341  17.673 -0.6865 -0.2281 -0.4679
  784MPD2    C511616   1.264   3.213  17.719 -0.5543  0.1881 -0.4432
  784MPD2     H11617   1.162   3.484   0.222  2.2019 -1.0394  2.4188
  784MPD2    H111618   1.229   3.375  17.570 -0.6242 -1.0112 -0.7259
  784MPD2    H211619   1.316   3.091   0.144  0.9507  1.0328 -0.7781
  784MPD2    H311620   1.273   3.129  17.651  1.5610  0.8480 -0.9526
  784MPD2     N11621   1.132   3.560  17.731 -0.4854  0.1093  0.0967
  784MPD2    H511622   1.098   3.616   0.066 -1.0651 -0.0373 -0.0513
  784MPD2    N111623   1.253   3.268   0.345  0.1835 -0.8914 -0.1725
  784MPD2    H711624   1.208   3.341   0.400  1.5475  0.9542 -1.4602
  785MPD2     C11625   1.448   2.926  11.117  0.0477  0.2491 -0.6689
  785MPD2    C111626   1.307   2.937  11.129  0.1967  0.5612 -0.6789
  785MPD2    C211627   1.233   2.818  11.145  0.4019  0.0128  0.1100
  785MPD2    C311628   1.297   2.699  11.164  0.9031 -0.5066  0.3104
  785MPD2    C411629   1.433   2.692  11.170 -0.9403 -0.0615 -0.5479
  785MPD2    C511630   1.509   2.806  11.131 -0.0754  0.1565  0.2391
  785MPD2     H11631   1.126   2.831  11.151  0.0273 -2.9659  0.1240
  785MPD2    H111632   1.482   2.596  11.180  0.7789  0.8470 -0.2158
  785MPD2    H211633   1.509   3.015  11.108  1.0200 -0.2964  0.3919
  785MPD2    H311634   1.616   2.794  11.120  0.1264  0.0803  2.2679
  785MPD2     N11635   1.210   2.593  11.183  0.2339 -0.1217  0.2759
  785MPD2    H511636   1.118   2.615  11.145  0.9041 -1.6405 -2.2234
  785MPD2    N111637   1.243   3.065  11.107  0.3779  0.2119 -0.0405
  785MPD2    H711638   1.305   3.134  11.066  0.6298  0.4917  0.8103
  786MPD2     C11639   4.678   4.281  14.369  0.1867  0.5598  0.6825
  786MPD2    C111640   0.071   4.331  14.363  0.8602  0.2471 -0.2687
  786MPD2    C211641   0.135   4.384  14.474 -0.4073 -0.3765  0.1167
  786MPD2    C311642   0.065   4.380  14.594 -0.6044  0.2296 -0.5154
  786MPD2    C411643   4.671   4.338  14.604  0.7353  0.4881  0.3064
  786MPD2    C511644   4.621   4.280  14.491 -1.1948 -0.4026  0.0117
  786MPD2     H11645   0.241   4.404  14.461 -0.3486 -0.2433  0.7899
  786MPD2    H111646   4.617   4.341  14.697 -0.2800 -0.4779 -0.2577
  786MPD2    H211647   4.610   4.240  14.295  2.8031 -2.2257 -0.1442
  786MPD2    H311648   4.521   4.240  14.494 -1.8893  1.2994 -0.4570
  786MPD2     N11649   0.133   4.410  14.713  0.2362  0.0422 -0.8077
  786MPD2    H511650   0.092   4.380  14.801  0.5668  1.6219 -0.1123
  786MPD2    N111651   0.142   4.333  14.245 -0.2809 -0.4509 -0.5905
  786MPD2    H711652   0.232   4.378  14.253 -0.4983  0.1987 -1.8959
  787MPD2     C11653   0.695   4.312  14.348  0.0761 -0.4927  0.3168
  787MPD2    C111654   0.669   4.213  14.256 -0.3204  0.0970  0.0084
  787MPD2    C211655   0.727   4.090  14.269 -0.6976 -0.1199 -0.7913
  787MPD2    C311656   0.813   4.069  14.373 -0.3466 -0.5159 -0.3103
  787MPD2    C411657   0.851   4.169  14.452  0.2192  0.1864 -0.3700
  787MPD2    C511658   0.789   4.293  14.441 -0.0013  0.0188  0.2290
  787MPD2     H11659   0.723   4.012  14.194  1.4121 -0.3271 -0.6795
  787MPD2    H111660   0.937   4.155  14.516  0.4946  1.3315 -0.4825
  787MPD2    H211661   0.639   4.404  14.336  0.9034 -0.3254 -2.4752
  787MPD2    H311662   0.817   4.364  14.517 -0.5223  3.1465 -2.5052
  787MPD2     N11663   0.869   3.936  14.391 -0.2025 -0.2568  0.1351
  787MPD2    H511664   0.838   3.871  14.319  1.6565  0.9483 -1.7150
  787MPD2    N111665   0.582   4.240  14.148 -0.4238 -0.6097 -0.2625
  787MPD2    H711666   0.536   4.330  14.140 -0.2180 -0.3780  1.1521
  788MPD2     C11667   1.836   3.166   0.879 -1.0501  0.1511  0.4064
  788MPD2    C111668   1.942   3.136   0.793  0.7005 -0.6011 -0.1870
  788MPD2    C211669   1.979   3.221   0.697  0.4849  0.0029 -0.2768
  788MPD2    C311670   1.911   3.346   0.681 -0.1512  0.8559  0.7068
  788MPD2    C411671   1.796   3.361   0.754  0.2160  0.0975  0.4848
  788MPD2    C511672   1.760   3.278   0.858  0.9475  0.1042 -0.4584
  788MPD2     H11673   2.070   3.200   0.641  0.0648 -1.6580 -0.3100
  788MPD2    H111674   1.733   3.448   0.736 -0.8684 -0.8604 -0.3396
  788MPD2    H211675   1.819   3.108   0.969  0.2443 -1.0017 -0.0802
  788MPD2    H311676   1.680   3.309   0.925  1.7559  1.0464  0.0864
  788MPD2     N11677   1.939   3.440   0.578 -0.0429 -0.2225 -0.1311
  788MPD2    H511678   1.871   3.514   0.567 -0.3611 -0.5784 -0.5428
  788MPD2    N111679   2.010   3.012   0.802 -0.1479  0.0564  0.2556
  788MPD2    H711680   2.079   2.986   0.733 -2.1317  0.8912 -2.0514
  789MPD2     C11681   2.614   2.341  17.198 -0.6036  0.8536  0.1613
  789MPD2    C111682   2.524   2.296  17.104  0.7174 -0.6420  0.3654
  789MPD2    C211683   2.462   2.394  17.023 -0.4772  0.3934 -0.4023
  789MPD2    C311684   2.488   2.528  17.039 -1.2384  0.1145  0.3599
  789MPD2    C411685   2.581   2.563  17.133 -0.9859 -0.4697 -0.8201
  789MPD2    C511686   2.643   2.472  17.210  0.5281 -0.0572  0.5853
  789MPD2     H11687   2.391   2.359  16.948  1.0736 -0.6782 -1.3556
  789MPD2    H111688   2.608   2.667  17.142  2.2838 -1.3003 -0.8412
  789MPD2    H211689   2.668   2.273  17.263 -1.5687  0.3592  0.4456
  789MPD2    H311690   2.726   2.503  17.273  1.4480 -0.2861 -0.5283
  789MPD2     N11691   2.422   2.632  16.973 -0.6661  0.0904  0.0404
  789MPD2    H511692   2.445   2.725  17.006 -0.4271  0.1063 -0.1675
  789MPD2    N111693   2.485   2.163  17.081 -0.8558  0.6195 -0.6688
  789MPD2    H711694   2.428   2.149  16.998 -1.2451  0.3847 -0.3602
  790MPD2     C11695   3.376   3.671  13.393  0.3131  0.6533  0.1909
  790MPD2    C111696   3.467   3.691  13.292 -0.1830  0.6618 -1.0302
  790MPD2    C211697   3.423   3.724  13.161  0.3417 -0.0049  0.2998
  790MPD2    C311698   3.289   3.742  13.141  1.4350  0.1505  0.7416
  790MPD2    C411699   3.205   3.723  13.249 -0.2556  0.5706 -0.5695
  790MPD2    C511700   3.245   3.686  13.375 -0.4965  0.3480  0.8030
  790MPD2     H11701   3.489   3.727  13.074  0.2345 -0.6204  0.1937
  790MPD2    H111702   3.101   3.751  13.240 -0.7830 -0.8977  1.0256
  790MPD2    H211703   3.409   3.629  13.487 -0.9000  0.5283  0.5595
  790MPD2    H311704   3.182   3.664  13.459  0.6316 -1.7402  1.1014
  790MPD2     N11705   3.245   3.776  13.009  0.0639 -0.2671 -0.2063
  790MPD2    H511706   3.314   3.815  12.945 -1.3001  0.2403 -1.4036
  790MPD2    N111707   3.601   3.679  13.337  0.5496  0.3371  0.6236
  790MPD2    H711708   3.622   3.652  13.432 -2.2803  0.2257  1.2258
  791MPD2     C11709   2.613   4.041  12.407 -0.1807  0.0432  0.4666
  791MPD2    C111710   2.621   3.933  12.500  0.0533 -0.5671  0.1110
  791MPD2    C211711   2.512   3.842  12.517  0.2168 -0.5476 -0.0860
  791MPD2    C311712   2.402   3.849  12.435 -0.0046 -0.4309 -0.3176
  791MPD2    C411713   2.391   3.964  12.358 -0.2510  0.2924 -0.3861
  791MPD2    C511714   2.490   4.054  12.343 -0.8918  0.0082 -0.5024
  791MPD2     H11715   2.529   3.755  12.579  1.0032 -0.8075 -0.6670
  791MPD2    H111716   2.304   3.991  12.301 -0.5471  1.5534  0.6690
  791MPD2    H211717   2.685   4.120  12.390  1.1804 -1.4576 -0.8156
  791MPD2    H311718   2.476   4.146  12.288 -1.0244  0.4100  0.1963
  791MPD2     N11719   2.300   3.749  12.432 -0.5802 -0.6890  0.0998
  791MPD2    H511720   2.304   3.680  12.507 -0.8148  0.9874  1.6599
  791MPD2    N111721   2.750   3.923  12.568  0.6906 -0.0441 -0.2142
  791MPD2    H711722   2.829   3.984  12.548  0.4405  1.0561  2.2045
  792MPD2     C11723   3.403   4.369  11.093  0.3525  0.2764  0.2561
  792MPD2    C111724   3.346   4.479  11.032  0.0335  0.0723 -0.1079
  792MPD2    C211725   3.206   4.471  11.007 -0.0154 -0.5006 -0.4145
  792MPD2    C311726   3.132   4.359  11.033  0.3750  0.2195 -0.4148
  792MPD2    C411727   3.193   4.250  11.100  0.1892  0.0650 -0.0389
  792MPD2    C511728   3.325   4.259  11.130 -0.3066  0.2516 -0.3663
  792MPD2     H11729   3.156   4.555  10.962 -0.3106 -0.7544 -0.5552
  792MPD2    H111730   3.139   4.163  11.135 -1.4161  0.9307 -0.3387
  792MPD2    H211731   3.505   4.372  11.130  0.1891  2.9176  0.4935
  792MPD2    H311732   3.365   4.181  11.193 -0.3625 -0.5016 -1.2689
  792MPD2     N11733   2.997   4.348  11.009  0.4453 -0.8048  0.4247
  792MPD2    H511734   2.961   4.256  11.030 -2.2655  0.5147  1.6149
  792MPD2    N111735   3.428   4.583  10.974  0.6572  0.2171  0.3428
  792MPD2    H711736   3.530   4.583  10.982  0.6353 -3.7541  0.5729
  793MPD2     C11737   2.428   4.140  10.280 -0.1777  0.3187  0.3094
  793MPD2    C111738   2.562   4.145  10.315  0.6089 -0.2657 -0.4362
  793MPD2    C211739   2.597   4.197  10.436 -0.0104 -0.6133  0.1083
  793MPD2    C311740   2.509   4.260  10.526  0.1592 -0.6764 -0.0169
  793MPD2    C411741   2.373   4.256  10.490  0.7215 -0.7042  0.5650
  793MPD2    C511742   2.340   4.196  10.370  0.1222 -0.0322  0.6996
  793MPD2     H11743   2.700   4.195  10.471 -0.0737 -1.4968  0.2458
  793MPD2    H111744   2.286   4.280  10.550 -0.7641 -1.9445 -1.0769
  793MPD2    H211745   2.378   4.092  10.196  0.4406 -0.4012  0.3536
  793MPD2    H311746   2.234   4.202  10.347 -0.1767 -2.6322  1.4530
  793MPD2     N11747   2.559   4.316  10.647 -0.3956 -0.2967 -0.2940
  793MPD2    H511748   2.656   4.297  10.670  0.3490  1.4322 -1.9727
  793MPD2    N111749   2.662   4.097  10.230  0.4160  0.2852 -0.5102
  793MPD2    H711750   2.757   4.102  10.266 -0.4820  1.2827  1.7349
  794MPD2     C11751   2.695   3.271  17.525  0.1772  0.1102 -0.0122
  794MPD2    C111752   2.745   3.179  17.439 -0.0315  0.5650 -0.1730
  794MPD2    C211753   2.743   3.210  17.300 -0.3967 -0.4094  0.0784
  794MPD2    C311754   2.700   3.333  17.253 -0.0447  0.1040 -0.2499
  794MPD2    C411755   2.656   3.422  17.343  0.3637  0.3025  0.4157
  794MPD2    C511756   2.657   3.391  17.475 -0.3261  1.1901 -0.6241
  794MPD2     H11757   2.792   3.136  17.239 -0.9539 -1.3121  0.7155
  794MPD2    H111758   2.635   3.524  17.311 -0.2293 -0.0773 -0.4368
  794MPD2    H211759   2.698   3.257  17.633 -0.5422 -0.8055 -0.1216
  794MPD2    H311760   2.622   3.467  17.545  0.9886  1.5363 -0.3256
  794MPD2     N11761   2.702   3.369  17.115  0.0694  0.8697  0.3718
  794MPD2    H511762   2.663   3.455  17.077 -1.3328  1.2539  2.6478
  794MPD2    N111763   2.807   3.061  17.487  0.0539 -0.9124 -0.5756
  794MPD2    H711764   2.816   2.980  17.427  0.6553 -0.8935 -0.5061
  795MPD2     C11765   0.752   0.773  13.906  0.1919  0.5528  0.2113
  795MPD2    C111766   0.724   0.674  13.815 -0.1566 -0.2306  0.3069
  795MPD2    C211767   0.801   0.563  13.802 -0.0206  0.2820  0.4130
  795MPD2    C311768   0.919   0.558  13.876  0.2875  0.0310 -0.1996
  795MPD2    C411769   0.947   0.656  13.970  0.1171 -0.5043 -0.0441
  795MPD2    C511770   0.853   0.750  13.992 -0.4896 -0.0073  0.2667
  795MPD2     H11771   0.784   0.488  13.726  2.5687  3.0362 -2.8418
  795MPD2    H111772   1.034   0.650  14.035  0.8486  1.0298 -0.8581
  795MPD2    H211773   0.693   0.863  13.922  0.0446  0.7936 -1.6473
  795MPD2    H311774   0.875   0.824  14.069  1.9251 -1.3588  0.8841
  795MPD2     N11775   1.018   0.463  13.835  0.2334  0.2114  0.0955
  795MPD2    H511776   0.988   0.401  13.761 -0.8283  1.5484 -0.6042
  795MPD2    N111777   0.616   0.698  13.722 -0.0916  0.3363 -0.0689
  795MPD2    H711778   0.589   0.619  13.664  1.0514 -1.2367  1.5502
  796MPD2     C11779   0.460   2.182  15.681 -0.0113  0.1145  0.0672
  796MPD2    C111780   0.463   2.256  15.797  0.0151  0.8409  0.4642
  796MPD2    C211781   0.418   2.387  15.794 -0.5224 -0.2925 -0.1224
  796MPD2    C311782   0.384   2.449  15.671  0.2113 -0.0063 -0.1057
  796MPD2    C411783   0.402   2.379  15.557 -0.7136  0.6716  0.5041
  796MPD2    C511784   0.430   2.246  15.568  0.4617 -0.0807  0.3494
  796MPD2     H11785   0.409   2.448  15.883  2.1362 -0.4865  0.2842
  796MPD2    H111786   0.373   2.417  15.460  0.8203 -2.0586 -1.0062
  796MPD2    H211787   0.483   2.076  15.688 -0.8149 -0.0435  0.3443
  796MPD2    H311788   0.421   2.189  15.476  4.1254 -1.1380  0.6534
  796MPD2     N11789   0.325   2.581  15.673 -0.6073  0.9429  0.2214
  796MPD2    H511790   0.308   2.634  15.757 -1.6045 -0.3662  0.8343
  796MPD2    N111791   0.510   2.190  15.918 -0.0684  0.3435 -0.3159
  796MPD2    H711792   0.536   2.092  15.914 -3.1143 -0.5441  1.3664
  797MPD2     C11793   1.444   1.768  17.423  0.2326 -0.2965  0.4749
  797MPD2    C111794   1.532   1.875  17.420  0.1028  0.4211  0.9513
  797MPD2    C211795   1.548   1.932  17.296  0.0909  0.0357 -0.3927
  797MPD2    C311796   1.464   1.908  17.187 -0.5322 -0.0583  0.1169
  797MPD2    C411797   1.364   1.817  17.197 -0.4882 -0.3048 -0.1917
  797MPD2    C511798   1.360   1.742  17.316  0.0574 -0.4162  0.0968
  797MPD2     H11799   1.624   2.008  17.283 -1.4395  1.3269 -1.7846
  797MPD2    H111800   1.292   1.806  17.117 -0.3134  2.0751 -0.6762
  797MPD2    H211801   1.426   1.721  17.519  0.5679 -0.9656  0.2096
  797MPD2    H311802   1.293   1.657  17.326  0.7877 -0.9555  0.3257
  797MPD2     N11803   1.486   1.993  17.081 -0.6373 -0.2578  0.1160
  797MPD2    H511804   1.560   2.061  17.090 -0.8814  0.1080 -0.5952
  797MPD2    N111805   1.616   1.923  17.523  0.4576 -0.4010  0.2559
  797MPD2    H711806   1.690   1.991  17.506  0.3644 -0.1663  0.7880
  798MPD2     C11807   1.775   2.614  17.283  0.1924  0.5632 -0.3655
  798MPD2    C111808   1.740   2.474  17.260 -0.3360 -0.0016  0.5591
  798MPD2    C211809   1.754   2.382  17.360  0.3543 -0.7795 -0.2657
  798MPD2    C311810   1.802   2.418  17.480 -0.0747  0.3894 -0.1936
  798MPD2    C411811   1.833   2.551  17.509 -0.7882 -0.2155  0.1579
  798MPD2    C511812   1.817   2.642  17.412  0.8691 -0.4411  0.1539
  798MPD2     H11813   1.724   2.278  17.349 -0.6521 -0.4272 -0.7585
  798MPD2    H111814   1.866   2.587  17.606 -1.2134 -0.7445  0.5028
  798MPD2    H211815   1.751   2.691  17.211 -0.8804 -0.8617 -1.5470
  798MPD2    H311816   1.840   2.746  17.434 -1.1825  0.5587 -2.4919
  798MPD2     N11817   1.810   2.307  17.572 -0.4319 -0.2162  0.0152
  798MPD2    H511818   1.793   2.213  17.535  0.5386 -0.9083  1.3310
  798MPD2    N111819   1.690   2.436  17.132  0.1707  0.7350  0.4761
  798MPD2    H711820   1.670   2.505  17.061 -0.0552  2.0066  1.7836
  799MPD2     C11821   0.631   3.671  14.506  0.0747 -0.2620 -0.4809
  799MPD2    C111822   0.597   3.560  14.434 -0.2171  0.2781 -0.3357
  799MPD2    C211823   0.515   3.573  14.325 -0.0603 -0.1168 -0.5262
  799MPD2    C311824   0.475   3.700  14.281  0.1060 -0.4665 -0.1050
  799MPD2    C411825   0.529   3.812  14.341 -0.6043 -0.2009 -0.2719
  799MPD2    C511826   0.598   3.797  14.455 -0.2251  0.1526  0.0149
  799MPD2     H11827   0.496   3.481  14.271 -0.1619 -1.4151  1.7342
  799MPD2    H111828   0.494   3.913  14.321  1.6636  0.5881 -0.2092
  799MPD2    H211829   0.695   3.668  14.594 -1.5562  0.0846  0.7152
  799MPD2    H311830   0.635   3.874  14.521  1.8109 -0.1470 -0.7882
  799MPD2     N11831   0.397   3.725  14.165  0.0348 -0.6153  0.2978
  799MPD2    H511832   0.371   3.822  14.149 -0.9526 -1.0008 -0.4497
  799MPD2    N111833   0.631   3.428  14.471 -0.2612  0.0365 -0.4167
  799MPD2    H711834   0.594   3.349  14.419 -0.3907 -1.3208  1.7299
  800MPD2     C11835   0.697   4.588  14.075  0.0238  0.2133  0.0566
  800MPD2    C111836   0.792   4.493  14.065  0.0213  0.0688  0.8225
  800MPD2    C211837   0.789   4.408  13.953 -0.5050  0.1446 -0.0127
  800MPD2    C311838   0.683   4.410  13.863 -0.1274 -0.5507  0.5765
  800MPD2    C411839   0.583   4.501  13.888 -0.2697  0.6561 -0.4393
  800MPD2    C511840   0.582   4.582  14.001  0.0885 -0.0138  0.0954
  800MPD2     H11841   0.872   4.343  13.930 -0.4756 -0.6179  2.2804
  800MPD2    H111842   0.504   4.510  13.814  1.1658  2.2072 -1.7823
  800MPD2    H211843   0.705   4.667  14.149  1.3473  0.3581 -0.2556
  800MPD2    H311844   0.506   4.659  14.010 -1.5051 -1.4653 -0.8772
  800MPD2     N11845   0.690   4.324  13.752 -0.0246 -0.0289  0.1177
  800MPD2    H511846   0.773   4.266  13.750  0.9491  1.3870 -0.2931
  800MPD2    N111847   0.901   4.486  14.156  0.3270  0.6347  0.2095
  800MPD2    H711848   0.886   4.547  14.236  0.0619  0.4183  0.3250
  801MPD2     C11849   1.277   0.219  14.548  0.5836  0.0651  0.0300
  801MPD2    C111850   1.158   0.150  14.522  0.2290 -0.5466  0.0728
  801MPD2    C211851   1.041   0.215  14.558 -0.0073  0.0880  0.2972
  801MPD2    C311852   1.040   0.336  14.622  0.8396  0.2504  0.3297
  801MPD2    C411853   1.159   0.404  14.631  0.0903 -0.3036  0.0269
  801MPD2    C511854   1.271   0.347  14.593  0.0374  0.0643 -0.8997
  801MPD2     H11855   0.955   0.150  14.561  0.1164 -0.0274  1.5057
  801MPD2    H111856   1.160   0.505  14.670 -0.2916 -0.6072  0.8231
  801MPD2    H211857   1.378   0.182  14.534  0.2978 -0.3047 -1.0202
  801MPD2    H311858   1.364   0.401  14.604 -0.7786  1.3198 -0.1690
  801MPD2     N11859   0.933   0.385  14.697  0.1464  0.1223  0.5819
  801MPD2    H511860   0.957   0.464  14.755 -0.7441  0.2834  0.7383
  801MPD2    N111861   1.152   0.020  14.475  0.2072 -0.1613  0.5720
  801MPD2    H711862   1.063   4.712  14.454  0.5926 -0.0758 -1.2936
  802MPD2     C11863   0.414   1.328   0.285  0.0440 -0.0270 -0.3802
  802MPD2    C111864   0.307   1.242   0.252 -0.0220  0.0579 -0.2708
  802MPD2    C211865   0.332   1.133   0.161  0.6036  0.2810  0.2430
  802MPD2    C311866   0.464   1.105   0.130  1.0304 -0.6186  0.1834
  802MPD2    C411867   0.563   1.181   0.176  0.1277  0.3586 -0.3863
  802MPD2    C511868   0.541   1.293   0.246  0.3816 -0.2579  0.7528
  802MPD2     H11869   0.249   1.077   0.118  0.6510  0.1767  0.2880
  802MPD2    H111870   0.664   1.164   0.140 -0.4876 -1.3644 -1.2891
  802MPD2    H211871   0.391   1.414   0.346  1.3789 -0.5613  0.8457
  802MPD2    H311872   0.631   1.350   0.270 -0.0021  0.2102  1.0693
  802MPD2     N11873   0.492   1.005   0.034 -0.3594  0.2660 -0.0799
  802MPD2    H511874   0.415   0.965  17.724  0.6157 -2.2703  0.4718
  802MPD2    N111875   0.172   1.263   0.290  0.6029  0.1306 -0.9204
  802MPD2    H711876   0.104   1.199   0.250 -1.0182  0.4312  1.2991
  803MPD2     C11877   1.106   4.345  11.441 -0.0752 -0.1488 -0.0123
  803MPD2    C111878   1.185   4.383  11.548  0.0315  0.1941  0.0165
  803MPD2    C211879   1.168   4.325  11.668  0.9965  0.2346 -0.3822
  803MPD2    C311880   1.081   4.218  11.679  0.2424 -1.0732 -0.3970
  803MPD2    C411881   1.009   4.172  11.569 -0.5675  0.4415 -0.1467
  803MPD2    C511882   1.013   4.245  11.455 -0.8695  0.2541 -0.3615
  803MPD2     H11883   1.218   4.367  11.755  1.1311 -0.0364 -0.3291
  803MPD2    H111884   0.941   4.090  11.588  1.5414 -1.4817 -0.8500
  803MPD2    H211885   1.109   4.395  11.345 -1.3232  0.3396  0.2069
  803MPD2    H311886   0.945   4.231  11.371 -3.6963  1.8593  1.6746
  803MPD2     N11887   1.060   4.151  11.805 -0.1150 -0.4973  0.0500
  803MPD2    H511888   1.005   4.065  11.802  0.2439 -0.7437  0.4398
  803MPD2    N111889   1.276   4.485  11.552 -0.1272 -0.5077 -0.1756
  803MPD2    H711890   1.317   4.510  11.641 -0.2688  1.1381 -0.5708
  804MPD2     C11891   1.007   0.440  16.762  0.8439 -0.1812  0.2650
  804MPD2    C111892   0.916   0.429  16.867 -0.6427  0.7204 -0.4246
  804MPD2    C211893   0.933   0.507  16.980  0.0285 -0.8463  0.2001
  804MPD2    C311894   1.052   0.578  16.990 -0.1259 -0.1205 -0.0426
  804MPD2    C411895   1.144   0.579  16.890 -0.4146  0.2458  0.5994
  804MPD2    C511896   1.114   0.519  16.775 -0.1427 -0.4269  0.6100
  804MPD2     H11897   0.864   0.514  17.063  0.7921 -0.7302  0.8342
  804MPD2    H111898   1.232   0.642  16.892 -0.0326 -0.3451  2.2431
  804MPD2    H211899   0.997   0.391  16.666  1.2139 -0.8185  0.5512
  804MPD2    H311900   1.182   0.524  16.690 -2.2336  0.4438 -1.0069
  804MPD2     N11901   1.079   0.647  17.118 -1.0319 -0.4230 -0.2730
  804MPD2    H511902   1.009   0.638  17.191  0.6193 -0.6393  1.2995
  804MPD2    N111903   0.803   0.343  16.866 -0.6245  0.3044  0.2929
  804MPD2    H711904   0.750   0.349  16.953 -0.7149 -1.0383  0.3301
  805MPD2     C11905   0.226   3.089  15.306 -0.4260 -0.4485 -0.3774
  805MPD2    C111906   0.156   3.206  15.341  0.2829 -0.4636  0.0698
  805MPD2    C211907   0.214   3.302  15.423 -0.1151  0.1091  1.1472
  805MPD2    C311908   0.334   3.281  15.481  0.0975 -0.3470 -0.9360
  805MPD2    C411909   0.404   3.172  15.441  0.1854 -0.4059 -0.2330
  805MPD2    C511910   0.352   3.076  15.355 -0.8198  0.6565  0.0798
  805MPD2     H11911   0.157   3.389  15.452 -0.2373  0.2669  0.4168
  805MPD2    H111912   0.508   3.155  15.467 -0.4469 -3.0101  0.5846
  805MPD2    H211913   0.188   3.012  15.240 -1.4891  0.1327 -0.4441
  805MPD2    H311914   0.407   2.983  15.340 -2.6759 -0.5871  1.0702
  805MPD2     N11915   0.392   3.387  15.564 -0.0439  0.1241 -0.0052
  805MPD2    H511916   0.333   3.469  15.574 -2.6320 -1.5387 -1.5895
  805MPD2    N111917   0.020   3.236  15.311 -0.0841 -0.6496  0.0736
  805MPD2    H711918   4.724   3.325  15.348 -0.2058 -0.1042 -1.3412
  806MPD2     C11919   0.086   3.059  17.376  0.1615  0.9088 -0.0483
  806MPD2    C111920   0.201   3.089  17.438 -1.2801 -0.0222 -0.5933
  806MPD2    C211921   0.322   3.053  17.377 -0.0607  0.0983  0.0127
  806MPD2    C311922   0.327   2.993  17.254  0.0272 -0.2343 -0.6147
  806MPD2    C411923   0.212   2.965  17.192 -0.2891 -0.2145  0.1148
  806MPD2    C511924   0.089   2.999  17.251 -0.4704 -1.0076 -0.5392
  806MPD2     H11925   0.415   3.071  17.430  0.8323  0.1691 -1.5725
  806MPD2    H111926   0.217   2.921  17.093  2.3082 -1.0571  0.6315
  806MPD2    H211927   4.731   3.094  17.424 -1.7542 -2.8894 -0.9273
  806MPD2    H311928   4.731   2.990  17.196  0.9824 -0.3898 -3.1264
  806MPD2     N11929   0.457   2.985  17.197 -0.3162 -0.7549  0.4813
  806MPD2    H511930   0.524   3.037  17.252 -0.0143 -0.2856 -0.3305
  806MPD2    N111931   0.195   3.154  17.561  0.2909  0.5863 -0.0600
  806MPD2    H711932   0.104   3.182  17.597  0.1200 -0.7953  0.5818
  807MPD2     C11933   4.682   2.887   0.464  0.7997  0.3611 -0.0679
  807MPD2    C111934   0.080   2.908   0.464  0.4950 -0.0472  0.4326
  807MPD2    C211935   0.154   2.833   0.561  0.8552  0.8345 -0.0294
  807MPD2    C311936   0.099   2.753   0.659  0.4939  0.7990 -0.2962
  807MPD2    C411937   4.694   2.730   0.650  0.7347  0.2758  0.9089
  807MPD2    C511938   4.625   2.800   0.552  0.4010  0.5018 -0.2480
  807MPD2     H11939   0.262   2.846   0.569  0.5497  3.5375 -0.0763
  807MPD2    H111940   4.641   2.657   0.710 -0.8463  0.9549  0.3407
  807MPD2    H211941   4.614   2.933   0.393 -0.4265 -0.1569  0.7651
  807MPD2    H311942   4.517   2.791   0.553  0.4917 -0.5592  0.4986
  807MPD2     N11943   0.190   2.692   0.749  0.1685 -0.1516  0.5222
  807MPD2    H511944   0.287   2.705   0.721 -0.2910  0.8299 -0.6422
  807MPD2    N111945   0.143   3.009   0.390 -0.3795  0.3889  0.2280
  807MPD2    H711946   0.241   3.026   0.413 -0.1612 -0.9943  0.3645
  808MPD2     C11947   1.491   4.730   9.796 -0.2712  0.2703 -0.5400
  808MPD2    C111948   1.365   0.010   9.856 -0.0704  0.4998 -0.4478
  808MPD2    C211949   1.345   0.116   9.937  0.2492  0.0203 -0.0605
  808MPD2    C311950   1.444   0.209   9.963 -0.2711 -0.0554  0.6924
  808MPD2    C411951   1.568   0.183   9.913 -0.7107  0.1307  0.5779
  808MPD2    C511952   1.581   0.082   9.830 -0.1739 -0.0437 -0.5116
  808MPD2     H11953   1.247   0.129   9.981  0.0228 -0.8617 -0.3169
  808MPD2    H111954   1.654   0.238   9.948 -0.9264  0.2215  0.9648
  808MPD2    H211955   1.524   4.648   9.733 -1.4591  1.7461 -3.0827
  808MPD2    H311956   1.682   0.057   9.801 -0.3076 -0.1498 -0.8841
  808MPD2     N11957   1.434   0.329  10.039 -0.0614 -0.3512  0.1686
  808MPD2    H511958   1.514   0.392  10.042 -0.3996  0.1358 -1.0152
  808MPD2    N111959   1.251   4.661   9.833 -0.6236 -0.3119 -0.1883
  808MPD2    H711960   1.165   4.683   9.882 -1.2610 -0.2632 -1.3338
  809MPD2     C11961   1.583   1.271   9.810 -0.2199 -0.9173 -0.5477
  809MPD2    C111962   1.589   1.152   9.747  0.1807  0.0339  0.0621
  809MPD2    C211963   1.539   1.038   9.808 -0.3411  0.5508 -0.1492
  809MPD2    C311964   1.480   1.052   9.931  0.8927  0.4668  0.5122
  809MPD2    C411965   1.461   1.171   9.990 -0.0138 -0.9212 -0.9563
  809MPD2    C511966   1.514   1.279   9.930  0.0105 -0.2907 -0.4340
  809MPD2     H11967   1.544   0.948   9.748 -1.0052 -0.4159  1.2609
  809MPD2    H111968   1.425   1.178  10.092  1.3829 -1.3826 -0.4286
  809MPD2    H211969   1.636   1.358   9.773 -1.7898 -0.5268 -1.8672
  809MPD2    H311970   1.510   1.374   9.983 -0.5767 -2.1602  2.8502
  809MPD2     N11971   1.417   0.938  10.001 -0.0523 -0.5328  0.4567
  809MPD2    H511972   1.376   0.956  10.092 -3.5574 -0.6056 -1.0850
  809MPD2    N111973   1.647   1.129   9.619 -0.2008 -0.3300  0.2591
  809MPD2    H711974   1.653   1.033   9.585  0.1350 -0.5251  0.8780
  810MPD2     C11975   0.131   4.423  10.897  0.1421 -0.1199 -0.0115
  810MPD2    C111976   0.033   4.460  10.801  0.4807 -0.0964  0.0819
  810MPD2    C211977   0.031   4.591  10.754 -0.2971 -0.3324  0.3240
  810MPD2    C311978   0.136   4.680  10.777  0.2738 -0.2363  0.2137
  810MPD2    C411979   0.231   4.642  10.867  0.5334  0.7712 -0.0608
  810MPD2    C511980   0.228   4.520  10.928  0.3639  0.5530 -0.2273
  810MPD2     H11981   4.700   4.619  10.674 -1.0522 -2.6850  0.1391
  810MPD2    H111982   0.320   4.701  10.888 -0.5357  2.0785  0.7904
  810MPD2    H211983   0.127   4.328  10.950 -0.5673  0.7584  1.5153
  810MPD2    H311984   0.308   4.489  10.995  0.1115  0.4020  0.0070
  810MPD2     N11985   0.145   0.068  10.716 -0.3614 -0.0839 -0.7134
  810MPD2    H511986   0.205   0.137  10.761  0.2169 -1.0791  0.0597
  810MPD2    N111987   4.684   4.354  10.750  0.2378 -0.0393  0.1227
  810MPD2    H711988   4.707   4.258  10.772 -1.5725 -0.3627  0.5472
  811MPD2     C11989   4.044   4.175  10.150  0.2862 -0.7197 -0.7566
  811MPD2    C111990   4.176   4.211  10.175  0.3250 -0.1281  0.8210
  811MPD2    C211991   4.235   4.319  10.107 -0.5514 -0.2134  0.6229
  811MPD2    C311992   4.166   4.377  10.003 -0.0582 -0.0636 -0.7355
  811MPD2    C411993   4.040   4.330   9.971  1.0593  0.3632  0.1822
  811MPD2    C511994   3.980   4.228  10.045  0.1690  0.0836  0.2892
  811MPD2     H11995   4.330   4.357  10.143 -1.1746  2.3314 -0.4571
  811MPD2    H111996   3.988   4.365   9.882 -0.3714 -1.2311  0.3812
  811MPD2    H211997   3.998   4.107  10.220  0.0842 -0.1267 -0.3178
  811MPD2    H311998   3.888   4.183  10.007  1.6184 -2.6430  0.0144
  811MPD2     N11999   4.239   4.477   9.938  0.0479 -0.0049  1.1926
  811MPD2    H512000   4.326   4.508   9.979  2.2858 -1.7397 -2.1889
  811MPD2    N112001   4.240   4.147  10.282  0.2845  0.2613 -0.1125
  811MPD2    H712002   4.177   4.094  10.341  2.5961 -2.3322  0.0110
  812MPD2     C12003   3.663   4.022  11.733  0.6719 -0.1377 -0.0454
  812MPD2    C112004   3.767   4.098  11.780 -0.1020  0.4161  0.4323
  812MPD2    C212005   3.847   4.047  11.884  0.1332 -0.9739 -0.4283
  812MPD2    C312006   3.802   3.931  11.960 -0.5598 -0.1697 -0.3222
  812MPD2    C412007   3.686   3.869  11.925  0.2510 -0.6688  0.1018
  812MPD2    C512008   3.627   3.906  11.806 -0.2688 -0.0697 -0.3211
  812MPD2     H12009   3.933   4.096  11.928  0.7295 -0.9234 -1.6480
  812MPD2    H112010   3.652   3.780  11.976 -0.8517  0.7198  1.7617
  812MPD2    H212011   3.597   4.065  11.659  0.0880 -1.6267 -0.3839
  812MPD2    H312012   3.536   3.857  11.771  0.6216 -1.5068 -0.6027
  812MPD2     N12013   3.861   3.914  12.090  0.1494 -0.0967  0.2543
  812MPD2    H512014   3.939   3.976  12.108  0.2665 -0.2442  0.2624
  812MPD2    N112015   3.786   4.223  11.712 -0.1736 -0.3325 -0.5118
  812MPD2    H712016   3.723   4.241  11.634  0.0872  0.4626 -0.5418
  813MPD2     C12017   2.811   0.760  12.726 -0.4179  0.3683 -0.3344
  813MPD2    C112018   2.852   0.883  12.773  0.6963  0.9291  0.1248
  813MPD2    C212019   2.810   0.924  12.895 -0.0664  0.5180 -0.3832
  813MPD2    C312020   2.721   0.853  12.966 -0.1705 -0.9749  0.2050
  813MPD2    C412021   2.676   0.730  12.916 -0.0048 -0.2819  0.2722
  813MPD2    C512022   2.715   0.685  12.793  0.2904 -0.4615 -0.0248
  813MPD2     H12023   2.868   1.010  12.927 -1.3381  0.7918  1.1945
  813MPD2    H112024   2.601   0.674  12.971  1.1289 -0.8806  1.2144
  813MPD2    H212025   2.848   0.715  12.634  0.1731  0.1416  0.0188
  813MPD2    H312026   2.684   0.588  12.756 -0.9507  1.4534 -4.1168
  813MPD2     N12027   2.689   0.903  13.095 -0.1710  0.2909 -0.1270
  813MPD2    H512028   2.728   0.993  13.121  0.8309  0.1100 -0.9823
  813MPD2    N112029   2.954   0.954  12.711 -0.5500 -0.2463 -0.4849
  813MPD2    H712030   2.987   1.041  12.750  0.5567 -0.6311 -0.5538
  814MPD2     C12031   3.547   2.198  12.526 -0.2107  0.3018  0.0155
  814MPD2    C112032   3.554   2.266  12.406 -0.1733 -0.4155  0.4421
  814MPD2    C212033   3.625   2.384  12.406 -0.1822 -0.0483 -0.1890
  814MPD2    C312034   3.692   2.435  12.513  0.1233  0.5499  0.1640
  814MPD2    C412035   3.680   2.367  12.630 -0.1526  0.6396  0.0608
  814MPD2    C512036   3.603   2.254  12.636  0.1047  0.4294 -0.4294
  814MPD2     H12037   3.628   2.439  12.312 -0.5049  0.7822  0.2804
  814MPD2    H112038   3.719   2.401  12.726  0.2631 -2.0962  0.8437
  814MPD2    H212039   3.480   2.115  12.544  1.9213 -1.0196  1.8608
  814MPD2    H312040   3.592   2.210  12.734  2.0342 -0.4888 -0.6128
  814MPD2     N12041   3.785   2.540  12.506  0.3478 -0.4320 -0.2665
  814MPD2    H512042   3.831   2.567  12.593  0.2423 -0.0254 -0.3342
  814MPD2    N112043   3.496   2.221  12.284 -0.4422  0.1419  0.5318
  814MPD2    H712044   3.526   2.278  12.206  0.4155 -0.3946  0.4736
  815MPD2     C12045   4.027   1.307  11.680  0.1182  1.0228  0.3255
  815MPD2    C112046   3.994   1.188  11.620 -0.5621  0.2033 -0.0553
  815MPD2    C212047   3.931   1.092  11.700  0.0567  0.7722  0.1881
  815MPD2    C312048   3.900   1.117  11.827 -0.6775 -0.0774 -0.3496
  815MPD2    C412049   3.942   1.233  11.889 -0.6514  0.1824 -0.1833
  815MPD2    C512050   4.009   1.324  11.809  0.1936  0.1210  0.7505
  815MPD2     H12051   3.902   0.999  11.653  0.8298  1.1114 -0.9647
  815MPD2    H112052   3.916   1.250  11.992 -1.4220 -0.3392 -0.2913
  815MPD2    H212053   4.066   1.394  11.629  0.3925 -0.1533 -1.4827
  815MPD2    H312054   4.032   1.420  11.855  0.6220  0.4169 -0.0897
  815MPD2     N12055   3.820   1.022  11.896 -0.1109 -0.2165 -0.0470
  815MPD2    H512056   3.788   0.950  11.832  0.6342 -1.4326  0.9446
  815MPD2    N112057   4.031   1.167  11.482  0.1442  0.5857 -0.2460
  815MPD2    H712058   4.083   1.239  11.434 -1.1973  1.9005  0.2988
  816MPD2     C12059   3.716   4.672  17.075  0.2894 -0.1323  0.2877
  816MPD2    C112060   3.823   0.021  17.089  0.5528  0.3216  0.0007
  816MPD2    C212061   3.949   4.712  17.040  0.0396  0.3301 -0.3732
  816MPD2    C312062   3.969   4.591  16.981 -0.2843 -0.0979  0.2782
  816MPD2    C412063   3.866   4.502  16.980 -0.6042 -0.2842  0.9225
  816MPD2    C512064   3.744   4.546  17.029 -0.4996  0.6120 -0.4120
  816MPD2     H12065   4.033   0.045  17.046 -0.1652  0.3867  1.7241
  816MPD2    H112066   3.876   4.396  16.959 -0.4622 -0.3044  1.0893
  816MPD2    H212067   3.615   4.692  17.109 -0.3826  0.6226 -2.1774
  816MPD2    H312068   3.666   4.472  17.038 -0.6524  0.5849 -2.0394
  816MPD2     N12069   4.095   4.569  16.926  0.6108 -0.6933  0.1896
  816MPD2    H512070   4.163   4.645  16.927 -0.8718  0.6503 -1.2335
  816MPD2    N112071   3.796   0.143  17.155 -0.2244  0.2930  0.0393
  816MPD2    H712072   3.702   0.168  17.184  0.8295  2.2114  1.8113
  817MPD2     C12073   3.880   2.797   9.881 -0.2541  0.5102 -0.2655
  817MPD2    C112074   3.846   2.664   9.846  0.1864 -0.3759  0.0925
  817MPD2    C212075   3.722   2.648   9.783 -0.0366 -0.4832 -0.1340
  817MPD2    C312076   3.643   2.755   9.746 -0.5062  0.6123  0.6183
  817MPD2    C412077   3.688   2.881   9.762  0.2200  0.2342  0.4017
  817MPD2    C512078   3.803   2.898   9.833 -0.5850  0.5228  0.2065
  817MPD2     H12079   3.693   2.544   9.773  0.0151 -0.6385  1.3236
  817MPD2    H112080   3.635   2.967   9.724  1.3078  0.2783 -1.0023
  817MPD2    H212081   3.974   2.823   9.929 -0.1947  2.9390 -1.7254
  817MPD2    H312082   3.826   3.000   9.858  1.3705  0.5189 -1.6026
  817MPD2     N12083   3.522   2.722   9.686  0.4542 -0.3010  0.0223
  817MPD2    H512084   3.506   2.626   9.659 -0.3952 -0.1882  0.1097
  817MPD2    N112085   3.926   2.551   9.871  0.9252 -0.4592 -0.3686
  817MPD2    H712086   3.888   2.458   9.858 -0.2581 -0.0600  0.2318
  818MPD2     C12087   2.453   2.028  10.233  0.1230 -0.4757  0.5584
  818MPD2    C112088   2.354   1.938  10.268 -0.2600  0.6651 -0.5948
  818MPD2    C212089   2.319   1.829  10.187 -0.9411 -1.1622 -0.5650
  818MPD2    C312090   2.394   1.815  10.067  0.6345 -0.8726 -0.8111
  818MPD2    C412091   2.490   1.915  10.028  0.9919 -0.6322  0.1818
  818MPD2    C512092   2.519   2.018  10.113  0.3432 -0.3190  0.0605
  818MPD2     H12093   2.253   1.755  10.230 -1.5371 -0.4895 -0.3285
  818MPD2    H112094   2.532   1.912   9.928  0.4085  1.7909 -0.1176
  818MPD2    H212095   2.476   2.122  10.283 -1.8559 -0.3590  1.2300
  818MPD2    H312096   2.597   2.086  10.080 -0.0736 -0.8620 -2.0599
  818MPD2     N12097   2.367   1.713   9.978  0.3558  0.6461 -0.0878
  818MPD2    H512098   2.417   1.714   9.890 -0.7039 -2.0536 -0.7341
  818MPD2    N112099   2.279   1.954  10.387  0.1730  0.3219 -0.3069
  818MPD2    H712100   2.206   1.888  10.410  0.0904 -0.2331 -2.1545
  819MPD2     C12101   1.075   3.534  15.758 -0.4518  0.6101 -0.1208
  819MPD2    C112102   1.000   3.431  15.720 -0.3247 -0.3282  0.4924
  819MPD2    C212103   1.017   3.310  15.780  0.1398 -0.1267 -0.2991
  819MPD2    C312104   1.081   3.301  15.904 -0.0968  0.9377  0.0989
  819MPD2    C412105   1.143   3.416  15.950 -0.3288 -0.7130  0.3135
  819MPD2    C512106   1.129   3.531  15.882  0.2726  0.2283  0.8289
  819MPD2     H12107   0.956   3.224  15.753 -1.4520  0.8081  0.2916
  819MPD2    H112108   1.187   3.425  16.049  0.8591 -0.1749 -0.2713
  819MPD2    H212109   1.074   3.623  15.697  2.2881  0.5515 -0.2159
  819MPD2    H312110   1.167   3.625  15.922  0.2888  1.0634 -1.1136
  819MPD2     N12111   1.080   3.178  15.978 -0.0113  0.2604 -0.3212
  819MPD2    H512112   1.047   3.094  15.931 -0.1172  0.2579 -0.2425
  819MPD2    N112113   0.922   3.462  15.609 -0.1015  0.2593 -0.2837
  819MPD2    H712114   0.910   3.558  15.580  0.9118  0.5032  0.1221
  820MPD2     C12115   0.035   3.746  15.416 -0.4983  0.4223  0.6279
  820MPD2    C112116   0.051   3.639  15.330  0.0450  0.2684 -0.0269
  820MPD2    C212117   0.180   3.612  15.308  0.3560 -0.4562 -0.2684
  820MPD2    C312118   0.286   3.688  15.360 -0.1729  0.5064 -0.4339
  820MPD2    C412119   0.258   3.806  15.437  0.2217  0.8173 -0.1458
  820MPD2    C512120   0.127   3.831  15.461  0.5793  0.5632 -0.5101
  820MPD2     H12121   0.200   3.524  15.247  1.1908 -1.7247  1.8039
  820MPD2    H112122   0.338   3.862  15.484  2.4612 -2.6250  0.1384
  820MPD2    H212123   4.674   3.777  15.454  0.7404  1.8465  2.6333
  820MPD2    H312124   0.113   3.914  15.529  0.1759  1.0551 -1.1894
  820MPD2     N12125   0.416   3.645  15.325  0.4605 -0.3920 -0.9230
  820MPD2    H512126   0.416   3.569  15.258  0.9354 -0.0673 -1.2989
  820MPD2    N112127   4.681   3.555  15.281  0.1372 -0.1630  0.0496
  820MPD2    H712128   4.709   3.481  15.218  0.9036  0.6439 -0.5508
  821MPD2     C12129   0.911   4.541  13.022 -0.3835  0.4038 -0.2454
  821MPD2    C112130   0.994   4.484  13.112 -0.4293 -0.3534  0.7987
  821MPD2    C212131   1.134   4.506  13.108  0.5528  0.1222 -0.0089
  821MPD2    C312132   1.184   4.600  13.018 -0.6180 -0.3579  0.1547
  821MPD2    C412133   1.094   4.661  12.939 -0.4175  0.1193 -1.2715
  821MPD2    C512134   0.963   4.644  12.939  0.1225 -0.1300  0.1937
  821MPD2     H12135   1.199   4.469  13.186 -0.0834  1.0251  0.9453
  821MPD2    H112136   1.124   4.735  12.866 -1.3540 -0.0657 -1.8455
  821MPD2    H212137   0.804   4.526  13.022 -0.2895 -0.2948  0.3008
  821MPD2    H312138   0.907   4.712  12.876  0.8017 -0.6305 -0.9458
  821MPD2     N12139   1.322   4.639  13.013 -0.1504 -0.4518 -0.5610
  821MPD2    H512140   1.349   4.707  12.944  0.9811 -0.7160 -0.3831
  821MPD2    N112141   0.945   4.393  13.213 -0.1441 -0.1607  0.4692
  821MPD2    H712142   1.014   4.344  13.268  0.4020  0.8981  0.7115
  822MPD2     C12143   1.838   4.638  15.585 -0.6863 -0.6433 -0.1931
  822MPD2    C112144   1.805   4.597  15.719 -0.3487 -0.0443 -0.6118
  822MPD2    C212145   1.725   4.677  15.795  0.3782  0.1032 -0.4309
  822MPD2    C312146   1.655   0.042  15.741 -0.1329 -0.4228 -0.2256
  822MPD2    C412147   1.683   0.085  15.613  0.1876 -0.6857  0.6875
  822MPD2    C512148   1.775   0.019  15.536  0.5275  0.8341 -0.3301
  822MPD2     H12149   1.675   4.636  15.881  0.6812 -0.3182 -0.4554
  822MPD2    H112150   1.615   0.152  15.562  1.5882  0.3169  0.1195
  822MPD2    H212151   1.895   4.577  15.516  0.0735  0.5733 -0.6504
  822MPD2    H312152   1.772   0.048  15.432 -1.9391  1.9387  0.0527
  822MPD2     N12153   1.551   0.101  15.822  0.3503 -1.0552  0.1180
  822MPD2    H512154   1.516   0.052  15.904  1.6246  0.0252  1.3096
  822MPD2    N112155   1.846   4.480  15.773  0.7946  1.0661  0.2373
  822MPD2    H712156   1.813   4.468  15.868  0.1356  0.8138 -0.0264
  823MPD2     C12157   1.182   0.163  16.539  0.2836  0.5643  0.0121
  823MPD2    C112158   1.189   0.092  16.420 -0.2193  0.2872 -0.5166
  823MPD2    C212159   1.168   4.693  16.423 -0.3146  0.2968  0.2186
  823MPD2    C312160   1.145   4.633  16.544  0.0158  0.2062  0.1966
  823MPD2    C412161   1.117   4.699  16.655  0.1748 -0.1307  0.8787
  823MPD2    C512162   1.140   0.103  16.653 -0.0133  0.0948  0.3550
  823MPD2     H12163   1.181   4.631  16.334  0.5206 -0.2708  0.7327
  823MPD2    H112164   1.094   4.650  16.749  0.1468  0.0578  0.9714
  823MPD2    H212165   1.201   0.269  16.551 -0.5044  0.7891 -0.7114
  823MPD2    H312166   1.108   0.165  16.736 -0.3734 -0.4676  0.6331
  823MPD2     N12167   1.145   4.492  16.556  0.0103 -0.3481  0.0451
  823MPD2    H512168   1.126   4.451  16.647 -0.3238  0.3287  0.2878
  823MPD2    N112169   1.217   0.164  16.302  0.5235  1.0304 -0.4019
  823MPD2    H712170   1.228   0.265  16.310  0.1027  1.0486 -0.0247
  824MPD2     C12171   2.274   3.766  15.895  0.4031 -0.3711  1.0598
  824MPD2    C112172   2.230   3.799  15.770  0.7440 -0.2079 -0.7146
  824MPD2    C212173   2.292   3.743  15.660 -0.3243 -0.3871  0.4405
  824MPD2    C312174   2.386   3.645  15.670  0.3640  0.5127  0.6213
  824MPD2    C412175   2.421   3.602  15.797  0.5383  0.3039  0.3525
  824MPD2    C512176   2.370   3.666  15.907 -0.2417  0.4585  0.1238
  824MPD2     H12177   2.262   3.787  15.565  1.9364 -0.9111 -0.5225
  824MPD2    H112178   2.480   3.512  15.805  0.1266  0.0152  0.1393
  824MPD2    H212179   2.241   3.820  15.983  0.4909  0.5590  0.5249
  824MPD2    H312180   2.403   3.634  16.005 -0.0352  0.6343  0.1129
  824MPD2     N12181   2.438   3.586  15.552 -0.1731 -0.1660 -0.1035
  824MPD2    H512182   2.419   3.636  15.466 -0.1797 -1.6434 -0.9776
  824MPD2    N112183   2.110   3.880  15.759  0.8288 -0.2409 -0.1899
  824MPD2    H712184   2.083   3.894  15.662  1.9162  0.5151 -0.3860
  825MPD2     C12185   3.089   3.610  15.014  0.0946 -0.0963 -0.7829
  825MPD2    C112186   2.970   3.670  15.053 -0.5575  1.0516  0.0974
  825MPD2    C212187   2.942   3.797  15.008 -0.0781 -0.3270  0.1153
  825MPD2    C312188   3.031   3.867  14.928  0.1994 -0.4814 -0.4024
  825MPD2    C412189   3.155   3.813  14.908 -0.6562 -0.2217 -0.3594
  825MPD2    C512190   3.176   3.681  14.944  0.3762  0.4333  0.1712
  825MPD2     H12191   2.847   3.846  15.025  0.3676  0.0223  1.5163
  825MPD2    H112192   3.238   3.864  14.860 -0.4863  0.3849  0.5773
  825MPD2    H212193   3.111   3.507  15.038 -2.1613 -0.5931 -0.7835
  825MPD2    H312194   3.269   3.633  14.916 -0.1956  0.5151 -1.8476
  825MPD2     N12195   3.009   4.000  14.887  0.0432 -0.4994 -0.4792
  825MPD2    H512196   3.083   4.037  14.828 -0.3017 -1.6948 -1.6871
  825MPD2    N112197   2.879   3.589  15.121 -0.5485  0.1742  0.0589
  825MPD2    H712198   2.920   3.502  15.155 -1.7116  0.4442  2.1374
  826MPD2     C12199   2.098   3.050  13.439  0.2417 -0.0531  0.2418
  826MPD2    C112200   2.157   3.179  13.411  0.1108  0.5979  0.3584
  826MPD2    C212201   2.076   3.290  13.424 -0.0124  0.0999 -0.7657
  826MPD2    C312202   1.937   3.275  13.441 -0.6814  0.6529  0.4262
  826MPD2    C412203   1.889   3.151  13.471  0.0339  0.1156 -0.6046
  826MPD2    C512204   1.966   3.039  13.470 -0.3905  0.1795 -0.1048
  826MPD2     H12205   2.117   3.391  13.417  1.2642 -0.5173 -2.0106
  826MPD2    H112206   1.782   3.140  13.488  0.1022  0.5736  0.1110
  826MPD2    H212207   2.158   2.961  13.455  1.3711  0.6348 -0.1493
  826MPD2    H312208   1.923   2.941  13.492 -2.6116  1.1400 -0.1041
  826MPD2     N12209   1.846   3.383  13.452  0.7473  0.0119 -0.2388
  826MPD2    H512210   1.752   3.354  13.475  1.2099 -0.1763  1.4614
  826MPD2    N112211   2.300   3.175  13.413  0.4992 -0.2285  0.0866
  826MPD2    H712212   2.346   3.087  13.433  2.1829  0.8523  0.9840
  827MPD2     C12213   2.993   1.198   9.911  0.1311  0.4634  0.0651
  827MPD2    C112214   3.037   1.069   9.941 -0.1307  0.0530  0.3969
  827MPD2    C212215   2.983   0.968   9.868 -0.9103  0.2654  0.6578
  827MPD2    C312216   2.885   0.984   9.767 -0.5873  0.4418 -0.5027
  827MPD2    C412217   2.840   1.114   9.746  0.1700  0.3414 -0.1623
  827MPD2    C512218   2.903   1.220   9.809  0.0033  0.0410 -0.4051
  827MPD2     H12219   3.018   0.868   9.889 -0.6657  0.4418  1.0780
  827MPD2    H112220   2.768   1.145   9.672 -1.4777  0.1161  1.3418
  827MPD2    H212221   3.038   1.280   9.967  0.4173 -0.1155  0.6797
  827MPD2    H312222   2.882   1.322   9.780  1.0338  0.9363  1.9338
  827MPD2     N12223   2.834   0.871   9.701  0.0135 -0.0521  0.2218
  827MPD2    H512224   2.875   0.779   9.720  1.4066  0.6860  0.8048
  827MPD2    N112225   3.116   1.050  10.054  0.0168  0.4403 -0.3708
  827MPD2    H712226   3.157   1.131  10.101  2.0802 -0.7431 -0.1533
  828MPD2     C12227   1.432   0.290  12.505 -0.3758 -0.3889 -0.1738
  828MPD2    C112228   1.331   0.306  12.410 -0.5440 -0.6228  0.3588
  828MPD2    C212229   1.366   0.313  12.275 -0.3257 -0.2929  0.2153
  828MPD2    C312230   1.499   0.313  12.236 -0.7383 -0.6179  0.4509
  828MPD2    C412231   1.595   0.298  12.332 -0.0477  0.6796 -0.3165
  828MPD2    C512232   1.563   0.278  12.465 -0.8187 -0.2960 -0.4513
  828MPD2     H12233   1.288   0.295  12.202  1.0497 -0.6322 -1.1812
  828MPD2    H112234   1.699   0.298  12.304  0.0461  0.5622  0.0284
  828MPD2    H212235   1.413   0.287  12.611  3.1864  0.5130  0.4930
  828MPD2    H312236   1.638   0.253  12.540 -0.4325 -2.2034 -1.4523
  828MPD2     N12237   1.547   0.334  12.105 -0.1576  0.1010  0.1488
  828MPD2    H512238   1.648   0.339  12.089 -0.0880  0.4887  0.7289
  828MPD2    N112239   1.193   0.312  12.444  0.3702 -0.3027 -0.2330
  828MPD2    H712240   1.128   0.316  12.366 -0.6440 -1.0921  0.5766
  829MPD2     C12241   0.770   0.865  11.957 -0.3216  0.0024  1.2070
  829MPD2    C112242   0.750   0.728  11.940  0.1022 -0.2876 -0.0207
  829MPD2    C212243   0.775   0.639  12.047  0.7082 -0.1712  0.4040
  829MPD2    C312244   0.828   0.677  12.174  0.5085 -0.4436  0.3277
  829MPD2    C412245   0.859   0.812  12.186  0.5584  0.2359 -0.6270
  829MPD2    C512246   0.841   0.893  12.079 -0.5365 -0.1635  0.0397
  829MPD2     H12247   0.756   0.534  12.026 -1.8848  0.1370  1.1770
  829MPD2    H112248   0.907   0.849  12.276 -2.3649 -0.7625  1.3529
  829MPD2    H212249   0.759   0.937  11.877  2.0579  0.4972  1.3257
  829MPD2    H312250   0.861   0.998  12.097 -0.5317 -0.2474  0.5097
  829MPD2     N12251   0.837   0.595  12.285 -0.0230  0.2245  0.5687
  829MPD2    H512252   0.879   0.638  12.367  0.9578  0.6317 -0.1466
  829MPD2    N112253   0.689   0.688  11.815 -0.0659  0.0724 -0.3717
  829MPD2    H712254   0.669   0.759  11.745 -0.0585  0.6138  0.1677
  830MPD2     C12255   1.590   2.830  15.833  0.2936 -0.1636 -0.0875
  830MPD2    C112256   1.456   2.863  15.840  0.4033 -0.7179  0.4963
  830MPD2    C212257   1.410   2.971  15.776  0.2735 -0.2814 -0.8300
  830MPD2    C312258   1.501   3.058  15.716  0.0515  0.0921  0.2591
  830MPD2    C412259   1.635   3.018  15.712  0.1362  0.1846  0.3152
  830MPD2    C512260   1.679   2.900  15.766 -0.0204 -0.1404  0.4111
  830MPD2     H12261   1.305   2.994  15.794  0.4076 -0.6473  0.4219
  830MPD2    H112262   1.710   3.084  15.669  0.2166 -0.0023  0.1697
  830MPD2    H212263   1.625   2.734  15.868 -0.6361 -0.4486  0.0704
  830MPD2    H312264   1.785   2.877  15.776  0.3186  0.8808 -0.8912
  830MPD2     N12265   1.467   3.176  15.647 -0.0537 -0.4657  0.1771
  830MPD2    H512266   1.540   3.240  15.619  0.8086 -1.2885  0.5228
  830MPD2    N112267   1.371   2.771  15.911 -0.0076 -0.0946 -0.2166
  830MPD2    H712268   1.405   2.691  15.964 -1.5732  0.0402  0.9960
  831MPD2     C12269   1.725   4.720  16.305  0.6086  0.3524 -0.2811
  831MPD2    C112270   1.767   4.654  16.188  0.2801  0.5410 -0.0912
  831MPD2    C212271   1.668   4.570  16.131  0.2141  0.3743  0.6150
  831MPD2    C312272   1.536   4.568  16.188  0.7326 -0.1335 -0.4404
  831MPD2    C412273   1.501   4.639  16.293 -0.2211 -0.1156  0.3926
  831MPD2    C512274   1.599   4.716  16.353  0.0607  0.1493 -0.3793
  831MPD2     H12275   1.699   4.504  16.051 -0.8980  1.6570 -0.8624
  831MPD2    H112276   1.397   4.637  16.322  0.0771 -1.2793  1.3710
  831MPD2    H212277   1.798   0.046  16.355  1.0141  1.0354 -1.6971
  831MPD2    H312278   1.575   0.043  16.438 -1.5472 -0.2263 -0.5473
  831MPD2     N12279   1.437   4.486  16.134 -0.3910 -0.9580 -0.1398
  831MPD2    H512280   1.360   4.458  16.195  0.3215 -1.4294  0.5431
  831MPD2    N112281   1.892   4.665  16.128  0.3406  0.6486 -0.6777
  831MPD2    H712282   1.920   4.591  16.065 -1.4447 -0.1235 -0.5630
  832MPD2     C12283   0.074   1.194  17.215 -0.2969 -0.2410 -0.7083
  832MPD2    C112284   0.075   1.291  17.121  0.4054 -0.3074  0.2860
  832MPD2    C212285   4.695   1.322  17.052  0.2797  0.0139 -0.8914
  832MPD2    C312286   4.585   1.239  17.071 -0.6276  0.1708 -0.5240
  832MPD2    C412287   4.593   1.140  17.168 -0.5518 -0.4599  0.3003
  832MPD2    C512288   4.704   1.121  17.236 -0.4128 -0.0016  0.1981
  832MPD2     H12289   4.694   1.388  16.966 -1.4592 -0.3380 -1.1272
  832MPD2    H112290   4.508   1.075  17.181 -3.4436  3.0599 -0.8381
  832MPD2    H212291   0.169   1.175  17.265 -0.9295 -0.7106  0.3358
  832MPD2    H312292   4.712   1.035  17.301  2.1153 -0.9032 -1.2876
  832MPD2     N12293   4.470   1.246  16.992 -0.5082 -0.0857  0.1825
  832MPD2    H512294   4.397   1.182  17.022 -2.0728  1.5040 -0.2346
  832MPD2    N112295   0.199   1.352  17.098  0.3582  0.7578 -0.0390
  832MPD2    H712296   0.278   1.341  17.160 -2.1106 -1.9262  2.5969
  833MPD2     C12297   1.678   2.872  12.920 -0.5477  0.1368 -0.2339
  833MPD2    C112298   1.672   2.924  12.788 -0.8239  0.3981 -0.3380
  833MPD2    C212299   1.778   2.903  12.702  0.2504 -0.4257  0.0283
  833MPD2    C312300   1.878   2.822  12.738  0.0165  0.1036 -0.4153
  833MPD2    C412301   1.883   2.780  12.871 -0.0559 -0.2576  0.0168
  833MPD2    C512302   1.785   2.806  12.965 -0.1015  0.5205 -0.1488
  833MPD2     H12303   1.764   2.932  12.599 -0.9358  0.2928  0.3944
  833MPD2    H112304   1.967   2.721  12.907 -0.0861 -1.0297 -1.2093
  833MPD2    H212305   1.591   2.880  12.984  0.6408  0.2864  1.3619
  833MPD2    H312306   1.795   2.757  13.061  0.6641 -0.1706 -0.5754
  833MPD2     N12307   1.965   2.778  12.633  0.2414  0.1431  0.5991
  833MPD2    H512308   1.945   2.815  12.541 -2.7345 -0.7991  0.8675
  833MPD2    N112309   1.556   2.979  12.730  0.0573  0.3921  0.6847
  833MPD2    H712310   1.567   2.995  12.631  3.5866 -2.4515  0.6094
  834MPD2     C12311   1.841   1.996  12.010  1.1941  0.6032 -0.1113
  834MPD2    C112312   1.844   2.111  11.930  0.0292 -0.0311 -0.0192
  834MPD2    C212313   1.912   2.227  11.977  0.3831  0.9804 -0.5528
  834MPD2    C312314   1.972   2.224  12.101  0.0837  0.0891  0.1921
  834MPD2    C412315   1.964   2.111  12.180 -0.4468  0.6865 -0.2479
  834MPD2    C512316   1.904   1.993  12.138  0.0574  0.8369 -0.2201
  834MPD2     H12317   1.929   2.317  11.919 -0.0249  1.2135 -0.3094
  834MPD2    H112318   2.006   2.113  12.279  0.1304 -1.7292 -0.4463
  834MPD2    H212319   1.783   1.907  11.989  0.7849  0.5825  1.1190
  834MPD2    H312320   1.897   1.907  12.204  2.0345  0.4986 -0.4626
  834MPD2     N12321   2.008   2.352  12.158 -0.0524 -0.1526 -0.5690
  834MPD2    H512322   1.986   2.433  12.102  1.8159 -0.0075 -1.0736
  834MPD2    N112323   1.775   2.112  11.804  0.4910 -0.4717 -0.3109
  834MPD2    H712324   1.705   2.039  11.795  0.3796 -0.4290  0.2037
  835MPD2     C12325   2.261   0.540  10.808  0.0379  0.5516  0.2915
  835MPD2    C112326   2.152   0.595  10.875  0.1145  0.1925  0.5044
  835MPD2    C212327   2.155   0.589  11.009  1.0502  0.5170 -0.2009
  835MPD2    C312328   2.267   0.548  11.084 -0.2836 -0.0466  0.0572
  835MPD2    C412329   2.373   0.506  11.013  0.6025 -0.2707 -0.5476
  835MPD2    C512330   2.367   0.507  10.878 -0.6485  0.2137 -0.4069
  835MPD2     H12331   2.063   0.612  11.062  0.9020  1.0130 -0.6786
  835MPD2    H112332   2.464   0.475  11.062 -0.8930 -0.1886  2.2745
  835MPD2    H212333   2.272   0.530  10.701  1.3946 -1.6801  0.6342
  835MPD2    H312334   2.449   0.457  10.826 -0.9109 -0.4475 -0.1841
  835MPD2     N12335   2.265   0.558  11.225 -0.4241  0.0414 -0.3482
  835MPD2    H512336   2.349   0.526  11.272 -0.7598 -1.4336 -0.7546
  835MPD2    N112337   2.034   0.645  10.811  0.5100 -0.1500 -0.4658
  835MPD2    H712338   1.951   0.662  10.868  0.7181 -0.1753 -0.1583
  836MPD2     C12339   1.652   0.751  11.602  0.7584  0.5781  0.1770
  836MPD2    C112340   1.754   0.749  11.698  0.2271 -0.1855 -0.4027
  836MPD2    C212341   1.725   0.715  11.827 -0.4594 -0.3169 -0.7338
  836MPD2    C312342   1.592   0.711  11.873  0.3357 -0.1536  0.3624
  836MPD2    C412343   1.492   0.716  11.776  0.5742  0.0164 -0.1938
  836MPD2    C512344   1.521   0.746  11.643 -0.2537  0.2687  0.1093
  836MPD2     H12345   1.802   0.688  11.898 -1.4583 -1.4885 -0.0929
  836MPD2    H112346   1.388   0.731  11.804  0.9104  0.1012  0.9963
  836MPD2    H212347   1.675   0.767  11.498 -3.4091 -1.2131 -1.0190
  836MPD2    H312348   1.442   0.758  11.569 -0.1453  0.7559  0.0670
  836MPD2     N12349   1.556   0.705  12.009  0.4239 -0.2614 -0.3759
  836MPD2    H512350   1.460   0.709  12.042 -0.0374 -0.5814 -1.6643
  836MPD2    N112351   1.889   0.749  11.649 -0.0570  0.2975  0.4879
  836MPD2    H712352   1.904   0.746  11.549 -1.1470  1.8165  0.2804
  837MPD2     C12353   0.142   0.177   9.903  0.0694  0.1475 -0.0251
  837MPD2    C112354   0.018   0.220   9.949  0.0656  0.0466 -0.2421
  837MPD2    C212355   0.006   0.348  10.008  0.0343  0.0880  0.1740
  837MPD2    C312356   0.116   0.427  10.033  0.1798  0.0517  0.2318
  837MPD2    C412357   0.242   0.370  10.001 -0.2242 -0.1562  0.0801
  837MPD2    C512358   0.251   0.249   9.942  0.7027 -0.3371  0.4268
  837MPD2     H12359   4.642   0.381  10.033 -0.0052 -0.0399  0.1829
  837MPD2    H112360   0.332   0.431   9.996 -0.3189 -0.0245 -0.0212
  837MPD2    H212361   0.158   0.083   9.851  1.5334 -0.2419  1.1264
  837MPD2    H312362   0.352   0.215   9.922  0.7926  0.0640  0.2022
  837MPD2     N12363   0.097   0.563  10.070 -0.7476 -0.2606 -0.0346
  837MPD2    H512364   4.736   0.585  10.092  0.3089  4.1684  0.3824
  837MPD2    N112365   4.633   0.160   9.905 -0.1159  0.1527  0.4128
  837MPD2    H712366   4.546   0.188   9.949 -1.0775 -1.0214 -0.7300
  838MPD2     C12367   3.680   3.330  12.030  0.2945  0.2459 -0.5541
  838MPD2    C112368   3.581   3.246  11.976  0.4184  0.6158  0.2118
  838MPD2    C212369   3.486   3.197  12.069 -0.0620  0.0064 -0.2989
  838MPD2    C312370   3.488   3.225  12.205 -0.4780 -0.5814  0.5831
  838MPD2    C412371   3.576   3.313  12.252 -0.1114  0.0891 -0.7072
  838MPD2    C512372   3.671   3.361  12.167  0.3400 -0.1776 -0.4021
  838MPD2     H12373   3.408   3.125  12.044 -0.0985 -1.1819  3.2160
  838MPD2    H112374   3.574   3.351  12.354  0.8669 -2.2530  0.1912
  838MPD2    H212375   3.770   3.354  11.976  1.0116  0.0845  0.5669
  838MPD2    H312376   3.748   3.426  12.207  1.0874 -2.4507  1.8343
  838MPD2     N12377   3.389   3.172  12.284 -0.5260 -0.7675 -0.4991
  838MPD2    H512378   3.315   3.121  12.236 -0.8301  0.2133 -1.0582
  838MPD2    N112379   3.575   3.204  11.839 -0.1933  0.0564  0.2207
  838MPD2    H712380   3.496   3.142  11.822 -0.5796  0.8187 -0.8141
  839MPD2     C12381   2.834   3.012  11.722 -0.2812  1.1668  0.1908
  839MPD2    C112382   2.892   2.934  11.625  0.2432 -0.0359 -0.2030
  839MPD2    C212383   3.013   2.970  11.562  0.2046  0.2436  0.2537
  839MPD2    C312384   3.079   3.080  11.612 -0.3493  0.4188 -0.1749
  839MPD2    C412385   3.016   3.160  11.714  0.1528  0.4625 -0.5181
  839MPD2    C512386   2.896   3.125  11.764  1.4179  0.3718 -0.3029
  839MPD2     H12387   3.057   2.907  11.485 -1.3984  1.5275 -1.7304
  839MPD2    H112388   3.065   3.251  11.747 -0.1128 -0.2493  1.7866
  839MPD2    H212389   2.745   2.977  11.774 -0.3620 -2.2106 -2.1940
  839MPD2    H312390   2.840   3.192  11.828 -0.4437 -0.8780 -0.6244
  839MPD2     N12391   3.215   3.121  11.583 -0.1358 -0.2441 -0.0343
  839MPD2    H512392   3.252   3.205  11.627 -0.1817  0.2433 -0.9299
  839MPD2    N112393   2.832   2.803  11.584  0.1608 -0.3666  0.4338
  839MPD2    H712394   2.896   2.751  11.525 -0.0365 -2.5193  2.1213
  840MPD2     C12395   3.479   1.491  10.249 -0.4321 -0.6381  0.4138
  840MPD2    C112396   3.522   1.389  10.329 -0.1424 -0.3895 -0.2511
  840MPD2    C212397   3.622   1.406  10.421  0.3309  0.3162  0.9691
  840MPD2    C312398   3.690   1.528  10.426  0.2039 -0.1981 -0.4960
  840MPD2    C412399   3.649   1.629  10.344 -0.0066 -0.1362 -0.2703
  840MPD2    C512400   3.537   1.613  10.255 -0.0584  0.5037  0.1608
  840MPD2     H12401   3.650   1.320  10.481  2.0908 -0.7805 -1.4265
  840MPD2    H112402   3.692   1.729  10.347  2.0084 -0.9743 -1.3625
  840MPD2    H212403   3.396   1.486  10.179 -1.2739 -0.5573  1.3994
  840MPD2    H312404   3.500   1.698  10.198  0.2386 -0.1735 -1.0309
  840MPD2     N12405   3.796   1.560  10.513 -0.3509 -0.6152 -0.1089
  840MPD2    H512406   3.845   1.648  10.502 -0.3263 -0.6720 -0.4435
  840MPD2    N112407   3.445   1.268  10.328  0.8828 -0.3480  0.3242
  840MPD2    H712408   3.362   1.272  10.269  0.9232 -0.3356  0.2678
  841MPD2     C12409   2.976   0.464  14.515 -0.0614  0.2407  0.4193
  841MPD2    C112410   3.033   0.364  14.437  0.0596  0.1950 -0.4889
  841MPD2    C212411   3.160   0.317  14.465  0.4260  0.3470  1.0341
  841MPD2    C312412   3.227   0.375  14.570 -0.6698  0.0198  0.1409
  841MPD2    C412413   3.174   0.476  14.648  0.1215 -0.8103  0.1033
  841MPD2    C512414   3.044   0.507  14.623 -0.4719 -0.0208  0.0778
  841MPD2     H12415   3.204   0.236  14.407  0.5715  1.2936 -0.1856
  841MPD2    H112416   3.218   0.521  14.737 -0.8875  0.1729  0.1037
  841MPD2    H212417   2.872   0.492  14.499  0.5124  1.3184 -1.3671
  841MPD2    H312418   3.004   0.581  14.691  0.1311 -0.1919  0.6150
  841MPD2     N12419   3.356   0.330  14.599 -0.2958  0.1621  0.0851
  841MPD2    H512420   3.402   0.273  14.528  1.3972  1.3256  0.2378
  841MPD2    N112421   2.954   0.310  14.331  0.0835 -0.0081 -0.1509
  841MPD2    H712422   3.013   0.247  14.279 -1.1167 -2.8714  1.9488
  842MPD2     C12423   4.169   1.599  17.011 -0.6961 -0.4763 -0.0428
  842MPD2    C112424   4.085   1.494  17.035 -0.3622 -0.0472 -1.3183
  842MPD2    C212425   4.122   1.390  17.120  0.2911 -0.3133  0.1162
  842MPD2    C312426   4.240   1.401  17.198 -0.3229 -0.0794  0.0668
  842MPD2    C412427   4.326   1.501  17.162  0.3156  0.0301 -0.4350
  842MPD2    C512428   4.290   1.599  17.076 -0.1869  0.5566  0.1039
  842MPD2     H12429   4.054   1.307  17.129  0.1839  0.0453  2.4471
  842MPD2    H112430   4.424   1.507  17.208 -0.3591  1.3232  0.8166
  842MPD2    H212431   4.150   1.676  16.937  0.4716  0.0618  0.2232
  842MPD2    H312432   4.357   1.684  17.065 -1.2938  1.3510 -0.4342
  842MPD2     N12433   4.281   1.309  17.294  0.7097 -0.3802  0.4547
  842MPD2    H512434   4.380   1.308  17.317  0.5123 -2.7534  1.1997
  842MPD2    N112435   3.966   1.490  16.960 -0.4054 -0.3373 -0.5513
  842MPD2    H712436   3.966   1.554  16.881 -1.3737 -1.2061 -1.2543
  843MPD2     C12437   1.256   2.199  17.351 -0.0900 -0.1119 -0.8731
  843MPD2    C112438   1.276   2.177  17.486 -0.2418 -0.1679 -0.1973
  843MPD2    C212439   1.342   2.271  17.568  0.1087  0.3450 -0.1806
  843MPD2    C312440   1.404   2.385  17.506  0.3780 -0.5879  0.5055
  843MPD2    C412441   1.394   2.397  17.369  0.3078  0.1282  0.2449
  843MPD2    C512442   1.317   2.307  17.291 -0.0062 -0.6752  0.2910
  843MPD2     H12443   1.333   2.259  17.675 -0.3320 -0.2040 -0.2770
  843MPD2    H112444   1.445   2.475  17.314  1.2057 -0.8500 -0.3179
  843MPD2    H212445   1.188   2.145  17.287 -0.6030 -0.7982  0.2476
  843MPD2    H312446   1.283   2.323  17.189  1.7994 -1.3089 -0.3988
  843MPD2     N12447   1.477   2.489  17.575  0.5887  0.3327 -1.0606
  843MPD2    H512448   1.494   2.575  17.523 -0.3510  0.0091 -1.9121
  843MPD2    N112449   1.203   2.065  17.535 -0.0437  0.2301  0.2919
  843MPD2    H712450   1.141   2.012  17.473  1.8545 -0.9081 -0.6348
  844MPD2     C12451   4.114   0.660  16.509 -0.0082  0.1193  0.7415
  844MPD2    C112452   4.193   0.715  16.408  0.0016 -0.0989  0.3405
  844MPD2    C212453   4.297   0.800  16.444  0.0976  0.1139  1.0669
  844MPD2    C312454   4.326   0.830  16.581 -0.0443  0.2626  0.6424
  844MPD2    C412455   4.254   0.764  16.677 -0.0827 -0.2153  0.2175
  844MPD2    C512456   4.145   0.688  16.639 -0.4170  0.0921  0.4915
  844MPD2     H12457   4.358   0.841  16.364  0.7696 -1.1004  0.9530
  844MPD2    H112458   4.270   0.782  16.783 -0.9983  0.0632  0.3115
  844MPD2    H212459   4.030   0.595  16.493  0.7029  0.2084 -3.3044
  844MPD2    H312460   4.093   0.629  16.714 -1.7052 -0.5754 -0.9287
  844MPD2     N12461   4.434   0.915  16.610 -0.6530 -1.0383 -0.3113
  844MPD2    H512462   4.487   0.961  16.536  1.5116 -0.5220  1.5585
  844MPD2    N112463   4.180   0.677  16.267  0.1186  0.4526 -0.3460
  844MPD2    H712464   4.246   0.703  16.195 -0.5039  1.7100 -0.4635
  845MPD2     C12465   4.662   1.872  16.550  0.1035  0.2888  0.5712
  845MPD2    C112466   4.727   1.830  16.668 -0.2179 -0.9996  0.5572
  845MPD2    C212467   0.020   1.697  16.692  0.2397  0.0801 -0.1932
  845MPD2    C312468   4.711   1.604  16.603 -0.4033 -0.1414  0.9799
  845MPD2    C412469   4.633   1.647  16.495  0.2419  0.4176 -0.2655
  845MPD2    C512470   4.622   1.779  16.462  0.4918 -1.0119 -0.4505
  845MPD2     H12471   0.073   1.664  16.781  1.7737  0.1234 -1.0850
  845MPD2    H112472   4.600   1.582  16.415 -1.3628  1.3989 -0.3998
  845MPD2    H212473   4.646   1.978  16.535 -2.1501 -0.5005 -2.8022
  845MPD2    H312474   4.579   1.800  16.365 -1.0830 -0.9594  0.2518
  845MPD2     N12475   4.733   1.467  16.634 -0.2627 -0.3335 -0.0678
  845MPD2    H512476   0.044   1.461  16.724 -0.1513 -1.8655 -0.2384
  845MPD2    N112477   0.036   1.937  16.753  0.5295  0.5052 -0.1955
  845MPD2    H712478   0.004   2.031  16.732  1.1835  0.2028 -2.5806
  846MPD2     C12479   1.167   2.198  13.467 -0.1585  0.2040 -0.3298
  846MPD2    C112480   1.064   2.278  13.417  0.8643 -0.5043  0.0984
  846MPD2    C212481   0.983   2.352  13.504 -1.2534  0.1231 -0.2442
  846MPD2    C312482   1.028   2.364  13.638  0.4196 -0.5392  0.9901
  846MPD2    C412483   1.141   2.291  13.678  0.1217  0.0379 -0.0157
  846MPD2    C512484   1.204   2.205  13.596 -0.0792  0.0123  0.2585
  846MPD2     H12485   0.896   2.404  13.466 -0.1731  1.1813 -1.2841
  846MPD2    H112486   1.191   2.295  13.774 -0.3313 -2.5305  0.3160
  846MPD2    H212487   1.229   2.129  13.411  0.3074  1.4558 -1.3435
  846MPD2    H312488   1.283   2.141  13.635  0.0532 -2.1871 -3.5914
  846MPD2     N12489   0.959   2.440  13.731 -0.0916 -0.5467  0.2121
  846MPD2    H512490   0.871   2.481  13.700 -0.8250 -2.3642 -0.0670
  846MPD2    N112491   1.036   2.278  13.283  0.1279 -0.5672  0.5418
  846MPD2    H712492   0.990   2.362  13.250  1.9676  0.0903 -0.3900
  847MPD2     C12493   1.225   2.748  15.429 -0.5712 -0.1000  0.4146
  847MPD2    C112494   1.358   2.720  15.411  0.5596  0.5979 -0.2102
  847MPD2    C212495   1.428   2.610  15.473  0.4121  0.8075  0.0831
  847MPD2    C312496   1.356   2.524  15.555 -0.7185  0.0848 -0.1949
  847MPD2    C412497   1.218   2.552  15.574  0.0961  0.2175  0.3550
  847MPD2    C512498   1.160   2.662  15.508 -0.3061  0.7293  0.2114
  847MPD2     H12499   1.536   2.602  15.476  0.1501 -2.3774  1.1069
  847MPD2    H112500   1.167   2.485  15.642  0.1907  1.1988  1.3798
  847MPD2    H212501   1.175   2.830  15.380  2.0991  1.6352  0.5849
  847MPD2    H312502   1.057   2.690  15.523  0.3301  4.2048 -1.9934
  847MPD2     N12503   1.423   2.419  15.624  0.0879 -0.0651 -0.1427
  847MPD2    H512504   1.363   2.371  15.690 -0.2085 -1.1154 -1.1803
  847MPD2    N112505   1.444   2.820  15.360 -0.3121  0.7203  0.6823
  847MPD2    H712506   1.542   2.794  15.363 -1.0046 -2.1644 -1.6991
  848MPD2     C12507   4.233   1.354  16.178  0.7568 -0.2310 -0.3638
  848MPD2    C112508   4.221   1.443  16.288 -0.3180  0.1730 -0.5971
  848MPD2    C212509   4.217   1.582  16.258  0.6902  0.0539  0.4544
  848MPD2    C312510   4.204   1.631  16.128 -0.4100  0.3638  0.0833
  848MPD2    C412511   4.208   1.539  16.029 -0.9754 -0.3590  0.1031
  848MPD2    C512512   4.232   1.405  16.048  1.0995  0.0640  0.4143
  848MPD2     H12513   4.210   1.647  16.345  0.3007 -0.2126  0.6208
  848MPD2    H112514   4.202   1.566  15.924 -1.1613  1.3099  0.5514
  848MPD2    H212515   4.252   1.248  16.180  1.2484 -0.1349  0.0033
  848MPD2    H312516   4.246   1.343  15.960 -1.0490 -0.9147  0.7723
  848MPD2     N12517   4.194   1.768  16.095 -0.3838  0.4155 -0.6001
  848MPD2    H512518   4.169   1.792  16.000 -1.2285 -0.2944 -0.5532
  848MPD2    N112519   4.232   1.393  16.423 -0.0778 -0.0088  0.3972
  848MPD2    H712520   4.223   1.468  16.491  1.7844  1.0349 -0.4981
  849MPD2     C12521   3.246   0.807  14.243  0.5794  0.0322  0.2374
  849MPD2    C112522   3.358   0.783  14.159 -0.2323 -0.1754  0.0851
  849MPD2    C212523   3.461   0.708  14.215  0.2305  1.4260 -0.1517
  849MPD2    C312524   3.461   0.682  14.353 -0.7811 -0.3361 -0.5734
  849MPD2    C412525   3.361   0.718  14.435  0.0678  0.0025 -0.1214
  849MPD2    C512526   3.249   0.767  14.372  0.6217 -0.3128  0.1129
  849MPD2     H12527   3.541   0.666  14.155 -0.5898  0.7400 -0.7667
  849MPD2    H112528   3.362   0.715  14.544  1.1864 -1.6564 -0.1777
  849MPD2    H212529   3.158   0.857  14.204  0.5033  0.3288  0.7876
  849MPD2    H312530   3.165   0.802  14.431 -0.2191 -2.2820  0.0999
  849MPD2     N12531   3.569   0.616  14.422 -0.3254  0.2162 -0.0216
  849MPD2    H512532   3.574   0.632  14.522 -1.1058  0.8407 -0.0837
  849MPD2    N112533   3.358   0.829  14.029  0.8199  0.4709  0.5950
  849MPD2    H712534   3.272   0.871  13.996  0.6148  0.0189  0.5600
  850MPD2     C12535   1.733   0.070  15.085  0.4587  0.6907  0.1891
  850MPD2    C112536   1.714   4.686  15.142 -0.1024  0.2049  0.8680
  850MPD2    C212537   1.813   4.590  15.122  0.9993 -0.2376  0.4485
  850MPD2    C312538   1.921   4.606  15.042  0.7866 -0.2205  0.7276
  850MPD2    C412539   1.947   0.002  14.990 -0.6103  0.2490 -0.5501
  850MPD2    C512540   1.849   0.093  15.006 -0.1071  0.1822 -0.2514
  850MPD2     H12541   1.786   4.492  15.159  0.2558  0.4149  1.6167
  850MPD2    H112542   2.040   0.030  14.943 -1.2043  0.2001 -1.7626
  850MPD2    H212543   1.679   0.160  15.111 -0.4239  0.7545 -1.8588
  850MPD2    H312544   1.861   0.191  14.962 -1.5647  0.2480 -0.5033
  850MPD2     N12545   2.023   4.508  15.031  0.5526  0.2006  0.0470
  850MPD2    H512546   2.016   4.423  15.085 -2.0960 -0.3368 -1.1680
  850MPD2    N112547   1.611   4.670  15.234  0.0719 -0.8559  0.3094
  850MPD2    H712548   1.533   4.735  15.238 -0.0593 -0.8990 -1.9091
  851MPD2     C12549   1.688   4.141  15.470  0.2018 -0.3882  0.2514
  851MPD2    C112550   1.560   4.142  15.515 -0.6303 -0.0923 -0.8455
  851MPD2    C212551   1.494   4.019  15.538  0.5813  0.4592  0.0730
  851MPD2    C312552   1.562   3.902  15.514  0.2311  0.2894  0.7150
  851MPD2    C412553   1.695   3.907  15.478  0.4186  0.2206 -0.1315
  851MPD2    C512554   1.755   4.023  15.451 -0.1786 -0.7454 -0.2362
  851MPD2     H12555   1.394   4.023  15.578  0.1300  1.1879 -1.1321
  851MPD2    H112556   1.758   3.824  15.446  1.2064  0.8392 -0.1862
  851MPD2    H212557   1.733   4.235  15.438 -2.2615  0.9023  0.5451
  851MPD2    H312558   1.855   4.023  15.410  0.1170  1.3939  0.5068
  851MPD2     N12559   1.496   3.778  15.537  0.3118 -0.3783 -0.5004
  851MPD2    H512560   1.394   3.785  15.531  0.2526 -0.0984  1.0446
  851MPD2    N112561   1.502   4.271  15.515  0.3481 -0.1581  0.0519
  851MPD2    H712562   1.555   4.348  15.477 -1.0052 -0.1542 -1.8321
  852MPD2     C12563   1.349   2.129  10.682 -1.6145  0.3540 -0.5497
  852MPD2    C112564   1.273   2.241  10.689 -0.3025  0.5246  0.1947
  852MPD2    C212565   1.300   2.350  10.602 -0.3530  0.0719  0.1479
  852MPD2    C312566   1.411   2.336  10.515 -0.9890 -0.2323 -0.5355
  852MPD2    C412567   1.492   2.228  10.514  0.7736 -0.1182  0.4153
  852MPD2    C512568   1.457   2.126  10.596 -0.4830  0.3642 -0.3055
  852MPD2     H12569   1.243   2.442  10.605 -1.1154 -0.4450  1.1272
  852MPD2    H112570   1.581   2.215  10.455  0.8144  1.0580  0.2264
  852MPD2    H212571   1.351   2.040  10.744 -0.1050  0.9164  0.2139
  852MPD2    H312572   1.526   2.042  10.603 -0.0232  0.6606 -1.2324
  852MPD2     N12573   1.431   2.440  10.421  0.4721 -0.1139  0.6021
  852MPD2    H512574   1.369   2.520  10.417  2.2850  1.3882  2.6124
  852MPD2    N112575   1.169   2.240  10.784 -0.3192  0.0908 -0.1259
  852MPD2    H712576   1.176   2.161  10.848  1.7966 -0.1550 -0.6756
  853MPD2     C12577   3.157   1.694  12.349  0.2760 -0.0954 -0.5130
  853MPD2    C112578   3.022   1.725  12.351  0.5772 -0.3278 -0.4438
  853MPD2    C212579   2.956   1.730  12.227 -0.4139 -0.0529  0.3694
  853MPD2    C312580   3.031   1.712  12.114  0.3363  0.7632  1.0950
  853MPD2    C412581   3.163   1.687  12.112  0.2012  0.2490 -0.2487
  853MPD2    C512582   3.227   1.674  12.234  0.4429  0.1899 -0.7311
  853MPD2     H12583   2.854   1.764  12.215  0.3850  1.8450 -1.1801
  853MPD2    H112584   3.224   1.664  12.025  0.3484 -0.9736  0.1727
  853MPD2    H212585   3.213   1.690  12.442 -0.3081 -1.9956 -0.2358
  853MPD2    H312586   3.332   1.650  12.240  0.5147  0.7887  0.5040
  853MPD2     N12587   2.972   1.711  11.981  0.1687 -0.1288 -0.3235
  853MPD2    H512588   3.037   1.679  11.910 -1.9120 -1.2521 -1.7265
  853MPD2    N112589   2.948   1.756  12.464  0.0126  0.3973 -0.5936
  853MPD2    H712590   2.850   1.774  12.444 -0.4051  0.6746  1.7485
  854MPD2     C12591   4.534   1.838  12.908  0.2230 -0.2882  0.2321
  854MPD2    C112592   4.548   1.715  12.850  0.4353  0.2631  0.1537
  854MPD2    C212593   4.670   1.654  12.860  0.3273  0.3928  0.0243
  854MPD2    C312594   0.033   1.709  12.936 -0.1943  0.3151 -0.3787
  854MPD2    C412595   0.014   1.828  13.000 -0.0594  0.9163  0.5782
  854MPD2    C512596   4.629   1.893  12.985 -0.2062 -0.3047  0.6061
  854MPD2     H12597   4.672   1.551  12.824  1.1771  0.8374 -1.2188
  854MPD2    H112598   0.097   1.883  13.043  2.7046 -2.8532  0.0585
  854MPD2    H212599   4.446   1.899  12.891  0.5249 -0.1580 -0.8820
  854MPD2    H312600   4.616   1.994  13.024 -1.1094 -0.1929  0.0195
  854MPD2     N12601   0.167   1.660  12.942 -0.1747 -0.0747 -0.0701
  854MPD2    H512602   0.237   1.712  12.993  1.2897 -1.6298 -0.5032
  854MPD2    N112603   4.435   1.660  12.784 -0.4198 -0.3463  0.8137
  854MPD2    H712604   4.350   1.716  12.790  0.2978  0.6587  1.5975
  855MPD2     C12605   0.624   1.670  13.641  0.1101  0.0833 -0.0718
  855MPD2    C112606   0.606   1.539  13.611  0.1545 -0.2658  0.8066
  855MPD2    C212607   0.587   1.517  13.478  0.0500  0.2086  0.3234
  855MPD2    C312608   0.588   1.615  13.384 -0.7136 -0.1332  0.8773
  855MPD2    C412609   0.601   1.746  13.416  0.0678  0.4847  0.0537
  855MPD2    C512610   0.621   1.770  13.551  0.1378 -0.0090  0.6597
  855MPD2     H12611   0.558   1.415  13.457 -0.8736  0.5643 -0.1594
  855MPD2    H112612   0.606   1.827  13.344  0.7765  1.4506  1.1835
  855MPD2    H212613   0.633   1.701  13.745  1.1847 -0.7944  0.1096
  855MPD2    H312614   0.612   1.872  13.585  1.7913  0.6775 -0.9628
  855MPD2     N12615   0.562   1.585  13.249  0.0191 -0.1054  0.3602
  855MPD2    H512616   0.557   1.657  13.178  0.8841 -0.7751 -0.3722
  855MPD2    N112617   0.596   1.435  13.711 -0.0017 -0.6948  0.2159
  855MPD2    H712618   0.575   1.342  13.676  0.1395 -0.6149 -0.0834
  856MPD2     C12619   2.417   1.874  13.851  0.0171 -0.7629 -0.0846
  856MPD2    C112620   2.379   2.003  13.877 -0.2226  0.1709 -0.4932
  856MPD2    C212621   2.312   2.076  13.778  0.1474  0.0656 -0.0466
  856MPD2    C312622   2.265   2.014  13.663  0.9473  0.0612  0.7752
  856MPD2    C412623   2.289   1.879  13.648 -0.4077  0.1394 -0.4775
  856MPD2    C512624   2.355   1.813  13.745  0.7739  0.2561 -0.4858
  856MPD2     H12625   2.294   2.181  13.799  0.2528 -0.2098  1.3762
  856MPD2    H112626   2.251   1.816  13.568 -0.0183 -0.9915  0.2229
  856MPD2    H212627   2.470   1.815  13.925 -0.1793 -1.1210 -0.2284
  856MPD2    H312628   2.358   1.705  13.743 -1.9816  0.2017 -1.1926
  856MPD2     N12629   2.198   2.080  13.556  0.2214  0.4930 -0.1975
  856MPD2    H512630   2.152   2.022  13.486  1.3292 -0.7803  0.1424
  856MPD2    N112631   2.422   2.078  13.987 -0.0916 -0.9779 -0.0280
  856MPD2    H712632   2.404   2.178  13.991 -1.0678 -1.1165 -1.0379
  857MPD2     C12633   3.789   4.381  13.024  0.4986 -0.0503 -0.5022
  857MPD2    C112634   3.903   4.436  12.977 -0.2077  0.0011  0.0296
  857MPD2    C212635   3.958   4.531  13.056  0.0769  0.1161  0.4078
  857MPD2    C312636   3.907   4.568  13.179  0.1555  0.6257 -0.2583
  857MPD2    C412637   3.787   4.516  13.224 -0.6426 -0.2481 -0.0989
  857MPD2    C512638   3.728   4.425  13.139 -0.4851 -0.7844 -1.1387
  857MPD2     H12639   4.048   4.583  13.026  0.7431 -0.7302  0.9436
  857MPD2    H112640   3.726   4.540  13.311  0.5332 -1.0066  0.9366
  857MPD2    H212641   3.737   4.304  12.968 -1.0398  1.0167 -0.5282
  857MPD2    H312642   3.639   4.369  13.164 -0.6253  0.6293  1.4778
  857MPD2     N12643   3.975   4.670  13.253  0.4494  0.0672 -0.2708
  857MPD2    H512644   4.068   4.691  13.218 -0.2451  1.2862 -1.3911
  857MPD2    N112645   3.951   4.404  12.848 -0.3698 -0.1769  0.9623
  857MPD2    H712646   3.907   4.321  12.811 -0.2688  0.5358 -0.7479
  858MPD2     C12647   4.279   3.630  16.604  0.3189 -0.1281  0.4275
  858MPD2    C112648   4.419   3.614  16.603 -0.4190  0.5975  0.9411
  858MPD2    C212649   4.497   3.689  16.691 -0.1949  0.1470  0.9126
  858MPD2    C312650   4.440   3.778  16.776  0.2061 -0.3961 -0.5395
  858MPD2    C412651   4.304   3.788  16.774 -0.1407  0.6717  0.0100
  858MPD2    C512652   4.223   3.710  16.697 -0.1251  0.3187 -0.1623
  858MPD2     H12653   4.605   3.690  16.681 -0.2316 -0.5584  0.4721
  858MPD2    H112654   4.264   3.862  16.843 -1.2884  0.8592 -0.8698
  858MPD2    H212655   4.220   3.568  16.537  1.7461  0.5658 -1.4753
  858MPD2    H312656   4.115   3.715  16.701 -0.0686  2.7911 -1.3833
  858MPD2     N12657   4.513   3.846  16.874  0.0779 -0.3696 -0.0818
  858MPD2    H512658   4.467   3.919  16.928 -2.5592 -3.7733  2.1728
  858MPD2    N112659   4.462   3.523  16.506  1.1290  0.2742 -0.5780
  858MPD2    H712660   4.391   3.483  16.447 -0.1344  1.8908 -0.1428
  859MPD2     C12661   3.561   0.555  15.602 -0.0631  0.3574 -0.4916
  859MPD2    C112662   3.543   0.515  15.469 -0.6132 -0.5682 -0.7865
  859MPD2    C212663   3.531   0.381  15.441  0.3526  0.7265 -0.8800
  859MPD2    C312664   3.541   0.286  15.545 -0.0875  0.5655  0.2098
  859MPD2    C412665   3.561   0.327  15.678 -0.2915  0.3744 -0.6005
  859MPD2    C512666   3.569   0.460  15.701 -0.7746  0.0974  0.3517
  859MPD2     H12667   3.519   0.353  15.337  0.9384 -0.7710 -0.5394
  859MPD2    H112668   3.599   0.263  15.756 -0.7868  1.4332  0.5117
  859MPD2    H212669   3.577   0.658  15.631 -0.1729  0.2164  0.0755
  859MPD2    H312670   3.601   0.492  15.800  1.1211 -2.5718  0.6147
  859MPD2     N12671   3.521   0.150  15.526  0.0327 -0.7102 -0.5103
  859MPD2    H512672   3.538   0.089  15.605  1.1090 -0.4061 -0.4948
  859MPD2    N112673   3.542   0.618  15.377 -0.2872 -0.6575  0.3010
  859MPD2    H712674   3.539   0.713  15.412  0.8181  0.5407 -2.7902
  860MPD2     C12675   1.288   1.914  11.757  0.6309 -0.3759 -0.6020
  860MPD2    C112676   1.290   1.781  11.749 -0.4288 -0.6452 -0.1544
  860MPD2    C212677   1.167   1.725  11.717 -0.4455  0.2544 -0.9295
  860MPD2    C312678   1.051   1.804  11.704  0.7335  0.2906  0.4801
  860MPD2    C412679   1.062   1.943  11.711 -0.3904  1.1203 -0.7986
  860MPD2    C512680   1.184   1.995  11.730 -0.1046  0.2011  0.3999
  860MPD2     H12681   1.158   1.618  11.730  3.9253 -0.0575 -0.2358
  860MPD2    H112682   0.987   2.017  11.689 -1.0682  1.2974  2.0979
  860MPD2    H212683   1.377   1.974  11.775  0.0618  0.5953 -0.9861
  860MPD2    H312684   1.194   2.103  11.725 -0.2842  0.1017 -2.2640
  860MPD2     N12685   0.923   1.739  11.697 -0.1468 -0.2937  0.2047
  860MPD2    H512686   0.931   1.638  11.697  0.0664 -0.2675 -3.0228
  860MPD2    N112687   1.406   1.700  11.794  0.3686 -0.2797 -0.0846
  860MPD2    H712688   1.390   1.600  11.803  1.4751 -0.3346  1.3429
  861MPD2     C12689   4.413   4.647  10.927  0.2642 -0.1064 -0.4032
  861MPD2    C112690   4.490   0.022  10.900 -0.7591  0.4118  0.3754
  861MPD2    C212691   4.438   0.115  10.810 -0.1688  0.2471 -0.3966
  861MPD2    C312692   4.324   0.086  10.733 -0.2241  0.2593 -0.4385
  861MPD2    C412693   4.253   4.710  10.759  0.5306 -0.0207 -0.2621
  861MPD2    C512694   4.296   4.619  10.853  0.4755 -0.1387 -0.4221
  861MPD2     H12695   4.496   0.206  10.800  1.1775 -0.5004  0.5440
  861MPD2    H112696   4.166   4.690  10.698 -0.1793  2.9808 -0.2537
  861MPD2    H212697   4.453   4.572  10.994 -0.6107 -0.4549 -0.2702
  861MPD2    H312698   4.238   4.531  10.877 -0.8269  0.3128 -1.9446
  861MPD2     N12699   4.277   0.168  10.627 -1.1021 -0.0123 -0.1777
  861MPD2    H512700   4.183   0.151  10.592 -1.9006 -0.8768  2.4109
  861MPD2    N112701   4.606   0.061  10.971 -0.7430  0.1671 -0.3600
  861MPD2    H712702   4.635   0.156  10.951  0.6321 -0.2092 -0.1610
  862MPD2     C12703   3.658   0.139  10.293  0.8716 -0.5502  0.3282
  862MPD2    C112704   3.744   0.108  10.394 -0.0380  0.3050  0.1914
  862MPD2    C212705   3.715   0.005  10.485 -0.3162 -0.2806  0.6370
  862MPD2    C312706   3.608   4.658  10.466 -0.0809 -0.6861  0.5433
  862MPD2    C412707   3.521   4.689  10.360 -0.1796 -0.5826  0.2669
  862MPD2    C512708   3.553   0.051  10.269  1.0626 -0.5827 -0.7486
  862MPD2     H12709   3.793   4.716  10.556 -0.3064 -0.5478  0.5289
  862MPD2    H112710   3.430   4.634  10.337 -0.0006  1.0074 -4.2709
  862MPD2    H212711   3.678   0.214  10.217  1.9832  0.3135  1.4758
  862MPD2    H312712   3.486   0.072  10.186  2.1638 -0.6165 -1.6430
  862MPD2     N12713   3.586   4.537  10.542 -0.6736 -0.8214 -0.2501
  862MPD2    H512714   3.517   4.470  10.509 -0.7046 -1.2988  0.7734
  862MPD2    N112715   3.865   0.183  10.421 -0.0831 -0.4258 -0.4053
  862MPD2    H712716   3.919   0.163  10.505  1.2016  0.2996 -1.0506
  863MPD2     C12717   2.679   2.328  16.764 -0.6152 -0.3996  0.2382
  863MPD2    C112718   2.703   2.459  16.764  0.1389  0.3948  0.1232
  863MPD2    C212719   2.796   2.505  16.853  0.2192 -0.2210 -0.0322
  863MPD2    C312720   2.868   2.418  16.932 -0.1374 -0.0681 -0.4647
  863MPD2    C412721   2.843   2.285  16.921 -0.5226 -0.2810  0.6098
  863MPD2    C512722   2.742   2.239  16.843  0.3327  0.6361 -0.3003
  863MPD2     H12723   2.828   2.609  16.852 -1.9987  0.4739  1.5328
  863MPD2    H112724   2.897   2.212  16.980 -0.9045 -1.2901 -0.3068
  863MPD2    H212725   2.591   2.300  16.708  2.0490 -4.0286 -2.1577
  863MPD2    H312726   2.717   2.134  16.853  2.1280  0.3149  0.8402
  863MPD2     N12727   2.962   2.459  17.030 -0.3803 -0.2720 -0.3288
  863MPD2    H512728   3.021   2.389  17.073  0.7892  0.2729 -1.0633
  863MPD2    N112729   2.640   2.551  16.676 -0.4217 -0.0769  0.0641
  863MPD2    H712730   2.671   2.648  16.679  1.5770 -0.7402  1.3812
  864MPD2     C12731   3.444   4.209  16.918  0.2759  0.7687  0.1298
  864MPD2    C112732   3.528   4.103  16.900  0.2184 -0.0424 -0.7398
  864MPD2    C212733   3.645   4.126  16.837  0.1926 -0.5242  0.1179
  864MPD2    C312734   3.678   4.254  16.790 -0.3606 -0.4360  0.2735
  864MPD2    C412735   3.586   4.355  16.802  0.0155 -0.6263 -0.1993
  864MPD2    C512736   3.474   4.331  16.872  0.3616 -0.6255  0.2557
  864MPD2     H12737   3.705   4.036  16.829 -0.0804 -0.6854 -0.1208
  864MPD2    H112738   3.603   4.455  16.765 -0.2527 -0.5217 -0.0348
  864MPD2    H212739   3.359   4.198  16.984  0.6734 -0.2120  0.4712
  864MPD2    H312740   3.403   4.409  16.899  1.4709  0.4967 -0.0884
  864MPD2     N12741   3.797   4.278  16.713  0.1800 -0.3865 -0.2904
  864MPD2    H512742   3.818   4.374  16.688 -1.4118 -0.1260 -0.6682
  864MPD2    N112743   3.482   3.973  16.935 -0.0939 -0.1873  0.1935
  864MPD2    H712744   3.383   3.959  16.954  0.2296  0.6049  2.4471
  865MPD2     C12745   3.680   4.152  15.921 -0.2140  0.2626 -0.3707
  865MPD2    C112746   3.763   4.062  15.992  0.1623 -0.0047  0.0237
  865MPD2    C212747   3.846   4.112  16.090 -0.0649  0.2767  0.1174
  865MPD2    C312748   3.843   4.243  16.129  0.4263 -0.0787 -0.2864
  865MPD2    C412749   3.757   4.330  16.063  0.5191  0.0364 -0.0728
  865MPD2    C512750   3.672   4.283  15.964 -0.6464  0.0861  0.5505
  865MPD2     H12751   3.916   4.045  16.138 -0.7893 -0.9781 -0.5770
  865MPD2    H112752   3.753   4.432  16.100  0.2962  0.2707 -0.7312
  865MPD2    H212753   3.616   4.122  15.839 -1.1042 -0.8677  0.7306
  865MPD2    H312754   3.612   4.349  15.904  1.0158  0.5007 -0.6315
  865MPD2     N12755   3.926   4.282  16.232 -0.1300  0.2680 -0.1199
  865MPD2    H512756   4.004   4.225  16.264 -0.0409  1.5601  1.9831
  865MPD2    N112757   3.763   3.925  15.955 -0.2171 -0.3428  0.1865
  865MPD2    H712758   3.723   3.896  15.867 -1.2109 -1.0521  0.8801
  866MPD2     C12759   0.659   0.674  10.650  0.3858  0.3105 -0.4644
  866MPD2    C112760   0.603   0.558  10.696  0.4769  0.0184  1.1104
  866MPD2    C212761   0.471   0.557  10.738  0.4097 -0.5825  0.3589
  866MPD2    C312762   0.393   0.671  10.722  0.1213  0.1272 -0.0696
  866MPD2    C412763   0.460   0.791  10.694  0.1572  0.4065  0.9179
  866MPD2    C512764   0.589   0.792  10.651 -0.0434  0.3331  0.7817
  866MPD2     H12765   0.427   0.465  10.776  0.5980 -0.1897  1.5049
  866MPD2    H112766   0.407   0.886  10.693  0.9560  0.8543  0.4345
  866MPD2    H212767   0.761   0.679  10.613  1.3168  0.2474  2.0978
  866MPD2    H312768   0.629   0.888  10.620  2.7367 -0.7631  0.9531
  866MPD2     N12769   0.251   0.673  10.738 -1.1401 -0.6803  0.6907
  866MPD2    H512770   0.216   0.768  10.733 -0.3972 -0.5151 -1.4406
  866MPD2    N112771   0.677   0.440  10.683  0.1111  0.3012 -0.0776
  866MPD2    H712772   0.772   0.458  10.653 -1.0542  1.0833 -3.2661
  867MPD2     C12773   2.684   3.971  16.524  0.4010  0.2271  0.0246
  867MPD2    C112774   2.692   3.914  16.653 -0.2883 -0.1308  0.3893
  867MPD2    C212775   2.677   3.996  16.767 -0.0146  0.5223 -0.5224
  867MPD2    C312776   2.666   4.132  16.748  0.6183 -0.5414 -0.1632
  867MPD2    C412777   2.660   4.195  16.629  0.7140  0.1065  0.4999
  867MPD2    C512778   2.659   4.111  16.517  0.3698 -0.8249  0.6075
  867MPD2     H12779   2.678   3.951  16.866 -1.2258 -0.2079 -0.8287
  867MPD2    H112780   2.656   4.302  16.610  0.9624  0.4421  2.2463
  867MPD2    H212781   2.694   3.908  16.437 -0.1476  0.0770  0.0670
  867MPD2    H312782   2.655   4.145  16.414  0.4771  2.3244  1.6420
  867MPD2     N12783   2.689   4.215  16.864 -0.0064  0.0861 -1.3986
  867MPD2    H512784   2.725   4.308  16.846 -0.7312  0.6354 -0.0817
  867MPD2    N112785   2.701   3.773  16.655  0.0390 -0.5947 -0.4532
  867MPD2    H712786   2.724   3.722  16.570  1.8107 -1.6794  0.6737
  868MPD2     C12787   3.919   3.262  13.165  0.3657 -0.6959  0.0585
  868MPD2    C112788   3.988   3.193  13.263  1.1323  0.2418  0.1582
  868MPD2    C212789   3.944   3.210  13.401  0.0194 -0.9429 -0.1544
  868MPD2    C312790   3.836   3.292  13.432 -1.4212  0.2857 -0.6712
  868MPD2    C412791   3.777   3.371  13.330 -0.0237 -0.6544  0.1269
  868MPD2    C512792   3.825   3.356  13.204  0.3274 -0.0627  0.6074
  868MPD2     H12793   3.991   3.157  13.483  2.5174 -0.3795 -1.2496
  868MPD2    H112794   3.686   3.429  13.339  1.0519  1.2980 -1.5649
  868MPD2    H212795   3.939   3.246  13.060 -1.6140 -2.0327 -0.1146
  868MPD2    H312796   3.767   3.413  13.133 -1.3390 -0.5227  1.6006
  868MPD2     N12797   3.794   3.286  13.565 -0.5573 -0.5187 -0.4461
  868MPD2    H512798   3.848   3.217  13.617  0.7739  0.7957 -0.0791
  868MPD2    N112799   4.090   3.109  13.229 -0.4750  0.5599 -1.1650
  868MPD2    H712800   4.121   3.107  13.133  2.8082 -0.7404 -0.0698
  869MPD2     C12801   0.323   0.620   0.230  0.5967 -1.0160  0.1792
  869MPD2    C112802   0.247   0.733   0.256 -0.1877  0.7049 -0.1174
  869MPD2    C212803   0.307   0.836   0.333  0.0486 -0.4137 -0.1518
  869MPD2    C312804   0.440   0.827   0.381 -0.2205 -0.2694 -0.2665
  869MPD2    C412805   0.510   0.720   0.334  0.8663 -0.1417  0.0701
  869MPD2    C512806   0.451   0.615   0.276  0.3866 -0.3198 -0.1913
  869MPD2     H12807   0.262   0.934   0.343 -0.1150 -0.3761 -1.2141
  869MPD2    H112808   0.616   0.716   0.351  1.0547  0.1001 -1.0366
  869MPD2    H212809   0.292   0.542   0.162  1.8170 -0.6126 -0.8430
  869MPD2    H312810   0.518   0.532   0.254  0.2575 -0.1757 -1.1130
  869MPD2     N12811   0.508   0.935   0.447 -0.1154  0.1873  0.2111
  869MPD2    H512812   0.609   0.943   0.439 -0.0424 -0.8631  0.0172
  869MPD2    N112813   0.108   0.734   0.220  0.1076 -0.3949 -0.4321
  869MPD2    H712814   0.067   0.643   0.199 -1.9140  0.0357  1.6109
  870MPD2     C12815   0.512   0.343   1.363  0.9956 -0.4934 -0.1596
  870MPD2    C112816   0.490   0.243   1.263 -0.7067  0.4124  0.1863
  870MPD2    C212817   0.383   0.266   1.170 -0.8458 -0.0548 -0.3843
  870MPD2    C312818   0.304   0.376   1.177  0.1086 -0.2613 -0.2451
  870MPD2    C412819   0.319   0.467   1.281 -0.6857  0.4090 -0.0027
  870MPD2    C512820   0.426   0.447   1.369 -0.1242 -0.5400 -0.0078
  870MPD2     H12821   0.351   0.189   1.100 -3.7317  1.4307 -0.7017
  870MPD2    H112822   0.263   0.559   1.295  1.9046  2.2939 -2.0714
  870MPD2    H212823   0.586   0.332   1.441 -1.4334 -1.0008  2.0570
  870MPD2    H312824   0.440   0.518   1.449  1.6258  0.0990 -0.8890
  870MPD2     N12825   0.184   0.377   1.100  0.1175 -0.6200  0.0837
  870MPD2    H512826   0.182   0.307   1.027 -0.7121 -0.6970  0.1766
  870MPD2    N112827   0.561   0.116   1.248  0.3403 -0.9454 -0.5411
  870MPD2    H712828   0.511   0.046   1.194  1.3354 -1.3399 -0.9359
  871MPD2     C12829   1.289   3.976  16.025  0.8652 -0.6520  0.3095
  871MPD2    C112830   1.302   3.907  16.142 -0.1457 -0.1004  0.4749
  871MPD2    C212831   1.363   3.783  16.148 -0.6181 -0.3754 -0.2510
  871MPD2    C312832   1.413   3.723  16.035  0.1316  0.3551 -0.6227
  871MPD2    C412833   1.412   3.792  15.916  0.3904 -0.6618 -1.0235
  871MPD2    C512834   1.352   3.914  15.913  0.4257 -0.6788 -0.0062
  871MPD2     H12835   1.367   3.743  16.248 -1.4737 -1.7731 -0.7765
  871MPD2    H112836   1.442   3.745  15.823  0.6067 -0.1062 -1.2353
  871MPD2    H212837   1.233   4.067  16.011  0.6166 -0.8483  0.0171
  871MPD2    H312838   1.340   3.956  15.814 -0.4185 -1.5791 -0.2894
  871MPD2     N12839   1.461   3.593  16.046  0.4414  0.1714  0.8093
  871MPD2    H512840   1.451   3.548  16.137  2.6272 -3.1521 -0.5859
  871MPD2    N112841   1.250   3.978  16.248 -0.3996 -0.3322 -0.5972
  871MPD2    H712842   1.204   4.068  16.240  0.3105 -0.2308 -3.4058
  872MPD2     C12843   2.424   1.038  13.853  0.2216  0.0200  0.5009
  872MPD2    C112844   2.409   1.172  13.861  0.4893 -0.1635  0.7752
  872MPD2    C212845   2.289   1.223  13.926 -0.2350  0.4429  0.6745
  872MPD2    C312846   2.198   1.137  13.984  0.0604  0.3021  0.4431
  872MPD2    C412847   2.236   1.008  14.000  0.0289  0.1089 -1.1658
  872MPD2    C512848   2.342   0.956  13.926 -0.1050 -0.3180  0.4432
  872MPD2     H12849   2.267   1.329  13.916 -0.6848  0.3962  1.1353
  872MPD2    H112850   2.180   0.942  14.066 -2.0626 -1.0259 -4.0938
  872MPD2    H212851   2.498   0.984  13.795 -0.0258 -0.0256  0.2280
  872MPD2    H312852   2.361   0.849  13.925  0.1579 -0.2806  1.2952
  872MPD2     N12853   2.090   1.179  14.062 -0.3766  0.2632  0.9150
  872MPD2    H512854   2.050   1.112  14.127 -0.4976  1.4492  2.0806
  872MPD2    N112855   2.513   1.254  13.818 -0.0479  0.0954 -0.5755
  872MPD2    H712856   2.496   1.350  13.846  3.2709  0.6638 -0.4718
  873MPD2     C12857   3.908   1.474   0.710 -0.0279  0.1776 -0.0017
  873MPD2    C112858   3.789   1.469   0.786  0.0139 -0.2501  0.5939
  873MPD2    C212859   3.725   1.345   0.817 -0.4082  0.9705  0.1851
  873MPD2    C312860   3.774   1.231   0.754  0.0006 -0.6349  0.2577
  873MPD2    C412861   3.881   1.243   0.667 -0.5871 -0.0251  0.1095
  873MPD2    C512862   3.954   1.359   0.658  0.6581  0.2543 -0.7917
  873MPD2     H12863   3.640   1.341   0.883 -0.6701  0.8165 -0.1604
  873MPD2    H112864   3.904   1.154   0.610 -1.4045 -0.2245  0.0913
  873MPD2    H212865   3.964   1.562   0.683  0.5964 -0.4513 -0.7402
  873MPD2    H312866   4.036   1.349   0.587  0.5131 -0.3338 -0.8700
  873MPD2     N12867   3.707   1.105   0.751 -0.6233 -0.3922  0.0815
  873MPD2    H512868   3.730   1.032   0.683 -2.0989 -0.0147 -0.8277
  873MPD2    N112869   3.747   1.590   0.841  0.1493 -0.2359  0.4467
  873MPD2    H712870   3.814   1.665   0.825  0.3427 -1.3934 -4.1509
  874MPD2     C12871   3.438   1.828  16.405  0.0091 -0.0474  0.0289
  874MPD2    C112872   3.558   1.802  16.461  0.6076  0.3082  0.7741
  874MPD2    C212873   3.665   1.862  16.402  0.7563 -0.2201  0.1914
  874MPD2    C312874   3.654   1.944  16.290 -0.1616  0.1935  0.3472
  874MPD2    C412875   3.535   1.961  16.234 -0.3927  0.1184 -0.0064
  874MPD2    C512876   3.426   1.904  16.295  0.3291 -0.2573 -0.0665
  874MPD2     H12877   3.764   1.833  16.436  1.1281  1.3714  0.4518
  874MPD2    H112878   3.518   2.017  16.143 -1.0192  0.5688  0.3854
  874MPD2    H212879   3.350   1.779  16.445 -0.3641  2.0716  1.8383
  874MPD2    H312880   3.328   1.923  16.251 -0.5925 -1.9336  1.2700
  874MPD2     N12881   3.779   1.994  16.240 -0.8476  0.6240  0.1933
  874MPD2    H512882   3.859   1.982  16.302  0.3768 -0.0867 -1.5409
  874MPD2    N112883   3.559   1.717  16.576 -0.4125 -0.0953  0.1035
  874MPD2    H712884   3.469   1.675  16.599 -1.0279  1.4856  0.5473
  875MPD2     C12885   0.218   0.079  14.590 -0.8819 -0.0642 -0.2581
  875MPD2    C112886   0.086   0.062  14.625  0.0526  0.1407  0.1765
  875MPD2    C212887   0.053   0.070  14.757  0.4098  0.9894 -0.0853
  875MPD2    C312888   0.155   0.089  14.854  0.3237  0.6836 -0.1636
  875MPD2    C412889   0.280   0.120  14.814  0.8592 -0.7384 -0.3628
  875MPD2    C512890   0.312   0.097  14.686  0.1382 -0.0025 -0.3745
  875MPD2     H12891   4.684   0.057  14.783  1.2376  0.4386  2.9929
  875MPD2    H112892   0.364   0.147  14.877  0.0147  2.8324 -0.7719
  875MPD2    H212893   0.256   0.086  14.489  2.1590  1.7099  1.0088
  875MPD2    H312894   0.406   0.127  14.640  0.8617  0.6876  1.5888
  875MPD2     N12895   0.115   0.123  14.990  0.2038 -0.4052 -0.0161
  875MPD2    H512896   0.015   0.124  15.006  0.1808 -0.6336 -0.1339
  875MPD2    N112897   4.716   0.035  14.541 -0.0348  0.3956  0.7829
  875MPD2    H712898   4.632   0.012  14.592 -0.6841 -0.0480 -0.4817
  876MPD2     C12899   3.683   1.718  16.042  0.2072 -0.6501 -0.0869
  876MPD2    C112900   3.796   1.688  15.968  0.3008 -0.0604  0.0230
  876MPD2    C212901   3.865   1.578  16.009  0.1652  0.0058 -0.0309
  876MPD2    C312902   3.828   1.497  16.114 -0.1756 -0.9337  0.4513
  876MPD2    C412903   3.720   1.535  16.190 -0.2328  0.1606  0.4561
  876MPD2    C512904   3.647   1.644  16.155 -0.0601 -0.3833 -0.8912
  876MPD2     H12905   3.954   1.545  15.956 -1.8393 -0.7540 -2.9225
  876MPD2    H112906   3.681   1.481  16.276 -1.2316  1.1200  0.6024
  876MPD2    H212907   3.627   1.809  16.021  3.0200  1.4186  1.4208
  876MPD2    H312908   3.557   1.661  16.213 -0.7915 -0.5686 -1.9933
  876MPD2     N12909   3.906   1.382  16.140  0.4492  0.4331  0.9416
  876MPD2    H512910   3.968   1.351  16.066 -0.9218  3.3352 -1.4406
  876MPD2    N112911   3.833   1.771  15.858 -0.2121 -0.1420 -0.0804
  876MPD2    H712912   3.762   1.828  15.813  1.0175  2.0882  0.8235
  877MPD2     C12913   4.387   1.703  15.163 -0.5926 -0.0591 -0.2052
  877MPD2    C112914   4.261   1.647  15.147  0.4395 -0.0549  0.4327
  877MPD2    C212915   4.233   1.587  15.024  0.0981  0.0443 -0.4881
  877MPD2    C312916   4.314   1.590  14.915 -0.1466  0.1927 -0.0191
  877MPD2    C412917   4.442   1.638  14.936 -0.4174  0.4634 -0.3427
  877MPD2    C512918   4.473   1.692  15.058 -0.0053  0.2029 -0.4558
  877MPD2     H12919   4.141   1.529  15.024 -0.7529  1.3919 -0.9938
  877MPD2    H112920   4.525   1.634  14.867  1.6760 -0.7243  2.2765
  877MPD2    H212921   4.423   1.736  15.259 -1.1648  3.6670 -1.2615
  877MPD2    H312922   4.575   1.724  15.076 -0.0567 -1.1640  2.2325
  877MPD2     N12923   4.278   1.530  14.789 -0.2866 -0.2942 -0.0990
  877MPD2    H512924   4.350   1.512  14.719  0.0779  0.9577 -0.0458
  877MPD2    N112925   4.156   1.651  15.246 -0.1172  0.3224 -0.1996
  877MPD2    H712926   4.081   1.585  15.229  1.2992 -1.6554  1.2986
  878MPD2     C12927   3.018   0.707  13.076  0.7507 -0.3655  1.0606
  878MPD2    C112928   3.143   0.769  13.068 -1.1537 -0.3100 -0.7039
  878MPD2    C212929   3.212   0.789  13.187 -0.1482  0.3998  0.0304
  878MPD2    C312930   3.151   0.758  13.304  0.5269 -0.3702  0.3469
  878MPD2    C412931   3.018   0.713  13.309  0.0862  0.0123 -0.5784
  878MPD2    C512932   2.961   0.669  13.195 -0.3459 -0.5115 -0.2669
  878MPD2     H12933   3.308   0.840  13.189 -1.9715  3.7778  1.4654
  878MPD2    H112934   2.973   0.694  13.406  0.2495  0.8328 -0.3393
  878MPD2    H212935   2.970   0.689  12.981 -3.6344  1.5283  2.9221
  878MPD2    H312936   2.861   0.625  13.198 -0.5028 -0.2148 -1.1204
  878MPD2     N12937   3.223   0.786  13.420  0.6191  0.2387 -0.2974
  878MPD2    H512938   3.314   0.832  13.421  1.0009 -0.5153 -0.1207
  878MPD2    N112939   3.191   0.810  12.938  0.0232  0.4211  0.2833
  878MPD2    H712940   3.146   0.778  12.853  2.1193 -0.0603 -0.6251
  879MPD2     C12941   3.429   2.854  17.087 -0.1979  0.1981 -0.9787
  879MPD2    C112942   3.526   2.779  17.147 -0.0931  0.5469  0.0709
  879MPD2    C212943   3.534   2.644  17.108  0.1796  0.6291 -0.1263
  879MPD2    C312944   3.466   2.599  17.004 -0.2739  0.3869 -0.7490
  879MPD2    C412945   3.376   2.680  16.944  0.1970 -0.0268  0.1827
  879MPD2    C512946   3.350   2.802  16.991 -0.5154 -0.6048 -0.6777
  879MPD2     H12947   3.611   2.580  17.150 -1.5219 -0.6547  1.0041
  879MPD2    H112948   3.309   2.657  16.861 -0.7731 -2.0542  1.5189
  879MPD2    H212949   3.410   2.957  17.113  2.6994  0.8689 -1.5653
  879MPD2    H312950   3.276   2.865  16.943  0.6202  0.9615 -0.3779
  879MPD2     N12951   3.487   2.471  16.941 -0.4415 -0.3110  0.1343
  879MPD2    H512952   3.424   2.445  16.865 -0.1768 -0.6594  0.0292
  879MPD2    N112953   3.617   2.826  17.247 -0.1636 -0.4733  0.0002
  879MPD2    H712954   3.597   2.920  17.281  0.0594 -1.0360  1.6731
  880MPD2     C12955   0.471   4.138   0.386  0.0155  0.3630 -0.2704
  880MPD2    C112956   0.504   4.212   0.274 -0.4120  0.0754  0.1966
  880MPD2    C212957   0.603   4.161   0.187  0.0339 -0.1783  0.7312
  880MPD2    C312958   0.665   4.039   0.216  0.0998 -0.2814  0.4916
  880MPD2    C412959   0.638   3.978   0.336 -0.2306 -0.1714 -0.0617
  880MPD2    C512960   0.536   4.021   0.414  0.3614  0.1510  0.4674
  880MPD2     H12961   0.636   4.210   0.096  1.1173 -1.6531  0.3222
  880MPD2    H112962   0.673   3.879   0.362  0.5685  0.0147 -0.4186
  880MPD2    H212963   0.387   4.160   0.450 -1.1119 -0.3000 -1.5207
  880MPD2    H312964   0.504   3.979   0.509  0.3385 -0.2849  0.2646
  880MPD2     N12965   0.756   3.994   0.122 -0.5664  0.2305  0.0463
  880MPD2    H512966   0.784   4.060   0.050 -0.5756  0.8357  0.6076
  880MPD2    N112967   0.434   4.334   0.252 -0.3347 -0.4094 -0.3444
  880MPD2    H712968   0.368   4.365   0.324 -0.1701 -1.2427  0.1667
  881MPD2     C12969   0.213   0.338  17.202 -0.2454 -0.0477  0.7295
  881MPD2    C112970   0.270   0.214  17.195 -0.6058  0.0556  0.4364
  881MPD2    C212971   0.271   0.136  17.313 -0.7681  0.2054  0.5911
  881MPD2    C312972   0.211   0.183  17.429 -0.2236 -0.1747  0.0596
  881MPD2    C412973   0.148   0.307  17.434  0.5150  0.0424  0.4967
  881MPD2    C512974   0.152   0.381  17.316  0.2959 -0.4791 -0.3046
  881MPD2     H12975   0.303   0.033  17.298  0.8234  0.8740 -0.5314
  881MPD2    H112976   0.106   0.350  17.524 -1.1856 -1.7641  0.5623
  881MPD2    H212977   0.230   0.407  17.120 -0.9539 -0.9268 -0.1622
  881MPD2    H312978   0.112   0.482  17.310 -0.5396 -0.7485  0.6514
  881MPD2     N12979   0.220   0.107  17.549  0.4427  0.0647  0.3695
  881MPD2    H512980   0.165   0.146  17.624 -0.4129 -0.6107  0.0837
  881MPD2    N112981   0.347   0.185  17.078 -0.3414 -0.4174 -0.7972
  881MPD2    H712982   0.342   0.259  17.009 -0.9726 -0.9487 -1.3263
  882MPD2     C12983   3.731   1.126  14.318  0.1442 -0.3997  0.0750
  882MPD2    C112984   3.718   1.265  14.348  0.4695  0.1244 -0.1885
  882MPD2    C212985   3.593   1.316  14.354  1.0627 -0.1439 -0.7489
  882MPD2    C312986   3.477   1.249  14.327 -0.0554 -1.0395  0.1470
  882MPD2    C412987   3.489   1.116  14.292 -0.7626  0.4572  0.3455
  882MPD2    C512988   3.613   1.056  14.286  0.4272  0.1925  0.6149
  882MPD2     H12989   3.576   1.421  14.378  1.5648 -0.0342 -0.8759
  882MPD2    H112990   3.409   1.047  14.265  1.2481 -1.1016 -1.5792
  882MPD2    H212991   3.826   1.074  14.319  0.9951  1.1472 -0.7026
  882MPD2    H312992   3.621   0.956  14.247 -1.3926 -0.1290  1.0730
  882MPD2     N12993   3.349   1.309  14.322  0.1670  0.1418 -0.5131
  882MPD2    H512994   3.270   1.249  14.299  0.7045 -0.9629  0.5817
  882MPD2    N112995   3.834   1.330  14.377 -0.1846 -0.0984  1.3745
  882MPD2    H712996   3.918   1.274  14.390  2.1548  2.8470 -0.8482
  883MPD2     C12997   0.920   1.430  16.229 -0.0552 -0.6631 -0.3423
  883MPD2    C112998   0.971   1.561  16.222  0.0314  0.2456  0.0071
  883MPD2    C212999   1.058   1.602  16.328 -0.3975  0.2097  0.6304
  883MPD2    C313000   1.086   1.512  16.432  0.0945 -0.2171 -0.2340
  883MPD2    C413001   1.038   1.384  16.421 -0.2038  0.2473  0.5132
  883MPD2    C513002   0.964   1.339  16.317  0.0310  0.1870  0.0413
  883MPD2     H13003   1.090   1.705  16.339 -0.3010  0.1237  1.1576
  883MPD2    H113004   1.046   1.305  16.495 -0.3724 -1.7508 -1.5865
  883MPD2    H213005   0.860   1.396  16.146  0.4772 -1.7879 -0.2584
  883MPD2    H313006   0.931   1.236  16.318 -0.4397  0.3388  0.7144
  883MPD2     N13007   1.157   1.554  16.545  0.2035  0.0775  0.5811
  883MPD2    H513008   1.187   1.650  16.548 -0.7732  0.4038 -0.0851
  883MPD2    N113009   0.942   1.639  16.112  0.0538 -0.4777  0.0030
  883MPD2    H713010   0.992   1.726  16.101 -0.3544 -0.1978  0.3330
  884MPD2     C13011   2.916   2.201  15.185  0.2330  1.0577  0.0789
  884MPD2    C113012   2.877   2.217  15.052 -0.5697 -0.5216  0.1467
  884MPD2    C213013   2.747   2.256  15.016 -0.4949 -0.2827  0.1024
  884MPD2    C313014   2.662   2.290  15.124  0.1383  0.5708 -0.1031
  884MPD2    C413015   2.701   2.275  15.260 -0.8146 -0.2717  0.1432
  884MPD2    C513016   2.828   2.232  15.287  0.1352  0.2135 -0.1002
  884MPD2     H13017   2.723   2.258  14.911 -0.2192  1.4515  0.0722
  884MPD2    H113018   2.640   2.289  15.349  1.2406 -2.8068  1.9532
  884MPD2    H213019   3.007   2.154  15.220 -1.1084 -1.4138  0.2639
  884MPD2    H313020   2.860   2.212  15.389 -0.4755 -1.2937 -0.2133
  884MPD2     N13021   2.527   2.325  15.086 -0.5267  0.7299  0.1984
  884MPD2    H513022   2.506   2.337  14.988 -0.2631 -1.7802 -0.1577
  884MPD2    N113023   2.976   2.206  14.945  0.0333 -0.0666  0.2474
  884MPD2    H713024   2.950   2.217  14.847  0.0370 -1.3923  0.0964
  885MPD2     C13025   0.996   2.374  17.534 -0.4973  0.0916  0.6038
  885MPD2    C113026   1.061   2.488  17.559 -0.3724 -0.1728  0.0547
  885MPD2    C213027   1.096   2.578  17.461 -0.6571  0.8911 -0.1245
  885MPD2    C313028   1.057   2.558  17.333  0.0856  0.4231 -0.1013
  885MPD2    C413029   0.984   2.439  17.301  0.3061  0.0266  0.0054
  885MPD2    C513030   0.955   2.351  17.403 -0.1909  0.1222  0.1103
  885MPD2     H13031   1.159   2.664  17.476  0.9484 -0.9243  3.4071
  885MPD2    H113032   0.954   2.422  17.199 -0.5112  3.4788 -0.3118
  885MPD2    H213033   0.968   2.302  17.609  0.2189 -1.7684 -0.9150
  885MPD2    H313034   0.893   2.266  17.376 -0.0759  0.7127 -1.9679
  885MPD2     N13035   1.080   2.654  17.236  0.1324  1.0304 -0.0611
  885MPD2    H513036   1.124   2.744  17.253  0.6140  0.6066  0.9753
  885MPD2    N113037   1.096   2.517  17.693  0.2968  0.1265 -0.0127
  885MPD2    H713038   1.086   2.445   0.021 -0.9992  1.5779  1.3021
  886MPD2     C13039   2.307   1.726  15.614  0.1096  0.5444  0.2284
  886MPD2    C113040   2.375   1.605  15.612  0.2206  0.2073 -0.0791
  886MPD2    C213041   2.416   1.560  15.489 -0.2348 -0.1122  0.2418
  886MPD2    C313042   2.403   1.638  15.369  0.0225 -0.0897 -0.6651
  886MPD2    C413043   2.336   1.759  15.379 -0.3424 -0.6451 -1.2054
  886MPD2    C513044   2.293   1.800  15.502  0.3553 -0.0539 -0.1372
  886MPD2     H13045   2.468   1.465  15.491 -1.3264 -0.7345 -0.7447
  886MPD2    H113046   2.325   1.824  15.293 -1.5446 -0.3831 -0.8547
  886MPD2    H213047   2.263   1.763  15.705 -0.1220  0.1222  0.2883
  886MPD2    H313048   2.240   1.894  15.508 -0.1846 -0.5056  2.4617
  886MPD2     N13049   2.455   1.603  15.243  0.3973 -1.0478  0.3876
  886MPD2    H513050   2.440   1.674  15.171  1.6607 -2.4917 -1.2978
  886MPD2    N113051   2.394   1.529  15.732  0.3472 -0.2680 -0.4691
  886MPD2    H713052   2.455   1.448  15.722  1.8582  0.3962  3.5695
  887MPD2     C13053   2.924   1.557  16.307  0.0858  0.2721  0.3658
  887MPD2    C113054   2.859   1.607  16.203  0.5718 -0.3687  0.3654
  887MPD2    C213055   2.928   1.685  16.107 -0.0465 -0.1868 -0.1702
  887MPD2    C313056   3.063   1.704  16.116  0.0812 -0.4438  0.6976
  887MPD2    C413057   3.124   1.647  16.222  0.1986  0.2724 -0.3111
  887MPD2    C513058   3.057   1.573  16.319 -0.3842  0.1373 -0.0910
  887MPD2     H13059   2.877   1.732  16.023  0.6146  3.0384  1.2326
  887MPD2    H113060   3.231   1.654  16.231  0.2963 -1.8411  0.1878
  887MPD2    H213061   2.866   1.504  16.381 -1.0775 -1.1295 -1.5594
  887MPD2    H313062   3.118   1.530  16.398 -0.6126 -0.1118 -0.0516
  887MPD2     N13063   3.121   1.774  16.004  0.1504  0.0188  0.4103
  887MPD2    H513064   3.054   1.820  15.944  0.8232  2.0925  1.2519
  887MPD2    N113065   2.721   1.587  16.171 -0.3547 -0.0533 -0.1713
  887MPD2    H713066   2.700   1.617  16.077  0.4787 -2.2924 -1.0976
  888MPD2     C13067   0.295   1.130  14.932 -0.1636 -0.7183 -0.7415
  888MPD2    C113068   0.239   1.202  15.036  0.3091 -0.5688 -0.9378
  888MPD2    C213069   0.280   1.334  15.049 -0.7744  0.5741 -0.1847
  888MPD2    C313070   0.362   1.399  14.957 -0.4958  0.0547 -0.3185
  888MPD2    C413071   0.409   1.321  14.849  0.4456  0.0539 -0.5157
  888MPD2    C513072   0.374   1.187  14.837 -0.3408  0.1108 -0.1243
  888MPD2     H13073   0.255   1.398  15.132 -0.4081 -1.0193  1.1493
  888MPD2    H113074   0.455   1.372  14.765  2.6115  0.9165  1.2063
  888MPD2    H213075   0.255   1.032  14.906 -0.4270 -0.3394 -1.7623
  888MPD2    H313076   0.395   1.136  14.744 -0.6743  0.0378 -0.1612
  888MPD2     N13077   0.372   1.540  14.967  0.1825 -0.2521 -0.1847
  888MPD2    H513078   0.305   1.578  15.032 -1.5293 -1.1440 -1.4426
  888MPD2    N113079   0.141   1.150  15.121  0.3746 -0.3470 -0.5285
  888MPD2    H713080   0.110   1.205  15.200  2.2032 -0.4990  0.2852
  889MPD2     C13081   3.750   0.652  13.245 -0.0551  0.0339  0.3617
  889MPD2    C113082   3.841   0.639  13.343 -0.5260  0.4520 -0.0067
  889MPD2    C213083   3.843   0.743  13.428 -0.2866 -0.5652 -0.5547
  889MPD2    C313084   3.788   0.863  13.407 -0.3751 -0.5409 -0.0377
  889MPD2    C413085   3.713   0.882  13.299  0.4609 -0.0675  0.1456
  889MPD2    C513086   3.687   0.771  13.218 -0.5887 -0.3866  0.5561
  889MPD2     H13087   3.915   0.737  13.509 -1.5796  0.1187  0.6491
  889MPD2    H113088   3.683   0.981  13.267 -1.4457 -1.0432 -1.0151
  889MPD2    H213089   3.744   0.575  13.169  0.8827 -0.3391  0.6664
  889MPD2    H313090   3.641   0.783  13.121  0.5135 -1.1519 -0.0569
  889MPD2     N13091   3.810   0.964  13.499 -0.4959 -0.2105 -0.3003
  889MPD2    H513092   3.867   0.940  13.580  0.4203  1.8537 -0.3445
  889MPD2    N113093   3.881   0.504  13.367  0.0193  0.0242  0.3551
  889MPD2    H713094   3.837   0.432  13.311  1.8732 -1.4880  0.8830
  890MPD2     C13095   3.579   2.454  14.457 -0.2686 -0.0596 -0.0855
  890MPD2    C113096   3.664   2.504  14.543  0.5353  0.0438 -0.4567
  890MPD2    C213097   3.749   2.422  14.612 -0.2912 -0.2023 -1.0192
  890MPD2    C313098   3.752   2.286  14.585 -0.3227 -0.4244 -0.3140
  890MPD2    C413099   3.666   2.241  14.491 -0.3163  0.6331  0.4073
  890MPD2    C513100   3.581   2.320  14.419 -0.8078  0.6997 -0.5036
  890MPD2     H13101   3.809   2.462  14.693 -2.6323 -0.1718  0.7371
  890MPD2    H113102   3.668   2.134  14.473  0.5525  0.6036  0.7012
  890MPD2    H213103   3.495   2.515  14.426 -1.2268 -0.9345  0.7985
  890MPD2    H313104   3.511   2.286  14.344  0.7026  0.0466 -1.6384
  890MPD2     N13105   3.840   2.196  14.650  0.1557 -0.4628  0.2903
  890MPD2    H513106   3.890   2.229  14.732  0.3402 -2.0052  0.8022
  890MPD2    N113107   3.650   2.648  14.567 -0.1978  0.0739 -1.1955
  890MPD2    H713108   3.570   2.695  14.526 -1.7929 -1.9523 -0.3992
  891MPD2     C13109   1.996   1.100  16.528 -0.3265 -0.7396  0.0300
  891MPD2    C113110   1.913   1.064  16.637  0.4371 -0.3635  0.3346
  891MPD2    C213111   1.962   0.976  16.730 -0.0525  0.5779  0.1560
  891MPD2    C313112   2.091   0.923  16.711  0.0030  0.8379  0.0520
  891MPD2    C413113   2.174   0.953  16.606  0.0504 -0.6556  0.3982
  891MPD2    C513114   2.121   1.044  16.513  0.2701 -0.1331 -0.5378
  891MPD2     H13115   1.921   0.958  16.829  0.4028  0.5721  0.3441
  891MPD2    H113116   2.272   0.910  16.586  1.7973  2.5995  2.0354
  891MPD2    H213117   1.963   1.178  16.460  2.8286  1.6526  1.3004
  891MPD2    H313118   2.184   1.057  16.426  2.4954 -2.9416  0.6888
  891MPD2     N13119   2.146   0.861  16.825  0.2121  0.1681 -0.3833
  891MPD2    H513120   2.083   0.850  16.904  2.1469  0.3758  1.1693
  891MPD2    N113121   1.790   1.132  16.649 -0.5313 -0.1131 -0.0413
  891MPD2    H713122   1.763   1.181  16.564  3.7959  1.6543 -0.4238
  892MPD2     C13123   2.799   1.851  14.973  0.2796  0.0182  0.4331
  892MPD2    C113124   2.721   1.828  14.864  0.2733  0.0071  0.4338
  892MPD2    C213125   2.779   1.766  14.760 -0.2680  0.0095  0.3918
  892MPD2    C313126   2.914   1.731  14.753  0.8181 -0.6438 -0.2590
  892MPD2    C413127   2.993   1.755  14.863  0.4793  0.1836 -0.0282
  892MPD2    C513128   2.932   1.819  14.974  0.4558 -0.1237  0.0502
  892MPD2     H13129   2.729   1.766  14.664 -1.0908  1.5267  0.8256
  892MPD2    H113130   3.096   1.720  14.872  1.3637  2.8302  0.3242
  892MPD2    H213131   2.771   1.901  15.065  1.8754  0.6054  0.5979
  892MPD2    H313132   2.983   1.842  15.067  0.4211 -0.4143  0.1436
  892MPD2     N13133   2.981   1.668  14.636 -0.2237 -0.2622  0.3164
  892MPD2    H513134   3.077   1.641  14.652 -0.5597 -1.3985  0.4642
  892MPD2    N113135   2.587   1.870  14.851 -0.2387 -0.2951  0.1036
  892MPD2    H713136   2.562   1.865  14.752  1.3180 -0.0683 -0.3077
  893MPD2     C13137   4.484   1.532   1.470  0.2203  0.0058  1.0801
  893MPD2    C113138   4.611   1.518   1.434 -0.4164 -0.2821  0.7504
  893MPD2    C213139   4.707   1.620   1.461  0.2902  0.0189  0.1592
  893MPD2    C313140   4.668   1.734   1.533 -0.5804 -0.1459 -0.3983
  893MPD2    C413141   4.537   1.741   1.569  0.2596  0.3531  0.4039
  893MPD2    C513142   4.441   1.647   1.534  0.5224 -0.0082 -0.6968
  893MPD2     H13143   0.069   1.610   1.414  0.9419 -0.4194  1.6057
  893MPD2    H113144   4.494   1.828   1.617  1.1850 -0.3289  2.4925
  893MPD2    H213145   4.413   1.451   1.454 -0.3318  0.3129  1.9429
  893MPD2    H313146   4.336   1.665   1.552  0.1391 -0.9517 -2.0454
  893MPD2     N13147   0.005   1.856   1.551  0.4932  0.1972  0.5252
  893MPD2    H513148   4.691   1.934   1.592  1.4782  1.1012 -0.0181
  893MPD2    N113149   4.666   1.404   1.364  0.1683 -0.6698 -0.1635
  893MPD2    H713150   0.031   1.400   1.365  0.2048 -0.2627 -1.8429
  894MPD2     C13151   2.220   2.565   1.218 -0.3735  0.8737  0.5597
  894MPD2    C113152   2.111   2.658   1.244 -0.0422  0.2257 -0.2389
  894MPD2    C213153   2.119   2.787   1.206  0.0705 -0.7759  0.6601
  894MPD2    C313154   2.243   2.838   1.174 -0.1278  0.3690  0.0038
  894MPD2    C413155   2.350   2.757   1.155 -0.4579 -0.2634 -0.4094
  894MPD2    C513156   2.339   2.620   1.179  0.2568 -0.7517 -0.4366
  894MPD2     H13157   2.032   2.851   1.212  1.7233  1.4757  0.5597
  894MPD2    H113158   2.452   2.792   1.143 -1.5888  2.4798 -2.0859
  894MPD2    H213159   2.214   2.461   1.248 -1.6292  0.5065 -0.9796
  894MPD2    H313160   2.424   2.553   1.169 -0.1305 -1.0985 -1.4763
  894MPD2     N13161   2.257   2.972   1.137 -0.2548 -0.4445 -0.7545
  894MPD2    H513162   2.184   3.034   1.170  1.5731 -1.4240  5.1556
  894MPD2    N113163   1.985   2.598   1.252 -0.2336  0.2004 -0.4287
  894MPD2    H713164   1.901   2.648   1.226 -1.3977 -1.0956  0.8130
  895MPD2     C13165   1.920   0.965  13.866 -0.5883  1.0769  0.3724
  895MPD2    C113166   1.966   1.021  13.752 -0.9093 -0.2618  0.8374
  895MPD2    C213167   2.062   0.967  13.677 -0.0654  0.0957  0.1868
  895MPD2    C313168   2.112   0.842  13.702 -0.4352  0.2848  0.6713
  895MPD2    C413169   2.067   0.776  13.817  0.0998 -0.7449 -0.9898
  895MPD2    C513170   1.965   0.840  13.889  0.0321 -0.4263 -0.0182
  895MPD2     H13171   2.071   1.003  13.575 -0.9688 -1.5012 -0.4651
  895MPD2    H113172   2.105   0.684  13.858 -0.0187 -0.7880 -0.9768
  895MPD2    H213173   1.849   1.002  13.940 -2.7853 -0.2436 -1.0758
  895MPD2    H313174   1.927   0.790  13.977 -2.2188  1.8723  0.3141
  895MPD2     N13175   2.205   0.777  13.624  0.2187 -0.4045  0.3087
  895MPD2    H513176   2.236   0.684  13.651 -0.9968 -1.1382 -0.8195
  895MPD2    N113177   1.922   1.145  13.703  0.0367 -0.0229  0.2246
  895MPD2    H713178   1.961   1.179  13.616  0.5761  0.0798  0.5049
  896MPD2     C13179   4.182   4.353   0.942 -0.6492  0.1135  0.1761
  896MPD2    C113180   4.226   4.271   0.839  0.4064  0.0737  0.1267
  896MPD2    C213181   4.139   4.189   0.772  0.2934 -0.1207  0.8856
  896MPD2    C313182   4.006   4.201   0.805 -0.1353  0.1933  0.1397
  896MPD2    C413183   3.965   4.281   0.906  0.7385  0.3155 -0.2730
  896MPD2    C513184   4.051   4.348   0.979  0.7024  0.3654  0.7141
  896MPD2     H13185   4.173   4.117   0.698 -0.2965 -0.0794  0.5759
  896MPD2    H113186   3.861   4.280   0.937  0.6239  0.3844 -0.6577
  896MPD2    H213187   4.242   4.432   0.985 -1.7279  0.1914  1.5600
  896MPD2    H313188   4.023   4.426   1.049 -3.2554 -0.6045  0.1950
  896MPD2     N13189   3.900   4.135   0.742 -0.4335 -0.0306  0.0839
  896MPD2    H513190   3.807   4.166   0.768 -0.7745 -1.8882  1.1296
  896MPD2    N113191   4.363   4.270   0.805 -0.6174 -0.0857  0.4125
  896MPD2    H713192   4.426   4.301   0.878 -1.4585  0.3500  0.9631
  897MPD2     C13193   0.462   0.907  10.337 -0.2655 -0.7040 -0.7056
  897MPD2    C113194   0.483   1.050  10.352 -0.1981 -0.2217  0.6749
  897MPD2    C213195   0.378   1.131  10.396 -0.5497 -1.0089  0.7068
  897MPD2    C313196   0.280   1.066  10.467 -0.7198 -0.2907  0.1096
  897MPD2    C413197   0.265   0.921  10.452  0.0889  0.4262  0.8839
  897MPD2    C513198   0.354   0.845  10.386  0.4818  0.2150 -0.7996
  897MPD2     H13199   0.381   1.238  10.411 -4.2071 -1.0209  1.4578
  897MPD2    H113200   0.183   0.868  10.498  1.0976 -1.3427  0.6562
  897MPD2    H213201   0.541   0.843  10.300  0.3329 -0.6152  0.4013
  897MPD2    H313202   0.348   0.737  10.377 -2.2450  0.4129 -1.4426
  897MPD2     N13203   0.210   1.143  10.565 -0.1098 -0.0234  0.0535
  897MPD2    H513204   0.224   1.244  10.567  0.3842 -0.0841 -0.3969
  897MPD2    N113205   0.608   1.101  10.312 -0.5018  0.4057 -0.4020
  897MPD2    H713206   0.672   1.025  10.288 -0.3837  0.4107 -0.1034
  898MPD2     C13207   2.848   1.765   0.321  1.1590  0.4606  0.8106
  898MPD2    C113208   2.841   1.748   0.184  0.4848  0.4443 -0.9638
  898MPD2    C213209   2.791   1.854   0.116  0.7861  0.3190  1.0335
  898MPD2    C313210   2.769   1.980   0.161  0.0588  0.1877 -0.6293
  898MPD2    C413211   2.785   1.999   0.297  0.3745 -0.2913  0.4151
  898MPD2    C513212   2.826   1.893   0.374  0.1624 -0.0066  0.1668
  898MPD2     H13213   2.785   1.838   0.009 -0.2008  1.0697  0.9737
  898MPD2    H113214   2.759   2.088   0.354  1.7773  1.2908 -1.4352
  898MPD2    H213215   2.882   1.685   0.386  1.6030  1.0826  1.3413
  898MPD2    H313216   2.824   1.894   0.483 -0.6227  1.9984  0.1348
  898MPD2     N13217   2.715   2.070   0.071 -0.3403 -0.3994  0.6600
  898MPD2    H513218   2.692   2.041  17.718  0.5500  0.2989  0.2265
  898MPD2    N113219   2.880   1.627   0.112 -0.3674 -0.5167 -0.2005
  898MPD2    H713220   2.865   1.615   0.013 -1.1370  2.5327 -0.4687
  899MPD2     C13221   3.239   2.020  17.223 -0.6538  0.7251 -0.0627
  899MPD2    C113222   3.276   2.103  17.322 -0.0934  0.0378 -0.1882
  899MPD2    C213223   3.340   2.054  17.435  0.4174  0.6542  0.4190
  899MPD2    C313224   3.370   1.917  17.445 -0.4674  0.3648 -0.8368
  899MPD2    C413225   3.326   1.832  17.347  0.1801 -0.7205 -0.0473
  899MPD2    C513226   3.257   1.886  17.238 -0.3768  0.8324 -0.4268
  899MPD2     H13227   3.363   2.125  17.513 -1.0472  0.5719  0.9314
  899MPD2    H113228   3.339   1.726  17.363  1.6535 -0.3133  1.5165
  899MPD2    H213229   3.183   2.055  17.137 -2.1394 -0.5340  0.3825
  899MPD2    H313230   3.214   1.815  17.169 -0.8061 -0.0937  0.7868
  899MPD2     N13231   3.424   1.857  17.559 -0.4144 -0.0260  0.5116
  899MPD2    H513232   3.432   1.756  17.558 -3.0199 -0.2322 -0.0159
  899MPD2    N113233   3.264   2.234  17.285 -0.7018  0.1055 -0.1486
  899MPD2    H713234   3.225   2.257  17.194 -2.1960  1.4724  0.8264
  900MPD2     C13235   3.145   3.565  12.441  0.2182 -0.4019  0.4537
  900MPD2    C113236   3.033   3.496  12.498  0.4721  0.0302  0.1245
  900MPD2    C213237   2.914   3.509  12.426  0.2836  0.2776 -0.2446
  900MPD2    C313238   2.898   3.597  12.318  0.3490 -0.2535 -0.1135
  900MPD2    C413239   3.015   3.659  12.269  0.5458 -0.4772 -0.0357
  900MPD2    C513240   3.139   3.645  12.325  0.0322  0.4822  0.0209
  900MPD2     H13241   2.826   3.463  12.468 -1.4037  2.3502 -1.5429
  900MPD2    H113242   3.007   3.739  12.197  1.0233 -0.2860  0.1294
  900MPD2    H213243   3.242   3.554  12.488  1.5828  1.6377 -1.9071
  900MPD2    H313244   3.226   3.694  12.282  0.8265  0.0571  1.1467
  900MPD2     N13245   2.767   3.605  12.260  0.1710  0.5111 -0.2041
  900MPD2    H513246   2.701   3.535  12.295 -0.2863 -0.1770 -2.4478
  900MPD2    N113247   3.054   3.404  12.612 -0.2122 -0.3452 -0.6689
  900MPD2    H713248   3.132   3.426  12.672  0.8243  0.6691 -2.3877
  901MPD2     C13249   2.741   2.425  13.011 -0.0974  0.0248 -0.3541
  901MPD2    C113250   2.873   2.429  12.956  0.0655  0.0483 -0.4565
  901MPD2    C213251   2.936   2.554  12.930  0.4093 -0.4814  0.2306
  901MPD2    C313252   2.863   2.669  12.954 -0.8218 -0.8087 -0.6104
  901MPD2    C413253   2.730   2.659  12.983  0.3459 -0.1637 -0.4705
  901MPD2    C513254   2.674   2.541  13.013 -0.5213  0.4218 -0.0288
  901MPD2     H13255   3.032   2.556  12.879  0.5038 -0.2393  0.4220
  901MPD2    H113256   2.664   2.745  12.988 -0.1906 -0.6684  1.4018
  901MPD2    H213257   2.698   2.334  13.052  0.4479 -0.6413 -1.2448
  901MPD2    H313258   2.570   2.528  13.044  0.0057 -2.2574  0.6416
  901MPD2     N13259   2.929   2.787  12.916 -0.0079 -0.2436 -0.2294
  901MPD2    H513260   3.024   2.782  12.879 -0.0809 -0.9559 -0.3236
  901MPD2    N113261   2.941   2.303  12.939  0.4276 -0.3233  0.3841
  901MPD2    H713262   2.897   2.212  12.954 -0.4228 -0.0635 -0.5448
  902MPD2     C13263   2.390   1.621  12.915 -0.2306 -0.2184  0.3748
  902MPD2    C113264   2.387   1.699  12.798 -0.2069 -0.0903  0.5855
  902MPD2    C213265   2.456   1.661  12.683 -0.8176 -0.1380  0.3181
  902MPD2    C313266   2.520   1.542  12.680 -0.3649  0.2957  0.2752
  902MPD2    C413267   2.516   1.464  12.788  0.4112  0.2129 -0.5234
  902MPD2    C513268   2.459   1.498  12.910  0.1515 -0.4026 -0.2787
  902MPD2     H13269   2.448   1.727  12.598  0.8679  1.1920  1.1777
  902MPD2    H113270   2.574   1.372  12.795 -1.7442 -0.9504  2.0921
  902MPD2    H213271   2.335   1.651  13.003  3.0280 -1.6481  2.8758
  902MPD2    H313272   2.458   1.438  13.001  0.9533  1.2448  0.8182
  902MPD2     N13273   2.589   1.490  12.567  0.3569 -0.1420 -0.3358
  902MPD2    H513274   2.608   1.391  12.567 -0.3239 -0.2803  0.8870
  902MPD2    N113275   2.310   1.816  12.808 -0.1171 -0.1654 -0.6887
  902MPD2    H713276   2.279   1.838  12.902 -0.0363 -1.4209 -0.3697
  903MPD2     C13277   2.398   1.902  11.928  0.2349 -0.9783 -0.1290
  903MPD2    C113278   2.388   1.765  11.942  0.9107  0.1849  0.1546
  903MPD2    C213279   2.271   1.703  11.910 -0.2510  0.1709  0.5577
  903MPD2    C313280   2.160   1.784  11.879 -0.2469 -0.3646 -0.9155
  903MPD2    C413281   2.171   1.927  11.873  0.1977 -0.1080  0.0094
  903MPD2    C513282   2.294   1.984  11.896  0.2881 -0.0583 -0.1546
  903MPD2     H13283   2.261   1.596  11.921 -1.2524  0.3026  0.9170
  903MPD2    H113284   2.085   1.990  11.855  1.5163  2.3731  2.4098
  903MPD2    H213285   2.495   1.947  11.943  0.3166 -1.3372  0.4241
  903MPD2    H313286   2.303   2.091  11.908  0.0530 -0.0271 -0.2636
  903MPD2     N13287   2.024   1.734  11.875  0.2525  0.0449  0.9700
  903MPD2    H513288   1.946   1.788  11.840  1.8535  1.8725  0.2286
  903MPD2    N113289   2.494   1.701  12.010 -0.1962 -0.4710  0.6004
  903MPD2    H713290   2.571   1.757  12.043  0.2068 -0.1985 -0.8269
  904MPD2     C13291   1.878   0.280  14.146  0.1100 -0.0895  0.2385
  904MPD2    C113292   1.863   0.395  14.220 -0.7808  0.1480 -0.0707
  904MPD2    C213293   1.951   0.431  14.320  0.2283  0.3797  0.3763
  904MPD2    C313294   2.060   0.352  14.336 -0.1630  0.3438 -0.0269
  904MPD2    C413295   2.074   0.234  14.263  0.5867  0.3913 -0.0525
  904MPD2    C513296   1.986   0.202  14.167 -0.0947 -0.0099  1.3865
  904MPD2     H13297   1.931   0.518  14.381  0.5255 -0.3982  1.5791
  904MPD2    H113298   2.156   0.167  14.289  0.9920  0.4052 -1.2938
  904MPD2    H213299   1.806   0.261  14.067  0.0389 -0.9488  0.5109
  904MPD2    H313300   1.994   0.109  14.113  0.7610 -0.5271  2.3937
  904MPD2     N13301   2.168   0.409  14.409 -0.3390  0.6918 -0.3842
  904MPD2    H513302   2.146   0.497  14.455 -3.1491  0.0110 -0.4356
  904MPD2    N113303   1.777   0.499  14.184  0.3575 -0.5802  0.4293
  904MPD2    H713304   1.795   0.592  14.222 -0.2218 -0.1235 -0.4143
  905MPD2     C13305   1.641   1.003  13.470 -0.7606  0.2296  0.0898
  905MPD2    C113306   1.699   0.902  13.533  0.1745  0.5091 -0.0212
  905MPD2    C213307   1.809   0.836  13.481  0.0653  0.1061  0.8382
  905MPD2    C313308   1.861   0.873  13.364  0.0579  0.0751 -0.5050
  905MPD2    C413309   1.811   0.989  13.303  0.7015 -0.3307 -0.0737
  905MPD2    C513310   1.700   1.056  13.359 -0.0820 -0.4332  0.2063
  905MPD2     H13311   1.862   0.767  13.544 -0.8076 -0.4492  0.9574
  905MPD2    H113312   1.846   1.027  13.208 -0.4411 -1.4189 -0.9342
  905MPD2    H213313   1.548   1.048  13.504 -1.3345 -0.8964 -0.0140
  905MPD2    H313314   1.658   1.145  13.313  0.7214 -0.8668 -1.3672
  905MPD2     N13315   1.971   0.804  13.314  0.5821  0.0496 -0.5093
  905MPD2    H513316   2.009   0.851  13.232  1.0215  0.3144 -0.1496
  905MPD2    N113317   1.639   0.856  13.649 -1.2086  0.7151  0.5506
  905MPD2    H713318   1.562   0.915  13.679 -1.5142 -0.0004  1.1875
  906MPD2     C13319   3.897   1.567  11.340  0.0202 -0.3032  0.3361
  906MPD2    C113320   3.883   1.484  11.233  0.0676  0.5997  0.4014
  906MPD2    C213321   3.818   1.365  11.251  0.3529  0.3808 -0.6282
  906MPD2    C313322   3.766   1.321  11.375  0.3378  0.1243 -0.0841
  906MPD2    C413323   3.792   1.412  11.481  0.0504  0.6478 -0.0443
  906MPD2    C513324   3.854   1.531  11.461 -0.3749  0.0329 -0.0899
  906MPD2     H13325   3.808   1.298  11.166 -1.7349 -1.1499  0.8319
  906MPD2    H113326   3.762   1.397  11.584  0.9914  1.8701  0.4134
  906MPD2    H213327   3.931   1.668  11.322  1.8608 -0.8676  0.5685
  906MPD2    H313328   3.868   1.590  11.550  1.7916  0.0435 -0.4391
  906MPD2     N13329   3.698   1.199  11.405 -0.3256 -0.7566 -0.0404
  906MPD2    H513330   3.698   1.161  11.499  0.5047 -1.1286 -0.1906
  906MPD2    N113331   3.917   1.514  11.100  0.5037 -0.3883  0.0491
  906MPD2    H713332   3.903   1.437  11.035 -0.0991  1.9432 -2.5951
  907MPD2     C13333   3.087   4.688  15.264  0.0147 -0.5900 -0.0135
  907MPD2    C113334   3.075   4.550  15.248 -0.3634  0.1600  0.2450
  907MPD2    C213335   3.078   4.478  15.361  0.1534 -0.1144  0.0800
  907MPD2    C313336   3.086   4.533  15.488  0.4954 -0.4801 -0.7129
  907MPD2    C413337   3.107   4.667  15.505  0.6461  0.8275 -0.8071
  907MPD2    C513338   3.094   0.007  15.392  0.3561  0.5328 -0.0127
  907MPD2     H13339   3.072   4.370  15.354 -2.0494  0.0816 -1.1329
  907MPD2    H113340   3.130   4.714  15.601  3.7702 -1.8191 -0.2524
  907MPD2    H213341   3.074   0.020  15.180 -0.0823 -0.5652  0.0210
  907MPD2    H313342   3.122   0.111  15.392 -1.4528  1.0296 -1.3036
  907MPD2     N13343   3.098   4.440  15.603  0.5423 -0.8154  0.4125
  907MPD2    H513344   3.088   4.342  15.579 -1.1230 -0.2250 -1.2723
  907MPD2    N113345   3.038   4.482  15.128 -0.2989  0.9812 -0.0857
  907MPD2    H713346   3.032   4.381  15.137 -0.9150  1.0165 -0.0768
  908MPD2     C13347   1.109   0.771   9.719 -0.1475 -0.2173  0.1872
  908MPD2    C113348   0.993   0.746   9.783 -0.5200 -0.1433 -0.1271
  908MPD2    C213349   0.947   0.833   9.874 -0.4486 -0.3112 -0.7439
  908MPD2    C313350   1.026   0.939   9.919  0.2267 -0.6034  0.1315
  908MPD2    C413351   1.142   0.959   9.849 -0.4230  0.1302 -0.3730
  908MPD2    C513352   1.184   0.866   9.751  0.1308 -0.1669 -0.5753
  908MPD2     H13353   0.850   0.818   9.920 -1.1994 -0.6604 -2.4481
  908MPD2    H113354   1.214   1.040   9.860 -0.1562  0.0829 -1.7312
  908MPD2    H213355   1.156   0.700   9.652  0.5471  0.1441  0.2891
  908MPD2    H313356   1.278   0.881   9.699  1.4578  1.2665  2.2311
  908MPD2     N13357   0.984   1.014  10.030  0.7628  0.5097  0.8417
  908MPD2    H513358   0.892   0.987  10.066  1.1103 -0.9833  0.6165
  908MPD2    N113359   0.920   0.629   9.749 -0.0228  0.1205  0.0136
  908MPD2    H713360   0.958   0.565   9.681  0.6699 -2.4686  2.8635
  909MPD2     C13361   0.673   3.805  11.453 -0.0353  0.9815 -0.0214
  909MPD2    C113362   0.636   3.934  11.430  0.0849  0.1924  0.5573
  909MPD2    C213363   0.579   4.007  11.530  0.3459 -0.2717 -0.4333
  909MPD2    C313364   0.547   3.954  11.652  0.0965  0.3145 -0.6653
  909MPD2    C413365   0.585   3.824  11.675  0.5591 -0.9424 -0.2005
  909MPD2    C513366   0.655   3.758  11.580 -0.4710 -0.3473 -0.2815
  909MPD2     H13367   0.549   4.110  11.511  1.2025  0.0529  0.0007
  909MPD2    H113368   0.584   3.777  11.773  1.1819 -1.2186 -0.3217
  909MPD2    H213369   0.711   3.736  11.378 -1.0873  1.5611 -1.0968
  909MPD2    H313370   0.699   3.664  11.610  3.0147  1.4626  0.2695
  909MPD2     N13371   0.472   4.036  11.739  0.0624 -0.4018  0.3170
  909MPD2    H513372   0.455   4.135  11.719  3.3143  0.2036  0.5145
  909MPD2    N113373   0.651   3.996  11.303  0.5081 -0.8137 -0.5121
  909MPD2    H713374   0.658   4.097  11.298 -1.1607 -0.7477 -1.3603
  910MPD2     C13375   2.332   0.345  16.314 -0.0245  0.0971  0.2186
  910MPD2    C113376   2.371   0.308  16.188  0.2941  0.0968 -0.5545
  910MPD2    C213377   2.304   0.354  16.073 -0.0843  0.5029 -0.3450
  910MPD2    C313378   2.198   0.440  16.087  0.3205 -0.3775  0.4531
  910MPD2    C413379   2.154   0.466  16.218  0.4859  0.1827 -0.2514
  910MPD2    C513380   2.224   0.422  16.326  0.2795  0.1677  0.3347
  910MPD2     H13381   2.340   0.326  15.975  0.8534  2.0338 -0.4414
  910MPD2    H113382   2.076   0.534  16.249  0.4811 -0.2022  0.5848
  910MPD2    H213383   2.378   0.301  16.401 -1.6469 -2.0167 -0.0139
  910MPD2    H313384   2.189   0.453  16.424  2.2745 -2.1236  1.7596
  910MPD2     N13385   2.120   0.499  15.978 -0.8380  0.5024  0.0415
  910MPD2    H513386   2.040   0.553  16.008 -0.9951  0.0432  0.4430
  910MPD2    N113387   2.473   0.217  16.150 -0.0612 -0.3616 -0.1653
  910MPD2    H713388   2.494   0.208  16.051 -3.5951  2.1656 -1.1387
  911MPD2     C13389   0.226   0.954  16.360 -0.4016 -0.1355  0.9230
  911MPD2    C113390   0.314   0.998  16.264  0.3871  0.0872 -0.8295
  911MPD2    C213391   0.277   1.101  16.182  0.8802 -0.2227  0.1404
  911MPD2    C313392   0.154   1.168  16.201  0.3656  0.0833 -0.4385
  911MPD2    C413393   0.072   1.125  16.304  0.5014  0.2165  0.1210
  911MPD2    C513394   0.105   1.012  16.375 -0.0121  0.5634  0.8360
  911MPD2     H13395   0.342   1.138  16.104  0.5281  0.3351  0.1141
  911MPD2    H113396   4.712   1.170  16.328  1.5209  2.0937  0.6497
  911MPD2    H213397   0.250   0.870  16.424 -2.9098 -1.9247 -0.4745
  911MPD2    H313398   0.039   0.970  16.449 -1.0625 -1.2070 -1.0924
  911MPD2     N13399   0.097   1.257  16.106  0.0718  0.1790  0.4178
  911MPD2    H513400   0.011   1.302  16.135  1.2841  2.6148  0.2445
  911MPD2    N113401   0.440   0.939  16.235 -0.1271  0.2268  0.5855
  911MPD2    H713402   0.497   0.984  16.164 -1.3659  2.7486  1.1741
  912MPD2     C13403   4.312   1.077  15.500  0.5300 -0.5984 -0.0644
  912MPD2    C113404   4.357   1.088  15.630 -0.1484  0.3028  0.1552
  912MPD2    C213405   4.334   0.987  15.720 -0.8162  0.4813  0.3223
  912MPD2    C313406   4.271   0.869  15.679  0.0978 -0.4750  1.3530
  912MPD2    C413407   4.222   0.860  15.552 -0.6435 -0.1522 -0.2717
  912MPD2    C513408   4.235   0.968  15.461 -0.5254  0.2855 -0.5972
  912MPD2     H13409   4.373   0.973  15.820 -0.9630  1.1500  0.4722
  912MPD2    H113410   4.179   0.769  15.511 -1.6588  0.4795 -0.5891
  912MPD2    H213411   4.335   1.143  15.417 -1.1035  1.8914  1.4652
  912MPD2    H313412   4.196   0.961  15.360 -0.7128  0.5189 -0.5417
  912MPD2     N13413   4.266   0.767  15.773  0.2152  0.4779  0.1462
  912MPD2    H513414   4.292   0.786  15.870 -0.7848 -1.1662  0.7460
  912MPD2    N113415   4.429   1.203  15.670  0.2991 -0.0405  0.2521
  912MPD2    H713416   4.455   1.271  15.600  1.3357 -1.4792 -0.7400
  913MPD2     C13417   1.243   2.007  10.325  0.0537 -0.0643 -0.3384
  913MPD2    C113418   1.156   2.108  10.355  0.3257  0.3417 -0.3808
  913MPD2    C213419   1.165   2.227  10.287 -0.2766 -0.2345  0.5539
  913MPD2    C313420   1.261   2.242  10.189 -0.3888  0.2888 -0.1565
  913MPD2    C413421   1.339   2.140  10.155 -0.6177  0.7255  0.0937
  913MPD2    C513422   1.331   2.022  10.220 -0.2199 -0.5011  0.1297
  913MPD2     H13423   1.095   2.306  10.314 -0.3571 -0.5377  1.2210
  913MPD2    H113424   1.405   2.155  10.070  0.7990 -1.1198  0.8721
  913MPD2    H213425   1.243   1.917  10.384  0.8411 -0.0791 -0.3645
  913MPD2    H313426   1.408   1.953  10.187 -0.3388 -0.3650 -0.4298
  913MPD2     N13427   1.269   2.351  10.096 -0.8152 -0.2463 -0.5127
  913MPD2    H513428   1.350   2.353  10.035 -0.8931  1.2835 -0.5672
  913MPD2    N113429   1.063   2.085  10.459 -0.1679  0.6237 -0.6814
  913MPD2    H713430   1.078   2.004  10.518 -0.6177  0.7978 -0.3233
  914MPD2     C13431   2.862   2.577  12.265  0.5287  0.2390 -0.2189
  914MPD2    C113432   2.946   2.625  12.363 -0.5361  0.1660  0.2660
  914MPD2    C213433   3.007   2.525  12.443 -0.1462 -0.5150 -0.8855
  914MPD2    C313434   2.988   2.389  12.418  0.0810  0.3641  0.0443
  914MPD2    C413435   2.898   2.354  12.316  0.5111 -0.1868 -0.1869
  914MPD2    C513436   2.828   2.445  12.247 -0.0093  0.9677  0.3417
  914MPD2     H13437   3.075   2.542  12.526  0.4910  0.5564 -1.6368
  914MPD2    H113438   2.889   2.250  12.287  1.3289 -0.7762  1.6514
  914MPD2    H213439   2.813   2.646  12.198  0.2138  1.4365  1.2416
  914MPD2    H313440   2.754   2.419  12.172  0.9692  0.7998 -0.5589
  914MPD2     N13441   3.047   2.289  12.497  0.2527  0.4670  0.0998
  914MPD2    H513442   3.107   2.311  12.576 -1.5271  1.2325  1.2545
  914MPD2    N113443   2.966   2.765  12.378 -0.0988  0.2635  0.6619
  914MPD2    H713444   2.892   2.821  12.336  1.7130  0.2809 -2.4574
  915MPD2     C13445   0.966   2.235  15.635 -0.2675  0.6229 -1.0000
  915MPD2    C113446   0.894   2.344  15.593 -0.2574  0.0056 -0.3851
  915MPD2    C213447   0.834   2.426  15.685 -0.3854  0.3846 -0.3842
  915MPD2    C313448   0.866   2.415  15.818  0.7765  0.0266 -0.4188
  915MPD2    C413449   0.936   2.306  15.866 -0.0999 -0.0625  0.2437
  915MPD2    C513450   0.985   2.219  15.773 -0.1030  0.6918  0.3015
  915MPD2     H13451   0.768   2.503  15.648 -1.2382 -0.5326 -0.7518
  915MPD2    H113452   0.974   2.302  15.967  1.1430  3.0582 -0.0713
  915MPD2    H213453   1.009   2.160  15.569 -0.6381 -2.0249  1.7787
  915MPD2    H313454   1.032   2.135  15.822 -1.9678 -0.7350 -0.3541
  915MPD2     N13455   0.801   2.504  15.908  0.1200 -1.6219  0.2106
  915MPD2    H513456   0.732   2.566  15.865 -0.4762 -1.6677  1.1103
  915MPD2    N113457   0.863   2.349  15.454  0.0502  0.0171 -0.2428
  915MPD2    H713458   0.902   2.272  15.402 -0.9608  0.7058 -2.0254
  916MPD2     C13459   3.915   1.105  15.615 -0.5186  0.7911  0.0484
  916MPD2    C113460   3.914   1.001  15.706 -0.0376  0.2624  0.1007
  916MPD2    C213461   3.898   0.869  15.656 -0.2903 -0.4217  0.0202
  916MPD2    C313462   3.888   0.840  15.520  0.5780 -0.1401 -0.2878
  916MPD2    C413463   3.883   0.950  15.432 -0.5272 -0.8488  0.3673
  916MPD2    C513464   3.897   1.078  15.485 -1.1480  0.0216 -0.3250
  916MPD2     H13465   3.897   0.790  15.731 -0.3515  1.5103  2.0516
  916MPD2    H113466   3.866   0.937  15.325  1.3736 -0.4355  0.0197
  916MPD2    H213467   3.945   1.204  15.648  0.7545  0.4551 -0.1140
  916MPD2    H313468   3.896   1.162  15.416 -1.5273  0.8838  0.7129
  916MPD2     N13469   3.885   0.703  15.485  0.3931 -0.5805 -0.7686
  916MPD2    H513470   3.894   0.639  15.564  0.1784  0.9983  0.5181
  916MPD2    N113471   3.944   1.031  15.837 -0.3848 -0.1097 -0.2798
  916MPD2    H713472   3.971   1.126  15.861  0.9271 -0.6639  0.4587
  917MPD2     C13473   3.892   3.069  11.250  0.2369 -0.1530 -0.6335
  917MPD2    C113474   3.960   3.118  11.353  0.4186 -0.8091  0.0622
  917MPD2    C213475   4.047   3.220  11.332  0.0322 -0.3055 -0.5224
  917MPD2    C313476   4.063   3.284  11.207  0.2731  0.0619 -0.6429
  917MPD2    C413477   3.979   3.236  11.108 -0.4221 -0.2500 -0.0734
  917MPD2    C513478   3.897   3.133  11.133 -0.5138 -0.3439 -0.3029
  917MPD2     H13479   4.103   3.249  11.421 -1.1608 -3.5817  1.2941
  917MPD2    H113480   3.969   3.292  11.015 -0.2644  0.7387  0.5088
  917MPD2    H213481   3.817   2.991  11.257 -0.2677  0.4024  0.2122
  917MPD2    H313482   3.834   3.094  11.055  0.8186  0.7311 -1.9280
  917MPD2     N13483   4.146   3.389  11.179  0.4248  0.2632 -0.0551
  917MPD2    H513484   4.150   3.415  11.081 -0.3328  1.1423  0.1557
  917MPD2    N113485   3.940   3.056  11.483  0.1370 -0.2240  0.7263
  917MPD2    H713486   3.885   2.971  11.485 -2.4851  1.4543 -1.1504
  918MPD2     C13487   4.088   3.407  12.437 -0.1401 -0.3778  0.0957
  918MPD2    C113488   4.181   3.402  12.341 -0.1028 -0.8349  0.6417
  918MPD2    C213489   4.158   3.333  12.225  0.2451 -0.3582 -0.9215
  918MPD2    C313490   4.043   3.258  12.209 -0.2035  0.1034  0.3083
  918MPD2    C413491   3.948   3.263  12.314  0.3384  0.7016 -0.5296
  918MPD2    C513492   3.980   3.328  12.425 -0.3481  1.0298  0.0153
  918MPD2     H13493   4.233   3.319  12.149  1.8653  2.0794  0.2089
  918MPD2    H113494   3.860   3.199  12.315  0.8078  0.0501 -0.9016
  918MPD2    H213495   4.099   3.453  12.535  2.8013 -2.6598  0.8228
  918MPD2    H313496   3.918   3.310  12.512  2.6489  0.6996  2.0800
  918MPD2     N13497   4.030   3.171  12.097 -0.2815  0.5347  0.1626
  918MPD2    H513498   4.102   3.188  12.028 -0.7035  1.3451 -0.0742
  918MPD2    N113499   4.304   3.476  12.352  0.1575 -0.0999 -0.1380
  918MPD2    H713500   4.354   3.474  12.264 -0.9788  0.1500 -0.7851
  919MPD2     C13501   0.105   2.364  11.826 -0.3515 -0.0189 -0.1849
  919MPD2    C113502   0.097   2.254  11.745 -0.0215  0.4455  0.5171
  919MPD2    C213503   0.123   2.267  11.605 -0.0275 -0.3925  0.0975
  919MPD2    C313504   0.154   2.385  11.548  0.2755 -0.3689 -0.8517
  919MPD2    C413505   0.169   2.492  11.634  0.3509 -0.6767  0.4902
  919MPD2    C513506   0.147   2.477  11.768  0.2191 -0.2706  0.1040
  919MPD2     H13507   0.126   2.179  11.542 -0.7877 -1.5573  1.6951
  919MPD2    H113508   0.193   2.590  11.594  0.5135 -1.7248 -1.9876
  919MPD2    H213509   0.073   2.368  11.930 -0.1088  0.9321 -0.1470
  919MPD2    H313510   0.166   2.572  11.817  1.3516  1.0083 -2.7794
  919MPD2     N13511   0.172   2.416  11.409  0.5064 -0.5763  0.0833
  919MPD2    H513512   0.198   2.511  11.385  1.6517 -0.6502  1.0176
  919MPD2    N113513   0.055   2.125  11.792  0.7596  0.0176 -0.1652
  919MPD2    H713514   0.057   2.050  11.723  0.2330  1.0270 -1.2698
  920MPD2     C13515   4.579   3.025  10.750 -0.0540 -0.0850  0.9361
  920MPD2    C113516   4.546   2.900  10.709 -0.2444 -0.0830  0.0703
  920MPD2    C213517   4.588   2.791  10.772  0.2911 -0.4043  0.2069
  920MPD2    C313518   4.699   2.806  10.858 -0.8248  0.0654 -0.2312
  920MPD2    C413519   0.008   2.932  10.896 -0.6263 -0.6252  0.4789
  920MPD2    C513520   4.675   3.038  10.848 -0.3358 -0.2382 -0.5212
  920MPD2     H13521   4.558   2.690  10.748  1.7524 -0.3362 -1.9186
  920MPD2    H113522   0.093   2.950  10.961 -0.2621 -0.6259 -0.0009
  920MPD2    H213523   4.539   3.115  10.707  1.1425  0.0017  0.0140
  920MPD2    H313524   4.698   3.140  10.878 -1.4272 -0.5027  1.1575
  920MPD2     N13525   0.028   2.688  10.907  0.0335 -0.4433 -0.2834
  920MPD2    H513526   0.005   2.603  10.856 -0.2521 -1.6359  1.8142
  920MPD2    N113527   4.452   2.874  10.601 -0.4211 -0.0996 -0.3942
  920MPD2    H713528   4.428   2.778  10.581  2.9011 -0.6357 -1.7082
  921MPD2     C13529   1.009   0.998  16.931  0.1708  0.2335 -0.2057
  921MPD2    C113530   1.085   0.983  16.811 -0.2335  0.6707  0.0620
  921MPD2    C213531   1.030   0.904  16.722  0.5065 -0.2880 -0.2146
  921MPD2    C313532   0.907   0.838  16.739  0.1186 -0.3628 -0.5043
  921MPD2    C413533   0.846   0.836  16.865  0.6528  0.1148 -0.3541
  921MPD2    C513534   0.896   0.924  16.958 -0.1482 -0.2765 -0.5652
  921MPD2     H13535   1.078   0.889  16.626 -0.1450  0.8653 -0.7286
  921MPD2    H113536   0.751   0.788  16.885  0.5464  1.7798  3.1022
  921MPD2    H213537   1.034   1.077  17.000 -0.8461  0.0567  0.3666
  921MPD2    H313538   0.849   0.943  17.054 -0.3421 -1.3244 -0.4552
  921MPD2     N13539   0.846   0.766  16.635  0.5177  0.3829  0.2029
  921MPD2    H513540   0.747   0.744  16.647  0.3479  0.4824 -1.0842
  921MPD2    N113541   1.203   1.061  16.790  0.5179  0.0162 -0.0368
  921MPD2    H713542   1.238   1.117  16.867 -0.4494  0.1426  0.3080
  922MPD2     C13543   1.865   4.149  16.838 -0.1415  0.5654  0.3055
  922MPD2    C113544   1.835   4.138  16.970 -0.6583  0.8050  0.3586
  922MPD2    C213545   1.807   4.012  17.019  0.1825 -0.1216  0.2701
  922MPD2    C313546   1.809   3.902  16.943  0.5014  0.0787  0.4919
  922MPD2    C413547   1.840   3.919  16.806 -0.0806 -0.1862  0.5601
  922MPD2    C513548   1.870   4.037  16.754 -0.7519  0.2627 -0.3000
  922MPD2     H13549   1.786   3.997  17.124  1.3499  3.3664  1.0226
  922MPD2    H113550   1.842   3.830  16.743  0.5105 -0.2130  0.6190
  922MPD2    H213551   1.883   4.247  16.795 -2.0574  0.7922 -0.0015
  922MPD2    H313552   1.888   4.056  16.649  2.3418 -1.5544 -0.0980
  922MPD2     N13553   1.779   3.781  17.014  0.0361  0.2224  0.4897
  922MPD2    H513554   1.756   3.780  17.113  0.3576  0.5321  0.5669
  922MPD2    N113555   1.825   4.243  17.057  0.7169 -0.7252 -0.2201
  922MPD2    H713556   1.797   4.225  17.153 -0.6367 -0.3925 -0.5537
  923MPD2     C13557   2.361   1.365   8.619 -0.5067 -0.2834 -0.1746
  923MPD2    C113558   2.431   1.454   8.697  0.1358 -1.2186 -0.5674
  923MPD2    C213559   2.548   1.415   8.757  0.5911 -0.5159  0.1498
  923MPD2    C313560   2.587   1.280   8.737  0.4341  0.7755  0.3623
  923MPD2    C413561   2.517   1.195   8.660 -0.3128 -0.0725 -0.0797
  923MPD2    C513562   2.400   1.236   8.599  0.2783  0.0408 -0.1251
  923MPD2     H13563   2.611   1.492   8.801  0.6443 -1.1215  1.1316
  923MPD2    H113564   2.544   1.093   8.636 -1.7109 -0.3405 -0.5020
  923MPD2    H213565   2.266   1.384   8.572 -0.2225  3.4799  0.7411
  923MPD2    H313566   2.346   1.167   8.535  1.3866 -2.6533  1.8209
  923MPD2     N13567   2.698   1.226   8.796  0.1886 -0.7461  0.3608
  923MPD2    H513568   2.730   1.136   8.761 -1.5215 -1.7803  1.4484
  923MPD2    N113569   2.378   1.586   8.703 -0.1668 -0.4109  0.8315
  923MPD2    H713570   2.298   1.607   8.643 -0.6941 -0.7742  1.4131
  924MPD2     C13571   3.230   3.869  15.277 -0.4757  0.3326  0.1115
  924MPD2    C113572   3.194   3.816  15.396  0.8466 -1.0378  0.2411
  924MPD2    C213573   3.245   3.873  15.507 -0.0732  0.3859 -0.1729
  924MPD2    C313574   3.329   3.983  15.508  0.3071  0.2810  0.2717
  924MPD2    C413575   3.375   4.028  15.382  0.4337 -0.3696 -0.0939
  924MPD2    C513576   3.323   3.966  15.269 -0.0593  0.9798  0.1951
  924MPD2     H13577   3.202   3.839  15.601 -0.0249  0.9473  0.0522
  924MPD2    H113578   3.453   4.102  15.369  0.2019  0.0292  0.7792
  924MPD2    H213579   3.204   3.839  15.176  0.5238  1.9440 -0.6156
  924MPD2    H313580   3.358   4.000  15.173 -2.1626  3.3688  0.2796
  924MPD2     N13581   3.353   4.064  15.622  0.0062  0.3376  0.0763
  924MPD2    H513582   3.407   4.148  15.604  0.7132 -0.1252  0.0224
  924MPD2    N113583   3.089   3.721  15.404  0.2136 -0.5592 -0.2218
  924MPD2    H713584   3.034   3.710  15.319 -0.9326  1.4304  0.2647
  925MPD2     C13585   2.096   1.457  14.786 -0.0066  0.6269 -0.4373
  925MPD2    C113586   1.984   1.505  14.737 -0.1850 -0.1187 -0.0378
  925MPD2    C213587   1.907   1.568  14.829  0.5739  0.2321  0.1147
  925MPD2    C313588   1.938   1.569  14.965  0.4304  0.1957 -0.4693
  925MPD2    C413589   2.053   1.517  15.003  0.5881 -0.2220 -0.3434
  925MPD2    C513590   2.129   1.463  14.911 -0.1915  0.0017 -0.6166
  925MPD2     H13591   1.805   1.600  14.809  0.7962  1.4341  0.9116
  925MPD2    H113592   2.095   1.517  15.103 -1.4045 -0.3865  0.5059
  925MPD2    H213593   2.167   1.405  14.723 -0.5604  1.0988 -1.4527
  925MPD2    H313594   2.225   1.423  14.940 -0.4056  0.6468  0.9508
  925MPD2     N13595   1.857   1.626  15.066  0.0650  0.1033 -0.0575
  925MPD2    H513596   1.884   1.595  15.158  0.9321 -0.6001 -0.5475
  925MPD2    N113597   1.938   1.484  14.607 -0.8324 -0.2305  1.0001
  925MPD2    H713598   1.850   1.531  14.584 -0.5263 -0.6860 -1.1000
  926MPD2     C13599   0.660   0.195  13.933 -0.4953  0.9299  0.0482
  926MPD2    C113600   0.557   0.219  13.843  0.1596  0.5057  0.6884
  926MPD2    C213601   0.576   0.193  13.706 -0.2776 -0.2477  0.2632
  926MPD2    C313602   0.692   0.133  13.664 -0.6864  0.3554  0.4378
  926MPD2    C413603   0.774   0.079  13.759 -0.0622  0.2035 -0.4185
  926MPD2    C513604   0.765   0.120  13.890  0.6572  0.1677  0.6477
  926MPD2     H13605   0.495   0.203  13.635  1.4117 -1.0881 -1.7813
  926MPD2    H113606   0.852   0.011  13.724  0.8884  1.8570 -1.5096
  926MPD2    H213607   0.657   0.240  14.031 -0.1645 -2.7705  1.7391
  926MPD2    H313608   0.843   0.093  13.961  0.3883 -1.2003  0.4246
  926MPD2     N13609   0.712   0.100  13.527  0.4681  0.0290  0.2734
  926MPD2    H513610   0.798   0.052  13.504 -0.3249 -0.9904 -0.6374
  926MPD2    N113611   0.431   0.274  13.883  0.3022  0.5781 -0.3307
  926MPD2    H713612   0.367   0.289  13.806  0.0809  2.1642  0.1738
  927MPD2     C13613   0.573   2.632  17.470  0.0610 -0.9376 -0.3891
  927MPD2    C113614   0.450   2.664  17.408  0.7139  0.5516 -0.5286
  927MPD2    C213615   0.439   2.656  17.270 -0.0183 -0.3729  0.1274
  927MPD2    C313616   0.553   2.630  17.198  0.7462 -1.1122 -0.1837
  927MPD2    C413617   0.679   2.606  17.263  0.0483  0.0020 -0.4625
  927MPD2    C513618   0.683   2.610  17.398 -0.1471 -0.9273  1.1747
  927MPD2     H13619   0.345   2.676  17.220  0.5821  0.1933 -0.7778
  927MPD2    H113620   0.768   2.588  17.204  0.8865  1.2227  0.4096
  927MPD2    H213621   0.579   2.646  17.578 -0.8865  1.4563 -0.6413
  927MPD2    H313622   0.774   2.578  17.449  0.4265 -0.3494  0.4971
  927MPD2     N13623   0.554   2.638  17.055  0.8885 -0.5268 -0.0564
  927MPD2    H513624   0.470   2.668  17.006 -0.5367  0.1040  2.8071
  927MPD2    N113625   0.338   2.682  17.496  0.1996  0.6504 -0.3568
  927MPD2    H713626   0.358   2.696  17.594  3.6222  0.4408 -1.0169
  928MPD2     C13627   2.295   1.153  17.723  0.0842 -0.5112 -0.1814
  928MPD2    C113628   2.355   1.174   0.102 -0.2575 -0.3184  0.5732
  928MPD2    C213629   2.485   1.126   0.131 -0.2796 -0.0490 -0.6773
  928MPD2    C313630   2.559   1.070   0.027  0.1054  0.3437 -0.1069
  928MPD2    C413631   2.499   1.050  17.639 -0.0184 -0.0347 -0.4770
  928MPD2    C513632   2.369   1.083  17.627  0.8960 -0.3837  0.1795
  928MPD2     H13633   2.521   1.154   0.229  0.1053  1.9733 -1.3963
  928MPD2    H113634   2.553   1.017  17.551  0.5960 -1.6690  0.5112
  928MPD2    H213635   2.191   1.182  17.716  0.7540  1.8830 -0.0211
  928MPD2    H313636   2.312   1.071  17.536  1.7057  0.7704 -0.4838
  928MPD2     N13637   2.696   1.042   0.038 -0.5509 -1.0056  0.4777
  928MPD2    H513638   2.741   0.995  17.701  0.5087  0.4187  0.2289
  928MPD2    N113639   2.273   1.238   0.195  0.9246  0.3318  0.2285
  928MPD2    H713640   2.188   1.280   0.158  0.4730 -0.3315  0.4956
  929MPD2     C13641   2.794   1.761   9.794 -0.2915 -0.3336 -0.5037
  929MPD2    C113642   2.738   1.634   9.811  0.3576  0.1297 -0.0388
  929MPD2    C213643   2.649   1.580   9.715  0.1429  0.1556 -0.3707
  929MPD2    C313644   2.612   1.658   9.610  0.3105 -0.6896  0.6611
  929MPD2    C413645   2.679   1.775   9.576 -0.1169 -0.4694 -0.2112
  929MPD2    C513646   2.765   1.824   9.674  0.2263 -0.4881  0.0094
  929MPD2     H13647   2.587   1.494   9.739  0.8333  0.2283  1.6743
  929MPD2    H113648   2.649   1.842   9.496  1.6095  0.3621 -0.1483
  929MPD2    H213649   2.843   1.817   9.873 -2.1918  0.3453  0.2070
  929MPD2    H313650   2.805   1.923   9.660 -1.8460  0.1711 -1.1368
  929MPD2     N13651   2.500   1.627   9.524  0.3859  0.0203 -0.2208
  929MPD2    H513652   2.500   1.669   9.431  2.1267  0.4930 -0.0257
  929MPD2    N113653   2.768   1.565   9.935  0.1613 -0.0032  0.6644
  929MPD2    H713654   2.833   1.620   9.990  0.8780  1.0746 -1.2453
  930MPD2     C13655   0.337   3.027  14.130 -0.2678  0.0564  0.5303
  930MPD2    C113656   0.408   3.042  14.017 -1.0622 -0.0869 -0.2482
  930MPD2    C213657   0.396   2.953  13.904  0.1395  0.4412 -0.0999
  930MPD2    C313658   0.296   2.855  13.912  0.0956  0.4682  0.4816
  930MPD2    C413659   0.226   2.844  14.030 -0.2401  0.3693  0.3131
  930MPD2    C513660   0.240   2.928  14.139  0.0438  0.3863  0.2140
  930MPD2     H13661   0.448   2.979  13.812 -1.0747 -0.7366 -1.1201
  930MPD2    H113662   0.151   2.767  14.026  1.4171 -1.2201 -0.2317
  930MPD2    H213663   0.349   3.093  14.216  0.3453  0.4280  0.1554
  930MPD2    H313664   0.171   2.906  14.220 -0.7344  0.3027 -0.4708
  930MPD2     N13665   0.274   2.769  13.812  0.0188  0.0680  0.2306
  930MPD2    H513666   0.190   2.713  13.819  0.8476 -1.0820  1.0086
  930MPD2    N113667   0.506   3.145  14.006  0.2266  0.6348 -0.3472
  930MPD2    H713668   0.547   3.154  13.913  2.9413  0.8729  0.8820
  931MPD2     C13669   0.469   2.571   0.342 -0.4469  0.9694 -0.7968
  931MPD2    C113670   0.335   2.579   0.328  1.4441 -0.4976 -1.1096
  931MPD2    C213671   0.256   2.502   0.417  0.1213 -0.0610  0.2383
  931MPD2    C313672   0.318   2.422   0.510 -0.5794  0.4060  0.2182
  931MPD2    C413673   0.456   2.411   0.512  0.7681  0.3487  0.5646
  931MPD2    C513674   0.533   2.495   0.437 -0.5326 -0.1617 -0.2436
  931MPD2     H13675   0.149   2.506   0.401 -0.2428 -3.1586  1.6890
  931MPD2    H113676   0.493   2.333   0.578 -0.1164 -0.6644 -0.1186
  931MPD2    H213677   0.528   2.639   0.282  0.5333  0.0887 -0.8353
  931MPD2    H313678   0.639   2.480   0.419 -0.0079  2.4211  0.7567
  931MPD2     N13679   0.245   2.326   0.578  0.1576  0.4188 -0.1187
  931MPD2    H513680   0.293   2.253   0.629  1.9718  0.0404 -2.3731
  931MPD2    N113681   0.288   2.644   0.216 -0.4682  0.1886  0.4580
  931MPD2    H713682   0.350   2.690   0.151 -1.0719 -1.0365 -0.9820
  932MPD2     C13683   1.381   1.658  11.427 -0.6677  0.3057  0.2457
  932MPD2    C113684   1.508   1.693  11.470  0.3361  0.6763 -0.1236
  932MPD2    C213685   1.596   1.602  11.519  0.3426  0.6214 -0.3266
  932MPD2    C313686   1.556   1.472  11.520  0.0933 -0.2685  0.2729
  932MPD2    C413687   1.424   1.431  11.486 -0.4652  0.2956 -0.1305
  932MPD2    C513688   1.336   1.528  11.445  0.0738 -0.7800 -0.3322
  932MPD2     H13689   1.691   1.641  11.552  0.4748 -1.0903  1.3366
  932MPD2    H113690   1.388   1.329  11.488  1.8443 -0.4834  1.9692
  932MPD2    H213691   1.309   1.732  11.392 -0.3490  0.7773  0.5813
  932MPD2    H313692   1.234   1.497  11.424 -0.1221  0.9224 -1.8483
  932MPD2     N13693   1.633   1.373  11.581  0.9111  0.0465  0.4441
  932MPD2    H513694   1.594   1.280  11.573 -0.3940  0.4822  1.7697
  932MPD2    N113695   1.558   1.823  11.473 -0.2327 -0.8003  0.3860
  932MPD2    H713696   1.653   1.836  11.507 -0.8128 -2.1271  2.5664
  933MPD2     C13697   2.065   1.833  17.727  0.0802 -0.0057  0.4245
  933MPD2    C113698   2.131   1.845   0.110  0.0706  0.3977 -0.0550
  933MPD2    C213699   2.167   1.976   0.142 -0.1207 -0.4377 -0.0022
  933MPD2    C313700   2.159   2.084   0.056 -0.4829  0.2499  0.0319
  933MPD2    C413701   2.124   2.067  17.665  0.0636 -0.3328  0.3486
  933MPD2    C513702   2.067   1.941  17.636 -0.4167 -0.5478 -0.6938
  933MPD2     H13703   2.218   1.996   0.236 -1.7533 -0.4839  0.8875
  933MPD2    H113704   2.133   2.139  17.585  1.4460 -1.8655 -0.8669
  933MPD2    H213705   2.018   1.740  17.698 -0.8325  0.4634  0.3891
  933MPD2    H313706   2.028   1.931  17.536  1.8505  1.9715 -1.8233
  933MPD2     N13707   2.202   2.206   0.102 -0.7750 -0.3739 -0.0167
  933MPD2    H513708   2.224   2.206   0.201  0.7622  0.0087 -0.3647
  933MPD2    N113709   2.155   1.736   0.197  0.1398 -0.1074  0.2760
  933MPD2    H713710   2.102   1.653   0.175 -0.6259  0.1385  1.1826
  934MPD2     C13711   3.649   4.073   1.014 -0.0736 -0.3638  0.6226
  934MPD2    C113712   3.736   3.978   1.055  0.1121 -0.1532 -0.6315
  934MPD2    C213713   3.701   3.844   1.030  0.0853  0.3372  0.7610
  934MPD2    C313714   3.580   3.811   0.968  0.3225  0.4145 -0.5262
  934MPD2    C413715   3.496   3.911   0.929  0.0380 -0.3112 -0.9724
  934MPD2    C513716   3.531   4.043   0.953 -0.2757 -0.3429  0.0170
  934MPD2     H13717   3.746   3.758   1.079  0.8205  2.0242  3.0151
  934MPD2    H113718   3.400   3.887   0.884 -0.3002 -0.1566 -0.3398
  934MPD2    H213719   3.661   4.179   1.033  1.0683  0.0503 -2.3906
  934MPD2    H313720   3.462   4.125   0.934 -0.5777 -0.4743  0.5225
  934MPD2     N13721   3.541   3.680   0.937 -0.2129  0.2672 -0.1443
  934MPD2    H513722   3.444   3.672   0.907 -0.5199 -1.3188  1.2811
  934MPD2    N113723   3.849   4.006   1.124  0.7155 -0.2598  0.2761
  934MPD2    H713724   3.906   3.926   1.149 -2.2675 -1.5395  2.9450
  935MPD2     C13725   4.001   2.844   1.122  0.1153 -0.0704  0.0015
  935MPD2    C113726   3.903   2.793   1.037 -0.2072  0.5475 -0.4833
  935MPD2    C213727   3.799   2.877   1.003 -0.1010  0.0055  0.4790
  935MPD2    C313728   3.807   3.009   1.045  0.3509  0.8781 -0.2222
  935MPD2    C413729   3.901   3.060   1.135 -0.1295 -0.5351  0.1068
  935MPD2    C513730   3.994   2.967   1.169  0.1382  0.0043 -0.0082
  935MPD2     H13731   3.720   2.839   0.940 -0.7641  1.9321  0.1404
  935MPD2    H113732   3.895   3.158   1.181  0.0062 -0.8036  0.7053
  935MPD2    H213733   4.083   2.784   1.161 -0.2263 -0.1943  0.5343
  935MPD2    H313734   4.066   3.009   1.238 -0.0344 -1.2819  0.9534
  935MPD2     N13735   3.716   3.103   1.009  0.1837  0.3504 -0.2537
  935MPD2    H513736   3.725   3.200   1.038  1.8620 -0.1343  0.8604
  935MPD2    N113737   3.924   2.671   0.972 -0.6718 -0.9128 -0.1570
  935MPD2    H713738   3.849   2.641   0.911 -1.0586 -1.8500  0.7622
  936MPD2     C13739   2.653   4.482  12.230 -1.1945  0.0987  0.1881
  936MPD2    C113740   2.730   4.420  12.327  0.1674 -0.4527 -0.2799
  936MPD2    C213741   2.864   4.397  12.298 -0.1234 -0.5376 -0.0723
  936MPD2    C313742   2.926   4.443  12.183 -0.0809 -0.0149  0.2427
  936MPD2    C413743   2.848   4.503  12.087  0.3970 -0.1961  0.3350
  936MPD2    C513744   2.713   4.524  12.113  0.1615  0.3551  0.4279
  936MPD2     H13745   2.927   4.352  12.375 -0.0511  0.4741  0.4564
  936MPD2    H113746   2.883   4.540  11.992  1.2059 -0.0455  0.6931
  936MPD2    H213747   2.549   4.509  12.244 -0.3553  2.7125  1.3039
  936MPD2    H313748   2.649   4.587  12.052  1.5093  1.3204  0.0161
  936MPD2     N13749   3.062   4.432  12.179  0.1138 -0.1172  0.7456
  936MPD2    H513750   3.107   4.392  12.261  1.3767  0.7081  0.4698
  936MPD2    N113751   2.700   4.372  12.453  0.2165 -0.0523  0.7079
  936MPD2    H713752   2.779   4.326  12.497  2.3229 -0.4675 -3.4675
  937MPD2     C13753   0.275   1.500  11.599 -0.1033  0.2448 -0.2813
  937MPD2    C113754   0.261   1.644  11.602 -0.5106 -0.4355  0.4191
  937MPD2    C213755   0.336   1.720  11.520  0.1540 -0.1133 -0.3438
  937MPD2    C313756   0.437   1.664  11.446 -0.3358 -0.8647  0.3857
  937MPD2    C413757   0.460   1.527  11.459 -0.3590 -0.8206 -0.4577
  937MPD2    C513758   0.374   1.447  11.526  0.1800 -0.1007 -0.0594
  937MPD2     H13759   0.307   1.824  11.521 -0.2216 -0.2212  0.7050
  937MPD2    H113760   0.551   1.480  11.423 -1.0520 -0.9969 -2.0056
  937MPD2    H213761   0.216   1.429  11.655  0.6084  0.8876  1.2777
  937MPD2    H313762   0.389   1.340  11.530 -0.3611 -0.2715 -2.7512
  937MPD2     N13763   0.531   1.749  11.386 -0.5825 -0.0842 -0.2572
  937MPD2    H513764   0.512   1.848  11.399  0.3948 -0.3005  2.7718
  937MPD2    N113765   0.157   1.711  11.667  0.2739 -0.0351 -0.7615
  937MPD2    H713766   0.149   1.810  11.649 -1.4154 -0.1429 -0.6001
  938MPD2     C13767   3.094   2.531   1.013  0.4072 -0.0542  0.5304
  938MPD2    C113768   2.975   2.578   0.964  0.3491  0.9107 -0.1533
  938MPD2    C213769   2.865   2.496   0.969 -0.5317 -0.0340 -0.0798
  938MPD2    C313770   2.889   2.365   1.005 -0.1331  0.2730  0.2491
  938MPD2    C413771   3.019   2.314   1.036 -0.3655  0.1067  0.4714
  938MPD2    C513772   3.119   2.401   1.050  0.7421  0.1575 -0.0725
  938MPD2     H13773   2.765   2.530   0.944 -0.4042 -0.4733 -1.2097
  938MPD2    H113774   3.037   2.213   1.070 -0.1678 -0.7193 -2.1246
  938MPD2    H213775   3.177   2.600   1.023 -0.0306  0.6007 -0.4012
  938MPD2    H313776   3.217   2.366   1.082  1.3878 -0.1449 -2.4036
  938MPD2     N13777   2.778   2.273   1.031  0.7546  0.1694 -0.1265
  938MPD2    H513778   2.811   2.177   1.031  0.1669 -0.0233 -1.5865
  938MPD2    N113779   2.958   2.713   0.934  0.4687  0.0369  0.9523
  938MPD2    H713780   2.862   2.740   0.916  0.2830 -0.5298  1.1247
  939MPD2     C13781   4.255   4.679   0.881 -0.3538  0.1415 -0.0064
  939MPD2    C113782   4.368   4.636   0.824 -0.4576  0.0357  0.1776
  939MPD2    C213783   4.359   4.593   0.691 -0.4595  0.5530 -0.2650
  939MPD2    C313784   4.243   4.599   0.619  0.4317  0.2589  0.0991
  939MPD2    C413785   4.131   4.632   0.684  0.1185 -0.4857  0.0950
  939MPD2    C513786   4.134   4.666   0.818  0.3251  0.1026  0.0377
  939MPD2     H13787   4.445   4.547   0.644 -0.0818  1.9262 -0.9354
  939MPD2    H113788   4.034   4.609   0.640  0.1121  0.1236 -0.2183
  939MPD2    H213789   4.252   4.693   0.988 -0.6724  2.4515 -0.3041
  939MPD2    H313790   4.043   4.655   0.876  0.5900 -0.8731  0.2570
  939MPD2     N13791   4.260   4.557   0.486  0.5980  0.0400  0.4756
  939MPD2    H513792   4.354   4.525   0.466  0.8856  0.0607  1.7722
  939MPD2    N113793   4.494   4.635   0.899  0.7247 -0.4373  0.3775
  939MPD2    H713794   4.477   4.647   0.998  2.2147  0.8216  0.4668
  940MPD2     C13795   3.813   0.148  13.012 -0.1590  0.1657  0.3244
  940MPD2    C113796   3.734   0.055  12.946  0.0898 -0.4028 -0.2452
  940MPD2    C213797   3.766   0.014  12.816 -0.2856  0.2137 -0.0307
  940MPD2    C313798   3.880   0.062  12.756 -0.4760 -0.3887  0.6030
  940MPD2    C413799   3.967   0.148  12.828  0.8913  0.0914  0.3225
  940MPD2    C513800   3.930   0.191  12.950  0.5765  0.7243 -0.1166
  940MPD2     H13801   3.693   4.685  12.768 -0.0269  1.3020 -1.8749
  940MPD2    H113802   4.056   0.182  12.776  1.2194 -0.6982  0.3787
  940MPD2    H213803   3.784   0.170  13.114 -0.3061  0.8256  0.1397
  940MPD2    H313804   3.995   0.264  12.996  1.1824 -0.4308  0.8628
  940MPD2     N13805   3.929   0.023  12.624  0.0176 -0.6599  0.0355
  940MPD2    H513806   4.017   0.065  12.596 -0.1346 -1.3734 -1.4944
  940MPD2    N113807   3.611   0.019  13.017 -0.5359  0.6074  0.0992
  940MPD2    H713808   3.596   0.067  13.105  1.1906  1.0181  0.1719
  941MPD2     C13809   2.212   4.596   9.700 -0.6637 -0.8255 -0.3044
  941MPD2    C113810   2.304   4.497   9.731 -0.0660  0.2742 -0.9190
  941MPD2    C213811   2.259   4.377   9.786 -0.3050  0.4153  0.0311
  941MPD2    C313812   2.120   4.352   9.795  0.2894  0.2357  0.2939
  941MPD2    C413813   2.031   4.448   9.767  0.7195 -0.1157 -0.3795
  941MPD2    C513814   2.077   4.568   9.708 -0.0419 -0.0060 -0.4834
  941MPD2     H13815   2.328   4.296   9.807  0.3916  0.2849 -2.7275
  941MPD2    H113816   1.924   4.427   9.771  0.3998  1.0713 -2.5541
  941MPD2    H213817   2.238   4.700   9.680 -0.3720 -0.7193  0.6279
  941MPD2    H313818   1.998   4.641   9.691  0.6355  0.8581  0.0508
  941MPD2     N13819   2.066   4.244   9.871  0.1359 -0.1078 -0.6841
  941MPD2    H513820   1.966   4.257   9.887  0.2547  0.9586 -0.7956
  941MPD2    N113821   2.447   4.512   9.705  0.1240 -0.7320  0.1714
  941MPD2    H713822   2.506   4.440   9.746 -0.5185 -0.7502  1.0603
  942MPD2     C13823   1.643   1.836   9.418 -0.0495  0.1664  0.0128
  942MPD2    C113824   1.660   1.702   9.437  0.9594  0.1343 -0.1282
  942MPD2    C213825   1.765   1.643   9.369 -0.3270  0.4345  0.1190
  942MPD2    C313826   1.864   1.714   9.306 -0.1789  0.5766  0.0252
  942MPD2    C413827   1.849   1.852   9.301  0.4260 -0.3004 -0.2169
  942MPD2    C513828   1.733   1.912   9.354  1.0051 -0.5981  0.3636
  942MPD2     H13829   1.779   1.535   9.374  0.6975  0.5822  0.3793
  942MPD2    H113830   1.928   1.912   9.258  0.0693  0.1538 -0.2418
  942MPD2    H213831   1.559   1.887   9.463 -0.2513  0.9994 -1.3288
  942MPD2    H313832   1.723   2.019   9.343  1.9004 -0.4053  1.3409
  942MPD2     N13833   1.975   1.670   9.237 -0.4930  0.1589 -0.4514
  942MPD2    H513834   2.040   1.741   9.208 -0.3803  0.5445  0.7245
  942MPD2    N113835   1.561   1.618   9.504  0.0790 -0.0046 -0.2196
  942MPD2    H713836   1.578   1.518   9.504  0.3456  0.0473  1.3337
  943MPD2     C13837   1.349   4.181  10.082  0.4314 -0.5007 -0.4665
  943MPD2    C113838   1.240   4.101  10.046 -0.5201 -0.0110  0.0007
  943MPD2    C213839   1.118   4.143  10.097 -0.2648  0.3358  0.3738
  943MPD2    C313840   1.095   4.269  10.146 -0.0942 -0.6618 -0.6985
  943MPD2    C413841   1.202   4.345  10.178  0.3306  0.6696  0.2251
  943MPD2    C513842   1.330   4.294  10.156 -0.0510  0.1485 -0.1496
  943MPD2     H13843   1.037   4.073  10.089 -2.4177  2.8316  0.2823
  943MPD2    H113844   1.193   4.431  10.244  1.2282  1.5307 -0.7857
  943MPD2    H213845   1.449   4.148  10.060 -0.6518 -1.5669 -3.8159
  943MPD2    H313846   1.417   4.352  10.184  0.0718  0.6366 -1.5717
  943MPD2     N13847   0.964   4.293  10.186 -0.0623  0.2144  0.0837
  943MPD2    H513848   0.899   4.216  10.177  0.6005 -0.1349 -1.6731
  943MPD2    N113849   1.254   3.971   9.985  0.0563  0.4225 -0.3492
  943MPD2    H713850   1.346   3.944   9.952  0.8226  1.6928  0.7671
  944MPD2     C13851   0.557   3.373  10.795  0.5559  0.1081  0.3317
  944MPD2    C113852   0.586   3.506  10.785  0.8201  0.6957 -0.0103
  944MPD2    C213853   0.539   3.593  10.876 -0.7600 -0.1445 -0.3607
  944MPD2    C313854   0.485   3.546  11.000  0.2214  0.1737  0.4902
  944MPD2    C413855   0.471   3.408  11.014 -0.4243 -0.5807 -0.1008
  944MPD2    C513856   0.502   3.327  10.912 -0.4852 -0.3594  0.3662
  944MPD2     H13857   0.547   3.701  10.866  0.6212 -0.2638 -0.4740
  944MPD2    H113858   0.432   3.353  11.099 -3.0339  2.4774  0.6608
  944MPD2    H213859   0.591   3.302  10.720 -0.4941  2.3477 -2.2495
  944MPD2    H313860   0.480   3.223  10.930  1.1839 -1.4594 -3.9240
  944MPD2     N13861   0.450   3.634  11.109  0.0721  0.2391  0.4154
  944MPD2    H513862   0.448   3.734  11.087  1.0844  0.1196 -0.2381
  944MPD2    N113863   0.638   3.547  10.661  0.0011  0.4888 -0.0870
  944MPD2    H713864   0.673   3.474  10.600  2.1374 -0.8821  2.7822
    1TMC1    C113865   3.864   3.581  14.815 -0.1517  0.4675 -0.4233
    1TMC1    C213866   3.846   3.568  14.682 -0.0177 -1.0377 -0.4525
    1TMC1    C313867   3.823   3.438  14.635  0.0967 -0.7914  0.7427
    1TMC1    C413868   3.880   3.472  14.897  0.1844  0.7421 -0.4983
    1TMC1    C513869   3.844   3.350  14.850 -0.5726  0.5008 -0.1839
    1TMC1    C613870   3.811   3.335  14.718 -0.2693  0.0751 -0.0200
    1TMC1     C13871   3.905   3.708  14.867 -0.6500  0.0349  0.0413
    1TMC1     O13872   3.953   3.702  14.977  0.5780  0.2674 -0.0758
    1TMC1     H13873   3.864   3.652  14.615  1.8740 -1.6137 -0.6565
    1TMC1    H113874   3.921   3.475  14.997  0.1351  1.3709 -0.4915
    1TMC1    H213875   3.797   3.235  14.680  0.3329 -0.6961  1.7757
    1TMC1    C713876   3.906   3.228  14.906 -0.2509 -0.1262  0.3366
    1TMC1    C813877   3.764   3.426  14.505 -0.8105  0.3378 -0.8011
    1TMC1    O113878   3.945   3.128  14.844 -0.0604 -0.2391 -0.1186
    1TMC1    O213879   3.729   3.313  14.468 -0.2111  0.1679 -0.1349
    1TMC1    O313880   3.869   3.231  15.035  0.4641  0.1620 -0.0078
    1TMC1    H313881   3.811   3.304  15.065 -1.9587 -1.3527 -1.0535
    1TMC1    O513882   3.675   3.526  14.517 -0.2604 -0.1231 -0.0372
    1TMC1    H513883   3.717   3.610  14.489  0.4332 -1.6618 -3.6670
    2MPD2     C13884   3.983   4.211  14.867 -0.0615 -0.3258  0.6426
    2MPD2    C113885   3.916   4.176  14.752  0.0516 -0.6385 -0.0596
    2MPD2    C213886   3.891   4.049  14.730  0.0065  0.2734 -0.6858
    2MPD2    C313887   3.927   3.949  14.825 -0.0751  0.0386  0.1798
    2MPD2    C413888   3.980   3.980  14.943 -0.7258  0.3190 -0.4388
    2MPD2    C513889   4.013   4.113  14.960  0.0881 -0.4280  0.1651
    2MPD2     H13890   3.845   4.014  14.638 -2.1218 -2.0969  1.2973
    2MPD2    H113891   4.017   3.909  15.016 -1.8032 -1.2409 -1.3906
    2MPD2    H213892   4.010   4.312  14.896 -3.6441  0.4558  1.3286
    2MPD2    H313893   4.052   4.136  15.059 -0.3160  0.2637  0.1676
    2MPD2     N13894   3.892   3.817  14.789 -0.1742 -0.3644 -0.2323
    2MPD2    H513895   3.855   3.809  14.695 -0.4254  3.2541 -0.4414
    2MPD2    N113896   3.890   4.279  14.661 -0.1142  0.3636 -0.4545
    2MPD2    H713897   3.944   4.364  14.673  0.1750  0.2650 -1.0808
    3TMC2    C113898   3.845   4.370  14.465  0.5604 -0.2431 -0.4469
    3TMC2    C213899   3.911   4.482  14.505 -0.3153 -0.3381  0.2384
    3TMC2    C313900   3.947   4.572  14.408  0.3449  0.3032 -0.1653
    3TMC2    C413901   3.826   4.350  14.330  0.6969 -1.1996 -0.7478
    3TMC2    C513902   3.879   4.440  14.238  0.6380 -1.1688 -0.3848
    3TMC2    C613903   3.951   4.546  14.275 -0.2200 -0.5340  0.0944
    3TMC2     C13904   3.815   4.267  14.551 -0.1740 -0.4918  1.2482
    3TMC2     O13905   3.760   4.171  14.502  0.0458 -0.5523 -0.0312
    3TMC2     H13906   3.916   4.510  14.610  3.0865 -0.3718  0.0801
    3TMC2    H113907   3.779   4.265  14.281 -0.1557 -0.6397 -0.9016
    3TMC2    H213908   3.990   4.615  14.201  1.5867 -1.6956 -0.0333
    3TMC2    C713909   3.842   4.417  14.102 -0.7436 -0.4049 -0.2555
    3TMC2    C813910   4.016   4.688  14.458  0.1749 -0.0221  0.2789
    3TMC2    O113911   3.823   4.298  14.071  0.5424  0.3876  0.1151
    3TMC2    O213912   4.059   4.697  14.572  0.1133 -0.3628 -0.1973
    3TMC2    O513913   3.963   0.056  14.398  0.1152  0.0315  0.4066
    3TMC2    H513914   3.929   0.045  14.306  3.7465 -0.3508 -0.8965
    4TMC2    C113915   3.300   0.362  13.578  0.7864  0.1370  0.6159
    4TMC2    C213916   3.331   0.365  13.453  0.2447 -0.2940 -0.1000
    4TMC2    C313917   3.418   0.275  13.402  0.1782  0.0789  0.1455
    4TMC2    C413918   3.368   0.292  13.673 -0.2398  0.2850 -0.4714
    4TMC2    C513919   3.459   0.202  13.620  0.8503  0.3936 -0.3026
    4TMC2    C613920   3.495   0.201  13.486 -0.6842  0.0926 -0.2236
    4TMC2     C13921   3.166   0.413  13.608 -0.3589 -0.6604  0.3690
    4TMC2     O13922   3.145   0.437  13.727 -0.0376 -0.5137 -0.1747
    4TMC2     H13923   3.293   0.441  13.386  0.7090 -1.1051 -1.2813
    4TMC2    H113924   3.339   0.289  13.778 -0.6562  0.3804 -0.5870
    4TMC2    H213925   3.579   0.145  13.446 -1.0152 -0.2078 -0.4933
    4TMC2    C713926   3.529   0.121  13.717 -0.0223 -0.1314 -0.7390
    4TMC2    C813927   3.485   0.297  13.272 -0.7561 -0.4693 -0.0801
    4TMC2    O113928   3.527   0.157  13.834 -0.3438 -0.1539 -0.3425
    4TMC2    O213929   3.485   0.206  13.192  0.0596  0.2125 -0.1064
    4TMC2    O513930   3.605   0.345  13.314 -0.0819 -0.9722  0.2782
    4TMC2    H513931   3.586   0.404  13.389  0.9978  0.8178 -0.8703
    5MPD2     C13932   2.659   0.405  13.524 -0.2582  0.4212 -0.8520
    5MPD2    C113933   2.725   0.391  13.405  0.1396  0.3908  0.3445
    5MPD2    C213934   2.861   0.398  13.403 -0.1100 -0.0025  0.5701
    5MPD2    C313935   2.938   0.425  13.509  0.4253  0.1819 -0.6070
    5MPD2    C413936   2.877   0.449  13.630 -0.0499 -0.6221 -0.2969
    5MPD2    C513937   2.739   0.443  13.629 -1.0327 -0.0231 -0.1596
    5MPD2     H13938   2.901   0.370  13.306  0.0487 -0.0794  0.6572
    5MPD2    H113939   2.923   0.477  13.725  0.6947 -0.5899 -0.6654
    5MPD2    H213940   2.553   0.392  13.540 -0.2049  2.0630  0.8847
    5MPD2    H313941   2.692   0.458  13.726 -0.4699  1.7929 -0.1573
    5MPD2     N13942   3.079   0.400  13.503  0.0088  0.2649 -0.5356
    5MPD2    H513943   3.113   0.367  13.413 -0.3362  0.4949 -0.7545
    5MPD2    N113944   2.646   0.351  13.292  0.3639  0.2205 -0.2550
    5MPD2    H713945   2.546   0.347  13.307  0.3900 -0.1740 -0.2053
    6MPD1     C13946   3.289   0.926  12.287  0.0090 -0.1660 -0.2578
    6MPD1    C113947   3.357   0.811  12.321 -0.1392 -0.0177  0.2175
    6MPD1    C213948   3.291   0.691  12.306 -0.5466 -0.3170 -0.8668
    6MPD1    C313949   3.169   0.685  12.238  0.7134 -0.1702 -0.6964
    6MPD1    C413950   3.104   0.799  12.192  0.0143  0.2103 -0.3864
    6MPD1    C513951   3.165   0.921  12.228  0.0434 -0.2265 -0.5513
    6MPD1     H13952   3.321   0.599  12.356 -2.9343 -1.7615 -2.0841
    6MPD1    H113953   3.008   0.792  12.142 -0.1555 -2.4187  0.2978
    6MPD1    H213954   3.334   1.023  12.304 -0.8683  0.3117 -0.6422
    6MPD1    H313955   3.113   1.010  12.196  0.2523  0.5012  1.1646
    6MPD1     N13956   3.096   0.561  12.222 -0.3998  0.2696 -0.3934
    6MPD1    H513957   3.014   0.566  12.163  0.3242  2.2207 -1.2605
    6MPD1    N113958   3.489   0.812  12.371 -0.3887  0.4062 -0.4741
    6MPD1    H613959   3.532   0.903  12.354  0.6743 -0.0033  0.0094
    6MPD1    H713960   3.546   0.729  12.361 -2.7381 -1.2487 -0.1641
    7MPD2     C13961   2.552   0.610  12.432 -0.4144  0.0783  0.5712
    7MPD2    C113962   2.582   0.475  12.440 -0.3364 -0.1698 -0.1372
    7MPD2    C213963   2.535   0.401  12.545 -0.1321  0.7348 -0.0870
    7MPD2    C313964   2.444   0.456  12.638  0.2844 -0.0756  0.5046
    7MPD2    C413965   2.413   0.595  12.628 -1.0121  0.2069 -0.1004
    7MPD2    C513966   2.470   0.664  12.531 -0.1896  0.7897  0.0626
    7MPD2     H13967   2.561   0.297  12.554  0.3811  0.9327  0.6726
    7MPD2    H113968   2.348   0.645  12.698 -1.8766 -0.9584 -0.0644
    7MPD2    H213969   2.576   0.668  12.345 -2.0715 -0.0094  0.0568
    7MPD2    H313970   2.446   0.770  12.519 -2.7912  0.2719  0.5908
    7MPD2     N13971   2.396   0.367  12.738  0.3980  0.2044  0.7504
    7MPD2    H513972   2.439   0.275  12.739 -1.0187 -0.4888 -0.5953
    7MPD2    N113973   2.656   0.425  12.326 -0.3648  0.2741 -0.1285
    7MPD2    H713974   2.685   0.486  12.250  0.1470 -0.9230 -0.9043
    8TMC3    C113975   2.391   0.301  12.953  0.0164  0.2710 -0.2480
    8TMC3    C213976   2.481   0.350  13.041  0.2350  0.6259 -0.6946
    8TMC3    C313977   2.575   0.268  13.089 -0.3736  0.1394 -0.4831
    8TMC3    C413978   2.396   0.169  12.912  0.1118  0.4314 -0.4584
    8TMC3    C513979   2.508   0.092  12.952  0.3126  0.4204 -0.1108
    8TMC3    C613980   2.594   0.143  13.043 -0.6765 -0.3067 -1.0410
    8TMC3     C13981   2.347   0.413  12.861 -0.0370 -0.1874  0.1164
    8TMC3     O13982   2.361   0.526  12.901  0.3073  0.2052  0.4825
    8TMC3     H13983   2.482   0.451  13.078  1.9724  0.3552 -0.0237
    8TMC3    H113984   2.332   0.128  12.835  2.3621 -1.6188 -1.2538
    8TMC3    H213985   2.676   0.081  13.075  0.5592  1.3929 -0.9156
    8TMC3    C713986   2.571   0.043  12.833  0.1196 -0.0249 -0.2540
    8TMC3    C813987   2.687   0.314  13.167  0.0450  0.1870 -0.0438
    8TMC3    O113988   2.542   0.095  12.723  0.2486 -0.1338 -0.0945
    8TMC3    O213989   2.801   0.317  13.117 -0.0324 -0.5727  0.1383
    9TMC3    C113990   3.025   0.334  12.213 -0.6691  0.6861 -0.0496
    9TMC3    C213991   3.058   0.203  12.234  0.2256  0.2752  0.6017
    9TMC3    C313992   2.961   0.105  12.243  0.2413  0.1547 -0.1042
    9TMC3    C413993   2.891   0.371  12.211 -0.1526  0.0199 -0.7733
    9TMC3    C513994   2.797   0.270  12.222 -0.6527  0.0644 -0.2600
    9TMC3    C613995   2.832   0.138  12.224 -0.9885  0.0488  0.5486
    9TMC3     C13996   3.130   0.432  12.255 -0.0924 -0.2049 -0.4791
    9TMC3     O13997   3.231   0.393  12.311 -0.2440  0.4653  0.4403
    9TMC3     H13998   3.165   0.185  12.244  0.6506  1.8434 -1.3555
    9TMC3    H113999   2.868   0.476  12.225  1.0359 -0.0109  1.4360
    9TMC3    H214000   2.758   0.059  12.225  0.4692 -1.2981  1.2330
    9TMC3    C714001   2.686   0.297  12.308  0.1608  0.1383 -0.6865
    9TMC3    C814002   2.994   0.017  12.348 -0.2658  0.1419 -0.1474
    9TMC3    O114003   2.643   0.200  12.366 -0.2577  0.5547  0.0482
    9TMC3    O214004   3.112   4.731  12.361  0.2854 -0.4454 -0.4678
   10MPD2     C14005   2.869   4.572  12.815 -0.9839  0.2678  0.2533
   10MPD2    C114006   2.778   4.663  12.769 -0.0446 -0.6738  0.1803
   10MPD2    C214007   2.797   4.714  12.647  0.4545 -0.5173  0.4219
   10MPD2    C314008   2.897   4.674  12.558 -0.1104  0.1615  0.1259
   10MPD2    C414009   2.992   4.592  12.600 -0.1489  0.1225  0.1904
   10MPD2    C514010   2.973   4.541  12.731 -0.3943 -0.0381 -0.3052
   10MPD2     H14011   2.739   0.063  12.613  2.6541  0.0790 -1.8216
   10MPD2    H114012   3.079   4.560  12.544 -1.4908  0.9172 -2.3110
   10MPD2    H214013   2.869   4.529  12.915  0.6360  1.1402  0.6227
   10MPD2    H314014   3.050   4.473  12.766 -1.4568 -0.1152  1.8704
   10MPD2     N14015   2.887   4.734  12.436 -0.5811 -0.1418  0.6347
   10MPD2    H514016   2.805   0.057  12.422  2.4263  3.2023 -2.8000
   10MPD2    N114017   2.670   4.691  12.858 -0.7483  0.5667  0.9094
   10MPD2    H714018   2.665   4.651  12.951  1.0839 -1.4913  0.1197
   11MPD2     C14019   3.787   4.421  13.817  0.0425  0.1034 -0.0975
   11MPD2    C114020   3.764   4.531  13.902 -0.0753  0.2934  0.0331
   11MPD2    C214021   3.704   4.645  13.852 -1.3897 -0.3399  0.2436
   11MPD2    C314022   3.665   4.649  13.717 -0.2452  0.3295 -0.5505
   11MPD2    C414023   3.706   4.547  13.637  0.9302 -0.3541  0.5801
   11MPD2    C514024   3.756   4.430  13.682 -0.0593 -0.4627  0.1336
   11MPD2     H14025   3.665   4.727  13.911  2.0314  2.2770 -1.1204
   11MPD2    H114026   3.690   4.552  13.530  0.7445 -1.0280  0.5780
   11MPD2    H214027   3.829   4.326  13.849  0.8729 -0.0129 -1.5410
   11MPD2    H314028   3.767   4.352  13.608 -3.1438  1.5783 -2.4846
   11MPD2     N14029   3.591   0.012  13.651  0.2875  0.8080 -0.0214
   11MPD2    H514030   3.569   4.726  13.554  0.9521  1.2949 -0.2831
   11MPD2    N114031   3.794   4.530  14.038 -0.7001  1.1080 -0.1889
   11MPD2    H714032   3.778   4.619  14.084  1.8365  1.6627 -0.3319
    1MPD1     C14033   1.275   1.388  17.698 -0.4563 -0.3523 -0.0624
    1MPD1    C114034   1.388   1.432   0.015 -0.2483  0.0068  0.8135
    1MPD1    C214035   1.499   1.469  17.681 -0.1223  0.9625 -0.5334
    1MPD1    C314036   1.496   1.449  17.545 -0.2226  0.4462  0.0590
    1MPD1    C414037   1.385   1.408  17.485 -0.1917 -0.0567  0.2023
    1MPD1    C514038   1.272   1.381  17.558  0.5663  0.4562  0.6337
    1MPD1     H14039   1.581   1.519  17.732  0.5832 -0.3962 -0.3330
    1MPD1    H114040   1.396   1.389  17.379 -2.5663  1.4988 -0.3425
    1MPD1    H214041   1.184   1.369   0.012  0.0022 -1.6233  0.2571
    1MPD1    H314042   1.182   1.343  17.512  0.2136  1.4527  0.5114
    1MPD1     N14043   1.603   1.468  17.458 -0.1796  0.8805 -0.0643
    1MPD1    H514044   1.596   1.428  17.365 -2.4513 -0.9080  0.8730
    1MPD1    N114045   1.385   1.462   0.154 -0.0923 -0.1319  0.2942
    1MPD1    H614046   1.477   1.481   0.193 -0.4913  1.2454  0.5609
    1MPD1    H714047   1.345   1.391   0.215 -0.3973 -0.6490 -0.5070
    2MPD1     C14048   2.464   1.702   0.048 -0.5263 -0.2357  0.9885
    2MPD1    C114049   2.416   1.575   0.058 -0.2644  0.6672  0.2841
    2MPD1    C214050   2.330   1.535  17.702  0.0017 -0.2090 -0.1099
    2MPD1    C314051   2.292   1.610  17.593  0.6377  0.3307  0.0719
    2MPD1    C414052   2.359   1.730  17.578 -0.3205 -0.4476 -0.0423
    2MPD1    C514053   2.445   1.776  17.677 -0.0817  0.1857  0.0138
    2MPD1     H14054   2.295   1.433  17.712 -0.0667 -0.3180 -1.4412
    2MPD1    H114055   2.337   1.799  17.497 -0.4890  1.0892  1.3089
    2MPD1    H214056   2.536   1.748   0.115  0.2847  1.0072 -0.7319
    2MPD1    H314057   2.487   1.875  17.660 -0.1704  0.0604 -0.9425
    2MPD1     N14058   2.205   1.559  17.489 -0.0992 -0.1426  0.6472
    2MPD1    H514059   2.149   1.481  17.522 -2.3186  0.6962 -1.1466
    2MPD1    N114060   2.471   1.486   0.156 -0.3972 -0.0093  0.0284
    2MPD1    H614061   2.412   1.405   0.176 -3.2192  1.4198 -2.7111
    2MPD1    H714062   2.502   1.540   0.237  0.6423 -2.0539  1.0017
    3TMC3    C114063   2.047   1.568  17.338  0.8997 -0.0500  0.1988
    3TMC3    C214064   2.014   1.553  17.206 -0.5717 -0.6103 -0.0617
    3TMC3    C314065   1.885   1.520  17.165  0.3245  0.2221  0.1788
    3TMC3    C414066   1.947   1.572  17.437 -0.0341 -0.4379 -0.0428
    3TMC3    C514067   1.823   1.534  17.393  1.0012  0.6231  0.8191
    3TMC3    C614068   1.790   1.507  17.259  0.7448 -0.2747  0.3220
    3TMC3     C14069   2.177   1.619  17.371  0.0267  0.0554  0.4619
    3TMC3     O14070   2.245   1.695  17.300  0.2922 -0.4291  0.4730
    3TMC3     H14071   2.097   1.551  17.137 -1.9488  0.8243 -1.7484
    3TMC3    H114072   1.963   1.583  17.543 -0.9540 -2.1506  0.2885
    3TMC3    H214073   1.688   1.491  17.227  1.0443 -0.4681 -0.5464
    3TMC3    C714074   1.725   1.525  17.501 -0.3240  0.3967 -0.1690
    3TMC3    C814075   1.851   1.522  17.024 -0.3295  0.0325  0.5279
    3TMC3    O114076   1.749   1.581  17.610  0.4865  0.2146  0.2796
    3TMC3    O214077   1.759   1.598  16.993  0.0206  0.2600 -0.3029
    4MPD1     C14078   2.018   1.474  16.531  0.1759  0.1369 -0.2363
    4MPD1    C114079   2.100   1.396  16.608  0.5270  0.8908  0.8652
    4MPD1    C214080   2.082   1.402  16.746  0.3199  0.0521 -0.7633
    4MPD1    C314081   1.972   1.462  16.804 -0.0725 -0.2788  0.9022
    4MPD1    C414082   1.878   1.514  16.722 -0.2934  1.1626  0.1350
    4MPD1    C514083   1.906   1.528  16.589  0.3477 -0.0709  0.0267
    4MPD1     H14084   2.141   1.353  16.822  2.2347  3.8570  0.2047
    4MPD1    H114085   1.779   1.545  16.755 -0.4972  2.3603 -1.6100
    4MPD1    H214086   2.037   1.495  16.427  0.2076  0.2172 -0.2137
    4MPD1    H314087   1.840   1.592  16.531 -1.4971 -3.1637 -1.2991
    4MPD1     N14088   1.947   1.459  16.943  0.0325  0.8542  0.2638
    4MPD1    H514089   2.017   1.405  16.993  0.2841  0.9933  0.0625
    4MPD1    N114090   2.218   1.341  16.557  0.1770  0.0967  0.7287
    4MPD1    H614091   2.192   1.295  16.470 -2.3568 -1.1249  2.1194
    4MPD1    H714092   2.261   1.275  16.621  0.2517 -0.8731 -0.3240
    1TCq1    O114093   3.246   1.371  12.395  0.3410  0.3400  0.3083
    1TCq1    C114094   3.132   1.343  12.324  0.2346  0.2677  0.0331
    1TCq1    O214095   3.029   1.297  12.371  0.4349 -0.2990  0.1869
    1TCq1    C214096   3.159   1.337  12.180  0.2688 -0.8690 -0.1678
    1TCq1    C314097   3.286   1.308  12.141  0.1286 -0.0841 -0.5798
    1TCq1    C414098   3.303   1.266  12.004  0.0164 -0.5040  0.1339
    1TCq1    C514099   3.192   1.260  11.923 -1.1874 -0.1203  0.8921
    1TCq1    C614100   3.071   1.306  11.966 -0.2321 -0.1286  0.1150
    1TCq1    C714101   3.059   1.354  12.092 -0.1974  0.3288 -0.1953
    1TCq1    C814102   2.950   1.253  11.904  0.7542 -0.5694 -0.4933
    1TCq1    O414103   2.861   1.327  11.874 -0.2549 -0.6344  0.4889
    1TCq1    C914104   3.423   1.199  11.969 -0.5057 -0.4942 -0.0728
    1TCq1    O514105   3.515   1.208  12.052  0.3194  0.3988  0.1899
    1TCq1    O614106   3.425   1.135  11.860 -0.1531  0.2968  0.0155
    1TCq1    H114107   3.308   1.434  12.352  0.0968  0.0554 -0.4587
    1TCq1    H214108   3.360   1.284  12.217 -0.1332  0.0986 -0.2689
    1TCq1    H314109   3.204   1.208  11.828  2.2128 -0.9439  1.7587
    1TCq1    H414110   2.960   1.384  12.125 -0.3071 -0.8885  0.6001
    2MPD1     C14111   2.653   0.848  11.798  0.3495  0.1960 -0.2447
    2MPD1    C114112   2.786   0.803  11.808  0.3969  0.2745 -0.1649
    2MPD1    C214113   2.884   0.896  11.840  0.4518 -0.1710  0.2081
    2MPD1    C314114   2.854   1.026  11.865 -0.5532 -0.0597  0.2939
    2MPD1    C414115   2.729   1.073  11.844  1.0668  0.7521 -0.7104
    2MPD1    C514116   2.631   0.985  11.806  0.0887 -0.9268  1.1878
    2MPD1     H14117   2.989   0.873  11.852  0.1527 -1.0732  1.1164
    2MPD1    H114118   2.707   1.179  11.846 -1.0570  0.3267 -1.4846
    2MPD1    H214119   2.571   0.779  11.784  1.5090 -1.2600  0.1027
    2MPD1    H314120   2.535   1.028  11.777 -0.2074 -0.2573  3.1692
    2MPD1     N14121   2.951   1.113  11.915  0.4292 -0.2819  0.0314
    2MPD1    H514122   3.035   1.068  11.947  0.3515 -2.0806 -2.2523
    2MPD1    N114123   2.828   0.668  11.811 -0.1226 -0.0957  0.1763
    2MPD1    H614124   2.772   0.615  11.745  0.3019  0.3637 -0.5527
    2MPD1    H714125   2.924   0.637  11.795  0.0097  1.7997 -2.6138
    1TMC1    C114126   0.015   1.433   1.775  0.6210 -0.0893  0.6058
    1TMC1    C214127   0.039   1.531   1.873  0.0571  1.3270  0.5228
    1TMC1    C314128   4.663   1.574   1.940  1.0269 -0.1232 -0.5884
    1TMC1    C414129   4.626   1.384   1.754 -0.1630 -0.1540 -0.4342
    1TMC1    C514130   4.523   1.431   1.819  0.9993  0.4432  0.7185
    1TMC1    C614131   4.538   1.523   1.915 -0.2707 -0.6552  0.0773
    1TMC1     C14132   0.130   1.383   1.696  0.2583  0.1618 -0.2748
    1TMC1     O14133   0.098   1.316   1.595 -0.1363  0.1249  0.5494
    1TMC1     H14134   0.124   1.596   1.887  1.7201  0.1007 -3.8962
    1TMC1    H114135   4.620   1.328   1.662  0.6625 -2.2160  0.7689
    1TMC1    H214136   4.455   1.560   1.975 -0.3214 -0.7520  0.0677
    1TMC1    C714137   4.393   1.422   1.764 -0.4733  0.0163 -0.5591
    1TMC1    C814138   4.673   1.654   2.059 -0.0038  0.2793 -0.6908
    1TMC1    O114139   4.311   1.517   1.762 -0.0179  0.4930 -0.5783
    1TMC1    O214140   4.582   1.716   2.109  0.2374 -0.2450 -0.5319
    1TMC1    O314141   4.380   1.305   1.703  0.0428 -0.0325 -0.1102
    1TMC1    H314142   4.422   1.232   1.754  0.1940 -0.0807 -0.3011
    1TMC1    O514143   0.056   1.636   2.121 -0.2218 -0.2412 -0.4990
    1TMC1    H514144   0.111   1.561   2.090  0.6999  0.4958 -0.6529
    2MPD1     C14145   0.623   1.319   1.571  0.6000 -0.3639 -0.1754
    2MPD1    C114146   0.613   1.398   1.685 -0.1369 -0.1877 -0.7203
    2MPD1    C214147   0.498   1.411   1.751  0.1100  0.4016 -0.8252
    2MPD1    C314148   0.379   1.368   1.694 -0.5552  0.4466  0.3716
    2MPD1    C414149   0.389   1.292   1.572  0.6097  0.5328 -0.2544
    2MPD1    C514150   0.517   1.261   1.520 -0.3389 -0.3212 -0.0914
    2MPD1     H14151   0.496   1.448   1.853 -0.5847  2.0043 -1.4157
    2MPD1    H114152   0.299   1.259   1.522 -0.4104  1.0293  1.2472
    2MPD1    H214153   0.719   1.293   1.526  0.3155 -0.8830 -0.4791
    2MPD1    H314154   0.524   1.208   1.426 -0.2269  0.7818 -0.7140
    2MPD1     N14155   0.255   1.416   1.746  0.2558  0.0254 -0.2971
    2MPD1    H514156   0.262   1.467   1.833 -1.1906  1.6777 -1.1668
    2MPD1    N114157   0.740   1.425   1.735 -0.4466  0.0246 -0.5875
    2MPD1    H614158   0.800   1.467   1.665 -0.8361  1.4478 -0.0813
    2MPD1    H714159   0.725   1.494   1.810  0.7327 -0.7554  0.3691
    1MPD1     C14160   4.321   1.204  10.665  0.6352 -0.5569 -0.1879
    1MPD1    C114161   4.308   1.339  10.684 -0.4643 -0.1506 -0.2734
    1MPD1    C214162   4.339   1.384  10.809  0.0963  0.0651  0.0947
    1MPD1    C314163   4.410   1.312  10.900 -1.0879 -1.0576  0.4113
    1MPD1    C414164   4.442   1.180  10.867  0.6480 -0.4779 -0.8918
    1MPD1    C514165   4.402   1.136  10.744 -0.5988 -0.0822 -0.0037
    1MPD1     H14166   4.301   1.482  10.838 -1.0221  0.2222 -1.8684
    1MPD1    H114167   4.509   1.120  10.926  0.5784 -0.1539 -0.4812
    1MPD1    H214168   4.292   1.144  10.580 -2.3011  0.7371 -0.0844
    1MPD1    H314169   4.420   1.030  10.728  0.9623  0.2230 -0.3027
    1MPD1     N14170   4.446   1.374  11.017 -0.2870 -0.2365 -0.4154
    1MPD1    H514171   4.430   1.474  11.026  0.5194 -0.3650  2.2634
    1MPD1    N114172   4.237   1.419  10.589 -0.6085  0.4205 -0.1930
    1MPD1    H614173   4.235   1.383  10.494  0.2368  2.3217 -0.9262
    1MPD1    H714174   4.273   1.514  10.594  1.9771 -0.5207 -0.6490
    2MPD1     C14175   3.049   2.639  11.824  0.6287 -0.4523 -0.1686
    2MPD1    C114176   3.008   2.507  11.816 -0.4006  0.3338 -0.3193
    2MPD1    C214177   3.077   2.425  11.721  0.2564  0.2273 -0.0409
    2MPD1    C314178   3.173   2.483  11.635 -0.5841 -0.2912 -0.5983
    2MPD1    C414179   3.211   2.620  11.648 -0.6389  0.4938 -0.0757
    2MPD1    C514180   3.147   2.696  11.745 -0.2149  0.1203 -0.1508
    2MPD1     H14181   3.071   2.317  11.727 -0.6889  0.2773  0.0191
    2MPD1    H114182   3.289   2.662  11.585  0.1218 -0.3350  0.3079
    2MPD1    H214183   3.007   2.697  11.906  0.5516  2.0858 -1.9900
    2MPD1    H314184   3.174   2.800  11.759 -0.4871  0.4812 -2.2129
    2MPD1     N14185   3.252   2.405  11.541  0.4578  0.1445  0.1848
    2MPD1    H514186   3.333   2.450  11.499 -0.4892  1.6809 -0.0159
    2MPD1    N114187   2.933   2.456  11.917 -0.6057  0.0669  0.4592
    2MPD1    H614188   2.896   2.363  11.900 -1.5294  0.5344 -0.0709
    2MPD1    H714189   2.854   2.519  11.932  1.1587  2.6265 -0.9620
    3MPD1     C14190   3.465   1.456  11.684  0.6593  0.3308 -0.0381
    3MPD1    C114191   3.483   1.564  11.769  0.1847 -0.1044 -0.5869
    3MPD1    C214192   3.465   1.687  11.712 -0.0251 -0.2270  0.2205
    3MPD1    C314193   3.464   1.701  11.572 -0.0550 -0.4099  0.2712
    3MPD1    C414194   3.468   1.586  11.491  0.5594 -0.2854  0.0240
    3MPD1    C514195   3.469   1.466  11.549 -0.7143  1.1668 -0.4423
    3MPD1     H14196   3.476   1.779  11.768  2.7799  0.3159 -1.2005
    3MPD1    H114197   3.468   1.574  11.383  1.2659  0.8629 -0.1039
    3MPD1    H214198   3.449   1.355  11.719 -1.6785  0.4597 -0.7134
    3MPD1    H314199   3.454   1.368  11.505  2.3269 -0.9416  3.2871
    3MPD1     N14200   3.450   1.833  11.513 -0.8641 -0.0294 -0.0762
    3MPD1    H514201   3.442   1.916  11.572 -1.6907 -0.6723  0.7104
    3MPD1    N114202   3.458   1.542  11.903  0.0434  0.8254 -0.4967
    3MPD1    H614203   3.503   1.456  11.933  0.4041  1.9996  2.2876
    3MPD1    H714204   3.501   1.618  11.956  0.9668  0.2683 -0.4390
    4MPD2     C14205   4.332   1.695  11.712 -0.2081 -0.4623 -0.2469
    4MPD2    C114206   4.430   1.737  11.620  0.4404 -0.2411 -0.2133
    4MPD2    C214207   4.443   1.872  11.580 -1.0361  0.7458 -0.4383
    4MPD2    C314208   4.362   1.970  11.650  0.0170  0.1114  0.4555
    4MPD2    C414209   4.278   1.932  11.754  0.2241 -0.1765  0.7951
    4MPD2    C514210   4.258   1.795  11.777 -0.0439  0.3355 -0.0662
    4MPD2     H14211   4.505   1.901  11.496  2.1010  0.6393  1.8229
    4MPD2    H114212   4.229   2.011  11.809 -1.2600 -0.4041 -0.1974
    4MPD2    H214213   4.303   1.592  11.730  1.5876 -1.4849 -3.1444
    4MPD2    H314214   4.189   1.763  11.855  0.5670  0.6548  0.6101
    4MPD2     N14215   4.364   2.107  11.606 -0.2234  0.6573  0.0786
    4MPD2    H514216   4.292   2.165  11.646  0.6821  0.2589  2.2638
    4MPD2    N114217   4.518   1.650  11.546  0.2602 -0.4201 -0.6206
    4MPD2    H714218   4.585   1.696  11.485  0.3832 -1.7280 -1.4499
    5TMC3    C114219   4.608   1.456  11.455 -0.1378  0.9622  0.4452
    5TMC3    C214220   4.551   1.371  11.364  0.5226  0.1765 -0.6582
    5TMC3    C314221   4.540   1.408  11.231  0.2495 -0.2911 -0.0623
    5TMC3    C414222   4.686   1.561  11.408  0.1763 -0.3228 -0.2232
    5TMC3    C514223   4.679   1.587  11.276 -0.3707  0.0289 -0.0392
    5TMC3    C614224   4.595   1.528  11.193 -0.5282  0.3931  0.7197
    5TMC3     C14225   4.516   1.510  11.549  0.4036 -0.1476 -0.2923
    5TMC3     O14226   4.447   1.429  11.610  0.0388 -0.2157 -0.1130
    5TMC3     H14227   4.528   1.274  11.405  0.0253  0.7906  0.5063
    5TMC3    H114228   0.010   1.630  11.467 -0.3018  0.3446 -0.5158
    5TMC3    H214229   4.580   1.551  11.088  1.8249 -0.3470  0.2248
    5TMC3    C714230   4.715   1.725  11.251 -0.1213 -0.2689  0.2457
    5TMC3    C814231   4.494   1.312  11.129  0.2364 -0.2469  0.1926
    5TMC3    O114232   0.004   1.802  11.342  0.0696  0.2345 -0.0428
    5TMC3    O214233   4.498   1.194  11.158  0.1530  0.0601  0.2786
    6TMC3    C114234   3.332   2.210  11.435 -0.8196  0.8490  0.1417
    6TMC3    C214235   3.338   2.073  11.436 -0.1454  0.1499  0.5639
    6TMC3    C314236   3.420   2.003  11.349 -0.0680 -0.4897  0.4006
    6TMC3    C414237   3.394   2.274  11.330  0.1137 -0.6723  0.6573
    6TMC3    C514238   3.473   2.202  11.240  0.3922  0.3547 -0.8719
    6TMC3    C614239   3.494   2.066  11.253  0.4324 -0.2649 -0.1484
    6TMC3     C14240   3.226   2.279  11.503 -0.4914  0.0022  0.3336
    6TMC3     O14241   3.134   2.208  11.536  0.3154 -0.4163 -0.2849
    6TMC3     H14242   3.281   2.021  11.511 -0.6181  0.9325  0.7529
    6TMC3    H114243   3.380   2.382  11.329 -0.6528 -0.7864 -0.0580
    6TMC3    H214244   3.567   2.013  11.193 -0.9229 -1.0092 -1.1249
    6TMC3    C714245   3.600   2.269  11.218 -0.0112  0.1060  0.2202
    6TMC3    C814246   3.466   1.866  11.383  1.1448 -0.1485  0.0331
    6TMC3    O114247   3.695   2.194  11.228  0.2793  0.0464 -0.2089
    6TMC3    O214248   3.517   1.801  11.288  0.5763  0.0158 -0.9017
    7MPD2     C14249   4.599   2.142  10.968 -0.0831 -0.2585 -0.3728
    7MPD2    C114250   4.591   2.128  11.109 -0.3281 -0.0932 -0.1284
    7MPD2    C214251   4.630   2.006  11.160 -0.0589 -0.7034  0.0123
    7MPD2    C314252   4.660   1.894  11.079 -0.2594  0.1199 -0.2678
    7MPD2    C414253   4.650   1.911  10.941  0.1262 -0.5665  0.3234
    7MPD2    C514254   4.629   2.037  10.885  0.3972  0.3744  0.2978
    7MPD2     H14255   4.637   1.991  11.267 -0.3998 -1.1790 -0.0358
    7MPD2    H114256   4.671   1.831  10.870 -0.5334 -0.4884  0.0401
    7MPD2    H214257   4.578   2.236  10.919 -1.1805 -0.7816 -0.9009
    7MPD2    H314258   4.612   2.050  10.779 -0.0853  0.2238  0.3539
    7MPD2     N14259   4.694   1.760  11.121 -0.2668  0.1168  0.8521
    7MPD2    H514260   4.686   1.690  11.048 -0.0094 -0.7903  1.6848
    7MPD2    N114261   4.557   2.224  11.200 -0.9498 -0.4678 -0.0927
    7MPD2    H714262   4.570   2.196  11.297 -1.2185  1.4990  0.5135
    8TMC3    C114263   4.486   2.426  11.285 -0.0286 -0.1555 -0.6393
    8TMC3    C214264   4.356   2.457  11.262 -0.2331 -0.6707  0.1017
    8TMC3    C314265   4.261   2.410  11.343  0.3527  0.7572  0.2521
    8TMC3    C414266   4.517   2.354  11.392 -0.1947  0.3756 -0.4191
    8TMC3    C514267   4.421   2.295  11.468 -0.0867 -0.5724  0.2093
    8TMC3    C614268   4.289   2.326  11.451  0.2254  0.1217  0.5181
    8TMC3     C14269   4.529   2.352  11.167 -0.0548 -0.2823 -0.2855
    8TMC3     O14270   4.504   2.400  11.057 -0.0174  0.0321  0.0764
    8TMC3     H14271   4.328   2.525  11.182 -0.6929  0.2843  1.0635
    8TMC3    H114272   4.623   2.340  11.413 -0.5186 -0.7588  0.4890
    8TMC3    H214273   4.216   2.290  11.523  0.5944 -0.3559  0.6604
    8TMC3    C714274   4.459   2.167  11.521  0.3029 -0.1340  0.1471
    8TMC3    C814275   4.130   2.394  11.287  0.2615  0.2530 -0.1712
    8TMC3    O114276   4.571   2.124  11.500  0.0116  0.0597  0.7024
    8TMC3    O214277   4.059   2.301  11.336 -0.1815  0.3035  0.2583
    9MPD2     C14278   3.929   2.640  11.100  0.4747  0.9740  0.1269
    9MPD2    C114279   3.953   2.527  11.175 -0.0689  0.0821  0.7122
    9MPD2    C214280   3.844   2.446  11.199 -0.6376 -0.2926 -0.7742
    9MPD2    C314281   3.719   2.475  11.154 -0.3077  0.7059 -0.3047
    9MPD2    C414282   3.699   2.590  11.083 -0.1972  0.2406  0.1724
    9MPD2    C514283   3.804   2.674  11.060 -0.5743 -0.1755  0.2001
    9MPD2     H14284   3.854   2.355  11.257 -0.2161  0.5695  0.5004
    9MPD2    H114285   3.606   2.623  11.036 -1.5071 -2.4826  0.8757
    9MPD2    H214286   4.009   2.696  11.054  0.2378  0.8793 -0.4123
    9MPD2    H314287   3.785   2.761  10.998  1.7648  0.1452 -0.0513
    9MPD2     N14288   3.601   2.403  11.183  0.0782  0.8092 -0.5492
    9MPD2    H514289   3.511   2.444  11.158 -1.3298 -0.6271  2.1974
    9MPD2    N114290   4.093   2.501  11.209  0.2809  0.4690 -0.2018
    9MPD2    H714291   4.166   2.565  11.181  0.6132  0.8931  1.6905
    1MPD1     C14292   4.621   0.607  17.198 -0.4384 -0.0702  0.5232
    1MPD1    C114293   4.517   0.519  17.214 -0.4655 -0.6163  0.1070
    1MPD1    C214294   4.439   0.483  17.105 -0.4706  0.2947  0.5103
    1MPD1    C314295   4.447   0.554  16.985 -0.5963 -0.1436  0.0134
    1MPD1    C414296   4.545   0.652  16.977  0.2084 -0.1355 -0.3502
    1MPD1    C514297   4.630   0.674  17.077  0.4044  0.4797  0.0789
    1MPD1     H14298   4.363   0.407  17.121 -0.1634 -0.5085 -1.7956
    1MPD1    H114299   4.555   0.694  16.877  3.3680  1.3363  0.5802
    1MPD1    H214300   4.690   0.632  17.277  0.1162  0.9739 -0.3039
    1MPD1    H314301   4.712   0.741  17.055  0.2853  0.7990  0.6170
    1MPD1     N14302   4.371   0.512  16.868  0.5210 -0.8193  0.3830
    1MPD1    H514303   4.393   0.555  16.779 -1.8450  2.5298  1.4010
    1MPD1    N114304   4.514   0.443  17.331 -0.0684 -0.3011  0.4463
    1MPD1    H614305   4.567   0.490  17.404  0.3147 -0.6116  0.3693
    1MPD1    H714306   4.428   0.398  17.362  0.5997 -1.8991 -0.0384
    2TMC2    C114307   4.063   0.299  16.591  0.7655  0.5628 -0.1430
    2TMC2    C214308   4.147   0.308  16.484 -0.2514  0.4328 -0.1814
    2TMC2    C314309   4.281   0.339  16.508  0.4504 -0.0922  0.1756
    2TMC2    C414310   4.107   0.331  16.722 -0.2993  0.2196  0.4551
    2TMC2    C514311   4.235   0.376  16.731  0.9954 -0.0895  0.4279
    2TMC2    C614312   4.326   0.381  16.632  0.0289 -0.3029 -0.1159
    2TMC2     C14313   3.927   0.245  16.563 -0.9169 -0.5598  0.1239
    2TMC2     O14314   3.905   0.186  16.461  0.4345 -0.1334 -0.4111
    2TMC2     H14315   4.111   0.274  16.387 -1.8639  1.4041  0.0728
    2TMC2    H114316   4.040   0.329  16.807  1.3549 -2.3509  1.7089
    2TMC2    H214317   4.429   0.414  16.643  0.0980  0.9826 -4.7734
    2TMC2    C714318   4.279   0.409  16.860  0.3831  0.2262  0.2085
    2TMC2    C814319   4.369   0.316  16.400  0.4349 -1.0065 -0.0137
    2TMC2    O114320   4.228   0.342  16.950 -0.1781 -0.3828 -0.1137
    2TMC2    O214321   4.328   0.310  16.285  0.9724 -0.0012 -0.1883
    2TMC2    O514322   4.503   0.310  16.430  0.2525 -0.0949 -0.1649
    2TMC2    H514323   4.517   0.308  16.527 -0.9824 -1.0235 -0.0086
    3MPD1     C14324   3.494   0.053  16.757 -0.2967 -0.1442 -0.5916
    3MPD1    C114325   3.539   0.151  16.845  0.4039 -0.3619 -0.3406
    3MPD1    C214326   3.647   0.228  16.813 -0.8201 -0.2774 -0.3156
    3MPD1    C314327   3.715   0.205  16.697  0.3547 -0.6175  0.0007
    3MPD1    C414328   3.669   0.102  16.616  0.1504 -0.5925 -0.3278
    3MPD1    C514329   3.561   0.022  16.650 -0.2644  0.1192 -0.3957
    3MPD1     H14330   3.677   0.316  16.869  0.0989  0.5064 -2.0286
    3MPD1    H114331   3.717   0.078  16.522  2.5508  0.3349  0.6345
    3MPD1    H214332   3.404   4.732  16.776  1.4074 -1.6312  2.9058
    3MPD1    H314333   3.530   4.688  16.574 -1.8852  0.5045 -0.0902
    3MPD1     N14334   3.843   0.262  16.674 -0.9244 -0.4732 -0.6089
    3MPD1    H514335   3.876   0.321  16.750  2.8302 -1.7158 -1.3032
    3MPD1    N114336   3.447   0.187  16.944  0.3690 -0.2500  0.1678
    3MPD1    H614337   3.498   0.228  17.023 -1.1566  1.0108  0.4935
    3MPD1    H714338   3.402   0.103  16.980  0.1029  0.0019  0.4220
    1TMC1    C114339   2.036   4.285  12.824  0.7763  0.1097 -0.4979
    1TMC1    C214340   1.935   4.261  12.911 -0.1141 -0.0118 -0.2546
    1TMC1    C314341   1.812   4.306  12.870  0.5456  0.2147 -0.6499
    1TMC1    C414342   2.023   4.358  12.705  0.5667 -0.3564 -0.2626
    1TMC1    C514343   1.897   4.396  12.674  0.0755  0.0727  0.3555
    1TMC1    C614344   1.790   4.365  12.749  1.0181 -0.1689  0.0094
    1TMC1     C14345   2.157   4.195  12.834 -0.0799 -0.3877  0.0305
    1TMC1     O14346   2.220   4.186  12.734  0.2838 -0.2119 -0.0936
    1TMC1     H14347   1.950   4.207  13.003  1.0591  0.8122  0.0351
    1TMC1    H114348   2.106   4.371  12.637  0.1895 -0.1317 -0.6852
    1TMC1    H214349   1.691   4.396  12.715  0.2105 -1.1750  1.4847
    1TMC1    C714350   1.879   4.451  12.544 -0.2643 -0.7405  0.2650
    1TMC1    C814351   1.700   4.272  12.955 -0.5099  0.9339  0.5565
    1TMC1    O114352   1.773   4.516  12.530  0.1434 -0.4936 -0.1189
    1TMC1    O214353   1.723   4.268  13.076 -0.3039  0.3487 -0.1222
    1TMC1    O314354   1.922   4.357  12.461  0.0029 -0.3066  0.4541
    1TMC1    H314355   1.986   4.292  12.497  0.0109 -0.1526  0.7166
    1TMC1    O514356   1.580   4.287  12.906  0.0149 -0.2656 -0.5938
    1TMC1    H514357   1.585   4.277  12.808 -1.4394 -1.8896 -0.4941
    2MPD2     C14358   2.354   3.974  12.876  0.4924 -0.3992  0.0293
    2MPD2    C114359   2.263   4.011  12.972  0.3924  0.1384 -0.5507
    2MPD2    C214360   2.272   3.951  13.095  0.3272 -0.1149  0.0768
    2MPD2    C314361   2.370   3.857  13.126  0.6174  0.3621  0.0533
    2MPD2    C414362   2.455   3.818  13.024  0.1716 -0.0361  0.2919
    2MPD2    C514363   2.445   3.874  12.898 -0.0857  0.3004  0.0892
    2MPD2     H14364   2.200   3.975  13.172 -1.8417 -1.1247 -1.6410
    2MPD2    H114365   2.538   3.748  13.034 -1.0233 -1.2349  1.8933
    2MPD2    H214366   2.358   4.018  12.778  0.4780 -3.3236 -1.2777
    2MPD2    H314367   2.519   3.862  12.820  0.7245  0.7643  0.7900
    2MPD2     N14368   2.370   3.799  13.263 -0.4788 -0.1849  0.1930
    2MPD2    H514369   2.296   3.829  13.326  0.9176 -1.4758  2.4552
    2MPD2    N114370   2.174   4.122  12.949  0.2159 -0.0881  0.4445
    2MPD2    H714371   2.107   4.144  13.022 -1.3481  0.4964 -1.1687
    3TCq1    O114372   2.094   3.687  13.647  0.6073 -0.6753 -0.6131
    3TCq1    C114373   2.152   3.565  13.652 -0.6539 -0.1491  0.4765
    3TCq1    O214374   2.111   3.485  13.733 -0.3952 -0.2074  0.0954
    3TCq1    C214375   2.283   3.578  13.600 -0.2010 -0.4887  0.6622
    3TCq1    C314376   2.386   3.544  13.679 -0.6897 -0.0095 -0.3314
    3TCq1    C414377   2.518   3.573  13.637 -0.2856 -0.4536  0.8612
    3TCq1    C514378   2.538   3.642  13.520  0.4790  0.2592  0.6526
    3TCq1    C614379   2.433   3.677  13.443  0.2966 -0.7284  0.2485
    3TCq1    C714380   2.301   3.645  13.484 -0.4769  0.3671 -0.1679
    3TCq1    C814381   2.458   3.701  13.304 -0.2142 -0.7018 -0.9379
    3TCq1    O414382   2.557   3.655  13.250  0.2009 -0.1131 -0.0338
    3TCq1    C914383   2.621   3.531  13.714 -0.6739  0.0554 -0.7525
    3TCq1    O514384   2.597   3.458  13.811  0.2714  0.1006 -0.3175
    3TCq1    O614385   2.739   3.568  13.681  0.4877  0.2436 -0.9648
    3TCq1    H114386   2.151   3.755  13.607 -1.2806  0.6649 -1.0352
    3TCq1    H214387   2.367   3.489  13.770  0.4825  0.5979  0.2837
    3TCq1    H314388   2.639   3.645  13.481 -0.4249 -1.6144 -1.8167
    3TCq1    H414389   2.212   3.657  13.424  0.1381 -1.0178 -1.3446
    1MPD2     C14390   1.747   0.420  14.699 -0.5253  0.4137  0.2167
    1MPD2    C114391   1.805   0.315  14.630  0.2983 -0.6309  0.6427
    1MPD2    C214392   1.934   0.282  14.661 -0.0477 -0.7463 -0.2353
    1MPD2    C314393   2.004   0.352  14.757  0.0883 -0.5081 -0.1099
    1MPD2    C414394   1.949   0.455  14.818 -0.1097 -0.1636  0.2417
    1MPD2    C514395   1.821   0.487  14.789  0.3034  0.4026 -0.0172
    1MPD2     H14396   1.976   0.190  14.622  2.8336 -0.0054  1.0564
    1MPD2    H114397   1.996   0.506  14.901  2.3999  1.1611 -2.0032
    1MPD2    H214398   1.646   0.452  14.675 -1.0416 -0.0659  1.8011
    1MPD2    H314399   1.778   0.566  14.849 -1.6876 -0.7710  0.1094
    1MPD2     N14400   2.138   0.320  14.781  0.0884 -0.1340 -0.2892
    1MPD2    H514401   2.169   0.377  14.858  0.3718  0.0638 -0.5508
    1MPD2    N114402   1.726   0.229  14.541  0.5060  0.5242 -0.1755
    1MPD2    H714403   1.644   0.271  14.499  0.1768 -2.4790 -2.5550
    2TMC3    C114404   1.678   0.044  14.405  0.1117 -0.2497  0.0968
    2TMC3    C214405   1.717   4.646  14.391 -0.7900  0.1630 -0.9970
    2TMC3    C314406   1.736   4.599  14.266  0.1915  0.0108  0.2202
    2TMC3    C414407   1.648   0.125  14.297  0.0570 -0.1692 -0.4891
    2TMC3    C514408   1.647   0.063  14.173  0.8815  0.0655 -0.2986
    2TMC3    C614409   1.701   4.671  14.155 -0.4742 -0.3028 -0.2961
    2TMC3     C14410   1.753   0.097  14.511 -0.1615  0.7185 -0.3178
    2TMC3     O14411   1.851   0.026  14.539 -0.0230  0.1963 -0.1202
    2TMC3     H14412   1.722   4.586  14.481  1.1467 -0.0073 -1.2018
    2TMC3    H114413   1.638   0.233  14.299 -2.0968 -0.3904  0.0781
    2TMC3    H214414   1.713   4.637  14.053 -0.4927  1.7750 -0.9887
    2TMC3    C714415   1.520   0.060  14.109  0.5151  0.7999  0.5260
    2TMC3    C814416   1.865   4.531  14.255 -0.3288  0.0758  1.1001
    2TMC3    O114417   1.501   4.710  14.020  0.4620 -0.2249  0.7433
    2TMC3    O214418   1.903   4.468  14.158  0.0830  0.1682  0.5752
    3TCq1    O114419   0.717   0.687  14.720 -0.3523 -0.4221 -0.3500
    3TCq1    C114420   0.662   0.644  14.605  0.4446  0.2376  0.5122
    3TCq1    O214421   0.564   0.571  14.593 -0.2015  0.1731  0.0659
    3TCq1    C214422   0.766   0.646  14.501 -0.2418 -0.1990  0.0766
    3TCq1    C314423   0.868   0.739  14.519  0.2502 -0.0559  0.4677
    3TCq1    C414424   0.979   0.728  14.446  0.1944  0.1378 -0.6331
    3TCq1    C514425   0.996   0.631  14.362  0.0555 -0.4572  0.3999
    3TCq1    C614426   0.890   0.544  14.340 -0.5528  0.0697 -0.1632
    3TCq1    C714427   0.771   0.545  14.407 -0.1250 -0.1828 -0.6700
    3TCq1    C814428   0.922   0.425  14.276  0.3969  0.4270  1.1791
    3TCq1    O414429   0.824   0.363  14.242 -0.5801  0.1834  0.6197
    3TCq1    C914430   1.094   0.817  14.475 -0.0957  0.4487 -0.3749
    3TCq1    O514431   1.108   0.832  14.598  0.2240  0.0777  0.0463
    3TCq1    O614432   1.202   0.807  14.411  0.4370 -0.4632  0.2713
    3TCq1    H114433   0.807   0.724  14.720  0.2207 -1.7990  3.0468
    3TCq1    H214434   0.859   0.822  14.587  0.9462 -1.0183  1.7260
    3TCq1    H314435   1.085   0.635  14.301  0.1082 -1.2160  0.4208
    3TCq1    H414436   0.682   0.491  14.377 -0.6694  0.7947 -0.8250
    4MPD2     C14437   1.030   0.187  14.156  0.0882  0.1492  0.3638
    4MPD2    C114438   1.104   0.291  14.200 -0.4552 -0.8419 -0.0658
    4MPD2    C214439   1.241   0.281  14.192  0.3633 -0.3959 -0.7085
    4MPD2    C314440   1.299   0.164  14.140 -0.6483  0.6498  0.1279
    4MPD2    C414441   1.224   0.056  14.104  0.2783  0.0976 -0.1478
    4MPD2    C514442   1.086   0.070  14.112 -0.3281  0.8519  0.1606
    4MPD2     H14443   1.307   0.363  14.214 -0.1184  0.2127 -1.5216
    4MPD2    H114444   1.261   4.699  14.062 -1.3914 -0.5339 -0.2594
    4MPD2    H214445   0.924   0.179  14.181  0.0262  0.6695  0.2664
    4MPD2    H314446   1.029   4.718  14.086  0.4162  0.5578 -0.4654
    4MPD2     N14447   1.439   0.154  14.156 -0.2061  0.1567 -0.0262
    4MPD2    H514448   1.492   0.228  14.201  0.4289  1.1092 -2.3395
    4MPD2    N114449   1.053   0.408  14.255  0.2603 -0.4410  0.3029
    4MPD2    H714450   1.117   0.485  14.272  0.0168 -0.3146  0.6511
    5TMC2    C114451   2.448   4.728  14.783 -0.6825 -1.0392 -0.2532
    5TMC2    C214452   2.429   4.696  14.911 -0.3478 -0.7657  0.0138
    5TMC2    C314453   2.360   0.047  14.986  0.3820  0.3099  0.5804
    5TMC2    C414454   2.414   0.112  14.729 -0.4293  0.3502  0.0477
    5TMC2    C514455   2.331   0.192  14.802  0.1691 -0.7605  0.7324
    5TMC2    C614456   2.306   0.157  14.935 -0.1029  0.2111  0.1502
    5TMC2     C14457   2.427   4.621  14.688 -0.4842  0.1377 -0.0843
    5TMC2     O14458   2.478   4.510  14.706  0.2674  0.7685 -0.5463
    5TMC2     H14459   2.455   4.595  14.941  0.9530 -0.8938 -1.4845
    5TMC2    H114460   2.444   0.133  14.627  0.2210 -0.1204  0.1361
    5TMC2    H214461   2.231   0.206  14.995  0.5350  0.7691  0.4965
    5TMC2    C714462   2.214   0.217  14.725  0.4958 -0.3661 -0.1426
    5TMC2    C814463   2.306   0.011  15.114 -0.2143  0.2930  0.4519
    5TMC2    O114464   2.201   0.156  14.616 -0.3160  0.4882  0.3852
    5TMC2    O214465   2.195   0.048  15.143 -0.4997  0.6825  0.0292
    5TMC2    O514466   2.389   4.645  15.167 -0.1481  0.0109 -0.4437
    5TMC2    H514467   2.486   4.652  15.152 -0.1977  1.1700 -0.2536
    6MPD2     C14468   2.120   4.421  14.335 -0.2896 -0.0371  0.2991
    6MPD2    C114469   2.070   4.539  14.381  0.5565  1.0831 -0.4013
    6MPD2    C214470   2.143   4.615  14.467 -0.9190 -0.5202  0.7171
    6MPD2    C314471   2.267   4.572  14.510 -0.7443  0.0152 -0.5284
    6MPD2    C414472   2.320   4.452  14.461 -0.4579 -0.1477  0.5656
    6MPD2    C514473   2.242   4.373  14.382  0.2254 -0.8126 -0.4085
    6MPD2     H14474   2.103   4.710  14.503 -0.0784  1.3177 -3.1810
    6MPD2    H114475   2.414   4.402  14.482 -1.0385 -1.6623 -0.4841
    6MPD2    H214476   2.072   4.351  14.268 -2.2727  1.0401  0.5913
    6MPD2    H314477   2.261   4.268  14.364  0.0811 -1.2633  2.0877
    6MPD2     N14478   2.327   4.658  14.603 -0.6296  0.0575  0.8409
    6MPD2    H514479   2.282   0.013  14.605  0.6266  0.7862 -2.8442
    6MPD2    N114480   1.942   4.579  14.356  0.2658 -0.3939  0.0725
    6MPD2    H714481   1.904   4.654  14.413 -0.9444 -2.0318  1.4085
  945NH3     N114482   2.638   2.816   3.115 -0.8815  0.8664 -1.1193
  945NH3     H214483   2.544   2.848   3.137 -1.2897 -0.5865 -0.7873
  945NH3     H314484   2.618   2.724   3.078  1.2663  0.3265 -0.9616
  945NH3     H414485   2.660   2.878   3.037 -0.5123  1.2036 -0.7468
  946SOD     NA14486   1.899   4.211  14.609  0.0473  0.3833  0.0126
  947SOD     NA14487   3.868   0.807  12.504 -0.3276 -0.5683  0.1176
  948SOD     NA14488   4.342   0.596  11.659 -0.0057 -0.0844  0.2147
  949SOD     NA14489   0.429   0.140   8.552 -0.2745 -0.1043 -0.2444
  950SOD     NA14490   0.541   2.890   2.249  0.2177 -0.4703  0.0478
  951SOD     NA14491   1.615   3.876  11.437  0.3511 -0.1650 -0.3876
  952SOD     NA14492   1.038   2.628  10.630  0.3148  0.4165 -0.2485
  953SOD     NA14493   3.596   2.565  12.968  0.1682  0.0887 -0.7726
  954SOL     OW14494   4.189   2.551   1.338  0.5062 -0.3159 -0.2396
  954SOL    HW114495   4.196   2.559   1.243  2.2602  2.2574  0.1067
  954SOL    HW214496   4.153   2.634   1.369 -1.5265 -0.2530 -2.8570
  955SOL     OW14497   4.546   2.500   0.456 -0.0199 -0.3798  0.0735
  955SOL    HW114498   4.560   2.593   0.477 -0.4585 -0.1383 -0.6930
  955SOL    HW214499   4.610   2.461   0.515  0.7696  1.5993  0.5504
  956SOL     OW14500   3.789   1.428   1.963 -0.2718  0.0778  0.5852
  956SOL    HW114501   3.728   1.474   1.904 -0.4673  0.4100  1.0486
  956SOL    HW214502   3.874   1.465   1.940 -0.0405 -0.9182 -0.1700
  957SOL     OW14503   2.959   0.092  13.446 -0.2972  0.4381 -0.5291
  957SOL    HW114504   2.940   0.164  13.387  0.9443  1.6873  0.6144
  957SOL    HW214505   2.883   0.093  13.503 -0.9770  0.7856 -1.4415
  958SOL     OW14506   1.637   1.400   1.292  0.0754 -0.1231 -0.0544
  958SOL    HW114507   1.646   1.432   1.203  0.6423 -2.1475 -0.7289
  958SOL    HW214508   1.580   1.324   1.288 -0.5339  0.2423  1.5679
  959SOL     OW14509   0.986   2.368   5.073 -0.8967  0.5095  0.0441
  959SOL    HW114510   0.902   2.332   5.103 -1.0107  1.2722  0.6371
  959SOL    HW214511   1.049   2.296   5.070 -1.8321 -0.2550 -1.2937
  960SOL     OW14512   2.707   0.787   2.410  0.4813  0.3435 -0.7332
  960SOL    HW114513   2.775   0.774   2.477 -1.4527  0.7111  1.3262
  960SOL    HW214514   2.630   0.778   2.467  1.7480 -0.6309  0.8399
  961SOL     OW14515   0.163   1.370   8.768  0.2804 -0.2746 -0.5949
  961SOL    HW114516   0.186   1.463   8.761 -0.6138  0.0295  0.4681
  961SOL    HW214517   0.221   1.336   8.837 -0.3790  0.7772  0.4789
  962SOL     OW14518   4.233   1.179   7.779  0.2324 -0.0926 -0.1407
  962SOL    HW114519   4.297   1.251   7.787  0.4748 -0.3264  0.0489
  962SOL    HW214520   4.149   1.220   7.757  0.0754  1.2652  3.0012
  963SOL     OW14521   3.190   0.776   6.076  0.1496  0.0763 -0.4704
  963SOL    HW114522   3.207   0.683   6.063  2.5038  0.3509  0.6012
  963SOL    HW214523   3.278   0.804   6.101 -0.0660  1.6244 -1.4321
  964SOL     OW14524   2.400   2.167   2.223  0.2932  0.5631 -0.3114
  964SOL    HW114525   2.404   2.247   2.171 -0.8486  0.3142 -0.7779
  964SOL    HW214526   2.392   2.099   2.156 -0.0182 -1.0478  1.3501
  965SOL     OW14527   0.144   3.936   0.336  0.1989  0.3109  0.3418
  965SOL    HW114528   0.158   4.031   0.329  3.2940 -0.2079 -0.5238
  965SOL    HW214529   0.152   3.928   0.431  1.0117 -1.1822  0.1447
  966SOL     OW14530   2.392   1.156   4.140  0.3204  0.2540 -0.2389
  966SOL    HW114531   2.372   1.243   4.177  0.6549 -0.5214  1.7882
  966SOL    HW214532   2.487   1.151   4.152  0.4747  0.7186 -1.2800
  967SOL     OW14533   3.591   4.114  14.112 -0.3807  0.1026 -0.3339
  967SOL    HW114534   3.538   4.136  14.035 -0.2031 -1.3191 -0.8661
  967SOL    HW214535   3.679   4.137  14.081 -0.5153  0.0942 -0.7148
  968SOL     OW14536   3.043   4.417   7.775  0.0343  0.2856 -0.6488
  968SOL    HW114537   3.048   4.479   7.848  0.3814 -0.8144  0.2640
  968SOL    HW214538   2.969   4.363   7.804  1.2255 -2.0895 -2.0223
  969SOL     OW14539   1.455   0.871   3.785 -0.1418  0.3174 -0.2872
  969SOL    HW114540   1.455   0.919   3.702 -1.2572  1.6295  0.4775
  969SOL    HW214541   1.381   0.817   3.755 -0.0593 -0.1443  0.3370
  970SOL     OW14542   1.205   3.857   1.818  0.1620 -0.5898  0.1048
  970SOL    HW114543   1.196   3.865   1.723  2.8643 -1.9564 -0.2710
  970SOL    HW214544   1.289   3.903   1.830  0.0444 -0.2113 -0.4857
  971SOL     OW14545   0.763   0.992  15.421  0.4491 -0.0816  0.0472
  971SOL    HW114546   0.722   1.021  15.503  0.4972 -0.6953  0.2896
  971SOL    HW214547   0.823   0.930  15.462 -0.0061 -0.8202 -0.4101
  972SOL     OW14548   2.570   1.273   2.928 -0.5182 -0.0249 -0.0086
  972SOL    HW114549   2.601   1.323   2.853  2.0431 -0.3054  0.8702
  972SOL    HW214550   2.495   1.327   2.953 -0.6245  0.3626 -1.1897
  973SOL     OW14551   2.610   4.351  16.286  0.3376 -0.6128 -0.3153
  973SOL    HW114552   2.620   4.290  16.212 -2.7498 -1.1299 -0.3083
  973SOL    HW214553   2.530   4.313  16.322  0.0002  2.1212  1.7822
  974SOL     OW14554   2.294   4.438   3.086  0.5593  0.1276 -0.0025
  974SOL    HW114555   2.381   4.439   3.046  0.2646  0.3167 -0.6410
  974SOL    HW214556   2.279   4.351   3.123 -0.8219 -0.1226 -1.1383
  975SOL     OW14557   2.267   0.181  16.963  0.1858 -0.1924  0.0261
  975SOL    HW114558   2.293   0.166  17.054  2.0335 -0.4015 -0.5408
  975SOL    HW214559   2.220   0.264  16.976 -1.7165 -1.3092  0.2312
  976SOL     OW14560   3.206   4.714   6.666 -0.2591 -0.1156 -0.6091
  976SOL    HW114561   3.247   4.731   6.750 -2.7674 -0.7649  0.7370
  976SOL    HW214562   3.270   0.010   6.602 -0.1345 -0.7920 -0.8188
  977SOL     OW14563   4.143   1.335   2.207  0.1549  0.1205  0.0062
  977SOL    HW114564   4.152   1.252   2.252  0.2953 -1.0813 -2.2381
  977SOL    HW214565   4.236   1.350   2.193  0.3964 -2.8479 -1.6275
  978SOL     OW14566   4.050   0.721  11.051  0.3904 -0.8505 -0.3672
  978SOL    HW114567   4.081   0.671  10.976  2.1093 -0.3061 -0.0179
  978SOL    HW214568   3.965   0.754  11.022 -0.1382 -1.1587  0.8082
  979SOL     OW14569   3.889   2.605  14.952  0.0513 -0.1967 -0.3356
  979SOL    HW114570   3.935   2.689  14.957  0.1776 -0.2535 -0.5491
  979SOL    HW214571   3.841   2.618  14.870  2.4761  1.5239 -1.4687
  980SOL     OW14572   0.029   4.685   1.796 -0.7184  0.4305 -0.2514
  980SOL    HW114573   4.722   0.018   1.847  0.6602  2.1656 -1.4478
  980SOL    HW214574   0.119   4.700   1.824 -0.6223 -0.2523 -0.1774
  981SOL     OW14575   2.716   2.624  11.947 -0.0475  0.0411  0.9969
  981SOL    HW114576   2.647   2.615  12.013  0.4039 -0.0519  1.4594
  981SOL    HW214577   2.705   2.718  11.930 -1.4000 -0.6317 -1.8394
  982SOL     OW14578   1.002   3.294   4.898  0.3536 -0.7826  0.5493
  982SOL    HW114579   1.006   3.305   4.803 -0.2700  1.9000  0.8299
  982SOL    HW214580   0.917   3.332   4.923  1.6714  1.4059  1.7130
  983SOL     OW14581   4.623   4.558   2.912 -0.3141 -0.3348  0.3238
  983SOL    HW114582   4.685   4.535   2.843  1.7245  2.0543  1.3548
  983SOL    HW214583   4.543   4.512   2.889  0.0026 -0.0632 -1.3238
  984SOL     OW14584   0.893   4.107   8.964 -0.0199  0.1732  0.1862
  984SOL    HW114585   0.965   4.169   8.950 -0.7074  0.8521 -0.4389
  984SOL    HW214586   0.937   4.041   9.017 -1.1072 -0.4832  0.2760
  985SOL     OW14587   1.357   1.220   5.429  0.4869  0.4288  0.2570
  985SOL    HW114588   1.277   1.194   5.475  0.2625  0.1204 -0.3094
  985SOL    HW214589   1.366   1.308   5.467 -0.7796  1.5885 -2.0859
  986SOL     OW14590   3.367   0.486   9.848  0.0926 -0.0215  0.3296
  986SOL    HW114591   3.321   0.555   9.800  1.3645  1.5486  1.3575
  986SOL    HW214592   3.328   0.405   9.815  2.3519 -0.8038 -0.4622
  987SOL     OW14593   2.666   4.043  13.439 -0.4524  0.3189  0.0218
  987SOL    HW114594   2.754   4.080  13.429 -0.2544 -0.6845 -1.9234
  987SOL    HW214595   2.687   3.955  13.471 -0.0921  0.6744  0.7852
  988SOL     OW14596   4.360   0.541   2.388  0.2098 -0.2801 -0.0494
  988SOL    HW114597   4.397   0.614   2.437  1.6005 -0.2761 -1.0903
  988SOL    HW214598   4.435   0.519   2.332 -0.5636 -5.0984  0.7700
  989SOL     OW14599   0.848   2.479   8.844  0.4265 -0.5477  0.1859
  989SOL    HW114600   0.939   2.500   8.824  0.3428 -1.9885 -1.6817
  989SOL    HW214601   0.813   2.563   8.873  0.1126 -0.1846 -1.2249
  990SOL     OW14602   4.599   1.866   7.600  0.3998  0.3989 -0.2407
  990SOL    HW114603   4.667   1.898   7.660  0.7818 -0.8871  0.0184
  990SOL    HW214604   4.652   1.828   7.529 -0.6466 -0.4586 -0.5528
  991SOL     OW14605   2.600   2.710   7.671  0.2663  0.5285 -0.0067
  991SOL    HW114606   2.658   2.773   7.628 -0.9309  1.9444  0.4759
  991SOL    HW214607   2.554   2.771   7.728  1.2289  1.8607 -0.6492
  992SOL     OW14608   1.916   2.365   6.687 -0.6030  0.4424  0.0973
  992SOL    HW114609   1.959   2.309   6.622  1.2267 -0.2371  1.8730
  992SOL    HW214610   1.952   2.451   6.668  0.5042 -0.4004 -1.6280
  993SOL     OW14611   0.518   0.972   7.419 -0.3973 -0.2470  0.1518
  993SOL    HW114612   0.538   1.065   7.408 -2.5881  0.0607 -1.2638
  993SOL    HW214613   0.423   0.964   7.428 -0.6490  1.0229 -1.3490
  994SOL     OW14614   1.321   1.209  12.754 -0.1249  0.0892 -0.0171
  994SOL    HW114615   1.296   1.269  12.824  1.7522  0.0480  0.6787
  994SOL    HW214616   1.353   1.266  12.684  0.9726  0.6038  0.9037
  995SOL     OW14617   4.559   4.145   3.510  0.5420  0.8221 -0.1106
  995SOL    HW114618   4.550   4.219   3.450  2.6675  0.1089 -1.3556
  995SOL    HW214619   4.643   4.162   3.553 -0.3367 -2.3488  2.8497
  996SOL     OW14620   4.313   0.337   5.164 -0.0494 -0.6958  0.1119
  996SOL    HW114621   4.288   0.429   5.173  2.0740 -0.1965  0.8219
  996SOL    HW214622   4.249   0.302   5.101  1.7617 -2.3400 -0.8098
  997SOL     OW14623   1.434   3.562  12.917 -0.2642  0.3658 -0.0847
  997SOL    HW114624   1.401   3.562  12.827  1.4358 -0.3474 -0.7080
  997SOL    HW214625   1.527   3.571  12.899  0.5296 -0.4258  3.6183
  998SOL     OW14626   1.601   0.192   9.102 -0.2191 -0.6675 -0.2045
  998SOL    HW114627   1.643   0.250   9.038  0.5631 -1.2258 -0.1955
  998SOL    HW214628   1.673   0.135   9.129  0.3039 -0.0333 -0.2580
  999SOL     OW14629   1.933   0.238   3.271  0.8484  0.4372 -0.1706
  999SOL    HW114630   1.880   0.315   3.247 -0.1337  0.4463  2.0047
  999SOL    HW214631   1.935   0.253   3.365 -2.1334 -0.6166  0.0623
 1000SOL     OW14632   3.354   1.950   5.565  0.3034  0.1670 -0.1893
 1000SOL    HW114633   3.372   1.858   5.584 -1.8515 -0.0779  0.6976
 1000SOL    HW214634   3.374   1.964   5.472  1.0894  0.6983  0.0647
 1001SOL     OW14635   1.305   2.619   6.163  0.0833  0.2410  0.2028
 1001SOL    HW114636   1.275   2.707   6.186 -2.5623 -0.8497  0.9299
 1001SOL    HW214637   1.220   2.575   6.169  0.6222 -1.0335 -1.6695
 1002SOL     OW14638   2.393   3.758   3.344  0.5332 -0.2228 -0.3130
 1002SOL    HW114639   2.346   3.792   3.420 -0.6772 -2.9489  0.1690
 1002SOL    HW214640   2.478   3.733   3.382 -0.4560 -2.8952  0.1438
 1003SOL     OW14641   2.515   0.350  11.309 -0.4996  0.6714  0.3856
 1003SOL    HW114642   2.556   0.422  11.356  0.8379 -0.4916  1.0073
 1003SOL    HW214643   2.590   0.327  11.255  0.2914 -0.8799  2.1322
 1004SOL     OW14644   0.476   3.340   7.256 -0.4877 -0.2681  0.6621
 1004SOL    HW114645   0.418   3.290   7.199 -0.2166 -1.1793  1.1835
 1004SOL    HW214646   0.415   3.395   7.305  0.0842  1.5074 -0.6238
 1005SOL     OW14647   1.226   3.662   4.457 -0.3998 -0.6787 -0.0348
 1005SOL    HW114648   1.241   3.703   4.372 -2.3334  0.2882  0.0802
 1005SOL    HW214649   1.276   3.581   4.452  0.1185 -0.4255  1.2060
 1006SOL     OW14650   1.019   4.296   5.640  0.2348 -0.0648  0.0428
 1006SOL    HW114651   1.028   4.204   5.665 -0.8612 -0.6444 -1.6892
 1006SOL    HW214652   0.983   4.339   5.717 -2.9130 -1.2275 -0.7978
 1007SOL     OW14653   1.043   0.994   5.280  0.1724  0.0208  0.7041
 1007SOL    HW114654   0.995   0.915   5.302  1.6485 -0.9583  0.3837
 1007SOL    HW214655   1.109   0.966   5.218 -0.6120  2.4386 -1.2485
 1008SOL     OW14656   3.893   3.097   1.763 -0.1805 -0.5631  0.6526
 1008SOL    HW114657   3.814   3.048   1.784 -1.1663 -0.1535 -2.2258
 1008SOL    HW214658   3.853   3.184   1.771  0.6322 -0.0485 -0.9822
 1009SOL     OW14659   0.221   0.713   1.663  0.3700  0.2782 -0.3607
 1009SOL    HW114660   0.187   0.661   1.590  1.8229  0.5099 -1.1939
 1009SOL    HW214661   0.249   0.791   1.615 -0.2878  0.1654 -0.9402
 1010SOL     OW14662   2.989   0.989   4.743  0.3456  0.2643  0.2926
 1010SOL    HW114663   2.909   0.983   4.692  0.4703 -1.4007  0.3005
 1010SOL    HW214664   3.031   1.062   4.698 -0.7358  0.8538  0.2331
 1011SOL     OW14665   0.327   3.104   1.420 -0.7568  0.2045 -0.0595
 1011SOL    HW114666   0.320   3.067   1.332  0.2490  0.7226 -0.3559
 1011SOL    HW214667   0.390   3.175   1.406  0.5054 -1.0960 -1.1052
 1012SOL     OW14668   3.978   4.349  11.323 -0.0603 -0.4903 -0.2855
 1012SOL    HW114669   3.933   4.265  11.326  0.2023 -0.6402 -0.4575
 1012SOL    HW214670   4.059   4.314  11.286  0.8823  1.0134  0.3495
 1013SOL     OW14671   2.500   1.071   5.129  0.0291  0.6396  0.5241
 1013SOL    HW114672   2.410   1.094   5.105 -0.2493 -1.5527 -0.5362
 1013SOL    HW214673   2.538   1.076   5.041 -1.1014 -1.3542 -0.0785
 1014SOL     OW14674   2.659   0.979   0.445 -0.5560  0.0790 -0.3195
 1014SOL    HW114675   2.682   1.009   0.533 -0.4681 -0.8970 -0.0039
 1014SOL    HW214676   2.705   1.043   0.390 -1.5970  1.3328  0.2843
 1015SOL     OW14677   3.448   4.196   1.885 -0.1675 -0.5498  0.7405
 1015SOL    HW114678   3.461   4.107   1.915 -3.5304 -1.7660 -1.4275
 1015SOL    HW214679   3.353   4.191   1.887 -0.2109 -1.1067 -1.7298
 1016SOL     OW14680   1.078   3.170   2.182 -0.4083  0.1825  0.4066
 1016SOL    HW114681   1.105   3.081   2.207  1.1044  0.0982 -1.5064
 1016SOL    HW214682   1.058   3.157   2.089  1.3100  0.1007  0.0524
 1017SOL     OW14683   1.361   1.419  15.195 -0.1817  0.2817 -0.3015
 1017SOL    HW114684   1.386   1.467  15.116 -1.3532  1.3669 -0.0086
 1017SOL    HW214685   1.442   1.370  15.209 -0.2643 -0.4760 -2.4359
 1018SOL     OW14686   2.628   1.647   7.158  0.0582  0.1945 -0.0862
 1018SOL    HW114687   2.564   1.638   7.229  0.3293  2.8581  0.4848
 1018SOL    HW214688   2.572   1.678   7.087  0.9741 -0.7299 -1.2063
 1019SOL     OW14689   1.311   4.260   4.460 -0.1082 -0.3135 -0.6157
 1019SOL    HW114690   1.254   4.203   4.408  2.2448 -0.3651 -3.1485
 1019SOL    HW214691   1.297   4.224   4.547 -1.0686 -0.2693 -0.7479
 1020SOL     OW14692   4.585   0.820  11.844  0.4527 -0.0852 -0.3430
 1020SOL    HW114693   4.645   0.894  11.842  0.3992 -0.0330 -0.0310
 1020SOL    HW214694   4.517   0.847  11.782 -1.8796 -1.9634  1.3575
 1021SOL     OW14695   2.466   0.775   6.047 -0.9542  0.9400 -0.1945
 1021SOL    HW114696   2.549   0.728   6.042 -3.0558 -2.7539 -0.7218
 1021SOL    HW214697   2.506   0.862   6.055  1.2839 -0.1884  0.9386
 1022SOL     OW14698   1.014   3.070   9.553 -0.6866  0.2465 -0.2959
 1022SOL    HW114699   1.040   3.053   9.643  0.1776 -0.6456 -0.7034
 1022SOL    HW214700   0.987   2.982   9.525  0.7010 -0.3027  0.0869
 1023SOL     OW14701   3.909   0.932   5.889  0.5430 -0.4046  0.0640
 1023SOL    HW114702   3.986   0.913   5.943  1.4746  0.0900 -1.1139
 1023SOL    HW214703   3.914   0.889   5.804 -1.0311  3.9188 -2.1814
 1024SOL     OW14704   1.312   0.831   8.729  0.7364 -0.4809 -0.0640
 1024SOL    HW114705   1.381   0.814   8.665  1.5641  0.3662  0.5974
 1024SOL    HW214706   1.333   0.762   8.792 -2.1657 -0.7262  0.6086
 1025SOL     OW14707   4.439   2.019   4.543 -0.4454 -0.0660 -0.1986
 1025SOL    HW114708   4.510   2.025   4.480  2.0557 -1.9950  2.4174
 1025SOL    HW214709   4.367   2.048   4.487  0.3845  0.1698 -1.1322
 1026SOL     OW14710   0.977   3.234   6.183 -0.8261  0.2180 -0.3901
 1026SOL    HW114711   0.898   3.281   6.157 -2.6865 -1.9748  1.3649
 1026SOL    HW214712   0.997   3.173   6.112 -0.2087  0.1990 -0.2023
 1027SOL     OW14713   3.676   4.024  16.373 -0.2094  0.4425  0.2630
 1027SOL    HW114714   3.676   3.984  16.286  1.6305 -1.2690  1.0364
 1027SOL    HW214715   3.652   4.114  16.354 -1.4162  0.2538  0.9248
 1028SOL     OW14716   1.431   0.743   4.217 -0.0929  0.7693 -0.0417
 1028SOL    HW114717   1.471   0.722   4.301  1.1846  0.9977 -0.5888
 1028SOL    HW214718   1.472   0.825   4.190 -0.2918  1.7116  2.5076
 1029SOL     OW14719   4.529   0.981   4.907  0.0555 -0.4044  0.0039
 1029SOL    HW114720   4.484   0.993   4.823 -1.0904  3.8652  1.2727
 1029SOL    HW214721   4.466   0.925   4.951  0.3825 -1.6604 -1.1190
 1030SOL     OW14722   1.786   1.219  14.956  0.5746  0.3962  0.1594
 1030SOL    HW114723   1.792   1.214  15.052 -1.3936 -1.7990  0.1628
 1030SOL    HW214724   1.737   1.300  14.943 -0.5377 -0.0592  1.3835
 1031SOL     OW14725   1.458   3.134   2.074  0.3766  0.4542 -0.1219
 1031SOL    HW114726   1.495   3.076   2.140  1.0766 -1.6250 -2.3071
 1031SOL    HW214727   1.506   3.115   1.993 -0.8364 -0.5755 -0.5986
 1032SOL     OW14728   4.433   0.551   3.661  0.3751  0.5016  0.1300
 1032SOL    HW114729   4.352   0.535   3.709 -0.2101  0.4593 -0.8843
 1032SOL    HW214730   4.489   0.589   3.729  0.7050  0.8195 -0.3187
 1033SOL     OW14731   3.767   3.695  17.693 -0.2913  0.7254 -0.2135
 1033SOL    HW114732   3.769   3.727  17.603 -2.6810  1.1167 -0.1312
 1033SOL    HW214733   3.803   3.607  17.686  0.3680  1.0121 -0.3939
 1034SOL     OW14734   3.522   2.602   3.079  0.7972  0.0555  0.5604
 1034SOL    HW114735   3.435   2.562   3.074  1.7909 -1.8129 -1.5494
 1034SOL    HW214736   3.559   2.566   3.159  0.6022 -0.6733  0.3197
 1035SOL     OW14737   3.259   0.301   9.389  0.1213  0.3681 -0.3383
 1035SOL    HW114738   3.214   0.267   9.466  1.9795 -1.0761  0.1095
 1035SOL    HW214739   3.209   0.260   9.317  2.5235 -2.0922 -0.5996
 1036SOL     OW14740   0.395   3.468   6.182 -0.2788 -0.5598 -0.7335
 1036SOL    HW114741   0.447   3.527   6.128 -1.5526 -0.2949 -1.6759
 1036SOL    HW214742   0.437   3.469   6.268 -0.1046  0.3981 -0.8353
 1037SOL     OW14743   1.458   3.135   3.461  0.3195  0.1826 -0.1870
 1037SOL    HW114744   1.525   3.068   3.471 -0.1982 -0.2371  0.5129
 1037SOL    HW214745   1.498   3.193   3.526  0.3239  1.0493 -0.9645
 1038SOL     OW14746   1.373   4.663   6.765 -0.0366 -0.3341 -0.0786
 1038SOL    HW114747   1.289   4.619   6.780 -1.5860  2.4362 -0.7059
 1038SOL    HW214748   1.353   4.700   6.679  0.9485  0.1099 -0.1196
 1039SOL     OW14749   0.846   2.767  13.728  0.3322 -0.1739 -0.5506
 1039SOL    HW114750   0.826   2.860  13.734 -1.1270 -0.4458 -1.1059
 1039SOL    HW214751   0.939   2.761  13.751  0.1176  1.6692  0.7734
 1040SOL     OW14752   3.401   0.464   6.309 -0.0179  0.1013 -0.1461
 1040SOL    HW114753   3.492   0.441   6.325 -0.1558  1.6293  2.7086
 1040SOL    HW214754   3.410   0.559   6.303 -0.3086  0.2087  1.0922
 1041SOL     OW14755   1.307   0.329   9.705  0.5012 -0.2102  0.1413
 1041SOL    HW114756   1.345   0.275   9.773  3.5633 -2.2778 -3.2487
 1041SOL    HW214757   1.374   0.397   9.697  0.6884 -0.3073  0.9206
 1042SOL     OW14758   4.635   1.644   8.259  0.3165  0.0090 -0.2302
 1042SOL    HW114759   4.721   1.640   8.302 -0.7179 -0.9645  1.7431
 1042SOL    HW214760   4.574   1.637   8.331  1.2356  4.2801  0.9598
 1043SOL     OW14761   1.165   1.037   8.391 -0.5478  0.0466 -0.1351
 1043SOL    HW114762   1.181   1.106   8.454  0.1898 -1.6925  1.5881
 1043SOL    HW214763   1.164   1.088   8.310 -0.6720 -1.5349 -1.1344
 1044SOL     OW14764   0.148   0.248   7.677  0.2773  0.0517 -0.0712
 1044SOL    HW114765   0.212   0.209   7.736 -1.8288 -3.1415  0.1286
 1044SOL    HW214766   0.197   0.321   7.641 -0.2557 -0.2625 -1.4265
 1045SOL     OW14767   4.040   0.536   3.101 -0.4387  0.6214 -0.2296
 1045SOL    HW114768   4.082   0.615   3.068  0.9489 -0.2995 -0.6745
 1045SOL    HW214769   3.955   0.533   3.056 -1.2729 -0.7917  1.4149
 1046SOL     OW14770   2.257   3.678   7.060  0.2654  0.5188 -0.0435
 1046SOL    HW114771   2.187   3.635   7.009  1.2928 -1.4222  0.1739
 1046SOL    HW214772   2.233   3.669   7.152 -2.8089  2.2110 -0.6929
 1047SOL     OW14773   4.131   1.003   4.974  0.0207 -0.0517 -0.7399
 1047SOL    HW114774   4.219   0.968   4.989 -0.3711 -1.1993 -1.1489
 1047SOL    HW214775   4.077   0.954   5.035 -1.8575 -0.8516 -3.0757
 1048SOL     OW14776   3.812   3.373   6.228  0.4463 -0.1495  0.1175
 1048SOL    HW114777   3.823   3.296   6.173 -2.4219 -0.8492  0.5266
 1048SOL    HW214778   3.873   3.429   6.180 -0.8907  1.5422  0.3857
 1049SOL     OW14779   3.201   4.476   0.219  0.1721  0.4596 -0.3904
 1049SOL    HW114780   3.217   4.387   0.250 -1.2719 -0.2337 -1.6299
 1049SOL    HW214781   3.271   4.521   0.267  0.1982 -0.2825  0.2647
 1050SOL     OW14782   2.608   3.899  10.796 -0.1080 -0.1036  0.1402
 1050SOL    HW114783   2.539   3.834  10.803  0.6777 -0.7794  1.7436
 1050SOL    HW214784   2.577   3.972  10.851 -1.5344 -1.6820  1.4417
 1051SOL     OW14785   3.385   1.445   5.766  0.3942  0.3544 -0.0563
 1051SOL    HW114786   3.457   1.417   5.824 -0.1132  0.8909  0.8316
 1051SOL    HW214787   3.319   1.476   5.828  0.6163  0.7377 -0.0110
 1052SOL     OW14788   2.148   1.671   5.190 -0.4700 -0.1095 -0.4644
 1052SOL    HW114789   2.217   1.707   5.247  0.5427  0.4172 -2.0283
 1052SOL    HW214790   2.071   1.712   5.230 -1.5527 -1.7113 -0.8961
 1053SOL     OW14791   4.207   2.694   8.110 -0.4977  0.3207 -1.2096
 1053SOL    HW114792   4.179   2.619   8.058  1.2822  1.1892 -3.4495
 1053SOL    HW214793   4.249   2.733   8.032 -1.0192  1.9317 -0.6920
 1054SOL     OW14794   0.600   1.574   8.009 -0.0013  0.2932  0.3348
 1054SOL    HW114795   0.595   1.482   8.034 -0.1098  0.2298  0.0736
 1054SOL    HW214796   0.577   1.613   8.094  1.3006 -0.5462  1.0810
 1055SOL     OW14797   1.576   4.100   8.930  0.7407 -0.4766 -0.2056
 1055SOL    HW114798   1.579   4.006   8.909 -0.5691  0.0180 -2.6828
 1055SOL    HW214799   1.670   4.119   8.928  0.1604  2.1478 -2.7969
 1056SOL     OW14800   2.505   4.632   1.964  0.7917  0.2377  0.2456
 1056SOL    HW114801   2.423   4.672   1.993  0.5627 -0.5919  0.7343
 1056SOL    HW214802   2.566   4.706   1.963  1.9992 -0.7448  1.5034
 1057SOL     OW14803   1.197   3.892  13.892  0.5339 -0.6263 -0.2389
 1057SOL    HW114804   1.129   3.932  13.945 -0.7396 -0.7686 -1.7629
 1057SOL    HW214805   1.202   3.808  13.938 -0.4956  0.2117  1.3803
 1058SOL     OW14806   4.577   2.776   5.015 -0.1742  0.4458 -0.8233
 1058SOL    HW114807   4.605   2.848   5.071  0.9126  0.4398 -1.3624
 1058SOL    HW214808   4.515   2.811   4.951 -1.1189  0.1111 -0.1053
 1059SOL     OW14809   3.866   3.216   5.668  0.4523 -0.2619 -0.2846
 1059SOL    HW114810   3.773   3.232   5.655  0.4266 -0.5040 -0.3923
 1059SOL    HW214811   3.913   3.297   5.649 -0.6465  0.4262 -0.0298
 1060SOL     OW14812   0.375   1.270   2.066 -0.3056  0.4733  0.2189
 1060SOL    HW114813   0.378   1.201   1.999  0.3332  1.4804 -0.7917
 1060SOL    HW214814   0.469   1.284   2.081 -0.5398 -0.1393  2.2217
 1061SOL     OW14815   0.596   2.490   0.051  0.5546  0.1125 -0.0494
 1061SOL    HW114816   0.558   2.416   0.005 -0.3209  0.6572 -0.1939
 1061SOL    HW214817   0.604   2.438   0.132 -0.4675 -0.7687 -0.5175
 1062SOL     OW14818   4.066   0.870   7.490 -0.7466  0.3817 -0.1136
 1062SOL    HW114819   4.042   0.942   7.549 -0.5652 -1.0194  1.6785
 1062SOL    HW214820   3.989   0.865   7.433  1.1047 -0.6365 -2.5135
 1063SOL     OW14821   4.118   3.865   0.890  0.2445  0.6348 -0.0305
 1063SOL    HW114822   4.085   3.778   0.872 -0.7276  1.0016 -0.0048
 1063SOL    HW214823   4.059   3.919   0.838  0.1605  0.1412 -0.4437
 1064SOL     OW14824   3.062   2.577   8.544  0.1365  0.5848  0.0376
 1064SOL    HW114825   3.021   2.498   8.508 -0.7094  0.9081  0.2875
 1064SOL    HW214826   3.051   2.564   8.638 -1.2701  0.5270 -0.1265
 1065SOL     OW14827   4.240   3.295   8.429  0.3817  0.0147  0.2721
 1065SOL    HW114828   4.266   3.373   8.479  1.4894 -0.6142  0.6708
 1065SOL    HW214829   4.311   3.237   8.456  2.5488  2.3725 -0.3128
 1066SOL     OW14830   1.311   1.161  11.776  0.3795  0.0731 -0.0214
 1066SOL    HW114831   1.346   1.107  11.848  1.7419 -0.4034 -1.0454
 1066SOL    HW214832   1.360   1.122  11.704 -2.7939 -2.5393 -0.7995
 1067SOL     OW14833   2.895   4.148   9.149  0.2065  0.0597 -0.4956
 1067SOL    HW114834   2.933   4.104   9.073  0.9156  0.3223 -0.2993
 1067SOL    HW214835   2.843   4.222   9.118 -0.8665 -0.4596  0.0558
 1068SOL     OW14836   2.399   4.371   3.986 -0.4239 -0.4870 -0.3155
 1068SOL    HW114837   2.389   4.392   3.893  0.1511  0.5601 -0.1436
 1068SOL    HW214838   2.344   4.294   3.995 -1.3138  0.3233  1.2305
 1069SOL     OW14839   1.571   0.391   2.286  0.0481 -0.0447 -0.3317
 1069SOL    HW114840   1.501   0.345   2.239  2.4186 -3.7422 -0.2959
 1069SOL    HW214841   1.575   0.342   2.368  1.3398  0.9795  0.2142
 1070SOL     OW14842   1.047   3.044   3.826 -0.2221  0.1980 -0.1787
 1070SOL    HW114843   1.126   3.016   3.872  0.3304  0.2192 -1.1147
 1070SOL    HW214844   1.072   3.132   3.798  0.1636  0.2303  0.2691
 1071SOL     OW14845   3.785   1.090   5.115  0.0160  0.3435 -0.2753
 1071SOL    HW114846   3.694   1.076   5.086  0.0629  1.9249 -1.1312
 1071SOL    HW214847   3.796   1.183   5.100  0.4064  0.4372  0.6371
 1072SOL     OW14848   2.108   2.369   6.270 -0.2817 -0.1969 -0.1220
 1072SOL    HW114849   2.107   2.295   6.210  1.5214 -0.7913  0.5759
 1072SOL    HW214850   2.092   2.445   6.213 -0.7051  0.2717  0.6199
 1073SOL     OW14851   0.564   3.611  17.379  0.4756 -0.0396 -0.2419
 1073SOL    HW114852   0.473   3.585  17.366  0.5486 -0.2278 -0.3853
 1073SOL    HW214853   0.566   3.633  17.472  0.3328  1.4063 -0.5822
 1074SOL     OW14854   2.629   2.691   9.509  0.5330  0.5888 -0.0274
 1074SOL    HW114855   2.597   2.777   9.483  1.6716  0.3392 -2.2409
 1074SOL    HW214856   2.720   2.711   9.530  0.3585  1.0000  0.3453
 1075SOL     OW14857   0.464   4.693   9.965 -0.4296 -0.1969  0.5041
 1075SOL    HW114858   0.530   4.624   9.966  0.1310  0.3071 -2.0247
 1075SOL    HW214859   0.513   0.026  10.012 -1.5203  1.0224 -0.1418
 1076SOL     OW14860   1.261   1.285   0.579  0.0001 -0.2261  0.0388
 1076SOL    HW114861   1.283   1.232   0.503 -0.6220 -0.6315  0.1392
 1076SOL    HW214862   1.172   1.318   0.568 -0.2891 -0.9793  0.1225
 1077SOL     OW14863   4.411   3.447  10.239  0.4557 -0.3238 -0.3456
 1077SOL    HW114864   4.498   3.426  10.203  0.3776  1.7718 -1.7685
 1077SOL    HW214865   4.365   3.423  10.159  0.2622  0.4762 -0.4798
 1078SOL     OW14866   3.553   4.300   3.017  0.1409  0.5716  0.2006
 1078SOL    HW114867   3.641   4.329   2.992 -0.0911  0.2082 -0.9969
 1078SOL    HW214868   3.531   4.319   3.108 -1.3713 -1.6714  0.3052
 1079SOL     OW14869   0.298   2.376   6.814  0.1232  0.0622  0.4862
 1079SOL    HW114870   0.344   2.305   6.858  1.3646 -0.6311 -1.9339
 1079SOL    HW214871   0.260   2.332   6.739 -1.1828  1.3237  0.3992
 1080SOL     OW14872   4.405   0.122   1.406  0.5878  0.4516 -0.2137
 1080SOL    HW114873   4.415   0.036   1.447 -0.3737 -0.3015 -1.5726
 1080SOL    HW214874   4.492   0.136   1.370  0.0495 -0.6774 -1.9327
 1081SOL     OW14875   4.711   2.358   7.903  0.3172 -0.2920 -0.1041
 1081SOL    HW114876   4.627   2.313   7.914  0.9521 -1.6952 -0.9827
 1081SOL    HW214877   4.686   2.434   7.851  0.8874 -1.6018 -2.3174
 1082SOL     OW14878   4.418   4.488   6.845 -0.1205 -0.2338  0.1205
 1082SOL    HW114879   4.330   4.489   6.883 -0.2696  0.5590 -0.2576
 1082SOL    HW214880   4.469   4.457   6.920  1.4277 -1.6810 -1.5409
 1083SOL     OW14881   4.245   2.757   5.191 -0.6309 -0.3163 -0.7768
 1083SOL    HW114882   4.179   2.731   5.127  0.2423 -1.2119 -1.3308
 1083SOL    HW214883   4.285   2.840   5.164  0.0903 -0.2726  0.4335
 1084SOL     OW14884   3.640   3.761   0.199  0.3747 -0.1460 -0.1678
 1084SOL    HW114885   3.698   3.796   0.267  0.5491  0.4072 -0.5978
 1084SOL    HW214886   3.697   3.731   0.128  2.3114 -0.0291  1.3398
 1085SOL     OW14887   1.450   0.402   8.504  0.2312 -0.8695  1.0458
 1085SOL    HW114888   1.516   0.395   8.435 -1.3688  1.5978 -0.7394
 1085SOL    HW214889   1.392   0.331   8.475  0.2387 -0.0318 -1.0271
 1086SOL     OW14890   2.294   2.650  12.929 -0.6116  0.5895  0.2794
 1086SOL    HW114891   2.270   2.621  13.017  1.3655 -0.3821  0.4952
 1086SOL    HW214892   2.227   2.602  12.879  0.4924 -0.9736  0.3017
 1087SOL     OW14893   0.994   2.275   9.862 -0.2392 -0.1009 -0.1031
 1087SOL    HW114894   1.082   2.240   9.846 -0.2277 -0.2836  0.3469
 1087SOL    HW214895   0.983   2.330   9.785  0.0047 -1.2414 -0.9631
 1088SOL     OW14896   0.779   0.350   8.821 -0.0711  0.4627  0.5122
 1088SOL    HW114897   0.863   0.384   8.791 -0.9815  2.8989  0.7383
 1088SOL    HW214898   0.728   0.430   8.824 -0.9963 -0.1491  1.2715
 1089SOL     OW14899   4.258   1.169   1.163  0.7566 -0.3117 -0.1525
 1089SOL    HW114900   4.175   1.159   1.209 -0.9880  0.0055 -3.2291
 1089SOL    HW214901   4.317   1.178   1.238  0.3289 -0.9993  0.2686
 1090SOL     OW14902   0.478   2.235  17.671 -0.1031  0.3043  0.2222
 1090SOL    HW114903   0.394   2.272  17.645  1.0466  1.3976 -1.9665
 1090SOL    HW214904   0.520   2.250  17.586 -2.7308 -1.2526 -1.3257
 1091SOL     OW14905   3.850   2.383  12.091  0.7132 -0.2032  0.0885
 1091SOL    HW114906   3.792   2.424  12.027  0.1664 -0.7198  0.2538
 1091SOL    HW214907   3.843   2.445  12.164  0.3865 -0.4495  0.2650
 1092SOL     OW14908   3.229   0.940  11.860 -0.0819 -0.9700 -0.4514
 1092SOL    HW114909   3.304   0.999  11.858 -0.0961 -0.9445 -0.1488
 1092SOL    HW214910   3.277   0.857  11.860  1.7629  0.1167 -0.2746
 1093SOL     OW14911   1.782   2.028   2.424  0.5019  0.4570  0.0546
 1093SOL    HW114912   1.854   2.032   2.361 -1.1989  2.1615 -1.7996
 1093SOL    HW214913   1.785   2.117   2.458 -1.0906  0.6098 -0.2147
 1094SOL     OW14914   2.688   3.855   0.575 -1.2118 -0.6598  0.6828
 1094SOL    HW114915   2.678   3.904   0.494 -0.0380  1.3074  1.7252
 1094SOL    HW214916   2.744   3.913   0.627  0.5565 -0.5093 -1.3980
 1095SOL     OW14917   0.285   2.412  16.245  0.2075 -0.0409  0.2058
 1095SOL    HW114918   0.354   2.407  16.311  0.6976 -3.0668 -0.5194
 1095SOL    HW214919   0.344   2.372  16.181  1.7947  1.3282  0.8099
 1096SOL     OW14920   4.427   3.869   7.705 -0.3320  0.1341  0.1898
 1096SOL    HW114921   4.460   3.912   7.626 -3.2050  2.5542  0.2968
 1096SOL    HW214922   4.349   3.919   7.729 -0.9884 -0.7858  0.0205
 1097SOL     OW14923   1.361   2.593  11.511  0.0821 -0.2173 -0.1616
 1097SOL    HW114924   1.359   2.561  11.420  0.3942  0.9504 -0.5711
 1097SOL    HW214925   1.267   2.609  11.525 -0.3353 -1.9922 -0.8645
 1098SOL     OW14926   2.167   3.484   1.647  0.0698  0.3818  0.2384
 1098SOL    HW114927   2.191   3.499   1.555 -0.1933  0.3126  0.1584
 1098SOL    HW214928   2.072   3.467   1.648 -0.1705  1.7487  1.1801
 1099SOL     OW14929   0.638   4.523   1.907  0.8014  0.1011  0.3868
 1099SOL    HW114930   0.551   4.504   1.873 -0.3576  1.3592  2.5953
 1099SOL    HW214931   0.625   4.606   1.954 -0.1464  0.7653 -1.0423
 1100SOL     OW14932   1.127   0.581   8.346 -0.3272  0.4608  0.5278
 1100SOL    HW114933   1.082   0.528   8.281  0.6283 -1.0392  1.0923
 1100SOL    HW214934   1.063   0.572   8.416  1.2418 -3.2979  1.4379
 1101SOL     OW14935   3.812   4.335   5.665 -0.0396  0.0015  0.4523
 1101SOL    HW114936   3.735   4.367   5.619  0.5098 -1.8825 -1.7551
 1101SOL    HW214937   3.884   4.352   5.605 -1.4179 -0.2745 -1.2747
 1102SOL     OW14938   4.366   2.602   8.332 -0.0835  0.2301  0.0294
 1102SOL    HW114939   4.309   2.628   8.260  0.9308 -2.0604 -1.5988
 1102SOL    HW214940   4.453   2.627   8.299 -0.9331  1.0207 -1.5629
 1103SOL     OW14941   4.219   3.433  10.866 -0.2059  0.0862  0.3604
 1103SOL    HW114942   4.261   3.418  10.781 -1.0117  0.6888 -0.1396
 1103SOL    HW214943   4.129   3.444  10.834  0.2072  0.1644 -0.7462
 1104SOL     OW14944   1.686   4.450   0.669 -0.0612 -0.5488  0.1594
 1104SOL    HW114945   1.755   4.502   0.627 -0.3304  1.2760  1.9612
 1104SOL    HW214946   1.617   4.465   0.604 -0.4925  0.1891  0.7938
 1105SOL     OW14947   2.562   4.502   8.968  0.0225 -0.0311 -0.0022
 1105SOL    HW114948   2.559   4.501   9.064  0.9300 -0.5258  0.0318
 1105SOL    HW214949   2.491   4.438   8.966 -2.3145  2.6175 -0.3983
 1106SOL     OW14950   1.184   3.790   0.183  0.2869 -0.0602 -0.4285
 1106SOL    HW114951   1.162   3.815   0.273 -1.4266  1.8193 -1.3746
 1106SOL    HW214952   1.276   3.772   0.198  0.3069 -0.6565 -1.2436
 1107SOL     OW14953   3.556   3.670   5.936  0.0993  0.3572 -0.6055
 1107SOL    HW114954   3.626   3.715   5.982  0.0776 -1.3775  1.1238
 1107SOL    HW214955   3.478   3.686   5.989  0.7212  0.3392  0.3142
 1108SOL     OW14956   2.876   0.475   3.116  0.1444  0.2266 -0.2113
 1108SOL    HW114957   2.950   0.415   3.106  2.8504  3.6626 -0.8376
 1108SOL    HW214958   2.844   0.485   3.026 -0.5365  0.8845  0.1086
 1109SOL     OW14959   0.898   4.428   6.391  0.3374 -0.0320 -0.0812
 1109SOL    HW114960   0.883   4.412   6.298  0.3219 -1.8857  0.2281
 1109SOL    HW214961   0.804   4.433   6.412  1.1140  5.7087  2.0560
 1110SOL     OW14962   3.383   1.105   7.640 -0.4945 -0.2271 -0.1004
 1110SOL    HW114963   3.468   1.077   7.675 -0.0628 -0.5265 -1.3816
 1110SOL    HW214964   3.416   1.128   7.553  0.6720 -0.4616  0.2793
 1111SOL     OW14965   1.968   0.998  14.248 -0.2416  0.2456  0.4639
 1111SOL    HW114966   1.935   1.021  14.335  0.9134  0.4941  0.8242
 1111SOL    HW214967   2.009   0.912  14.254 -1.9783 -0.7368 -1.5304
 1112SOL     OW14968   0.716   0.393   3.229  0.3096  0.7201  0.2957
 1112SOL    HW114969   0.725   0.305   3.266 -1.2657  1.1897  1.8026
 1112SOL    HW214970   0.807   0.415   3.210  0.2380 -0.6600 -1.6821
 1113SOL     OW14971   1.086   4.154   7.009  0.3938  0.9367 -0.0416
 1113SOL    HW114972   1.085   4.102   6.929  2.0519 -0.2769  0.7184
 1113SOL    HW214973   0.993   4.145   7.031  0.8228  3.5477  2.8914
 1114SOL     OW14974   4.650   1.087   8.613  0.5318  0.0213 -0.1128
 1114SOL    HW114975   4.633   1.176   8.642  0.8444  0.2554 -0.6368
 1114SOL    HW214976   0.000   1.092   8.571 -0.3124  1.1721 -1.6796
 1115SOL     OW14977   1.595   2.224   8.306 -0.0564 -0.2242  0.2129
 1115SOL    HW114978   1.553   2.277   8.374 -0.0466 -0.4768  0.4185
 1115SOL    HW214979   1.523   2.216   8.243 -0.5474  0.0697  0.7365
 1116SOL     OW14980   1.785   0.317  15.898  0.2857 -0.5380  0.4351
 1116SOL    HW114981   1.753   0.255  15.963 -1.0685  0.8343  1.0755
 1116SOL    HW214982   1.705   0.346  15.854  0.8004 -0.5630 -0.5139
 1117SOL     OW14983   1.484   1.574   7.012 -0.0282  0.0545  0.0797
 1117SOL    HW114984   1.403   1.549   6.969 -0.4344 -2.0834  2.0719
 1117SOL    HW214985   1.475   1.667   6.992  0.2086  0.0386 -0.1094
 1118SOL     OW14986   1.773   4.620   3.076  0.3192  0.7836  0.1489
 1118SOL    HW114987   1.809   4.579   3.155 -0.5219 -0.8692 -0.3221
 1118SOL    HW214988   1.694   4.662   3.112 -1.6681 -2.3724 -0.5546
 1119SOL     OW14989   2.390   3.211   9.743 -0.2493 -0.0900  0.9261
 1119SOL    HW114990   2.482   3.236   9.730 -0.3114  0.3430  1.3286
 1119SOL    HW214991   2.351   3.259   9.670 -1.5886 -2.3890  0.1041
 1120SOL     OW14992   3.858   0.525   2.908  0.2735  0.8239 -0.2882
 1120SOL    HW114993   3.894   0.580   2.838 -0.4951  1.8145  0.1003
 1120SOL    HW214994   3.808   0.457   2.864  0.9224  0.6282 -0.7182
 1121SOL     OW14995   1.881   4.657  11.348 -0.3979 -0.0295 -1.0465
 1121SOL    HW114996   1.943   4.625  11.413 -0.2291  1.5182 -0.4361
 1121SOL    HW214997   1.843   4.580  11.306 -0.7510 -0.8209  0.7557
 1122SOL     OW14998   2.656   0.430   1.446 -0.3146 -0.0927  0.2323
 1122SOL    HW114999   2.717   0.420   1.373 -0.3964  1.4158 -0.0446
 1122SOL    HW215000   2.710   0.464   1.518  0.5611  2.8214 -1.7918
 1123SOL     OW15001   0.757   0.198   1.680  0.3409  0.4137  0.4081
 1123SOL    HW115002   0.785   0.207   1.589  0.4861  1.1901  0.5303
 1123SOL    HW215003   0.730   0.288   1.698 -1.0732  0.1070 -0.2282
 1124SOL     OW15004   4.566   2.698   6.953 -0.4785  0.5890 -0.0016
 1124SOL    HW115005   4.504   2.627   6.969 -1.1333  1.6373  2.2043
 1124SOL    HW215006   4.606   2.670   6.871 -0.4331 -0.3652  0.3396
 1125SOL     OW15007   1.136   1.542   6.556  0.1482 -0.0601 -0.7432
 1125SOL    HW115008   1.208   1.581   6.505  0.8923 -0.9188 -0.3390
 1125SOL    HW215009   1.136   1.456   6.513 -1.1927 -0.4060 -0.0413
 1126SOL     OW15010   1.324   0.520   7.611 -0.4843  0.5826  0.0109
 1126SOL    HW115011   1.309   0.523   7.705 -1.6316 -0.8209 -0.1318
 1126SOL    HW215012   1.252   0.573   7.578 -0.0926  0.3650 -1.2017
 1127SOL     OW15013   2.855   0.211   7.682  0.0620  0.4187 -0.4848
 1127SOL    HW115014   2.913   0.139   7.656 -2.0152 -1.9032  1.3198
 1127SOL    HW215015   2.831   0.183   7.770  1.1574  2.2166  0.3895
 1128SOL     OW15016   3.300   1.087   8.177  0.3448 -0.0026  0.2895
 1128SOL    HW115017   3.233   1.099   8.109  0.7166  0.3580 -0.0076
 1128SOL    HW215018   3.320   0.996   8.158  2.6020  0.4898  0.3540
 1129SOL     OW15019   1.092   0.425   4.441 -0.3763  0.3366 -0.0241
 1129SOL    HW115020   1.083   0.424   4.345 -0.8858  0.0950  0.0275
 1129SOL    HW215021   1.091   0.332   4.460 -3.5066  0.1886 -0.9517
 1130SOL     OW15022   3.966   2.488   6.979 -0.3075 -0.7457 -0.0282
 1130SOL    HW115023   3.900   2.549   6.948  1.4163  1.3479  0.4035
 1130SOL    HW215024   3.987   2.520   7.067 -0.1537 -1.3117  0.1423
 1131SOL     OW15025   4.285   4.294   8.993 -0.4055 -0.0840  0.6286
 1131SOL    HW115026   4.311   4.356   8.925  0.8647  0.2239  1.3920
 1131SOL    HW215027   4.297   4.214   8.943 -0.5513  1.1022 -1.3003
 1132SOL     OW15028   3.983   0.762   4.518 -0.0209 -0.1509 -0.2393
 1132SOL    HW115029   3.949   0.690   4.571 -0.9123 -1.4042 -2.5338
 1132SOL    HW215030   3.906   0.805   4.481 -1.3940 -1.8479  0.6722
 1133SOL     OW15031   1.392   0.819   5.531  0.2724 -0.2020  0.0089
 1133SOL    HW115032   1.346   0.766   5.466  0.8236 -1.2034  0.4324
 1133SOL    HW215033   1.459   0.753   5.549 -0.6572 -0.4125  2.5957
 1134SOL     OW15034   2.231   1.046   2.019  0.1718  0.2983 -0.0643
 1134SOL    HW115035   2.211   1.061   2.112 -0.3394  1.1874 -0.3174
 1134SOL    HW215036   2.242   1.136   1.987 -0.6140  0.3903 -0.0923
 1135SOL     OW15037   3.747   4.522   5.345  0.2165 -0.2198  0.0501
 1135SOL    HW115038   3.774   4.434   5.371  0.4898 -0.0965  0.1861
 1135SOL    HW215039   3.814   4.548   5.281  0.4299 -2.5301 -0.6507
 1136SOL     OW15040   1.870   1.010   8.271  0.8472 -0.1234  0.6402
 1136SOL    HW115041   1.893   0.997   8.179  0.1681 -2.2248  0.7818
 1136SOL    HW215042   1.785   1.052   8.257  0.0786 -2.5712 -1.9481
 1137SOL     OW15043   1.864   0.812   0.767 -0.3257  0.3591 -0.6955
 1137SOL    HW115044   1.878   0.896   0.810 -1.7296 -0.2797  1.0363
 1137SOL    HW215045   1.806   0.760   0.823  1.2423  0.0365  0.6402
 1138SOL     OW15046   1.157   1.707   5.904  0.5849 -0.1391  0.0540
 1138SOL    HW115047   1.132   1.781   5.850 -0.4891 -0.5729 -0.0364
 1138SOL    HW215048   1.239   1.732   5.947  1.3515 -0.4752 -1.1853
 1139SOL     OW15049   0.602   0.264   7.784 -0.0256 -0.1096 -0.2101
 1139SOL    HW115050   0.650   0.287   7.864  2.0517 -4.6957 -0.0718
 1139SOL    HW215051   0.518   0.225   7.807  0.3132 -0.5870  0.2379
 1140SOL     OW15052   1.685   3.582   2.104 -0.4116 -0.1274 -0.1247
 1140SOL    HW115053   1.681   3.498   2.149 -0.1644 -0.8204 -1.3968
 1140SOL    HW215054   1.728   3.623   2.179 -1.3579  2.5989 -1.0699
 1141SOL     OW15055   0.841   0.484   4.004 -0.3424 -0.6546  0.9163
 1141SOL    HW115056   0.771   0.548   4.020 -0.0152  0.6069 -2.8307
 1141SOL    HW215057   0.787   0.409   3.979  1.5242 -1.6536 -0.1187
 1142SOL     OW15058   1.411   3.592   3.210  0.4265  0.1625  0.5887
 1142SOL    HW115059   1.441   3.595   3.119 -1.5960  1.4973 -0.0312
 1142SOL    HW215060   1.385   3.501   3.225  0.4258  0.1878  0.7335
 1143SOL     OW15061   4.340   3.480  12.850 -0.8371  0.4258 -0.3156
 1143SOL    HW115062   4.429   3.517  12.855  1.0601 -4.0516 -1.1420
 1143SOL    HW215063   4.329   3.480  12.755 -1.2280  2.5961 -0.2849
 1144SOL     OW15064   0.680   2.801  11.909  0.0127 -0.4058 -0.6073
 1144SOL    HW115065   0.652   2.891  11.926  0.2760 -0.2460 -1.0269
 1144SOL    HW215066   0.600   2.755  11.936 -0.4727  0.4427 -0.6175
 1145SOL     OW15067   0.953   0.147   1.889  0.6711 -0.4634 -0.0706
 1145SOL    HW115068   0.897   0.192   1.826  2.3729  0.4708 -0.9290
 1145SOL    HW215069   0.948   0.064   1.841  2.0476 -0.6698  0.1255
 1146SOL     OW15070   3.665   4.608   1.820  0.0087 -0.0263  0.9241
 1146SOL    HW115071   3.648   4.572   1.906 -3.2911  2.8465  1.4901
 1146SOL    HW215072   3.627   4.539   1.766 -1.7475  0.3878  1.6438
 1147SOL     OW15073   1.659   2.947   3.475  0.2585 -0.0708 -0.6143
 1147SOL    HW115074   1.646   2.868   3.528  1.0426  0.0848 -0.1987
 1147SOL    HW215075   1.753   2.960   3.484  0.1448  0.1539  0.2798
 1148SOL     OW15076   0.855   0.204   3.413  0.4090 -0.2457  0.5142
 1148SOL    HW115077   0.864   0.193   3.507 -0.4539 -2.8873  0.2806
 1148SOL    HW215078   0.942   0.231   3.383 -0.1175  1.3187  0.3776
 1149SOL     OW15079   1.758   2.224   4.297  0.0609  0.1148  0.0377
 1149SOL    HW115080   1.732   2.190   4.382  1.5300 -0.4818  0.2515
 1149SOL    HW215081   1.689   2.290   4.288 -0.6747 -0.4687  1.3610
 1150SOL     OW15082   1.735   4.180  13.330 -0.6917 -0.0364 -0.3600
 1150SOL    HW115083   1.727   4.204  13.237 -1.8343  1.0438  0.0174
 1150SOL    HW215084   1.746   4.264  13.375 -0.0285  0.2773 -1.0913
 1151SOL     OW15085   0.592   0.046  17.383 -0.6511 -0.2565  0.0572
 1151SOL    HW115086   0.526   0.001  17.437 -0.2833 -2.6248 -1.4385
 1151SOL    HW215087   0.591   4.720  17.310  0.0041 -1.1290  0.7831
 1152SOL     OW15088   3.897   2.567   8.438  0.0516  0.2479 -0.0140
 1152SOL    HW115089   3.843   2.535   8.366  0.4865 -0.4891 -0.0178
 1152SOL    HW215090   3.926   2.649   8.398  0.4231 -1.0982 -2.5099
 1153SOL     OW15091   2.546   1.815   0.799  0.4745 -0.2721 -0.2488
 1153SOL    HW115092   2.552   1.766   0.716 -0.1717  2.2345 -1.7879
 1153SOL    HW215093   2.461   1.856   0.783  0.3031 -0.0425  1.3360
 1154SOL     OW15094   0.881   2.494   7.858 -0.1601 -0.2169  0.5428
 1154SOL    HW115095   0.941   2.568   7.857 -0.3468 -0.0596  0.8804
 1154SOL    HW215096   0.932   2.415   7.838 -1.9855 -1.3614  0.3897
 1155SOL     OW15097   1.449   1.622   7.902  0.8013  0.4780  0.3718
 1155SOL    HW115098   1.442   1.550   7.965  4.7652 -0.9330 -0.7869
 1155SOL    HW215099   1.356   1.643   7.899  0.9245  0.7847 -1.0238
 1156SOL     OW15100   4.534   4.473   4.675 -0.3953 -0.0026  0.1900
 1156SOL    HW115101   4.556   4.411   4.606 -0.5649 -0.1802  0.2971
 1156SOL    HW215102   4.466   4.433   4.729 -1.7105  1.4477 -0.3663
 1157SOL     OW15103   4.471   3.557   9.581 -0.1962  0.6813  0.0090
 1157SOL    HW115104   4.509   3.619   9.644  0.9731  0.2628 -0.2912
 1157SOL    HW215105   4.467   3.481   9.638 -1.4664  1.6169  1.1870
 1158SOL     OW15106   1.062   2.900   8.313 -0.0469  0.3643  0.3175
 1158SOL    HW115107   1.085   2.966   8.247 -0.3325  1.9352  1.8062
 1158SOL    HW215108   1.061   2.818   8.264 -2.3610 -0.4160  1.6872
 1159SOL     OW15109   0.032   4.601   2.458 -0.9873 -0.0667  0.0628
 1159SOL    HW115110   0.029   4.505   2.457  1.3781 -0.1346 -0.2201
 1159SOL    HW215111   4.688   4.615   2.409 -1.0341 -2.2495 -0.4869
 1160SOL     OW15112   3.818   0.356   7.036  0.4593 -0.0289  0.1608
 1160SOL    HW115113   3.755   0.407   7.088 -1.3507 -1.7122 -0.3880
 1160SOL    HW215114   3.759   0.316   6.973 -1.7725  1.1772  1.4616
 1161SOL     OW15115   0.485   1.118   6.508  0.1340  0.2771  0.3697
 1161SOL    HW115116   0.520   1.081   6.427  1.8248  0.1700  1.1415
 1161SOL    HW215117   0.542   1.077   6.573 -1.6540  2.3338  3.2215
 1162SOL     OW15118   3.283   4.080   2.850 -0.1677 -0.3295  0.0507
 1162SOL    HW115119   3.260   4.021   2.921 -2.0490 -0.6936 -0.8590
 1162SOL    HW215120   3.279   4.162   2.900 -1.9370  0.2954 -1.1016
 1163SOL     OW15121   3.387   4.400   9.424  0.0596  0.2381  0.0620
 1163SOL    HW115122   3.403   4.378   9.332  0.5315  1.4175 -0.1270
 1163SOL    HW215123   3.467   4.358   9.457  0.0440 -0.1768 -0.4214
 1164SOL     OW15124   0.488   4.015   0.774 -0.5050 -0.1506  0.2627
 1164SOL    HW115125   0.545   3.942   0.750 -2.3060 -1.0698 -1.2596
 1164SOL    HW215126   0.423   3.973   0.831 -0.7341  0.9376  0.8127
 1165SOL     OW15127   1.990   4.724   1.549 -0.1340 -0.2363 -1.1249
 1165SOL    HW115128   1.914   0.043   1.568 -1.5354 -1.7902 -2.3287
 1165SOL    HW215129   2.009   0.011   1.458 -0.0041 -0.6525 -1.2000
 1166SOL     OW15130   3.012   2.015   6.649 -0.0592 -0.0691 -0.0755
 1166SOL    HW115131   3.100   1.977   6.639 -0.8593 -2.0988  0.5769
 1166SOL    HW215132   3.032   2.087   6.709 -1.8379  0.7925 -0.5458
 1167SOL     OW15133   4.583   1.495   9.659  0.0512 -0.0180 -0.0739
 1167SOL    HW115134   4.501   1.495   9.610 -0.0911  1.3743  0.1795
 1167SOL    HW215135   4.650   1.519   9.594  0.4129 -1.5583 -0.2900
 1168SOL     OW15136   0.188   1.921   5.852  0.1783  0.0304 -0.3237
 1168SOL    HW115137   0.206   1.827   5.843  1.3639  0.3324 -1.1763
 1168SOL    HW215138   0.245   1.941   5.927 -1.7799  1.2351  0.8401
 1169SOL     OW15139   4.483   1.825   4.755  1.0368 -0.2577 -0.0312
 1169SOL    HW115140   4.464   1.912   4.719  1.2434 -0.4141 -0.5216
 1169SOL    HW215141   4.495   1.775   4.674 -0.1858  1.7677 -1.4679
 1170SOL     OW15142   1.426   1.948  12.070 -0.3104  0.6738 -0.4107
 1170SOL    HW115143   1.504   1.910  12.111 -0.0986 -0.0256 -1.4553
 1170SOL    HW215144   1.449   1.943  11.977 -0.4192 -0.4492 -0.3823
 1171SOL     OW15145   2.913   4.240   8.496 -0.4863 -0.2632  0.3686
 1171SOL    HW115146   2.821   4.262   8.488 -0.1387  1.1800  0.3572
 1171SOL    HW215147   2.928   4.273   8.585 -2.4243  2.2038 -0.2385
 1172SOL     OW15148   2.260   1.605   6.210 -0.2217 -0.4293 -0.0865
 1172SOL    HW115149   2.314   1.678   6.181 -1.8148  0.8283  0.0954
 1172SOL    HW215150   2.226   1.633   6.296  0.9492  2.5510 -0.6069
 1173SOL     OW15151   3.097   3.603   6.174 -0.0821  0.1831 -0.1863
 1173SOL    HW115152   3.071   3.695   6.168  2.3693  0.8667 -0.3056
 1173SOL    HW215153   3.180   3.605   6.222  0.7359  1.6485 -1.6905
 1174SOL     OW15154   2.451   0.218   3.321  0.1823 -0.2046  0.0857
 1174SOL    HW115155   2.477   0.310   3.321  0.1230 -0.1882  2.2823
 1174SOL    HW215156   2.522   0.184   3.375 -0.1641  1.0715  1.3417
 1175SOL     OW15157   3.140   3.245   6.368  0.5366  0.8629  0.1916
 1175SOL    HW115158   3.103   3.162   6.340  0.5002  1.0235 -0.2336
 1175SOL    HW215159   3.065   3.305   6.364  0.4261  0.6204 -1.4154
 1176SOL     OW15160   0.683   2.980  12.748 -0.2542 -0.2511  0.1060
 1176SOL    HW115161   0.758   2.940  12.792  0.5422  0.2173 -0.8151
 1176SOL    HW215162   0.682   2.923  12.670 -0.9749 -0.5163  0.3079
 1177SOL     OW15163   4.359   3.341   3.940 -0.1306  0.0843  0.1985
 1177SOL    HW115164   4.391   3.323   4.028 -2.3691 -0.9906  0.7784
 1177SOL    HW215165   4.332   3.258   3.900 -0.2233  0.0683  0.2982
 1178SOL     OW15166   0.928   4.269  15.522  0.0311 -0.3026 -0.1082
 1178SOL    HW115167   0.977   4.190  15.501 -0.8675 -0.6590 -0.9155
 1178SOL    HW215168   0.875   4.277  15.442  1.1068  1.9035 -0.5849
 1179SOL     OW15169   1.614   1.684   8.667 -0.5482  0.6282 -0.1502
 1179SOL    HW115170   1.652   1.648   8.747 -0.5422 -1.4914 -1.1110
 1179SOL    HW215171   1.655   1.619   8.611  0.8672  0.1472  1.4598
 1180SOL     OW15172   1.533   2.370   9.947  0.5294 -0.3809 -0.1231
 1180SOL    HW115173   1.514   2.462   9.929  1.3226 -0.1912  0.0269
 1180SOL    HW215174   1.621   2.377   9.910  0.7152  1.1423  0.5974
 1181SOL     OW15175   2.674   4.148   2.580 -0.5006  0.2291 -0.0397
 1181SOL    HW115176   2.675   4.244   2.578 -1.4677  0.2576  0.9802
 1181SOL    HW215177   2.581   4.126   2.577 -0.7645  1.4448 -0.8406
 1182SOL     OW15178   4.066   2.632   3.552  0.1602  0.0552 -0.4647
 1182SOL    HW115179   3.983   2.593   3.522  0.6358 -4.9463  4.7971
 1182SOL    HW215180   4.037   2.723   3.549  0.9041  0.3048  0.0276
 1183SOL     OW15181   0.239   4.632  10.075 -0.5274  0.5326 -1.2481
 1183SOL    HW115182   0.306   4.697  10.051 -0.0765  0.4893 -0.0752
 1183SOL    HW215183   0.296   4.554  10.071 -0.8229  0.3497 -2.1014
 1184SOL     OW15184   1.034   3.755  11.736  0.2636  0.8581  1.1314
 1184SOL    HW115185   1.062   3.702  11.811 -2.8353 -3.3837 -0.6873
 1184SOL    HW215186   0.953   3.798  11.761 -0.1650  0.9682 -0.4255
 1185SOL     OW15187   0.111   2.962  11.700 -0.5156  0.5458 -0.3322
 1185SOL    HW115188   0.051   3.034  11.720 -0.3692  0.0847  1.7325
 1185SOL    HW215189   0.166   3.011  11.638  2.0947 -1.3909  0.4686
 1186SOL     OW15190   1.217   0.308   2.722 -0.5614  0.2943  0.4222
 1186SOL    HW115191   1.185   0.221   2.701  0.0406  0.0869  0.3684
 1186SOL    HW215192   1.200   0.369   2.650  1.0529 -1.4978 -1.4808
 1187SOL     OW15193   3.751   0.621  16.062 -0.0845 -0.5519  0.0279
 1187SOL    HW115194   3.815   0.672  16.014  0.1223  1.1412  2.0954
 1187SOL    HW215195   3.765   0.536  16.019 -0.7177  1.1303 -3.4941
 1188SOL     OW15196   0.577   3.639   6.108 -0.1216 -0.2532 -0.3487
 1188SOL    HW115197   0.593   3.690   6.028  0.8784  1.3686  0.8910
 1188SOL    HW215198   0.626   3.692   6.170  0.2669 -1.2561  0.2042
 1189SOL     OW15199   1.650   1.651   7.241 -0.2885  0.3602 -0.5454
 1189SOL    HW115200   1.640   1.745   7.256 -1.6745  0.1885 -0.3770
 1189SOL    HW215201   1.586   1.635   7.173 -0.3289 -0.8672 -0.2121
 1190SOL     OW15202   4.050   0.095  14.950 -1.1785 -0.4026  0.6470
 1190SOL    HW115203   3.957   0.116  14.957 -0.9370  1.3429 -1.3504
 1190SOL    HW215204   4.060   0.062  15.039 -2.1763  4.1807  2.4471
 1191SOL     OW15205   4.535   1.294   3.838  0.0768  0.7219 -0.5209
 1191SOL    HW115206   4.516   1.388   3.839  0.5219  0.8034  0.3054
 1191SOL    HW215207   4.468   1.256   3.895  0.8494  1.9736  1.2508
 1192SOL     OW15208   0.380   1.902   6.055  0.6278  0.4517 -0.7911
 1192SOL    HW115209   0.405   1.836   6.120  1.1057  0.0466 -1.3877
 1192SOL    HW215210   0.454   1.961   6.073  0.5714  0.7570 -1.5644
 1193SOL     OW15211   1.104   3.171   8.657  0.1639  0.1614 -0.0551
 1193SOL    HW115212   1.107   3.201   8.748  0.1874  1.2148 -0.4116
 1193SOL    HW215213   1.134   3.080   8.658 -0.1681  0.0365 -1.2500
 1194SOL     OW15214   0.305   3.701   5.172  0.7908 -0.3184 -0.4615
 1194SOL    HW115215   0.262   3.767   5.117 -1.1356  0.3820  1.8639
 1194SOL    HW215216   0.396   3.724   5.153  1.1584 -2.1917 -0.9727
 1195SOL     OW15217   3.883   2.567   2.711 -0.2057 -0.1894 -0.0498
 1195SOL    HW115218   3.801   2.521   2.693  0.3937 -0.8262 -1.0981
 1195SOL    HW215219   3.866   2.590   2.803 -0.5589  1.6258 -0.5586
 1196SOL     OW15220   3.461   1.975   3.400 -0.5455 -0.0280  0.6389
 1196SOL    HW115221   3.471   2.062   3.360  1.8093 -0.4425  0.3082
 1196SOL    HW215222   3.376   1.993   3.439 -1.2235  0.0403 -0.8490
 1197SOL     OW15223   4.605   2.737   0.997 -0.8866 -0.0569  0.1647
 1197SOL    HW115224   4.656   2.661   0.968 -1.0539 -0.2955  0.5029
 1197SOL    HW215225   4.526   2.703   1.038 -1.6343  3.0381  1.3030
 1198SOL     OW15226   3.605   0.123   1.891 -0.2495  0.4437 -0.0337
 1198SOL    HW115227   3.639   0.042   1.852 -2.4378 -0.2091 -0.5598
 1198SOL    HW215228   3.540   0.153   1.828  0.1688 -1.0239 -1.1702
 1199SOL     OW15229   1.318   4.026   6.096  0.4735 -0.5175  0.2947
 1199SOL    HW115230   1.338   4.118   6.081 -0.8063 -0.0134  1.7742
 1199SOL    HW215231   1.372   3.985   6.028 -0.3878 -0.1613 -0.6059
 1200SOL     OW15232   1.104   0.943   4.269  0.2349 -0.4804  0.0270
 1200SOL    HW115233   1.037   0.878   4.291  0.3932 -0.2792  1.1220
 1200SOL    HW215234   1.155   0.886   4.212  0.3179 -0.5522  0.1730
 1201SOL     OW15235   4.536   1.475   8.004 -0.2986 -1.1678  0.0537
 1201SOL    HW115236   4.569   1.556   7.966 -1.1813 -0.5658  0.5466
 1201SOL    HW215237   4.575   1.484   8.091 -0.2871  0.4719 -0.1158
 1202SOL     OW15238   2.761   0.552   2.886  0.4793  0.1239  0.1816
 1202SOL    HW115239   2.706   0.521   2.814  1.1826 -0.8767  0.0727
 1202SOL    HW215240   2.761   0.646   2.871 -0.5393  0.4127  1.9816
 1203SOL     OW15241   3.220   2.763   5.289  0.1639 -0.3436  0.2285
 1203SOL    HW115242   3.237   2.857   5.285 -1.0025 -0.1609 -0.3960
 1203SOL    HW215243   3.172   2.757   5.371 -0.4609  1.6212 -0.0026
 1204SOL     OW15244   4.518   1.181  13.185 -0.0421  0.3275 -0.9513
 1204SOL    HW115245   4.473   1.247  13.133  0.3421  2.1863  1.0738
 1204SOL    HW215246   4.554   1.236  13.254 -2.4236  2.2841 -1.2532
 1205SOL     OW15247   1.160   0.764  14.998 -0.4905  0.5161  0.5354
 1205SOL    HW115248   1.080   0.720  15.024 -0.2197 -0.2270  0.1137
 1205SOL    HW215249   1.220   0.746  15.070  0.0711  1.1974  0.2433
 1206SOL     OW15250   0.813   0.414  16.191  0.0045 -0.0277 -0.1989
 1206SOL    HW115251   0.838   0.349  16.257 -1.5460  0.8903  1.2845
 1206SOL    HW215252   0.856   0.383  16.112 -2.0265 -0.6798 -1.0464
 1207SOL     OW15253   0.007   4.243   2.855  0.0901  0.0529 -0.5199
 1207SOL    HW115254   0.021   4.329   2.815  0.0811  0.7382  0.9561
 1207SOL    HW215255   4.712   4.267   2.942 -2.1015  0.2179 -1.3355
 1208SOL     OW15256   1.915   1.515   1.027  0.3962  0.4578 -0.3880
 1208SOL    HW115257   1.938   1.606   1.044  2.0224 -0.1296  0.6172
 1208SOL    HW215258   1.975   1.467   1.085 -0.3110  1.5559  1.2458
 1209SOL     OW15259   0.245   3.042   8.869 -0.1421  0.0787 -0.2986
 1209SOL    HW115260   0.298   2.966   8.892  0.8710  1.4530  1.8796
 1209SOL    HW215261   0.256   3.110   8.935  0.0930 -0.8126  0.5770
 1210SOL     OW15262   0.384   2.972   2.708 -0.0304 -0.1632 -0.0133
 1210SOL    HW115263   0.338   3.010   2.783  2.7144  0.6041  1.2994
 1210SOL    HW215264   0.475   2.986   2.735  0.5745  0.2202 -2.2493
 1211SOL     OW15265   1.814   0.893   7.055 -0.4782  0.2735 -0.7542
 1211SOL    HW115266   1.756   0.898   6.980  0.5163  1.1317 -1.4718
 1211SOL    HW215267   1.813   0.799   7.072  1.2981  0.2211 -0.8653
 1212SOL     OW15268   4.553   2.671   4.729 -0.3104  0.3837  0.6608
 1212SOL    HW115269   4.594   2.593   4.767 -0.5937  0.3693  0.9386
 1212SOL    HW215270   4.477   2.695   4.782 -0.3539  0.9362  0.3438
 1213SOL     OW15271   0.797   4.524  15.379 -0.7372  0.3135  0.2167
 1213SOL    HW115272   0.745   4.487  15.308 -0.4608 -0.9822  0.6903
 1213SOL    HW215273   0.884   4.490  15.359 -1.1427 -2.5244  3.1855
 1214SOL     OW15274   2.605   4.372  10.137 -0.3389  0.2934  0.1847
 1214SOL    HW115275   2.578   4.441  10.198 -2.1596 -0.1898 -0.0990
 1214SOL    HW215276   2.592   4.299  10.197  1.7167  0.2051  0.5499
 1215SOL     OW15277   0.763   3.654   2.607 -0.1785 -0.5566  0.1698
 1215SOL    HW115278   0.780   3.560   2.604 -0.5210 -0.5246 -2.5798
 1215SOL    HW215279   0.714   3.665   2.689  2.6022  1.1340  1.5763
 1216SOL     OW15280   1.730   0.656   4.239 -0.6956  0.1116  0.2240
 1216SOL    HW115281   1.818   0.671   4.205 -0.6369  0.8406  0.7021
 1216SOL    HW215282   1.695   0.744   4.226 -0.8949 -0.0540 -0.3936
 1217SOL     OW15283   0.607   0.419   6.456  0.5922 -0.0261  0.1347
 1217SOL    HW115284   0.683   0.384   6.502  0.6296  1.3041  1.0928
 1217SOL    HW215285   0.655   0.496   6.425 -0.1766  0.7197  0.8006
 1218SOL     OW15286   1.230   4.237   8.038 -0.3711 -0.2455 -0.4857
 1218SOL    HW115287   1.269   4.300   8.098  2.3707  0.0424 -2.5224
 1218SOL    HW215288   1.158   4.212   8.095  0.1905 -1.8356 -0.4745
 1219SOL     OW15289   3.319   4.364   5.382  0.1960 -0.1518 -0.2057
 1219SOL    HW115290   3.271   4.425   5.326  0.8966  0.4715 -0.1342
 1219SOL    HW215291   3.337   4.291   5.322 -3.1658 -0.3237 -1.0036
 1220SOL     OW15292   3.443   4.118  10.216 -0.3257  0.5940 -0.3701
 1220SOL    HW115293   3.437   4.174  10.294 -2.4822 -1.4172  0.8895
 1220SOL    HW215294   3.351   4.097  10.203  0.6234 -2.0375 -2.9422
 1221SOL     OW15295   1.542   2.361  13.187  0.3359 -0.4295  0.5291
 1221SOL    HW115296   1.498   2.388  13.107  0.5448 -2.6430 -0.3426
 1221SOL    HW215297   1.495   2.277  13.193 -1.3193  0.3607 -1.1384
 1222SOL     OW15298   0.236   2.069   9.118 -0.3751  0.0624 -0.1308
 1222SOL    HW115299   0.208   2.108   9.201  4.3664 -0.4680  1.7237
 1222SOL    HW215300   0.236   2.142   9.057 -0.3011 -2.0483 -2.6709
 1223SOL     OW15301   2.101   4.705   6.977 -0.1153  0.0964  0.2195
 1223SOL    HW115302   2.032   0.018   6.932 -1.1648  0.4261  2.1954
 1223SOL    HW215303   2.180   0.021   6.957 -0.5703  0.4157 -0.7040
 1224SOL     OW15304   2.246   1.148   5.060  0.0094 -0.0867  0.2238
 1224SOL    HW115305   2.218   1.232   5.095 -0.0199 -0.5159  1.2546
 1224SOL    HW215306   2.193   1.131   4.982  0.9493 -0.6710 -0.2920
 1225SOL     OW15307   1.465   3.951   5.898  0.4963  0.3729 -0.2364
 1225SOL    HW115308   1.487   4.044   5.886 -0.7044  0.3943 -2.4306
 1225SOL    HW215309   1.500   3.913   5.818 -0.1016  1.4388 -1.0130
 1226SOL     OW15310   1.267   3.058   2.524  0.0687 -0.4755 -0.2316
 1226SOL    HW115311   1.237   3.146   2.547 -0.1204 -0.6829  0.3366
 1226SOL    HW215312   1.361   3.066   2.536 -0.0617 -2.1013  1.8442
 1227SOL     OW15313   1.094   1.174   8.145  0.0967 -0.0220  0.0409
 1227SOL    HW115314   1.005   1.190   8.114 -0.3523  1.2095  1.9639
 1227SOL    HW215315   1.139   1.249   8.104 -2.0477 -0.2055 -2.7001
 1228SOL     OW15316   2.156   0.467  12.041  0.1568  0.1625 -0.1317
 1228SOL    HW115317   2.205   0.417  11.976 -0.8332  1.0087 -1.5121
 1228SOL    HW215318   2.075   0.454  11.991  0.1413 -0.4711  0.0554
 1229SOL     OW15319   1.462   4.165  17.020 -0.1122 -0.4901 -0.0151
 1229SOL    HW115320   1.443   4.161  16.926  2.1121 -0.3669 -0.4625
 1229SOL    HW215321   1.510   4.083  17.030  4.4093  1.7831 -2.9337
 1230SOL     OW15322   3.380   1.659   7.925  0.0706 -0.1168  0.1389
 1230SOL    HW115323   3.342   1.615   7.849  1.1223 -1.2612  0.2726
 1230SOL    HW215324   3.358   1.751   7.907  0.9496 -0.0550 -0.6648
 1231SOL     OW15325   4.050   1.300   1.767  0.8303  0.1207  0.1986
 1231SOL    HW115326   4.045   1.393   1.790  1.5478 -0.2416  1.8203
 1231SOL    HW215327   4.047   1.258   1.853  0.4912  0.4015  0.3233
 1232SOL     OW15328   2.329   3.692   4.329  0.1200 -0.0322  0.8884
 1232SOL    HW115329   2.421   3.677   4.351  0.1896 -0.4753  0.3089
 1232SOL    HW215330   2.326   3.700   4.233  0.7405 -0.4012  0.8354
 1233SOL     OW15331   1.584   4.334   4.018 -0.3458  0.2157 -0.0771
 1233SOL    HW115332   1.580   4.362   3.927  0.8875  1.0816  0.1472
 1233SOL    HW215333   1.557   4.242   4.006  1.6516 -0.3802 -0.0314
 1234SOL     OW15334   3.674   0.250   2.134 -0.2933 -0.5685 -0.3096
 1234SOL    HW115335   3.714   0.327   2.093 -0.3402 -0.8375 -0.8678
 1234SOL    HW215336   3.668   0.193   2.057 -0.2874  0.3618 -0.9977
 1235SOL     OW15337   3.246   1.504   3.832 -0.9222 -0.5312 -0.1230
 1235SOL    HW115338   3.158   1.509   3.793 -1.0579  0.5480  0.3227
 1235SOL    HW215339   3.218   1.570   3.895  1.0219 -1.2915  1.5154
 1236SOL     OW15340   3.824   2.853   2.412 -0.4661 -0.1188  0.2671
 1236SOL    HW115341   3.736   2.854   2.450 -0.4541  0.9488  0.2860
 1236SOL    HW215342   3.825   2.766   2.372 -2.6777  0.0221 -0.0737
 1237SOL     OW15343   4.703   1.224   2.806  0.4721 -0.0570  0.3322
 1237SOL    HW115344   4.717   1.285   2.879 -0.4176  0.2842  0.2229
 1237SOL    HW215345   0.053   1.188   2.785  0.5808  0.9711 -0.9641
 1238SOL     OW15346   0.277   2.349   8.211  0.5936 -0.4830 -0.0870
 1238SOL    HW115347   0.188   2.380   8.227  1.0987  1.7946 -1.5855
 1238SOL    HW215348   0.264   2.304   8.128 -0.6180  0.4829 -0.4092
 1239SOL     OW15349   2.190   1.669   8.013 -0.5034 -0.1863  0.0563
 1239SOL    HW115350   2.264   1.627   7.970 -2.1750 -1.8972 -1.1649
 1239SOL    HW215351   2.245   1.742   8.041 -0.2699 -0.6905  0.9093
 1240SOL     OW15352   4.285   4.190   2.968 -0.2458  0.2886  0.1553
 1240SOL    HW115353   4.329   4.198   2.884 -1.1400 -0.0108 -0.3419
 1240SOL    HW215354   4.260   4.098   2.963 -0.3936  0.3042  0.5663
 1241SOL     OW15355   2.670   2.078   8.557  0.3175 -0.0167  0.8774
 1241SOL    HW115356   2.723   2.153   8.581 -0.9873  1.2969 -0.3458
 1241SOL    HW215357   2.688   2.024   8.634 -1.1102 -2.2321 -0.3212
 1242SOL     OW15358   0.197   0.534   6.746  0.3945 -0.1368 -0.0992
 1242SOL    HW115359   0.174   0.544   6.838 -1.2245  0.6160 -0.5938
 1242SOL    HW215360   0.261   0.464   6.762 -1.5645 -2.1357 -0.9814
 1243SOL     OW15361   0.928   3.733   1.419 -0.1678 -0.4125 -0.1569
 1243SOL    HW115362   0.839   3.769   1.419  0.1627  0.3913  0.2536
 1243SOL    HW215363   0.903   3.642   1.402 -2.8724  0.0015  1.4484
 1244SOL     OW15364   0.050   0.406   0.287 -0.0957  0.3459 -0.6250
 1244SOL    HW115365   0.102   0.425   0.365  0.2815  0.5462 -0.9252
 1244SOL    HW215366   4.701   0.390   0.327  0.4802 -0.6850  0.1825
 1245SOL     OW15367   3.544   3.442   7.194  0.3625 -0.1939  0.5849
 1245SOL    HW115368   3.587   3.386   7.129  0.2713 -1.0348  1.2391
 1245SOL    HW215369   3.613   3.504   7.215  0.2162 -0.1516  0.9411
 1246SOL     OW15370   0.187   1.716   6.620  0.0885  0.1607 -0.2685
 1246SOL    HW115371   0.201   1.664   6.699 -4.0013 -0.2205  0.2034
 1246SOL    HW215372   0.111   1.766   6.649  0.3209  1.4086 -1.7631
 1247SOL     OW15373   1.404   2.884   1.189  0.4735  0.0680 -0.7930
 1247SOL    HW115374   1.437   2.919   1.106 -0.6068 -1.9095 -2.0432
 1247SOL    HW215375   1.313   2.909   1.178 -0.1766 -1.4316  1.0382
 1248SOL     OW15376   4.364   1.660   3.095 -0.2170 -0.1378 -0.4104
 1248SOL    HW115377   4.398   1.575   3.122  0.3259  0.8433  2.0007
 1248SOL    HW215378   4.308   1.673   3.172 -0.5765  0.5598 -0.7889
 1249SOL     OW15379   0.773   1.138   1.778 -0.1960 -0.4298  0.4927
 1249SOL    HW115380   0.715   1.100   1.711 -0.8549 -1.6721  1.7785
 1249SOL    HW215381   0.755   1.231   1.764 -0.4958 -0.5626 -0.0247
 1250SOL     OW15382   1.554   1.213   2.872 -0.0529  0.0543 -0.3271
 1250SOL    HW115383   1.592   1.239   2.956  2.8102  1.7237 -2.1129
 1250SOL    HW215384   1.484   1.154   2.900  0.2183  0.2501  0.7732
 1251SOL     OW15385   0.101   4.015  13.096  0.1550  0.0277 -0.5031
 1251SOL    HW115386   0.122   4.026  13.189  4.2304 -0.7658 -1.3277
 1251SOL    HW215387   0.077   4.107  13.085 -1.5733 -0.1579  1.7656
 1252SOL     OW15388   4.698   0.912   4.162  0.0144 -0.1112  0.0222
 1252SOL    HW115389   0.036   0.972   4.150  1.6007 -1.9624  0.5225
 1252SOL    HW215390   4.626   0.964   4.125  0.8806  1.2235  0.2276
 1253SOL     OW15391   2.283   0.345  15.229 -0.6441  0.3838 -1.0975
 1253SOL    HW115392   2.266   0.396  15.309  1.5405 -0.6836  0.0230
 1253SOL    HW215393   2.281   0.252  15.251  0.6037  0.9498  1.4191
 1254SOL     OW15394   1.975   0.380   4.418  0.5681  0.0099 -0.3275
 1254SOL    HW115395   2.039   0.424   4.361 -1.2691  0.6362 -1.8991
 1254SOL    HW215396   1.913   0.356   4.350  0.6509 -0.0875 -0.3688
 1255SOL     OW15397   0.866   1.963   0.145 -0.2935 -0.7941 -0.0658
 1255SOL    HW115398   0.853   2.050   0.182  2.5062 -0.3777 -0.0618
 1255SOL    HW215399   0.866   1.914   0.227  1.2594  0.7320  0.8525
 1256SOL     OW15400   2.800   3.980   1.182 -0.1819 -0.1440  0.0667
 1256SOL    HW115401   2.711   3.947   1.171 -0.4202  0.6951 -0.5833
 1256SOL    HW215402   2.851   3.926   1.122  0.6929  2.0201 -1.1559
 1257SOL     OW15403   2.927   2.266   5.195  0.5838 -0.3890  1.0867
 1257SOL    HW115404   2.901   2.307   5.113  1.2831  0.9849  1.5490
 1257SOL    HW215405   2.852   2.207   5.205 -0.2615  0.6504  0.7894
 1258SOL     OW15406   1.203   0.787   6.105 -0.4802  0.0803 -0.3057
 1258SOL    HW115407   1.142   0.826   6.042 -1.5911  0.8767  1.2507
 1258SOL    HW215408   1.278   0.763   6.051 -0.1623  0.5750 -0.0782
 1259SOL     OW15409   3.053   3.695  14.500 -0.3669 -0.2930  0.7919
 1259SOL    HW115410   3.045   3.642  14.579 -0.1446 -0.5344  0.6514
 1259SOL    HW215411   2.996   3.643  14.443  0.1274 -1.3657  1.2800
 1260SOL     OW15412   0.008   4.425   2.228  0.7763  0.1027  0.2204
 1260SOL    HW115413   4.657   4.388   2.240 -0.2428  1.8082 -1.8536
 1260SOL    HW215414   0.022   4.418   2.133 -0.8467  1.1177 -0.0911
 1261SOL     OW15415   4.214   4.714   8.876 -0.3739  0.5528  0.4259
 1261SOL    HW115416   4.164   4.706   8.957  0.3589 -0.9430  0.7188
 1261SOL    HW215417   4.151   4.716   8.804 -1.2591 -2.4204  1.1460
 1262SOL     OW15418   3.804   0.075   8.301  0.1645  0.0885  0.6852
 1262SOL    HW115419   3.895   0.105   8.291 -0.3246  1.3271  0.0118
 1262SOL    HW215420   3.769   0.108   8.218  0.6388 -0.6131  0.1952
 1263SOL     OW15421   3.266   4.261   7.766  0.6317  0.0152 -0.8466
 1263SOL    HW115422   3.184   4.307   7.750  0.9527  0.2340 -1.8782
 1263SOL    HW215423   3.306   4.336   7.811  0.5725 -0.5723  0.1746
 1264SOL     OW15424   2.405   1.647   7.325  0.1797 -0.5392  0.2715
 1264SOL    HW115425   2.341   1.580   7.301  1.2787 -1.6375  0.4191
 1264SOL    HW215426   2.336   1.714   7.324  0.5770 -0.1671 -1.9314
 1265SOL     OW15427   4.693   0.959   1.921  0.2305  0.6423  0.0888
 1265SOL    HW115428   0.036   0.997   1.882 -0.7121 -0.0681 -2.5033
 1265SOL    HW215429   4.726   0.869   1.912 -2.0011 -0.0570 -1.1798
 1266SOL     OW15430   3.062   1.428   8.134  0.2635 -0.1865  0.0737
 1266SOL    HW115431   3.087   1.449   8.044 -1.5829  0.5805 -0.2705
 1266SOL    HW215432   2.997   1.362   8.110 -0.2084  0.7827 -1.3252
 1267SOL     OW15433   2.263   4.402   4.640  0.3194 -0.0152 -0.3282
 1267SOL    HW115434   2.346   4.375   4.678 -0.3877 -0.9664  0.5642
 1267SOL    HW215435   2.231   4.475   4.693 -0.1246  0.3295 -1.0708
 1268SOL     OW15436   4.175   0.495  12.753  0.4601  0.1630 -0.1444
 1268SOL    HW115437   4.259   0.540  12.747  0.4754  0.4763  2.8770
 1268SOL    HW215438   4.201   0.448  12.832 -0.5681 -1.4230 -0.7523
 1269SOL     OW15439   0.574   0.896   1.692  0.1856  0.2515  0.7042
 1269SOL    HW115440   0.621   0.852   1.621 -1.2129 -2.6120  1.5421
 1269SOL    HW215441   0.567   0.827   1.758 -0.2573 -0.3214  0.0489
 1270SOL     OW15442   0.033   0.869  12.720 -0.0248 -0.5566 -0.1470
 1270SOL    HW115443   0.014   0.837  12.808  1.5507 -2.8074 -0.6317
 1270SOL    HW215444   0.014   0.963  12.728  0.8521 -0.6089  2.5588
 1271SOL     OW15445   1.088   1.900   5.230  0.2062 -0.4756 -0.1847
 1271SOL    HW115446   1.031   1.948   5.291  0.3466 -0.5390 -0.0031
 1271SOL    HW215447   1.028   1.838   5.189 -0.7955  1.7185 -2.0352
 1272SOL     OW15448   1.114   0.714  13.241  0.5866 -0.1264 -0.1689
 1272SOL    HW115449   1.163   0.758  13.171  0.2249  1.1888  0.4052
 1272SOL    HW215450   1.100   0.630  13.197  1.0239 -1.6240  2.5697
 1273SOL     OW15451   4.064   3.025   8.784 -0.5702  0.1218 -0.1493
 1273SOL    HW115452   4.068   3.003   8.691 -2.5674  1.6215 -0.5678
 1273SOL    HW215453   4.013   2.949   8.812  0.2016 -0.0239  0.8825
 1274SOL     OW15454   4.576   2.130   7.516 -0.2815 -0.0661  0.0231
 1274SOL    HW115455   4.508   2.188   7.550 -0.2032  0.0577 -0.0359
 1274SOL    HW215456   4.538   2.043   7.529 -1.5866  0.7805  1.8916
 1275SOL     OW15457   3.694   2.432   4.502  0.4059  0.0180 -0.0329
 1275SOL    HW115458   3.761   2.434   4.570  0.5816  0.2685 -0.2156
 1275SOL    HW215459   3.609   2.451   4.543 -0.0365  0.9477 -1.3866
 1276SOL     OW15460   3.942   0.814   5.636  0.3799  0.0022  0.4558
 1276SOL    HW115461   4.033   0.785   5.632  1.5507  3.6430  0.3920
 1276SOL    HW215462   3.937   0.878   5.565 -0.9083  0.3266  0.8424
 1277SOL     OW15463   3.624   1.344   6.643  0.1883  0.4777 -0.2206
 1277SOL    HW115464   3.574   1.384   6.572 -0.3710 -0.0554 -0.1332
 1277SOL    HW215465   3.648   1.423   6.692 -2.6262 -0.2836  2.4262
 1278SOL     OW15466   3.128   3.775   0.269  0.3967 -0.0697 -0.5009
 1278SOL    HW115467   3.117   3.741   0.180  0.1360  1.7794 -1.1586
 1278SOL    HW215468   3.223   3.782   0.274  0.1440  1.5561  2.3915
 1279SOL     OW15469   4.585   3.341   4.850  0.6747  0.2727  0.2671
 1279SOL    HW115470   4.668   3.372   4.814  0.0787  1.9760  0.3562
 1279SOL    HW215471   4.564   3.402   4.921 -0.2979  1.3163 -0.9370
 1280SOL     OW15472   1.185   3.359   6.059  0.3494  0.4740  0.4181
 1280SOL    HW115473   1.172   3.445   6.020  0.2369 -1.0434 -2.9430
 1280SOL    HW215474   1.103   3.342   6.105  0.1924  1.8659  0.6396
 1281SOL     OW15475   1.841   3.898   2.200 -0.1010 -0.5328  0.0975
 1281SOL    HW115476   1.897   3.975   2.202 -1.5995  0.4749  3.1498
 1281SOL    HW215477   1.768   3.939   2.155  1.5674  2.3974  0.0934
 1282SOL     OW15478   1.200   2.122   9.828 -0.4471 -0.3849 -0.0905
 1282SOL    HW115479   1.160   2.041   9.858 -2.9210  0.2655 -1.6072
 1282SOL    HW215480   1.287   2.098   9.859 -1.5749 -0.7616  2.8594
 1283SOL     OW15481   0.016   3.107  11.199 -0.2812  0.2533  0.1745
 1283SOL    HW115482   4.724   3.194  11.172 -0.8266 -0.3123 -1.0700
 1283SOL    HW215483   0.111   3.117  11.186 -0.5888  1.7281 -0.9096
 1284SOL     OW15484   1.780   3.876   8.280  0.6523 -0.0328  0.3295
 1284SOL    HW115485   1.706   3.825   8.249  0.6485  0.2107 -0.0604
 1284SOL    HW215486   1.825   3.878   8.196  1.0881  2.8663  0.6072
 1285SOL     OW15487   2.709   0.091   4.468  0.1419  0.0793  0.1899
 1285SOL    HW115488   2.704   0.171   4.521 -0.9540 -0.3150  0.6817
 1285SOL    HW215489   2.664   0.034   4.531  1.9661  0.1017  1.5064
 1286SOL     OW15490   0.285   3.701   9.547 -0.1827 -0.4344  0.2126
 1286SOL    HW115491   0.287   3.606   9.556  1.7642 -0.5647 -1.6142
 1286SOL    HW215492   0.269   3.705   9.453  1.4984 -0.2078 -0.0656
 1287SOL     OW15493   0.809   0.236  16.403  0.0248 -0.1447  0.2607
 1287SOL    HW115494   0.832   0.244  16.495  0.0888  0.7689  0.1653
 1287SOL    HW215495   0.757   0.156  16.400  0.7465 -0.5313 -2.3564
 1288SOL     OW15496   3.354   4.632   5.107  0.4510 -0.3085  0.1374
 1288SOL    HW115497   3.279   4.622   5.165 -0.6923  1.2102 -1.0748
 1288SOL    HW215498   3.313   4.598   5.027  2.0905 -0.7639 -0.5084
 1289SOL     OW15499   3.992   2.230   2.961  0.0495  0.5078  0.3533
 1289SOL    HW115500   3.912   2.248   2.911  0.9312  0.6331 -1.0206
 1289SOL    HW215501   3.951   2.191   3.038 -0.5650 -1.6209 -1.0536
 1290SOL     OW15502   2.805   0.339   0.581  0.2733 -0.2923  0.4236
 1290SOL    HW115503   2.733   0.385   0.540  1.4415 -0.1671 -1.4770
 1290SOL    HW215504   2.834   0.284   0.508 -2.5242 -0.6038 -0.4471
 1291SOL     OW15505   3.359   0.006   8.954  0.3955  0.0395 -0.0304
 1291SOL    HW115506   3.292   4.700   8.900 -0.0390  1.5891 -0.6935
 1291SOL    HW215507   3.419   0.041   8.887 -0.3624  0.4951 -0.4664
 1292SOL     OW15508   0.230   1.103   3.580  0.5374  0.0745  0.3024
 1292SOL    HW115509   0.172   1.049   3.526 -1.7507  0.9639  1.8818
 1292SOL    HW215510   0.182   1.106   3.663 -0.9923  0.8780 -0.6230
 1293SOL     OW15511   3.711   3.176   4.687 -0.3443  0.6884 -0.2466
 1293SOL    HW115512   3.773   3.245   4.662 -0.6929  1.2421  0.4135
 1293SOL    HW215513   3.640   3.217   4.737 -0.0380  1.0551 -0.1167
 1294SOL     OW15514   2.580   0.232  15.854 -0.3351 -0.4465  0.3378
 1294SOL    HW115515   2.529   0.273  15.784  0.9024 -0.2767 -0.4631
 1294SOL    HW215516   2.645   0.179  15.809 -1.9433 -3.3059  1.4305
 1295SOL     OW15517   2.313   0.176   2.498  0.0588 -0.3467 -0.5108
 1295SOL    HW115518   2.347   0.135   2.578 -0.5573  1.5732  0.7473
 1295SOL    HW215519   2.337   0.102   2.443 -0.5975 -2.7786  2.4818
 1296SOL     OW15520   2.701   2.775  10.854 -1.0192 -0.3786  0.0491
 1296SOL    HW115521   2.709   2.857  10.904 -0.8521 -0.8200  0.7526
 1296SOL    HW215522   2.734   2.714  10.919  1.7003  1.0378  0.0073
 1297SOL     OW15523   0.672   2.534   6.535 -0.1025 -0.0018 -0.0134
 1297SOL    HW115524   0.580   2.553   6.518 -0.2004 -0.6361 -0.1875
 1297SOL    HW215525   0.690   2.596   6.606 -1.1776  1.6265 -1.1950
 1298SOL     OW15526   4.393   2.687   2.458 -0.4714  0.0038  0.3317
 1298SOL    HW115527   4.425   2.644   2.537 -1.0951  1.3691  1.3411
 1298SOL    HW215528   4.426   2.632   2.388 -0.1809  2.0056 -1.1261
 1299SOL     OW15529   2.931   4.130  12.460  0.2853  0.1469 -0.8000
 1299SOL    HW115530   2.926   4.113  12.366  1.1635  1.4656 -1.0783
 1299SOL    HW215531   3.023   4.153  12.457  0.8827 -2.1360  0.1555
 1300SOL     OW15532   0.007   3.889  12.113 -0.2324  0.8341 -0.0953
 1300SOL    HW115533   0.062   3.865  12.188 -0.0752 -0.4774 -0.6330
 1300SOL    HW215534   4.693   3.808  12.101  0.0997  0.7549 -0.8844
 1301SOL     OW15535   0.046   2.640   2.420 -0.2083 -0.7874 -0.1374
 1301SOL    HW115536   0.000   2.696   2.359  0.0162 -1.4396 -0.9060
 1301SOL    HW215537   0.108   2.701   2.460 -0.7395 -0.3586  0.0125
 1302SOL     OW15538   4.380   2.738   9.935  0.1285 -0.2131  0.1218
 1302SOL    HW115539   4.394   2.649   9.903 -1.7862 -0.8767  1.1747
 1302SOL    HW215540   4.288   2.750   9.911  0.7558  1.6647 -1.3705
 1303SOL     OW15541   2.821   2.994   3.252 -0.3143 -0.5825 -0.5717
 1303SOL    HW115542   2.756   2.944   3.202 -2.7521  1.0171  0.9685
 1303SOL    HW215543   2.888   3.002   3.184 -0.1702 -2.2634 -0.6260
 1304SOL     OW15544   3.509   2.147   1.607 -0.0239 -0.2622 -0.5886
 1304SOL    HW115545   3.539   2.206   1.538 -1.7631 -1.5885 -2.4917
 1304SOL    HW215546   3.434   2.200   1.633  0.2314  0.3831 -1.1735
 1305SOL     OW15547   0.737   4.030   3.655  0.1553 -0.0730 -0.9857
 1305SOL    HW115548   0.737   4.121   3.624  1.2946  0.3790  0.3104
 1305SOL    HW215549   0.652   4.009   3.616 -0.8804  1.8526  0.2169
 1306SOL     OW15550   3.398   3.292   7.401  0.0570  0.0119 -0.4999
 1306SOL    HW115551   3.452   3.216   7.421 -0.2270 -0.2145 -0.5935
 1306SOL    HW215552   3.447   3.347   7.339  0.1683  1.6109  0.9969
 1307SOL     OW15553   1.748   2.803   4.238 -0.0471 -0.8909 -0.8421
 1307SOL    HW115554   1.692   2.815   4.315 -1.3945  0.2420 -2.0060
 1307SOL    HW215555   1.733   2.877   4.181  2.1108 -2.5888 -3.5690
 1308SOL     OW15556   0.719   0.453   4.507 -0.5084 -0.2149 -0.1952
 1308SOL    HW115557   0.814   0.454   4.498 -0.6916 -0.5522 -2.2954
 1308SOL    HW215558   0.685   0.536   4.540 -0.6727 -0.6746  0.7827
 1309SOL     OW15559   0.366   3.730   1.816 -0.0826 -0.0558 -0.5874
 1309SOL    HW115560   0.376   3.811   1.865  0.4649  0.8575 -2.1925
 1309SOL    HW215561   0.316   3.762   1.740 -1.5570 -0.4746  0.2065
 1310SOL     OW15562   1.970   0.462   8.540  0.1320 -0.4089 -0.4638
 1310SOL    HW115563   2.057   0.477   8.503  1.2775 -2.6705  1.3069
 1310SOL    HW215564   1.920   0.541   8.518  0.5646 -0.1175 -0.4164
 1311SOL     OW15565   1.536   2.770   5.550  0.3910 -0.0600  0.4242
 1311SOL    HW115566   1.586   2.808   5.622  0.1243  1.3924 -0.1528
 1311SOL    HW215567   1.501   2.854   5.519 -0.2118 -0.2268  0.6336
 1312SOL     OW15568   4.043   1.327   3.873 -0.1822 -1.0487  0.3221
 1312SOL    HW115569   3.974   1.266   3.844 -0.4622  0.0864 -1.4150
 1312SOL    HW215570   4.098   1.325   3.794 -0.6235 -1.6839  0.0222
 1313SOL     OW15571   0.419   1.051   4.648 -0.1063  0.0808 -0.2699
 1313SOL    HW115572   0.374   0.968   4.635 -1.1395  0.8397 -1.5329
 1313SOL    HW215573   0.347   1.112   4.668 -1.2520 -1.2227 -0.4528
 1314SOL     OW15574   2.234   3.869   3.006  0.4228  0.0388  0.2129
 1314SOL    HW115575   2.317   3.910   3.031  0.5679  1.3233 -2.2878
 1314SOL    HW215576   2.175   3.939   3.035 -0.2695 -0.3449 -0.2740
 1315SOL     OW15577   4.404   2.554   1.097 -0.0006  0.3201 -0.1317
 1315SOL    HW115578   4.457   2.499   1.039 -1.4186 -0.4856 -0.6601
 1315SOL    HW215579   4.327   2.569   1.042 -1.9246  2.0551  3.0848
 1316SOL     OW15580   4.631   0.653  13.234 -0.2146 -0.8735  0.1636
 1316SOL    HW115581   4.539   0.664  13.208  0.6818  0.9951 -2.1628
 1316SOL    HW215582   4.652   0.745  13.224  0.3687 -1.2561 -2.0128
 1317SOL     OW15583   2.618   2.329   7.596  0.6393  0.7496  0.5925
 1317SOL    HW115584   2.589   2.375   7.517  0.8437 -1.0164 -0.5053
 1317SOL    HW215585   2.600   2.237   7.578 -1.4729  1.4919 -1.0924
 1318SOL     OW15586   3.573   2.848  16.586  0.4697  0.1054 -0.1639
 1318SOL    HW115587   3.563   2.809  16.499  3.4414  2.1185 -1.4129
 1318SOL    HW215588   3.485   2.882  16.599  0.3154 -1.2178  2.1063
 1319SOL     OW15589   0.912   4.653  16.159 -0.2179  0.0093 -0.3753
 1319SOL    HW115590   0.902   4.727  16.099 -0.9985  0.6335  0.5220
 1319SOL    HW215591   1.000   4.672  16.191 -0.6983  1.2626  0.2002
 1320SOL     OW15592   3.169   3.795   8.928 -0.4733  0.1873 -0.1986
 1320SOL    HW115593   3.249   3.799   8.980  0.6379  0.0800 -1.8835
 1320SOL    HW215594   3.210   3.804   8.842  1.0118  3.1198  0.8090
 1321SOL     OW15595   0.961   2.887   6.098  0.4541 -0.3203 -0.4789
 1321SOL    HW115596   0.868   2.888   6.074  0.4526  0.6408 -0.4220
 1321SOL    HW215597   0.998   2.943   6.030  0.9302  1.7219  1.4821
 1322SOL     OW15598   2.261   1.800   5.421  0.2650 -0.7476  0.5269
 1322SOL    HW115599   2.172   1.808   5.457 -0.1532 -1.8803 -0.2624
 1322SOL    HW215600   2.316   1.783   5.498  0.4069 -2.9048 -0.0441
 1323SOL     OW15601   1.758   0.967   2.148 -0.6223  0.0208 -0.0588
 1323SOL    HW115602   1.806   1.007   2.220 -0.3310  2.6552 -1.6923
 1323SOL    HW215603   1.703   1.042   2.124 -1.1635 -0.2585  0.3128
 1324SOL     OW15604   2.829   0.874   1.355  0.3263  0.0457  0.0907
 1324SOL    HW115605   2.861   0.951   1.310  0.8114 -1.4321 -2.0829
 1324SOL    HW215606   2.778   0.826   1.290  0.8243  1.2468 -1.1671
 1325SOL     OW15607   0.781   2.273   7.605  0.3311  0.2611 -0.4627
 1325SOL    HW115608   0.801   2.294   7.697  0.4582 -0.7570 -0.2601
 1325SOL    HW215609   0.769   2.179   7.594  1.2247  0.4922 -3.3086
 1326SOL     OW15610   3.382   0.610   1.616  0.2742 -0.3172  1.3281
 1326SOL    HW115611   3.314   0.544   1.598  0.8102 -0.2564 -0.8291
 1326SOL    HW215612   3.452   0.566   1.568  1.0997  2.3584  0.1093
 1327SOL     OW15613   0.647   0.517  14.091  0.2240  0.0936  0.1540
 1327SOL    HW115614   0.688   0.443  14.136  1.7078  0.9234  0.1566
 1327SOL    HW215615   0.714   0.551  14.032 -0.6802  2.9422  0.7959
 1328SOL     OW15616   2.498   4.290   4.731  0.3655  0.0201 -0.0524
 1328SOL    HW115617   2.519   4.208   4.777  0.8836 -0.0220 -0.3613
 1328SOL    HW215618   2.576   4.341   4.753  0.0332  0.6511 -0.3318
 1329SOL     OW15619   1.353   3.869   2.801  0.0074  0.1973 -0.7323
 1329SOL    HW115620   1.269   3.862   2.757  0.2539  0.1222 -1.1940
 1329SOL    HW215621   1.361   3.776   2.824 -1.6309  0.8095  2.3114
 1330SOL     OW15622   1.496   1.740  12.951  0.9526 -0.0142  0.7765
 1330SOL    HW115623   1.457   1.717  13.035  1.2622  2.4381  1.5952
 1330SOL    HW215624   1.425   1.798  12.922  0.6833  0.7998  3.0565
 1331SOL     OW15625   1.948   3.909   2.616 -0.4790 -0.3812 -0.0495
 1331SOL    HW115626   1.861   3.904   2.576 -0.9736 -1.7950  1.2195
 1331SOL    HW215627   1.961   4.002   2.636  0.1788  0.0582 -2.4857
 1332SOL     OW15628   3.557   1.045  16.130  0.0009 -0.3129 -0.0517
 1332SOL    HW115629   3.514   1.099  16.063 -2.4918 -1.4773  0.6228
 1332SOL    HW215630   3.552   1.096  16.211 -2.2666 -0.3640 -0.1541
 1333SOL     OW15631   4.346   1.320   3.445  0.4536  0.0632  0.1755
 1333SOL    HW115632   4.352   1.256   3.516 -1.9849 -1.8159 -1.2907
 1333SOL    HW215633   4.423   1.369   3.472  0.8789  0.2224 -1.3337
 1334SOL     OW15634   1.995   0.743   5.281 -0.0487 -0.2665 -0.5793
 1334SOL    HW115635   1.953   0.760   5.197 -1.4435 -1.7820 -0.1989
 1334SOL    HW215636   2.037   0.826   5.302 -1.7936  0.4069  0.2885
 1335SOL     OW15637   4.529   3.307   8.888 -0.2503  0.2597  0.1273
 1335SOL    HW115638   4.487   3.272   8.967 -2.1092  2.8875  0.2981
 1335SOL    HW215639   4.534   3.403   8.894 -1.8555  0.4012 -0.7609
 1336SOL     OW15640   0.586   3.678   2.088  0.2608 -0.1736 -0.3121
 1336SOL    HW115641   0.645   3.726   2.030 -0.6945  2.3518  0.7951
 1336SOL    HW215642   0.589   3.732   2.167 -0.0576 -0.0906 -0.3553
 1337SOL     OW15643   3.318   1.710   6.974  0.5409 -0.1185 -0.3496
 1337SOL    HW115644   3.265   1.713   7.053  0.4309  0.5507 -0.4517
 1337SOL    HW215645   3.340   1.617   6.976  0.5236 -0.0931  1.2360
 1338SOL     OW15646   0.335   0.714  16.938 -0.6786  0.0269 -0.4392
 1338SOL    HW115647   0.288   0.797  16.930  3.1096  2.2525  0.9037
 1338SOL    HW215648   0.399   0.745  16.873  1.1542 -1.9386  0.4366
 1339SOL     OW15649   0.026   4.271  13.154 -0.1186  0.2834  0.2347
 1339SOL    HW115650   0.016   4.325  13.233  1.2874  1.8639 -0.6661
 1339SOL    HW215651   0.059   4.337  13.093  0.4554 -2.6390 -2.5747
 1340SOL     OW15652   0.166   4.063  13.344  0.3427 -0.5815 -0.7228
 1340SOL    HW115653   0.241   4.122  13.333  0.4396 -0.7229 -0.8148
 1340SOL    HW215654   0.144   4.082  13.435  1.9901  1.4278 -0.7362
 1341SOL     OW15655   3.292   1.268   5.162  0.3060  0.3486  0.3861
 1341SOL    HW115656   3.219   1.329   5.177 -1.9773 -2.7120  1.7929
 1341SOL    HW215657   3.315   1.288   5.071 -2.3497  0.1560 -0.3409
 1342SOL     OW15658   3.308   0.551   7.114 -0.0368 -0.1455  0.3528
 1342SOL    HW115659   3.303   0.632   7.164 -3.1355  1.2616 -2.1995
 1342SOL    HW215660   3.351   0.492   7.176 -1.1008 -1.6159 -0.2763
 1343SOL     OW15661   1.621   3.281   3.657 -0.0672 -0.8105 -0.3591
 1343SOL    HW115662   1.611   3.372   3.686  1.7882 -0.3933 -1.0565
 1343SOL    HW215663   1.630   3.231   3.738  0.8374  0.1623  0.1449
 1344SOL     OW15664   2.676   0.387   5.880 -0.3351  0.2968  0.1012
 1344SOL    HW115665   2.586   0.396   5.849 -0.5813  4.1454  1.9581
 1344SOL    HW215666   2.732   0.403   5.804  1.8469 -3.5066  0.9088
 1345SOL     OW15667   4.100   3.042   5.299 -0.0597 -0.3074 -0.1784
 1345SOL    HW115668   4.187   3.018   5.266  0.6965  0.1017  1.5303
 1345SOL    HW215669   4.064   3.058   5.212 -0.9133 -0.4536  0.1562
 1346SOL     OW15670   0.015   3.054   6.042 -0.5388 -0.5717 -0.1007
 1346SOL    HW115671   0.009   3.050   5.946 -1.0931 -0.8844 -0.0485
 1346SOL    HW215672   0.100   3.016   6.063 -0.0672  1.7772  2.2009
 1347SOL     OW15673   1.187   1.430   8.060 -0.1741  0.2035 -0.0932
 1347SOL    HW115674   1.255   1.472   8.112 -1.0558  1.3001  0.1687
 1347SOL    HW215675   1.155   1.503   8.007  0.8804  0.5225 -0.2877
 1348SOL     OW15676   0.016   1.702   4.586  0.4123 -0.2259 -0.3698
 1348SOL    HW115677   0.020   1.757   4.508  1.0764  1.1987  0.6582
 1348SOL    HW215678   0.090   1.642   4.580  0.4264 -0.0190 -2.2638
 1349SOL     OW15679   0.110   2.474   2.200  0.2301 -0.3465  0.0037
 1349SOL    HW115680   0.120   2.565   2.172  2.4048 -0.1192  1.5277
 1349SOL    HW215681   0.044   2.478   2.270  0.3922  0.1228  0.1333
 1350SOL     OW15682   0.213   1.434  12.050 -0.2887 -0.0561 -0.7757
 1350SOL    HW115683   0.246   1.514  12.009 -0.7626  1.9294  2.7763
 1350SOL    HW215684   0.140   1.456  12.107 -0.9353 -0.1116 -1.5752
 1351SOL     OW15685   3.368   4.019   7.763  0.0326 -0.2958 -0.6227
 1351SOL    HW115686   3.318   3.958   7.709 -0.7387 -0.5275  0.3435
 1351SOL    HW215687   3.317   4.098   7.745 -0.8786 -0.4311  1.3362
 1352SOL     OW15688   2.516   2.515   1.678  0.4580 -0.2068  0.6073
 1352SOL    HW115689   2.558   2.478   1.756  3.2518 -1.2984 -1.3854
 1352SOL    HW215690   2.495   2.436   1.630 -1.6681  1.9641 -2.0153
 1353SOL     OW15691   0.832   4.258   5.443 -0.1738 -0.0193 -0.2292
 1353SOL    HW115692   0.856   4.222   5.358 -1.1511 -0.8566 -0.1457
 1353SOL    HW215693   0.905   4.245   5.503  1.2103  2.0086 -1.4564
 1354SOL     OW15694   0.189   2.063  15.990  0.1946  0.1863  0.1651
 1354SOL    HW115695   0.172   2.143  15.940  0.3043  0.9702  1.3600
 1354SOL    HW215696   0.255   2.021  15.936  2.7592  2.4864  1.5343
 1355SOL     OW15697   2.482   3.452   0.539  0.4374  0.4684  0.0611
 1355SOL    HW115698   2.535   3.422   0.466 -0.0245  1.3732 -0.6458
 1355SOL    HW215699   2.483   3.547   0.522  2.9612  0.8922  2.5914
 1356SOL     OW15700   3.971   1.355   6.167  0.5608  0.3846 -0.3979
 1356SOL    HW115701   3.962   1.276   6.113  0.4517  0.6775 -0.8046
 1356SOL    HW215702   4.022   1.326   6.244 -0.5167  0.6591  0.4165
 1357SOL     OW15703   1.387   0.370   3.762  0.2435  0.0251 -0.1604
 1357SOL    HW115704   1.478   0.384   3.790  0.7948  0.4882 -2.1663
 1357SOL    HW215705   1.382   0.404   3.673  0.4742 -1.0071 -0.5729
 1358SOL     OW15706   1.674   2.654   8.929  0.2219  1.6583 -0.4524
 1358SOL    HW115707   1.661   2.603   8.849  1.6973  1.6836 -0.7013
 1358SOL    HW215708   1.739   2.603   8.977 -0.9526  1.0391  0.4728
 1359SOL     OW15709   1.324   3.318   3.309  0.6332 -0.0433  0.0293
 1359SOL    HW115710   1.362   3.244   3.358  2.9803  0.4646 -1.0576
 1359SOL    HW215711   1.257   3.351   3.369 -1.1449 -1.2331 -1.3084
 1360SOL     OW15712   3.193   0.112   5.963 -0.7748  0.3891 -0.2253
 1360SOL    HW115713   3.269   0.115   6.021  0.0763 -0.9718 -1.2883
 1360SOL    HW215714   3.137   0.042   5.996 -1.0410 -0.1917 -1.9361
 1361SOL     OW15715   0.119   3.839   4.658  0.0288  0.5708 -0.0012
 1361SOL    HW115716   0.131   3.918   4.712 -4.7067 -0.3328  2.4494
 1361SOL    HW215717   0.024   3.831   4.646  0.2499  3.8905 -4.0160
 1362SOL     OW15718   0.775   3.693   4.706 -0.2280  0.5348  0.2242
 1362SOL    HW115719   0.764   3.619   4.647  0.4822  0.9293 -0.4048
 1362SOL    HW215720   0.860   3.715   4.668  1.3676 -3.4993  1.5309
 1363SOL     OW15721   1.745   4.608   5.516  0.0960 -0.0987 -0.2153
 1363SOL    HW115722   1.659   4.645   5.536  0.0058  0.0249 -0.8255
 1363SOL    HW215723   1.808   4.680   5.523 -1.0726  0.7790  1.1372
 1364SOL     OW15724   3.278   4.654  17.019  0.1458  0.2924  0.2545
 1364SOL    HW115725   3.199   4.624  17.062  0.2100 -0.0938  0.0989
 1364SOL    HW215726   3.259   4.631  16.928 -0.1502  0.5755  0.2468
 1365SOL     OW15727   1.029   4.358   2.876 -0.1741  0.1369  0.4538
 1365SOL    HW115728   0.943   4.367   2.835 -0.9301 -1.7329  1.6148
 1365SOL    HW215729   1.009   4.327   2.964 -0.7832 -0.2854  0.1657
 1366SOL     OW15730   0.445   2.460   5.729  0.2152 -0.0212 -0.1370
 1366SOL    HW115731   0.538   2.451   5.709  0.4277  3.4164 -0.7093
 1366SOL    HW215732   0.403   2.379   5.702  0.3896 -0.1782  0.0640
 1367SOL     OW15733   4.585   4.570  16.916 -0.5494 -0.0866 -0.1262
 1367SOL    HW115734   4.618   4.482  16.930 -3.4479 -1.0987  0.3010
 1367SOL    HW215735   4.550   4.589  17.003  0.5151  1.9964 -0.1543
 1368SOL     OW15736   3.811   2.549  12.898 -0.0991  0.0105  0.4392
 1368SOL    HW115737   3.862   2.525  12.975 -1.4837  0.2944  1.4426
 1368SOL    HW215738   3.850   2.631  12.868 -1.2243  0.2013 -0.4857
 1369SOL     OW15739   4.356   1.040   9.661  0.7950 -0.0008 -0.4344
 1369SOL    HW115740   4.429   1.025   9.721 -0.2599  1.6187  1.2588
 1369SOL    HW215741   4.319   1.118   9.702  0.5006 -1.6426  2.4625
 1370SOL     OW15742   0.749   4.166   1.961  0.3604  0.4186 -0.3094
 1370SOL    HW115743   0.740   4.112   2.039 -0.0476  0.2504 -0.4742
 1370SOL    HW215744   0.805   4.105   1.913 -2.3859 -1.3987 -1.1766
 1371SOL     OW15745   1.708   2.396   2.042 -0.6743  0.2360  0.0786
 1371SOL    HW115746   1.740   2.408   2.131  1.2692 -0.3611 -0.5304
 1371SOL    HW215747   1.729   2.475   1.991  1.5666  1.1477  2.4107
 1372SOL     OW15748   3.034   2.691   5.102 -0.0932 -0.2641 -0.3877
 1372SOL    HW115749   3.063   2.599   5.099 -2.2657 -1.0022  0.5033
 1372SOL    HW215750   3.099   2.735   5.156 -1.2240  1.0658 -0.1122
 1373SOL     OW15751   4.170   0.478   4.652 -0.2556  0.2425 -0.6434
 1373SOL    HW115752   4.150   0.472   4.558 -0.6253  3.5477 -0.7979
 1373SOL    HW215753   4.082   0.458   4.682  0.4137 -0.5295  0.7783
 1374SOL     OW15754   3.077   1.206   4.546  0.1186 -0.3580 -0.7404
 1374SOL    HW115755   3.172   1.212   4.559 -0.0755 -0.8080  0.8574
 1374SOL    HW215756   3.076   1.159   4.463 -1.3181  0.8872 -1.4232
 1375SOL     OW15757   2.604   1.238   3.203  0.4782  0.0974  0.3534
 1375SOL    HW115758   2.568   1.245   3.115 -1.9251  2.0632  1.5012
 1375SOL    HW215759   2.684   1.288   3.193  0.7726 -0.5945 -0.7491
 1376SOL     OW15760   0.911   1.007   5.592 -0.0521  0.3467 -0.1251
 1376SOL    HW115761   0.825   1.007   5.550 -1.5173 -0.1120  2.9281
 1376SOL    HW215762   0.895   1.012   5.686  0.5574  1.7272 -0.0834
 1377SOL     OW15763   4.511   2.574  16.430  0.5830 -0.4736  0.0174
 1377SOL    HW115764   4.526   2.663  16.399 -0.3917  0.1070  1.2062
 1377SOL    HW215765   4.481   2.597  16.518 -0.5440  0.6307 -0.6502
 1378SOL     OW15766   4.142   4.606   5.878  0.0872 -0.0916  0.0779
 1378SOL    HW115767   4.155   4.512   5.867 -2.1730 -0.4734  0.7655
 1378SOL    HW215768   4.234   4.633   5.884 -0.0203 -0.2161  2.3023
 1379SOL     OW15769   1.344   3.859   0.636 -0.5092  0.2060 -0.2227
 1379SOL    HW115770   1.393   3.791   0.590 -1.7864 -0.3926 -0.7035
 1379SOL    HW215771   1.327   3.925   0.568 -2.7040  0.9199  1.0195
 1380SOL     OW15772   2.949   0.171   1.397 -0.0084  0.3923 -0.7978
 1380SOL    HW115773   2.866   0.128   1.419  0.8357 -1.2959 -0.8782
 1380SOL    HW215774   2.919   0.253   1.358 -3.4310 -1.6526 -2.5298
 1381SOL     OW15775   2.875   4.046   0.689  0.0704  0.3838 -0.0597
 1381SOL    HW115776   2.909   4.132   0.714 -1.6879  1.3547 -0.9592
 1381SOL    HW215777   2.942   3.981   0.712  1.2836  1.7564  0.3212
 1382SOL     OW15778   1.655   1.431   0.271  0.0392 -0.1335 -0.4001
 1382SOL    HW115779   1.662   1.340   0.241  3.7425  0.0413 -0.0090
 1382SOL    HW215780   1.710   1.423   0.348  1.8696 -0.6922 -1.7725
 1383SOL     OW15781   3.588   4.189   0.294 -0.6071 -0.2603  0.2175
 1383SOL    HW115782   3.666   4.139   0.318 -0.8173 -0.3068  0.8184
 1383SOL    HW215783   3.591   4.190   0.199  0.2098 -0.3585  0.2410
 1384SOL     OW15784   4.622   0.079   2.318  0.9401  0.5225 -0.3634
 1384SOL    HW115785   4.532   0.094   2.349  0.5344 -0.1709 -1.1909
 1384SOL    HW215786   4.676   0.106   2.392  1.3166  0.3881 -0.5893
 1385SOL     OW15787   2.017   3.764  16.283  0.0277  0.0232 -0.0901
 1385SOL    HW115788   2.025   3.680  16.328  0.7384  0.3855  0.4451
 1385SOL    HW215789   1.973   3.745  16.200  2.6236 -0.7277 -1.3030
 1386SOL     OW15790   0.773   1.663   3.169 -0.1546  0.2840 -0.2877
 1386SOL    HW115791   0.763   1.628   3.081 -1.1725  0.9519 -0.4331
 1386SOL    HW215792   0.820   1.595   3.218  1.3173 -0.2679 -2.4457
 1387SOL     OW15793   3.290   3.282  17.683  0.3843 -0.0358  0.7329
 1387SOL    HW115794   3.351   3.221  17.642 -0.3571 -0.4591  0.2361
 1387SOL    HW215795   3.318   3.291   0.032 -0.4269  0.3241  0.9521
 1388SOL     OW15796   3.273   4.665   7.666  0.1612  0.3396 -0.2050
 1388SOL    HW115797   3.366   4.651   7.647 -0.1116  1.4333 -2.3490
 1388SOL    HW215798   3.279   4.647   7.760  1.1400  1.8546  0.0158
 1389SOL     OW15799   2.540   1.351   2.484  0.0059  0.2104 -0.3529
 1389SOL    HW115800   2.475   1.313   2.425 -1.1420  2.1829 -0.3644
 1389SOL    HW215801   2.616   1.295   2.469 -0.5562 -0.2157 -1.5673
 1390SOL     OW15802   2.835   0.126   2.961 -0.2311 -0.0929 -0.2692
 1390SOL    HW115803   2.924   0.091   2.957 -0.9882 -2.0803 -0.0437
 1390SOL    HW215804   2.812   0.149   2.871 -0.6560  0.4156 -0.0327
 1391SOL     OW15805   2.642   3.492  10.668 -0.4472  0.2606 -0.0709
 1391SOL    HW115806   2.693   3.414  10.689  0.4526  0.3761 -1.7853
 1391SOL    HW215807   2.591   3.510  10.747  0.4050 -1.2326  0.8179
 1392SOL     OW15808   0.050   4.482   9.218  0.1066  0.1502  0.4636
 1392SOL    HW115809   4.699   4.446   9.197  0.8132 -0.4524 -1.3455
 1392SOL    HW215810   0.016   4.570   9.237  0.7576  0.0675  2.0320
 1393SOL     OW15811   1.010   0.337   9.960  0.0098  0.3942 -0.1450
 1393SOL    HW115812   0.946   0.290  10.013 -0.8703  1.4711 -0.2607
 1393SOL    HW215813   1.089   0.335  10.015  1.1317  0.2253 -1.7407
 1394SOL     OW15814   1.779   3.370   3.241  0.4306 -0.2941  1.2095
 1394SOL    HW115815   1.820   3.286   3.222  0.6539 -0.2117  1.3304
 1394SOL    HW215816   1.836   3.430   3.194 -0.9101  0.1514  0.1652
 1395SOL     OW15817   0.636   0.998   6.332  0.3313 -0.2414 -0.7179
 1395SOL    HW115818   0.699   0.984   6.403 -0.9827  1.5654  0.8333
 1395SOL    HW215819   0.694   1.007   6.256  0.3403 -1.0023 -0.7980
 1396SOL     OW15820   1.577   2.662   3.615  0.3915  0.3418 -0.6878
 1396SOL    HW115821   1.498   2.710   3.639  0.4335 -0.1684  0.4924
 1396SOL    HW215822   1.555   2.581   3.661 -2.7174  1.5259 -0.0895
 1397SOL     OW15823   0.635   3.698   3.387 -0.1420 -0.1139  0.2628
 1397SOL    HW115824   0.660   3.773   3.333  1.9589  0.3318  1.8289
 1397SOL    HW215825   0.621   3.640   3.312  0.3629  0.0969  0.0025
 1398SOL     OW15826   3.116   4.359  10.012 -0.2521 -0.1114  0.7989
 1398SOL    HW115827   3.032   4.398   9.985 -1.6714 -1.9638  2.4896
 1398SOL    HW215828   3.084   4.290  10.070 -1.7543  0.8530  1.1432
 1399SOL     OW15829   1.252   2.259  15.152  0.2098  0.0291 -0.4012
 1399SOL    HW115830   1.194   2.308  15.210  1.0926  2.1353 -1.3177
 1399SOL    HW215831   1.331   2.258  15.206 -0.0091  1.1176 -0.0564
 1400SOL     OW15832   4.245   2.083  11.209 -0.6977  0.0973 -0.0241
 1400SOL    HW115833   4.280   1.999  11.237 -1.3795  0.4691  1.9463
 1400SOL    HW215834   4.169   2.084  11.267 -0.5966  1.6698  0.0887
 1401SOL     OW15835   1.450   3.918   8.435 -0.7713 -0.0957  0.1742
 1401SOL    HW115836   1.442   3.860   8.359 -1.2688 -2.1826  1.8038
 1401SOL    HW215837   1.399   3.997   8.418 -1.7075 -0.8973 -0.7874
 1402SOL     OW15838   0.359   0.542  12.431  0.3083 -0.3858  0.2819
 1402SOL    HW115839   0.282   0.548  12.487  0.7144  0.7466  0.7156
 1402SOL    HW215840   0.375   0.451  12.409  0.2462  0.0157 -1.4374
 1403SOL     OW15841   0.120   1.752   3.410  0.4069  0.0869 -0.1942
 1403SOL    HW115842   0.133   1.800   3.328  1.3738  0.9023  0.4364
 1403SOL    HW215843   0.078   1.822   3.462  0.5208 -1.4917  2.0314
 1404SOL     OW15844   3.997   3.751   2.858  0.3703  0.1890 -0.8769
 1404SOL    HW115845   3.973   3.682   2.919 -0.2632  1.1389 -0.0377
 1404SOL    HW215846   3.909   3.783   2.837 -0.1558 -0.4113  0.4472
 1405SOL     OW15847   0.165   3.596  10.257 -0.4377 -0.3698 -0.5665
 1405SOL    HW115848   0.121   3.577  10.339  0.2214 -0.5008 -0.2437
 1405SOL    HW215849   0.226   3.524  10.244 -0.1704  0.3118 -3.1786
 1406SOL     OW15850   3.025   4.237   0.350  0.0285 -0.0108  0.2722
 1406SOL    HW115851   3.046   4.149   0.382 -0.0827 -0.5061 -1.0253
 1406SOL    HW215852   3.102   4.251   0.296  0.8328 -0.3888  1.3243
 1407SOL     OW15853   3.937   4.053  17.535 -0.1535  0.0424  0.1440
 1407SOL    HW115854   3.912   4.138  17.572  0.3813  0.5481 -0.6460
 1407SOL    HW215855   3.986   4.080  17.457  1.6822  1.9862  1.9509
 1408SOL     OW15856   2.846   3.480   3.483  0.0469  0.4344  0.1368
 1408SOL    HW115857   2.809   3.405   3.437 -0.2780  1.0602 -0.6082
 1408SOL    HW215858   2.940   3.475   3.467 -0.0424  0.7386 -0.4546
 1409SOL     OW15859   2.769   3.091   1.924  0.1418 -0.5771  0.6130
 1409SOL    HW115860   2.755   3.049   1.839  1.8176 -0.4980  0.3001
 1409SOL    HW215861   2.693   3.149   1.918  1.4386  1.0219 -0.5197
 1410SOL     OW15862   0.856   1.848   0.432 -0.2007 -0.7886  0.4919
 1410SOL    HW115863   0.788   1.823   0.494 -0.2918 -0.6961  0.4299
 1410SOL    HW215864   0.919   1.777   0.445  1.5634  0.4477 -1.2961
 1411SOL     OW15865   2.616   3.065  10.447  0.3122  0.5428 -0.0189
 1411SOL    HW115866   2.538   3.055  10.393  1.3234  2.0056 -1.7528
 1411SOL    HW215867   2.668   2.988  10.423  1.5498  1.3805 -0.0746
 1412SOL     OW15868   3.074   1.614  15.233 -0.4925 -0.4090 -0.4884
 1412SOL    HW115869   3.010   1.566  15.286  0.0995  0.0606  0.6549
 1412SOL    HW215870   3.074   1.697  15.281 -3.8803  0.5912 -2.2153
 1413SOL     OW15871   3.283   0.482  13.111  0.5381  0.3109 -0.2097
 1413SOL    HW115872   3.343   0.504  13.040  0.3312  0.9656 -0.1897
 1413SOL    HW215873   3.213   0.545  13.094  0.9881  1.0019  0.4946
 1414SOL     OW15874   4.187   1.104   3.012  0.1873 -0.4938 -0.2839
 1414SOL    HW115875   4.142   1.051   3.079  0.6820 -1.1655 -0.4767
 1414SOL    HW215876   4.238   1.160   3.071  0.0313 -1.4824  0.8072
 1415SOL     OW15877   2.127   3.891  11.331 -0.7376  0.0816 -0.2350
 1415SOL    HW115878   2.091   3.978  11.347  1.6667  0.8769  0.6564
 1415SOL    HW215879   2.186   3.879  11.405 -0.3120  2.0501 -0.2676
 1416SOL     OW15880   0.749   2.788   4.764 -0.4860 -0.2327 -0.5429
 1416SOL    HW115881   0.737   2.734   4.842 -1.2944  1.3292  0.4066
 1416SOL    HW215882   0.808   2.856   4.796 -0.8269 -0.0456 -0.3065
 1417SOL     OW15883   1.359   3.557   3.967 -0.1376 -0.3941  0.4099
 1417SOL    HW115884   1.284   3.556   3.907 -0.3044 -2.6264  0.6457
 1417SOL    HW215885   1.326   3.620   4.031 -0.5430  0.0257 -0.2068
 1418SOL     OW15886   1.051   0.963   7.050 -0.0040 -0.0523 -0.0012
 1418SOL    HW115887   1.081   0.872   7.044 -0.9991 -0.4840  1.5399
 1418SOL    HW215888   1.130   1.003   7.087  0.4177 -0.0435 -0.8926
 1419SOL     OW15889   1.325   3.654  12.666 -0.0649  0.7789 -0.5712
 1419SOL    HW115890   1.296   3.726  12.610 -0.7522 -0.0156 -1.2634
 1419SOL    HW215891   1.274   3.578  12.635  1.9743 -0.4125 -1.0331
 1420SOL     OW15892   3.935   2.120   4.358  0.3142 -0.2875  0.0953
 1420SOL    HW115893   3.977   2.145   4.276 -2.0886  4.0089  0.1695
 1420SOL    HW215894   3.863   2.182   4.351 -0.6178 -1.5870 -1.7843
 1421SOL     OW15895   2.814   2.532   5.316  0.4199  0.0591 -0.4934
 1421SOL    HW115896   2.846   2.447   5.286 -0.8140 -0.8725  0.7977
 1421SOL    HW215897   2.853   2.593   5.254 -1.3593  0.1228 -1.5508
 1422SOL     OW15898   0.530   1.949   8.057  0.4681  0.1017  0.4646
 1422SOL    HW115899   0.511   2.014   8.124 -0.7917 -1.6555  1.8221
 1422SOL    HW215900   0.574   1.881   8.108  0.2213 -0.7922 -0.5063
 1423SOL     OW15901   1.741   2.657   3.942 -0.2486 -0.9335 -0.2428
 1423SOL    HW115902   1.819   2.700   3.908 -0.2019  1.4460  2.9806
 1423SOL    HW215903   1.774   2.611   4.019 -1.5522  1.8739  1.9438
 1424SOL     OW15904   0.432   2.464   1.284  0.6563  0.5489  0.2373
 1424SOL    HW115905   0.491   2.535   1.258  0.0173  1.0285  0.1080
 1424SOL    HW215906   0.348   2.510   1.289  1.8594  3.0234 -2.6332
 1425SOL     OW15907   0.822   2.085   9.576  0.6474 -0.7636 -0.0567
 1425SOL    HW115908   0.847   2.008   9.627  0.4494 -0.2140  0.8749
 1425SOL    HW215909   0.741   2.056   9.534  1.7510 -0.2142 -2.5754
 1426SOL     OW15910   0.500   1.322   6.817 -0.2606  0.0160  0.3563
 1426SOL    HW115911   0.579   1.356   6.859  2.3626 -1.0078 -3.7799
 1426SOL    HW215912   0.475   1.260   6.885 -1.4491 -0.7026 -0.7466
 1427SOL     OW15913   3.508   0.586   4.721  0.2088  0.0167 -0.3743
 1427SOL    HW115914   3.505   0.631   4.805  0.7820  1.9851 -1.4019
 1427SOL    HW215915   3.513   0.663   4.664 -2.1093  1.3438  1.2343
 1428SOL     OW15916   2.684   3.008   5.865 -0.0037 -0.3788  0.2083
 1428SOL    HW115917   2.724   3.052   5.790  0.1238  1.5804  1.4308
 1428SOL    HW215918   2.726   2.924   5.846  0.3949  0.3167 -1.9609
 1429SOL     OW15919   1.092   0.152   4.468  0.3569  0.1371  0.2634
 1429SOL    HW115920   1.029   0.133   4.399 -0.8231 -0.9526  1.6463
 1429SOL    HW215921   1.173   0.101   4.464  0.1505 -0.2251  0.6384
 1430SOL     OW15922   0.413   1.807   7.787 -0.0539  0.2003 -0.4032
 1430SOL    HW115923   0.405   1.879   7.725 -1.5468 -0.7064 -1.2443
 1430SOL    HW215924   0.356   1.846   7.853 -1.0344 -2.8747  0.5623
 1431SOL     OW15925   1.104   3.891   8.300 -0.2985  0.3939 -0.0593
 1431SOL    HW115926   1.073   3.801   8.303  0.6077  0.1064  0.5811
 1431SOL    HW215927   1.111   3.919   8.391  1.7392  0.1933 -0.1460
 1432SOL     OW15928   0.591   2.180  11.692  0.3714  0.5933  0.4432
 1432SOL    HW115929   0.629   2.131  11.619 -1.2422  0.5332 -0.3747
 1432SOL    HW215930   0.660   2.193  11.756  2.8217 -2.1965 -1.6428
 1433SOL     OW15931   3.556   3.995   4.770 -0.5596  0.1670 -1.0463
 1433SOL    HW115932   3.586   4.081   4.800  0.3558  0.0234 -1.5451
 1433SOL    HW215933   3.462   4.012   4.763 -0.6628 -0.2246 -0.5753
 1434SOL     OW15934   0.003   3.407   4.121 -0.5738  0.1585 -0.2614
 1434SOL    HW115935   0.062   3.364   4.058  1.9803  0.7195  1.7850
 1434SOL    HW215936   4.722   3.493   4.082 -0.5134  0.1188 -0.3752
 1435SOL     OW15937   0.068   0.977   6.693 -0.8288  0.3751 -0.5512
 1435SOL    HW115938   0.121   1.036   6.641  1.2908 -0.7494  0.3136
 1435SOL    HW215939   0.130   0.904   6.704  0.7403  1.8317  0.3203
 1436SOL     OW15940   2.328   3.368   9.535  0.0067  0.3947  0.0327
 1436SOL    HW115941   2.257   3.424   9.501  1.6062  0.8191 -2.5711
 1436SOL    HW215942   2.397   3.433   9.543  0.0691  0.1529  1.4043
 1437SOL     OW15943   1.263   1.090   7.177 -0.3618 -0.5290 -0.5734
 1437SOL    HW115944   1.297   1.167   7.223 -1.6387  0.6057 -1.5214
 1437SOL    HW215945   1.224   1.043   7.251  0.3497 -1.4010 -0.7506
 1438SOL     OW15946   1.385   0.113   8.063 -0.0663 -0.8033 -0.0989
 1438SOL    HW115947   1.387   0.033   8.010  0.5646 -1.4642  0.9208
 1438SOL    HW215948   1.448   0.084   8.129 -0.6768  1.1359  1.3250
 1439SOL     OW15949   3.427   3.520  11.437  0.3695 -0.3744  0.3743
 1439SOL    HW115950   3.406   3.612  11.450 -0.2141 -0.1180 -2.3212
 1439SOL    HW215951   3.396   3.500  11.349  0.6338 -2.3544  0.7210
 1440SOL     OW15952   4.040   1.769   5.588 -0.0856  0.0359  0.1951
 1440SOL    HW115953   4.135   1.770   5.594 -0.1404 -0.6603  1.1255
 1440SOL    HW215954   4.029   1.743   5.497 -0.6641 -0.5815  0.4425
 1441SOL     OW15955   1.400   1.354   5.800  0.4381 -0.1529 -1.0223
 1441SOL    HW115956   1.491   1.346   5.774  0.0450  0.5636 -2.5862
 1441SOL    HW215957   1.413   1.346   5.895  0.4240 -0.1079 -1.0164
 1442SOL     OW15958   2.698   0.137   3.457  0.4510 -0.3508  0.1393
 1442SOL    HW115959   2.763   0.183   3.509 -0.6291  0.0077  1.1811
 1442SOL    HW215960   2.724   0.160   3.368 -1.1653  1.6832  0.1839
 1443SOL     OW15961   2.297   2.271   4.300  0.0124 -0.0750  0.4389
 1443SOL    HW115962   2.220   2.322   4.275 -0.4005 -0.9130 -0.0038
 1443SOL    HW215963   2.251   2.188   4.308  0.8984 -0.5978  0.1075
 1444SOL     OW15964   3.327   2.446   7.210 -0.0651  0.0245 -0.1710
 1444SOL    HW115965   3.394   2.422   7.146 -0.3674  0.3151 -0.5987
 1444SOL    HW215966   3.372   2.511   7.264 -0.4740 -0.2427  0.4829
 1445SOL     OW15967   2.634   2.189   2.755  0.2482 -0.4826 -0.5896
 1445SOL    HW115968   2.572   2.240   2.703  0.1868 -0.1718 -0.2159
 1445SOL    HW215969   2.670   2.134   2.686 -1.5653 -1.8370 -0.4505
 1446SOL     OW15970   0.734   3.841  12.274  0.4036  0.1235  0.7278
 1446SOL    HW115971   0.668   3.798  12.328 -1.6695  1.3681 -0.8459
 1446SOL    HW215972   0.805   3.849  12.338 -1.6014  1.0522  2.8284
 1447SOL     OW15973   1.095   0.901  11.093  0.6550  0.2422  0.3362
 1447SOL    HW115974   1.066   0.838  11.159 -0.3026  0.3787  0.0555
 1447SOL    HW215975   1.188   0.882  11.087  1.4924  3.0403  4.2802
 1448SOL     OW15976   3.446   2.808   2.204 -0.1209 -0.3719 -0.0804
 1448SOL    HW115977   3.500   2.765   2.271 -0.7018  0.2581  0.7950
 1448SOL    HW215978   3.475   2.899   2.204 -0.2284 -0.3291  1.1741
 1449SOL     OW15979   4.455   3.658  13.251 -0.4701  0.3836  0.0264
 1449SOL    HW115980   4.394   3.629  13.183 -0.8548  1.9985 -0.3276
 1449SOL    HW215981   4.421   3.744  13.277 -1.4210 -0.1768  0.6404
 1450SOL     OW15982   3.185   2.193   2.260 -0.1523 -0.0460  0.3533
 1450SOL    HW115983   3.120   2.261   2.239 -0.6425 -0.5195  0.3257
 1450SOL    HW215984   3.268   2.239   2.271  1.0618 -1.7694 -1.4900
 1451SOL     OW15985   1.261   3.343   4.433 -0.5708 -0.7463 -0.2031
 1451SOL    HW115986   1.310   3.391   4.499 -0.9779 -0.9253  0.2298
 1451SOL    HW215987   1.271   3.251   4.456  0.3706 -0.9181 -1.3069
 1452SOL     OW15988   1.383   4.364   8.262  0.4046  0.4302 -0.0708
 1452SOL    HW115989   1.343   4.452   8.264  0.2121  0.3457 -0.1987
 1452SOL    HW215990   1.452   4.388   8.324  1.4217 -1.9999 -0.2577
 1453SOL     OW15991   4.596   2.098   4.008 -0.0272 -1.0766 -0.8021
 1453SOL    HW115992   4.526   2.068   4.066 -0.4676 -0.2172 -0.8891
 1453SOL    HW215993   4.550   2.155   3.946  1.8311 -0.1255 -1.2855
 1454SOL     OW15994   0.614   2.435   4.747  0.2273  0.4520  0.2044
 1454SOL    HW115995   0.659   2.351   4.742 -0.0682  0.3630 -0.9240
 1454SOL    HW215996   0.662   2.464   4.824  2.5353 -4.0569  0.4836
 1455SOL     OW15997   3.720   1.038   6.090  0.0294 -0.0335 -0.0240
 1455SOL    HW115998   3.652   1.044   6.023  0.6358  1.5443 -0.5061
 1455SOL    HW215999   3.780   0.986   6.037  0.0171  0.3669 -0.4270
 1456SOL     OW16000   1.374   1.026   6.285 -0.2679  0.5381 -0.6872
 1456SOL    HW116001   1.297   1.067   6.326  0.3862  0.7184  0.3556
 1456SOL    HW216002   1.338   0.996   6.201  0.4983  0.7892 -1.1035
 1457SOL     OW16003   3.878   2.425   9.105  0.0241  0.3436  0.8666
 1457SOL    HW116004   3.874   2.520   9.093 -1.3373  0.0675 -0.8878
 1457SOL    HW216005   3.888   2.394   9.015  0.2344  0.1254  0.9664
 1458SOL     OW16006   1.192   3.265   5.102 -0.1869  0.4083 -0.4655
 1458SOL    HW116007   1.145   3.263   5.185 -2.0632  1.0431 -1.5156
 1458SOL    HW216008   1.120   3.298   5.048  0.3543 -1.6676 -2.4803
 1459SOL     OW16009   0.168   1.132   8.517  0.9302  0.4481 -0.0803
 1459SOL    HW116010   0.133   1.218   8.496  0.5024  0.5865  1.1951
 1459SOL    HW216011   0.213   1.147   8.600  0.9074  1.3364 -0.2370
 1460SOL     OW16012   2.380   1.191  13.522  0.2639 -0.0926 -0.5902
 1460SOL    HW116013   2.355   1.099  13.512  1.8673 -0.6669  0.5835
 1460SOL    HW216014   2.394   1.197  13.617  2.0980 -3.2631 -0.6741
 1461SOL     OW16015   0.555   0.447  16.245 -0.3934 -0.4337 -0.0206
 1461SOL    HW116016   0.649   0.462  16.237 -0.1542 -1.3860  0.9776
 1461SOL    HW216017   0.538   0.381  16.178  2.2834  0.7160 -1.8028
 1462SOL     OW16018   4.228   0.647   6.652  0.1776 -0.4899  0.3990
 1462SOL    HW116019   4.138   0.627   6.679 -0.3958  0.8764 -0.4639
 1462SOL    HW216020   4.273   0.573   6.692 -0.1790  1.0488  3.6612
 1463SOL     OW16021   3.182   2.553  15.092 -0.1774  0.3550  0.2373
 1463SOL    HW116022   3.088   2.567  15.086 -0.1916  0.7055  1.2944
 1463SOL    HW216023   3.222   2.631  15.052 -0.2874  0.5497  0.5134
 1464SOL     OW16024   4.272   2.003   3.533  0.3000  0.4062  0.0537
 1464SOL    HW116025   4.234   2.008   3.621 -4.1995  0.0710 -1.8851
 1464SOL    HW216026   4.194   2.027   3.483  2.0313 -1.8732 -3.7593
 1465SOL     OW16027   1.850   1.117   2.350  0.2310 -0.6214 -0.4284
 1465SOL    HW116028   1.798   1.112   2.431 -1.1380 -0.2930 -1.2816
 1465SOL    HW216029   1.840   1.209   2.328 -0.9377 -0.6776 -0.1466
 1466SOL     OW16030   1.305   2.981   3.919  0.4541  0.1570  0.0815
 1466SOL    HW116031   1.339   3.068   3.940  2.4112 -0.7309  0.5959
 1466SOL    HW216032   1.357   2.927   3.978 -0.1392 -0.0204  0.4455
 1467SOL     OW16033   0.923   3.483  12.043 -0.1354  0.4035 -0.3981
 1467SOL    HW116034   0.990   3.544  12.011 -0.8590  0.4805 -1.7705
 1467SOL    HW216035   0.950   3.484  12.135 -0.2135  1.7570 -0.3814
 1468SOL     OW16036   1.026   1.945   3.521 -0.1492 -0.2549  0.1023
 1468SOL    HW116037   1.064   1.867   3.481  2.8094  0.0776  2.2980
 1468SOL    HW216038   1.102   2.001   3.537 -0.2026 -0.1332 -0.0751
 1469SOL     OW16039   3.071   1.454   5.234  0.2991 -0.5441 -0.5108
 1469SOL    HW116040   2.979   1.445   5.212  0.7237  1.2170 -2.9665
 1469SOL    HW216041   3.064   1.408   5.317 -0.8697 -1.3888 -1.0794
 1470SOL     OW16042   3.781   2.745   6.383  0.2957  0.2428  0.5121
 1470SOL    HW116043   3.814   2.667   6.428 -1.3643 -1.5985 -1.4514
 1470SOL    HW216044   3.839   2.751   6.308  2.5540 -2.1407  2.0685
 1471SOL     OW16045   2.646   1.458   2.707 -0.3012  0.7806  0.3996
 1471SOL    HW116046   2.726   1.475   2.657 -2.0850  0.5633 -2.5505
 1471SOL    HW216047   2.592   1.422   2.636  2.5877  2.6868 -2.7217
 1472SOL     OW16048   1.395   3.560   5.556  0.3548  0.6655  0.1599
 1472SOL    HW116049   1.404   3.580   5.462 -0.2450  0.4319  0.0488
 1472SOL    HW216050   1.485   3.540   5.579 -0.2129 -0.2792  1.5487
 1473SOL     OW16051   0.065   2.667   4.004  0.0114 -0.1058 -0.1164
 1473SOL    HW116052   0.070   2.761   3.985 -2.0278 -0.6028 -3.0840
 1473SOL    HW216053   0.098   2.671   4.094 -0.5859  0.4644  0.0792
 1474SOL     OW16054   0.612   0.866   6.875  0.3071 -0.0043  0.1486
 1474SOL    HW116055   0.546   0.804   6.906 -0.9684  1.9312  1.3275
 1474SOL    HW216056   0.649   0.835   6.793 -0.2256  2.6713 -1.0879
 1475SOL     OW16057   1.026   1.629  17.009 -0.1920 -0.3283 -0.8584
 1475SOL    HW116058   1.038   1.679  16.928 -0.2804 -0.9212 -1.2361
 1475SOL    HW216059   0.994   1.703  17.061  0.9959  0.1425 -0.8011
 1476SOL     OW16060   1.714   0.250   0.624  0.0091 -0.1791 -0.3688
 1476SOL    HW116061   1.807   0.244   0.604  0.1886 -0.0979  0.4488
 1476SOL    HW216062   1.698   0.330   0.574  0.5952  0.2526  0.1298
 1477SOL     OW16063   0.831   4.001   2.291 -0.3880 -0.6731  0.0949
 1477SOL    HW116064   0.743   4.034   2.311  0.1262  2.0378 -1.9370
 1477SOL    HW216065   0.814   3.929   2.230  0.9475  0.3399 -1.4894
 1478SOL     OW16066   1.058   1.826  11.387  0.8820  0.1779 -0.0267
 1478SOL    HW116067   1.016   1.740  11.380  1.2696 -0.0454  0.4345
 1478SOL    HW216068   1.083   1.825  11.479 -2.4352 -0.7533  0.8644
 1479SOL     OW16069   0.898   0.194   6.098 -0.3323 -0.5759 -0.1282
 1479SOL    HW116070   0.968   0.221   6.039 -0.5208 -0.7447 -0.4277
 1479SOL    HW216071   0.931   0.233   6.179  1.6854 -1.5733 -0.4674
 1480SOL     OW16072   1.766   0.563   2.337 -0.3508  0.8201  0.1160
 1480SOL    HW116073   1.763   0.550   2.242  1.7575  0.7319  0.0694
 1480SOL    HW216074   1.691   0.509   2.364 -0.3065  0.9808  0.5551
 1481SOL     OW16075   4.490   2.474   5.403 -0.5499 -0.9823  0.1404
 1481SOL    HW116076   4.395   2.471   5.402 -0.5096 -2.9237  1.9248
 1481SOL    HW216077   4.498   2.450   5.311  0.4681  0.8813 -0.2616
 1482SOL     OW16078   2.397   2.748  12.674  0.2609 -0.3637 -0.1193
 1482SOL    HW116079   2.388   2.843  12.678 -1.6020 -0.5399  0.0281
 1482SOL    HW216080   2.423   2.725  12.763 -3.3869  0.1189  1.0438
 1483SOL     OW16081   3.860   2.207  13.602 -0.6562  0.3260  0.0941
 1483SOL    HW116082   3.912   2.272  13.649 -0.0328  0.1695 -0.3794
 1483SOL    HW216083   3.820   2.166  13.679 -1.2383  1.1170  0.2066
 1484SOL     OW16084   1.776   3.386   2.808  0.3271 -0.0812  0.0280
 1484SOL    HW116085   1.694   3.431   2.787 -1.2207 -3.0702 -0.3293
 1484SOL    HW216086   1.842   3.450   2.781 -0.8977  0.2293 -2.2768
 1485SOL     OW16087   2.380   3.624   8.451  0.3491 -0.3913 -0.3561
 1485SOL    HW116088   2.291   3.615   8.484  0.4994 -0.9159 -0.0806
 1485SOL    HW216089   2.373   3.703   8.398 -0.7771 -0.1392  0.1777
 1486SOL     OW16090   1.641   2.570   4.731  0.3509  0.0208  0.4442
 1486SOL    HW116091   1.626   2.493   4.676 -2.8949  1.4121 -0.6297
 1486SOL    HW216092   1.666   2.518   4.807  2.1176  0.8709  0.4577
 1487SOL     OW16093   1.163   2.659   3.834 -0.4578 -0.1624 -0.6429
 1487SOL    HW116094   1.134   2.603   3.762 -1.8296 -0.2900  0.0227
 1487SOL    HW216095   1.096   2.634   3.897 -0.8132  1.2353 -0.4693
 1488SOL     OW16096   1.015   0.511   5.547 -0.0244 -0.1256 -0.5751
 1488SOL    HW116097   1.030   0.430   5.497 -2.3036 -0.1806 -1.1658
 1488SOL    HW216098   0.923   0.504   5.572  0.1362 -0.4391 -0.0861
 1489SOL     OW16099   4.230   1.646   0.240 -0.3101 -0.2416 -0.7921
 1489SOL    HW116100   4.294   1.687   0.181  1.6296 -2.0949  0.0025
 1489SOL    HW216101   4.157   1.643   0.178  1.1323  1.2099 -2.5548
 1490SOL     OW16102   2.454   0.504   3.430  0.0533  0.1382 -0.1325
 1490SOL    HW116103   2.472   0.539   3.343  2.3497 -0.5397  0.0680
 1490SOL    HW216104   2.366   0.533   3.453 -0.5996 -1.5132 -0.5567
 1491SOL     OW16105   1.837   2.305   5.485 -0.0235 -0.0639 -0.8296
 1491SOL    HW116106   1.920   2.300   5.438  0.1222  1.7073 -0.7749
 1491SOL    HW216107   1.810   2.395   5.464 -2.7513 -0.6869 -0.0001
 1492SOL     OW16108   2.988   2.695   8.977  0.4678  0.4067 -0.2251
 1492SOL    HW116109   3.074   2.670   8.943  0.3726 -1.1591  0.7130
 1492SOL    HW216110   3.023   2.739   9.055  0.7846 -0.5218  0.1486
 1493SOL     OW16111   3.168   1.422  14.744 -0.1118  0.3537  0.1583
 1493SOL    HW116112   3.143   1.444  14.833 -1.6457 -5.2553  1.0841
 1493SOL    HW216113   3.260   1.447  14.743 -0.6479  2.3362 -0.5553
 1494SOL     OW16114   0.606   4.108   8.462 -0.1756 -0.1339 -0.2421
 1494SOL    HW116115   0.513   4.127   8.450  0.7001  2.6823 -2.6543
 1494SOL    HW216116   0.620   4.146   8.549  0.3413  1.8635 -1.1959
 1495SOL     OW16117   4.731   0.287  16.920 -0.3741 -0.3488  0.0403
 1495SOL    HW116118   4.643   0.283  16.882 -0.6276  0.4151  0.5327
 1495SOL    HW216119   4.707   0.282  17.013 -1.5576 -3.5504 -0.4376
 1496SOL     OW16120   0.262   2.648  15.171 -0.3552  0.4180 -0.1519
 1496SOL    HW116121   0.256   2.685  15.259 -0.5679 -2.0559  0.8624
 1496SOL    HW216122   0.296   2.560  15.188 -1.0374 -0.0737 -1.3506
 1497SOL     OW16123   1.037   0.343   4.181  0.1035  0.2123 -0.1299
 1497SOL    HW116124   1.113   0.362   4.127 -1.7048  3.7845 -1.4484
 1497SOL    HW216125   0.973   0.401   4.139  1.4266  0.3111 -1.9978
 1498SOL     OW16126   2.923   4.381   3.920 -0.0550 -0.0292 -0.1343
 1498SOL    HW116127   2.969   4.298   3.930 -2.2114 -1.3758 -1.4130
 1498SOL    HW216128   2.908   4.410   4.011 -0.2757  0.1931 -0.2419
 1499SOL     OW16129   0.680   3.013   6.184 -0.6088 -0.1660 -0.2158
 1499SOL    HW116130   0.672   2.942   6.121  1.4713  0.5927 -1.3230
 1499SOL    HW216131   0.734   2.967   6.248 -2.2244  1.0335  2.0305
 1500SOL     OW16132   0.202   4.127   4.009  0.0581 -0.0663 -0.3459
 1500SOL    HW116133   0.151   4.205   3.986  3.5537  2.2351 -0.4099
 1500SOL    HW216134   0.226   4.092   3.923 -0.5485 -0.4250 -0.3648
 1501SOL     OW16135   3.340   1.329   3.207 -0.3780 -0.5389 -0.1675
 1501SOL    HW116136   3.375   1.354   3.292 -0.1173 -1.1909 -0.0857
 1501SOL    HW216137   3.405   1.262   3.189 -0.6906 -1.2083  1.2334
 1502SOL     OW16138   0.624   2.414   3.734  0.6395 -0.3066  0.2228
 1502SOL    HW116139   0.603   2.323   3.754 -0.1481 -0.2128 -0.1392
 1502SOL    HW216140   0.664   2.413   3.647 -2.5056  1.7025 -1.2639
 1503SOL     OW16141   1.219   3.733   4.173  0.4787  0.2583 -0.1741
 1503SOL    HW116142   1.303   3.778   4.172 -0.4494  1.9510 -1.1789
 1503SOL    HW216143   1.156   3.794   4.135 -1.7784 -0.6826  1.9727
 1504SOL     OW16144   0.376   0.117   5.031  0.0737 -0.1587 -0.3130
 1504SOL    HW116145   0.462   0.082   5.058 -0.0837 -0.1328  0.2187
 1504SOL    HW216146   0.412   0.205   5.042 -0.1851  0.2547 -2.9009
 1505SOL     OW16147   1.696   4.327   4.350  0.6168 -0.0804 -0.8177
 1505SOL    HW116148   1.719   4.334   4.443 -0.5283  0.4312 -0.5708
 1505SOL    HW216149   1.691   4.417   4.319 -0.1527 -0.2631 -1.2244
 1506SOL     OW16150   3.465   4.723   4.798  0.2667 -0.1309  0.5365
 1506SOL    HW116151   3.534   4.721   4.864  0.0300 -1.2302  0.7406
 1506SOL    HW216152   3.390   0.024   4.844  0.4199 -1.3557  1.7693
 1507SOL     OW16153   1.605   0.286   9.446  0.3084  0.1000 -0.1374
 1507SOL    HW116154   1.612   0.336   9.365 -0.6347 -1.7489 -1.3510
 1507SOL    HW216155   1.536   0.220   9.435  1.5806 -1.5962  1.9838
 1508SOL     OW16156   3.111   4.312  16.876 -0.4926 -0.0434  0.1142
 1508SOL    HW116157   3.168   4.373  16.830 -1.8874  0.4743 -0.9511
 1508SOL    HW216158   3.028   4.337  16.836  0.4274  1.4292 -0.8499
 1509SOL     OW16159   1.438   1.596  10.131  0.0462 -0.4862 -0.2281
 1509SOL    HW116160   1.348   1.605  10.160  1.1609  0.1951  3.0565
 1509SOL    HW216161   1.449   1.683  10.092  1.5018 -0.1624  0.9159
 1510SOL     OW16162   2.124   2.968   5.990 -1.0134  0.5736  0.7273
 1510SOL    HW116163   2.166   3.053   6.005 -1.1948  0.8027 -0.0897
 1510SOL    HW216164   2.054   2.979   6.053 -1.3788  1.4617  0.1719
 1511SOL     OW16165   0.964   3.784   5.920 -0.4272 -0.2212  0.5704
 1511SOL    HW116166   0.978   3.854   5.856 -2.8182 -0.3515 -0.0900
 1511SOL    HW216167   0.912   3.827   5.987  0.0667 -0.2298  0.9609
 1512SOL     OW16168   2.253   1.810   6.889 -0.4509 -0.3086  0.0539
 1512SOL    HW116169   2.226   1.875   6.824  0.2827 -0.8790 -0.8166
 1512SOL    HW216170   2.183   1.745   6.880 -0.4483 -0.2573 -0.3103
 1513SOL     OW16171   4.048   1.380  15.297 -0.2665 -0.8367  0.0431
 1513SOL    HW116172   4.142   1.374  15.280 -0.5527 -0.6416 -1.6631
 1513SOL    HW216173   4.008   1.325  15.228 -0.7235 -1.4159  0.7705
 1514SOL     OW16174   3.864   3.829   5.524 -0.3111  0.3315 -0.2408
 1514SOL    HW116175   3.932   3.890   5.496  0.2851  0.0260  0.5224
 1514SOL    HW216176   3.893   3.805   5.612 -0.9458  1.3838  0.2627
 1515SOL     OW16177   1.057   1.747  14.850  0.8634 -0.2628 -0.0150
 1515SOL    HW116178   1.148   1.763  14.823  0.4706 -0.6095 -1.5520
 1515SOL    HW216179   1.044   1.653  14.840 -0.9104  0.2512 -2.4918
 1516SOL     OW16180   4.290   1.092   6.616  0.1467 -0.2891 -0.1010
 1516SOL    HW116181   4.306   1.006   6.654 -1.3691 -1.0999 -1.2662
 1516SOL    HW216182   4.194   1.094   6.611  0.2580 -1.2325 -2.8236
 1517SOL     OW16183   1.230   1.675   2.425  0.1269 -0.3611 -0.4524
 1517SOL    HW116184   1.290   1.706   2.493  0.1717 -2.1506  0.3246
 1517SOL    HW216185   1.170   1.748   2.409 -1.2827 -1.4987 -0.3379
 1518SOL     OW16186   3.318   0.939   9.200  0.0339  0.0779 -0.1464
 1518SOL    HW116187   3.365   0.857   9.216  0.2374  0.2081 -0.0801
 1518SOL    HW216188   3.259   0.901   9.134 -1.1000  0.7122  0.5044
 1519SOL     OW16189   4.120   3.105   6.991  0.6341 -0.2918 -0.0124
 1519SOL    HW116190   4.148   3.186   6.949  0.5597  0.3495  1.1802
 1519SOL    HW216191   4.051   3.081   6.929 -0.3075 -0.0230  0.9271
 1520SOL     OW16192   0.296   0.636  11.689 -0.0610  0.7833  0.8745
 1520SOL    HW116193   0.322   0.547  11.714 -0.4935  1.4394  3.6500
 1520SOL    HW216194   0.233   0.671  11.752  0.5145  0.8870  1.3925
 1521SOL     OW16195   4.226   2.090   8.120 -0.6602  0.1644  0.1497
 1521SOL    HW116196   4.261   2.164   8.170 -1.9441  1.3086 -0.6506
 1521SOL    HW216197   4.162   2.046   8.175  0.3857 -0.2380  1.0345
 1522SOL     OW16198   0.809   3.899   6.116 -0.5138  0.3347 -0.6996
 1522SOL    HW116199   0.798   3.862   6.204  1.3931  1.8889  0.1843
 1522SOL    HW216200   0.718   3.928   6.105 -0.7650  0.5812  2.1069
 1523SOL     OW16201   1.365   0.380   1.763 -0.2544  0.6036  0.8156
 1523SOL    HW116202   1.325   0.397   1.678  1.1073 -2.8060 -0.4951
 1523SOL    HW216203   1.356   0.285   1.767  2.1428  0.2780 -2.4550
 1524SOL     OW16204   2.212   0.292  12.248  0.3569  0.5333  0.1006
 1524SOL    HW116205   2.206   0.354  12.176 -2.3596  1.3816  1.0533
 1524SOL    HW216206   2.123   0.274  12.279  0.8637 -0.8720  0.7656
 1525SOL     OW16207   0.445   1.897  13.880  0.4376  0.4297 -0.0565
 1525SOL    HW116208   0.358   1.891  13.920 -0.8461 -4.1398 -3.4745
 1525SOL    HW216209   0.442   1.988  13.851 -2.5307  0.9996  2.0670
 1526SOL     OW16210   1.542   1.219   3.545 -0.3571  0.4917 -0.2225
 1526SOL    HW116211   1.518   1.126   3.549 -0.0539  0.4303  0.1508
 1526SOL    HW216212   1.493   1.244   3.624 -0.7283  1.1885 -0.6732
 1527SOL     OW16213   2.392   0.064   2.725  0.5908 -0.2149  0.4162
 1527SOL    HW116214   2.432   4.713   2.731 -0.7839 -1.0325 -1.9348
 1527SOL    HW216215   2.379   0.097   2.814  0.4228  0.6559  0.0759
 1528SOL     OW16216   2.693   1.386   6.537  0.1868  0.6468 -0.3473
 1528SOL    HW116217   2.666   1.378   6.628  1.8137  0.7508  0.1448
 1528SOL    HW216218   2.752   1.310   6.535  0.8071  1.0901  1.0348
 1529SOL     OW16219   1.630   2.653   2.874 -0.2951  0.5180  0.1258
 1529SOL    HW116220   1.662   2.743   2.880  0.8014  0.1016  0.4916
 1529SOL    HW216221   1.561   2.671   2.810 -0.7939 -1.8902 -0.0285
 1530SOL     OW16222   1.542   3.515   1.557 -0.6206 -0.7444  0.3355
 1530SOL    HW116223   1.596   3.593   1.565 -0.9261 -0.4281 -0.6604
 1530SOL    HW216224   1.597   3.453   1.509  2.3102 -0.1413  2.9239
 1531SOL     OW16225   1.276   4.613   8.319  0.0640 -0.5739  0.5104
 1531SOL    HW116226   1.241   4.617   8.408  0.4533 -0.4254  0.6551
 1531SOL    HW216227   1.203   4.650   8.268 -0.1324 -0.8778  0.5742
 1532SOL     OW16228   0.262   4.579  12.337 -0.7480 -0.3549 -0.3977
 1532SOL    HW116229   0.270   4.674  12.331  2.6415 -0.7483 -1.7669
 1532SOL    HW216230   0.179   4.573  12.385 -0.1746 -1.4089  0.4605
 1533SOL     OW16231   3.927   0.613  12.664  0.4701  0.4693  0.3094
 1533SOL    HW116232   3.876   0.546  12.710 -1.2180  0.8387 -1.0038
 1533SOL    HW216233   4.010   0.565  12.663 -0.5265 -1.4230  4.3781
 1534SOL     OW16234   1.629   1.554   3.110  0.3212 -0.0771 -0.3074
 1534SOL    HW116235   1.568   1.626   3.126 -0.2378 -0.1274 -2.2939
 1534SOL    HW216236   1.600   1.498   3.183 -0.3602  5.1331  3.3969
 1535SOL     OW16237   1.606   0.467   0.516 -0.0106 -0.0151 -0.2307
 1535SOL    HW116238   1.520   0.485   0.553  0.3278  2.4148 -0.6108
 1535SOL    HW216239   1.618   0.558   0.488 -0.6432  0.3435  0.6900
 1536SOL     OW16240   4.449   0.508   6.854  0.3062  0.6863  0.1231
 1536SOL    HW116241   4.518   0.567   6.825  0.6791 -0.2953 -0.9816
 1536SOL    HW216242   4.486   0.428   6.817  0.2354  1.3287 -1.3097
 1537SOL     OW16243   2.716   3.456   9.023  0.2534  0.1203  0.1805
 1537SOL    HW116244   2.727   3.480   8.931  2.0250  2.3988  0.9681
 1537SOL    HW216245   2.635   3.407   9.008  1.5490 -1.0000 -3.2170
 1538SOL     OW16246   0.357   2.500   3.578  0.4235 -0.1384  0.2545
 1538SOL    HW116247   0.307   2.529   3.654  0.3268  0.2081  0.0581
 1538SOL    HW216248   0.362   2.404   3.588  0.4499  0.1037  2.5652
 1539SOL     OW16249   0.579   0.675  10.065 -0.0521 -0.4139  0.0937
 1539SOL    HW116250   0.486   0.692  10.053 -0.0288  1.0170  1.9790
 1539SOL    HW216251   0.616   0.662   9.978  2.6660  2.5049  0.8084
 1540SOL     OW16252   1.356   3.472   6.969 -0.1017  0.1267 -0.0447
 1540SOL    HW116253   1.354   3.417   6.890 -0.4305 -1.4646  1.0784
 1540SOL    HW216254   1.429   3.528   6.943  0.9413 -1.6443 -0.9406
 1541SOL     OW16255   3.924   3.660   3.572  0.2447  0.0200  0.0001
 1541SOL    HW116256   3.994   3.657   3.507 -0.3077 -1.6793 -0.5318
 1541SOL    HW216257   3.848   3.669   3.514  1.0357  0.8642 -0.9014
 1542SOL     OW16258   2.058   4.294   6.850 -0.2849 -0.2588 -0.2080
 1542SOL    HW116259   1.991   4.239   6.892 -1.9646  1.8809 -0.0903
 1542SOL    HW216260   2.080   4.228   6.784  0.5140  0.8782 -1.0724
 1543SOL     OW16261   3.739   3.193   2.907 -0.2411 -0.7184 -0.8092
 1543SOL    HW116262   3.769   3.102   2.900 -1.8073 -1.3652  1.0245
 1543SOL    HW216263   3.648   3.185   2.933  0.1706 -1.1627  0.5470
 1544SOL     OW16264   1.525   0.170   6.559 -0.0805  0.4999  0.3696
 1544SOL    HW116265   1.505   0.183   6.652  2.0298  0.6803  0.7991
 1544SOL    HW216266   1.612   0.211   6.561 -0.1456  0.7084 -1.9326
 1545SOL     OW16267   0.627   2.714   5.599 -0.3181  0.3978  0.2686
 1545SOL    HW116268   0.690   2.750   5.536  0.0168 -1.8559 -0.6956
 1545SOL    HW216269   0.677   2.637   5.626 -0.2442  0.8132  1.3187
 1546SOL     OW16270   2.665   4.424   2.122 -0.0879  0.0399 -0.4613
 1546SOL    HW116271   2.761   4.417   2.118 -0.0836 -1.5417  2.1861
 1546SOL    HW216272   2.645   4.504   2.073 -1.1513 -0.4998 -0.9119
 1547SOL     OW16273   4.134   2.946   8.166 -0.2025  0.6822 -0.2943
 1547SOL    HW116274   4.156   2.854   8.183  1.2855  0.7537 -1.8494
 1547SOL    HW216275   4.215   2.967   8.120 -0.2851 -1.0342 -1.2482
 1548SOL     OW16276   1.801   4.536   6.886  0.5612  0.4531 -0.7706
 1548SOL    HW116277   1.764   4.461   6.838 -0.2636  0.1354  0.3435
 1548SOL    HW216278   1.892   4.535   6.857  0.4601  0.2380 -1.0843
 1549SOL     OW16279   1.137   3.490   5.365  0.3126  0.7918 -0.1367
 1549SOL    HW116280   1.113   3.539   5.444 -0.1073  1.2243 -0.5346
 1549SOL    HW216281   1.182   3.412   5.396 -0.7916  0.4983  0.7497
 1550SOL     OW16282   0.097   0.374   5.956  0.0041 -0.2157 -0.5723
 1550SOL    HW116283   0.164   0.359   5.890  0.8606  0.3729  0.1707
 1550SOL    HW216284   0.138   0.430   6.022  0.3132 -2.2792  0.9994
 1551SOL     OW16285   2.158   2.852   5.289 -0.2096  0.0384 -0.6171
 1551SOL    HW116286   2.245   2.846   5.250 -0.4242  0.1183 -1.1040
 1551SOL    HW216287   2.173   2.828   5.381 -1.9520  1.1005 -0.0643
 1552SOL     OW16288   0.923   3.067  12.364 -0.0182  0.0534  0.0184
 1552SOL    HW116289   0.841   3.083  12.411  0.2481 -0.0899  0.5304
 1552SOL    HW216290   0.898   2.984  12.323  0.3008  0.4843 -1.0514
 1553SOL     OW16291   1.080   2.174   6.568  0.2563 -0.6131 -0.4208
 1553SOL    HW116292   1.060   2.201   6.479  0.7093 -0.6145 -0.5247
 1553SOL    HW216293   1.129   2.252   6.592  1.4933 -1.0345 -1.5823
 1554SOL     OW16294   2.184   4.141   8.914 -0.3160 -0.4682  0.1943
 1554SOL    HW116295   2.217   4.078   8.849 -3.9090 -3.3618  1.1887
 1554SOL    HW216296   2.164   4.079   8.984 -0.0024  0.7166  1.3287
 1555SOL     OW16297   2.236   2.283   6.717 -0.2077  0.2921  0.0793
 1555SOL    HW116298   2.291   2.342   6.665 -0.3189  0.9514  0.7040
 1555SOL    HW216299   2.213   2.347   6.784  0.2946  0.7230 -0.1582
 1556SOL     OW16300   1.346   4.232  13.099 -0.0477  0.2672 -0.5573
 1556SOL    HW116301   1.409   4.209  13.032 -0.8436 -0.9434 -0.8812
 1556SOL    HW216302   1.375   4.321  13.120  0.1635  0.3141 -1.0528
 1557SOL     OW16303   0.618   0.505  13.525  0.3655 -0.3224  0.1765
 1557SOL    HW116304   0.705   0.539  13.505  1.2737 -1.3104  2.4277
 1557SOL    HW216305   0.618   0.413  13.497  2.5194 -0.6943  1.3454
 1558SOL     OW16306   3.118   2.602   3.559 -0.0353 -0.2914  0.1088
 1558SOL    HW116307   3.097   2.580   3.468 -0.2022 -1.6568  0.4869
 1558SOL    HW216308   3.212   2.618   3.555  0.1589 -1.6165 -0.5384
 1559SOL     OW16309   3.950   4.409  12.084 -0.1843  0.3494  0.3023
 1559SOL    HW116310   3.946   4.324  12.128  2.4141  1.6928  3.1903
 1559SOL    HW216311   3.940   4.388  11.992 -0.7149  2.1327 -0.0391
 1560SOL     OW16312   2.031   2.054  11.197  0.1052 -0.0586 -0.2772
 1560SOL    HW116313   1.993   2.108  11.266  1.0178  1.0941 -0.6629
 1560SOL    HW216314   2.054   1.976  11.247  0.0397  0.7631  1.0312
 1561SOL     OW16315   2.034   3.050   0.363  0.1525  0.4580  0.1354
 1561SOL    HW116316   2.022   2.975   0.305 -1.1579  1.4490 -0.8809
 1561SOL    HW216317   1.965   3.034   0.428 -1.6678  0.5618 -1.7496
 1562SOL     OW16318   3.329   3.301  15.148 -0.1779  0.6074 -0.7609
 1562SOL    HW116319   3.400   3.269  15.093 -1.5197 -1.8189 -1.0914
 1562SOL    HW216320   3.320   3.228  15.210  0.2650  0.4216 -0.9121
 1563SOL     OW16321   1.290   1.533  14.844 -0.2293 -0.4262  0.1340
 1563SOL    HW116322   1.206   1.492  14.823 -0.5848 -0.1703  1.0323
 1563SOL    HW216323   1.274   1.569  14.932 -2.3427 -0.3776 -0.2648
 1564SOL     OW16324   1.726   4.145   7.425 -0.3291  0.1181  0.5091
 1564SOL    HW116325   1.724   4.083   7.352  0.9266 -0.9013  1.3295
 1564SOL    HW216326   1.770   4.086   7.486  0.0065  2.2373  2.3319
 1565SOL     OW16327   0.975   1.759   4.618  0.7368  0.0737  0.1354
 1565SOL    HW116328   1.044   1.798   4.565 -2.4852  1.8194 -2.8010
 1565SOL    HW216329   0.945   1.694   4.555 -1.3059 -0.6295  1.8242
 1566SOL     OW16330   3.602   3.273   5.680  0.3509  0.2324 -0.3517
 1566SOL    HW116331   3.546   3.284   5.603 -1.1605 -1.0366  0.5753
 1566SOL    HW216332   3.569   3.194   5.722 -2.4268  1.2463 -0.6185
 1567SOL     OW16333   2.703   0.992   6.663 -0.4632  0.2134 -0.3491
 1567SOL    HW116334   2.718   0.905   6.627  1.0705  0.2373  0.2336
 1567SOL    HW216335   2.735   0.986   6.753 -0.6470  3.2887 -0.0527
 1568SOL     OW16336   3.974   3.933   9.167 -0.7184 -0.5257 -0.2559
 1568SOL    HW116337   3.997   3.916   9.076 -3.7532 -1.1828 -0.9128
 1568SOL    HW216338   4.004   4.023   9.184  0.2020 -0.7609 -0.6307
 1569SOL     OW16339   2.777   3.690   9.583  0.3903  0.5920  0.6197
 1569SOL    HW116340   2.826   3.662   9.505 -2.3266  0.8813 -1.1944
 1569SOL    HW216341   2.689   3.655   9.567  0.4021  0.9058 -0.1434
 1570SOL     OW16342   3.506   3.573  17.655 -0.1004  0.4887 -0.2944
 1570SOL    HW116343   3.487   3.523  17.735  0.9434 -1.2929 -1.1607
 1570SOL    HW216344   3.599   3.592  17.669 -0.0424 -0.0474  0.0983
 1571SOL     OW16345   4.606   3.540   7.336 -0.6548  0.2221  0.2678
 1571SOL    HW116346   4.520   3.582   7.340 -0.5778  0.6659 -2.6720
 1571SOL    HW216347   4.658   3.613   7.370 -0.9790  0.6132 -0.0623
 1572SOL     OW16348   2.968   3.512  13.612  0.1493  0.0902 -0.3925
 1572SOL    HW116349   2.879   3.527  13.645  0.8961  0.8269  1.2771
 1572SOL    HW216350   2.958   3.519  13.517 -1.6006 -0.1642 -0.2298
 1573SOL     OW16351   1.334   2.992  16.673 -0.4062 -0.1352  0.1717
 1573SOL    HW116352   1.372   2.976  16.586 -0.9118  0.6569 -0.1861
 1573SOL    HW216353   1.322   3.086  16.679 -2.5414 -0.4311  0.4067
 1574SOL     OW16354   3.208   0.217   3.982 -0.3591 -0.4171  0.0637
 1574SOL    HW116355   3.158   0.150   3.935  1.1539 -1.5736  0.1243
 1574SOL    HW216356   3.213   0.167   4.064  0.2604 -0.0214  0.2616
 1575SOL     OW16357   0.123   0.836   6.380  0.0298  0.0844 -0.0515
 1575SOL    HW116358   0.179   0.904   6.341 -1.9259 -1.3583 -5.3074
 1575SOL    HW216359   0.161   0.755   6.347 -2.7438 -0.9784 -0.6075
 1576SOL     OW16360   2.681   4.588   8.671 -0.3239 -0.5117  0.4272
 1576SOL    HW116361   2.722   4.587   8.584 -0.5413  1.2081  0.2929
 1576SOL    HW216362   2.619   4.515   8.670 -1.9472  0.8777 -1.0389
 1577SOL     OW16363   2.439   2.419   2.135 -0.2785  0.4315 -0.2886
 1577SOL    HW116364   2.364   2.472   2.112 -1.4137 -0.9336  0.2476
 1577SOL    HW216365   2.486   2.481   2.190 -2.2494 -1.0792  3.1214
 1578SOL     OW16366   0.236   1.700  17.543 -0.1237  0.3418 -0.3560
 1578SOL    HW116367   0.283   1.626  17.506  0.5449  1.2969 -1.4253
 1578SOL    HW216368   0.289   1.730  17.617  0.4832 -0.2251 -0.5562
 1579SOL     OW16369   4.696   1.591  16.058  0.0320  0.3472 -0.1456
 1579SOL    HW116370   4.625   1.646  16.092  1.3764  0.9063  1.7694
 1579SOL    HW216371   4.652   1.508  16.077  0.4656  0.3855  1.0500
 1580SOL     OW16372   2.566   4.694   3.628  0.4416  0.1575 -0.5422
 1580SOL    HW116373   2.652   4.682   3.668  0.8379 -0.0774 -1.4730
 1580SOL    HW216374   2.593   4.723   3.541  2.1529 -0.0074 -0.0626
 1581SOL     OW16375   1.942   0.646   2.935  0.1158  0.0387  0.4284
 1581SOL    HW116376   1.880   0.717   2.919 -0.0685 -0.4164 -0.8500
 1581SOL    HW216377   1.925   0.623   3.027  2.4380 -0.6233  0.6990
 1582SOL     OW16378   3.722   4.014   6.725  0.2382 -0.5998 -1.2406
 1582SOL    HW116379   3.810   4.035   6.757  0.0745 -4.0327  1.4596
 1582SOL    HW216380   3.733   3.927   6.685 -3.6860 -0.2954 -2.9686
 1583SOL     OW16381   1.439   0.844   1.635 -0.3156 -0.4763 -0.2424
 1583SOL    HW116382   1.378   0.773   1.654  0.6746 -1.9053 -2.4424
 1583SOL    HW216383   1.515   0.812   1.683  0.3857  0.6027 -0.6420
 1584SOL     OW16384   2.213   1.595   2.541  0.2299  0.4978  0.2637
 1584SOL    HW116385   2.286   1.648   2.509  0.0080 -0.6564 -2.1635
 1584SOL    HW216386   2.257   1.581   2.625 -1.7812  1.0792  1.4416
 1585SOL     OW16387   1.326   2.555  14.260  0.2178 -0.3478 -0.0188
 1585SOL    HW116388   1.355   2.641  14.290  0.8811 -1.0162  1.2887
 1585SOL    HW216389   1.345   2.554  14.166 -0.3554  2.2172 -0.1514
 1586SOL     OW16390   1.250   0.361   6.817  0.1975  0.1900  0.2695
 1586SOL    HW116391   1.320   0.405   6.770  0.1033 -1.1272 -1.0882
 1586SOL    HW216392   1.271   0.384   6.907  0.2818  0.7158  0.1123
 1587SOL     OW16393   3.055   3.813  13.702 -0.4421 -0.3526 -0.3032
 1587SOL    HW116394   3.103   3.888  13.668  1.5405 -1.0948  0.8545
 1587SOL    HW216395   2.980   3.817  13.643 -0.2552  0.4390 -0.4835
 1588SOL     OW16396   3.313   1.065   5.792  0.4299  0.3648  0.5719
 1588SOL    HW116397   3.359   0.981   5.794 -0.8882 -0.4317 -2.2701
 1588SOL    HW216398   3.360   1.108   5.721  1.8708 -0.2138  1.1776
 1589SOL     OW16399   2.037   1.301   3.832 -0.3150  0.1193 -0.5615
 1589SOL    HW116400   2.091   1.227   3.802  0.3001  1.4343 -2.6796
 1589SOL    HW216401   1.962   1.290   3.774 -0.6082 -0.2808 -0.1028
 1590SOL     OW16402   0.096   2.055  17.710 -0.0653  0.4023 -0.0931
 1590SOL    HW116403   0.135   2.139  17.733  0.0980  1.1275 -2.9907
 1590SOL    HW216404   0.179   2.008  17.717 -0.1780  0.4066  1.4007
 1591SOL     OW16405   0.148   2.777  10.334 -0.0273  0.5689 -0.6525
 1591SOL    HW116406   0.154   2.836  10.258 -0.9773 -2.5808 -3.1364
 1591SOL    HW216407   0.106   2.841  10.392 -1.4058  0.3032 -1.3522
 1592SOL     OW16408   2.298   4.185   3.185  0.2906  0.0846  0.4592
 1592SOL    HW116409   2.311   4.170   3.278  1.8199 -0.2611  0.1939
 1592SOL    HW216410   2.202   4.189   3.185  0.2503 -0.9219 -1.5505
 1593SOL     OW16411   4.293   3.385   9.992  0.5623 -0.0094 -0.6718
 1593SOL    HW116412   4.301   3.289   9.997 -0.9216 -0.0907  0.2156
 1593SOL    HW216413   4.360   3.397   9.925  1.2221 -0.8584 -0.1779
 1594SOL     OW16414   3.229   0.561   2.181  0.4925  0.4142 -0.0330
 1594SOL    HW116415   3.279   0.575   2.101 -0.6028 -0.3540 -0.8501
 1594SOL    HW216416   3.146   0.592   2.147  0.4578  0.9698  0.5543
 1595SOL     OW16417   2.410   1.133   5.830 -0.4501  0.3326  0.1106
 1595SOL    HW116418   2.370   1.090   5.905 -1.2244  0.5534 -0.1798
 1595SOL    HW216419   2.371   1.082   5.759 -0.6896 -1.0825  1.2643
 1596SOL     OW16420   4.572   0.843   8.627 -0.4303 -0.2488 -0.0981
 1596SOL    HW116421   4.617   0.815   8.547 -1.4622  0.5752 -0.9681
 1596SOL    HW216422   4.604   0.932   8.636 -0.5999 -0.1754 -0.2177
 1597SOL     OW16423   0.499   3.170   8.792 -0.1267  0.3350  0.2388
 1597SOL    HW116424   0.484   3.081   8.761 -0.9950  0.3910  0.5085
 1597SOL    HW216425   0.543   3.169   8.877  0.9346 -0.4246 -0.3250
 1598SOL     OW16426   0.663   3.354   5.235 -0.5694 -0.0555 -0.2151
 1598SOL    HW116427   0.592   3.391   5.181 -0.8707 -2.1293 -1.2303
 1598SOL    HW216428   0.707   3.290   5.179  0.8535  0.7984 -0.0761
 1599SOL     OW16429   3.848   1.045   5.494  0.0527  0.4229 -0.8048
 1599SOL    HW116430   3.842   1.139   5.512  0.4685  0.0378  1.3238
 1599SOL    HW216431   3.757   1.023   5.478  0.2977 -0.8223 -0.4506
 1600SOL     OW16432   4.197   3.923   2.600  0.0646 -1.0455 -0.0481
 1600SOL    HW116433   4.254   3.919   2.523  1.9107 -2.6362  1.4102
 1600SOL    HW216434   4.193   3.831   2.625 -1.1976 -1.4810 -1.8124
 1601SOL     OW16435   4.196   0.344  12.524  0.1461  0.3644 -0.4527
 1601SOL    HW116436   4.206   0.376  12.613 -1.7763 -2.4145  0.7558
 1601SOL    HW216437   4.217   0.422  12.472  1.2938  1.5845  1.8300
 1602SOL     OW16438   4.415   2.161  17.615  0.3706 -0.1372 -0.0347
 1602SOL    HW116439   4.434   2.067  17.608 -2.1411 -0.2984 -4.3393
 1602SOL    HW216440   4.415   2.168  17.711  0.8817  0.8283 -0.1029
 1603SOL     OW16441   2.535   2.468   9.406  0.3929 -0.0472  0.4742
 1603SOL    HW116442   2.571   2.542   9.455  0.1686  0.6835 -0.4561
 1603SOL    HW216443   2.449   2.458   9.445 -0.1137  0.6089 -0.4730
 1604SOL     OW16444   1.978   2.799   1.941  0.1016 -0.4093  0.0170
 1604SOL    HW116445   1.962   2.785   2.034 -0.3568 -0.8979 -0.1359
 1604SOL    HW216446   2.027   2.718   1.923  0.3103 -0.0722 -0.9454
 1605SOL     OW16447   0.564   0.250  12.068 -0.5819  0.8012  0.6783
 1605SOL    HW116448   0.652   0.212  12.058 -1.3315 -0.4149 -1.3835
 1605SOL    HW216449   0.573   0.303  12.147  1.3720  1.4424  0.0407
 1606SOL     OW16450   4.294   3.227  16.375  0.0165 -0.2146  0.5832
 1606SOL    HW116451   4.287   3.230  16.471  1.2872 -1.2493  0.7194
 1606SOL    HW216452   4.209   3.187  16.360  0.5614 -0.8152 -0.9232
 1607SOL     OW16453   1.538   4.353   4.787  0.8476  0.0115  0.2669
 1607SOL    HW116454   1.622   4.359   4.741 -0.1398 -1.3584 -1.7403
 1607SOL    HW216455   1.528   4.258   4.774  1.7372 -0.2381  1.4430
 1608SOL     OW16456   2.702   1.887   5.629 -0.0802  0.5206  0.0740
 1608SOL    HW116457   2.670   1.941   5.701 -0.3873 -0.6191  0.7832
 1608SOL    HW216458   2.660   1.805   5.653  0.2015  0.5145  0.5403
 1609SOL     OW16459   2.083   4.386   2.380  0.0777 -0.0573  0.1346
 1609SOL    HW116460   2.151   4.328   2.413  0.0897 -0.5451 -0.7479
 1609SOL    HW216461   2.122   4.416   2.297  0.6292  0.1310  0.4592
 1610SOL     OW16462   0.865   1.910  10.263 -0.2571 -0.2148 -0.0706
 1610SOL    HW116463   0.904   1.953  10.187 -2.8214  1.4087 -0.4866
 1610SOL    HW216464   0.903   1.823  10.274 -0.4288 -0.1848  0.8098
 1611SOL     OW16465   0.809   3.363   0.906  0.8400  0.1888 -0.1213
 1611SOL    HW116466   0.732   3.394   0.858  0.9729 -1.1290 -1.1921
 1611SOL    HW216467   0.771   3.375   0.993 -1.1444 -1.3558 -0.7693
 1612SOL     OW16468   1.493   4.098   3.897 -0.0960 -0.2581 -0.0048
 1612SOL    HW116469   1.404   4.080   3.927 -0.1135 -2.1947 -1.2181
 1612SOL    HW216470   1.478   4.135   3.810  0.1500  0.5146  0.2864
 1613SOL     OW16471   1.384   0.961   0.247 -0.3553 -0.4657  0.0100
 1613SOL    HW116472   1.381   0.867   0.232  1.6094 -0.2707 -1.5083
 1613SOL    HW216473   1.447   0.954   0.319  0.5746 -1.0994 -0.8671
 1614SOL     OW16474   1.023   4.116   0.635  0.4925 -0.2768 -0.5806
 1614SOL    HW116475   1.001   4.031   0.672 -1.6451  0.3845 -0.3098
 1614SOL    HW216476   0.958   4.170   0.681  3.0973  2.7149 -0.3961
 1615SOL     OW16477   4.042   2.151   6.729  0.0295  0.3736  0.6419
 1615SOL    HW116478   3.955   2.147   6.767 -0.9330 -1.0390 -1.7400
 1615SOL    HW216479   4.095   2.168   6.807  0.4547 -0.1664  0.4692
 1616SOL     OW16480   1.105   0.500   6.466 -0.3587 -0.2569  0.2898
 1616SOL    HW116481   1.200   0.495   6.469 -0.4304 -0.9604  1.4375
 1616SOL    HW216482   1.109   0.594   6.450  0.4261  0.0576  2.3421
 1617SOL     OW16483   2.151   0.740   8.655  0.4534 -0.1554 -0.0079
 1617SOL    HW116484   2.179   0.755   8.564 -0.0164  1.0775  0.0578
 1617SOL    HW216485   2.124   0.829   8.679 -1.8249 -0.2494 -2.2057
 1618SOL     OW16486   4.609   4.354   6.667 -0.4586 -0.0336  0.0887
 1618SOL    HW116487   4.550   4.399   6.728  0.7617  1.5593  0.0819
 1618SOL    HW216488   4.566   4.269   6.655  0.8705 -0.5015 -1.4067
 1619SOL     OW16489   1.915   1.093   8.543  0.3744 -0.1199  0.0913
 1619SOL    HW116490   1.888   1.076   8.453 -1.1459  0.4710  0.4218
 1619SOL    HW216491   1.833   1.121   8.584 -0.0784 -1.4128  0.0499
 1620SOL     OW16492   1.823   2.089   6.580 -0.6478  0.1572  0.0415
 1620SOL    HW116493   1.881   2.108   6.506 -1.2050 -1.6834 -0.8565
 1620SOL    HW216494   1.862   2.004   6.600 -0.8796 -0.3942 -1.7803
 1621SOL     OW16495   3.247   3.333  15.545 -0.3503 -0.4270  0.1089
 1621SOL    HW116496   3.287   3.258  15.501 -3.0286 -1.6115 -0.2764
 1621SOL    HW216497   3.300   3.408  15.518  0.8756 -0.5950  2.0045
 1622SOL     OW16498   1.207   0.471  13.477  0.4421 -0.2521  0.5504
 1622SOL    HW116499   1.178   0.546  13.529  0.7134  0.3403 -0.1508
 1622SOL    HW216500   1.290   0.510  13.450  0.0345  0.3418  0.1595
 1623SOL     OW16501   4.011   2.778  16.780  0.1063  0.2491  0.3287
 1623SOL    HW116502   4.011   2.695  16.732  2.5098 -0.5040  1.6131
 1623SOL    HW216503   3.918   2.799  16.771  0.4520  1.2631 -0.9485
 1624SOL     OW16504   4.055   2.912   3.543  1.1176 -0.1671 -0.1430
 1624SOL    HW116505   4.076   2.881   3.631 -0.4323 -0.1089  0.2543
 1624SOL    HW216506   4.009   2.995   3.555 -1.1826 -1.3595 -0.7164
 1625SOL     OW16507   0.065   1.542   6.351  0.6848 -0.6713 -0.0664
 1625SOL    HW116508   0.136   1.565   6.292  0.0090  1.9938  0.1890
 1625SOL    HW216509   0.110   1.555   6.435 -0.8378  1.4798  0.4048
 1626SOL     OW16510   2.279   3.174   2.895  0.1727 -1.1323  0.1544
 1626SOL    HW116511   2.197   3.208   2.930  1.0061  0.3597  0.6794
 1626SOL    HW216512   2.288   3.103   2.959  0.7472 -0.6078  0.6702
 1627SOL     OW16513   4.715   2.539   7.433  0.5678 -0.1286  0.4108
 1627SOL    HW116514   4.681   2.517   7.520  0.5772 -1.1254  0.1641
 1627SOL    HW216515   4.678   2.626   7.421 -2.1294 -1.2851  0.1730
 1628SOL     OW16516   0.948   2.151   9.347 -0.1054  0.4297  0.2207
 1628SOL    HW116517   0.918   2.122   9.433 -0.0192  0.7744  0.3688
 1628SOL    HW216518   1.026   2.189   9.388  0.1206 -0.5366  0.6761
 1629SOL     OW16519   2.723   0.051  13.566  1.0408  0.2547 -0.1363
 1629SOL    HW116520   2.763   0.068  13.652  1.0475  0.5913 -0.2056
 1629SOL    HW216521   2.639   0.085  13.595 -0.5115 -3.6278 -0.0675
 1630SOL     OW16522   0.512   0.071   8.769 -0.4518  0.5605 -0.1773
 1630SOL    HW116523   0.571   0.006   8.807  0.5570  0.6392 -1.6108
 1630SOL    HW216524   0.468   0.097   8.850  0.8335  3.5523 -0.4437
 1631SOL     OW16525   4.250   1.733   4.357 -0.1482  0.3884  0.3411
 1631SOL    HW116526   4.325   1.710   4.412  0.2432  1.4848  0.2740
 1631SOL    HW216527   4.299   1.728   4.274 -0.3905 -0.1107  0.2305
 1632SOL     OW16528   1.988   4.671   4.111 -0.2520  0.6323  0.1646
 1632SOL    HW116529   1.967   0.028   4.121 -0.3897  0.5169  0.9593
 1632SOL    HW216530   2.060   4.680   4.049 -0.3207  0.3207  0.0351
 1633SOL     OW16531   1.809   3.602   3.733  0.3579  0.3632 -0.1687
 1633SOL    HW116532   1.801   3.555   3.650 -2.4468  1.6351 -0.6264
 1633SOL    HW216533   1.738   3.560   3.783  1.2640 -0.5063  0.3966
 1634SOL     OW16534   2.749   4.621  14.598 -0.0167 -0.3777  0.9442
 1634SOL    HW116535   2.676   4.561  14.616  0.3736 -0.9920  0.4938
 1634SOL    HW216536   2.719   4.702  14.639 -0.5851  0.0649 -0.3633
 1635SOL     OW16537   4.020   0.530   5.432  1.0297  0.3235 -0.6367
 1635SOL    HW116538   3.965   0.462   5.471  1.3226  0.6584  0.3705
 1635SOL    HW216539   3.970   0.611   5.432  1.1960  0.4264 -0.8973
 1636SOL     OW16540   1.428   0.464  12.900  0.0249 -0.0747 -0.3253
 1636SOL    HW116541   1.436   0.498  12.811  4.7989 -1.3240 -0.4035
 1636SOL    HW216542   1.488   0.390  12.890 -1.0917 -1.2291  1.6254
 1637SOL     OW16543   4.228   4.056   1.913  0.1289  0.0633 -0.3987
 1637SOL    HW116544   4.225   4.151   1.910  0.6859  0.0554 -1.0649
 1637SOL    HW216545   4.139   4.036   1.885  0.5683 -3.0470  0.4057
 1638SOL     OW16546   2.569   3.613   5.877  0.1974  0.6496 -0.0013
 1638SOL    HW116547   2.651   3.584   5.916 -0.1545  1.2462  1.1808
 1638SOL    HW216548   2.559   3.697   5.922 -0.3825  0.0047  1.0404
 1639SOL     OW16549   4.629   0.609  12.893 -0.5459 -0.5781 -0.1383
 1639SOL    HW116550   4.719   0.638  12.905 -0.8364 -0.5209  2.0010
 1639SOL    HW216551   4.643   0.518  12.869  0.8259 -0.7266  1.2351
 1640SOL     OW16552   4.336   0.974  13.239  0.3577  0.3177  0.9400
 1640SOL    HW116553   4.407   1.038  13.229  1.6531 -1.3350 -0.3809
 1640SOL    HW216554   4.308   1.006  13.325 -1.0569 -1.2605  1.0502
 1641SOL     OW16555   0.621   0.597   8.853 -0.6201 -0.5107 -0.4260
 1641SOL    HW116556   0.570   0.595   8.772 -2.1228 -0.7414  0.5114
 1641SOL    HW216557   0.545   0.597   8.911  0.8631  3.0465  1.5060
 1642SOL     OW16558   2.536   4.729   5.360  0.7391  0.5107  0.1541
 1642SOL    HW116559   2.544   0.088   5.364 -0.7882  0.6752 -0.8110
 1642SOL    HW216560   2.577   4.709   5.276  1.0024  0.1682  0.3624
 1643SOL     OW16561   1.281   1.217   0.264  0.2000 -0.2394  0.2357
 1643SOL    HW116562   1.186   1.211   0.268  0.2221 -0.3970  0.5139
 1643SOL    HW216563   1.305   1.125   0.271 -0.5921 -0.5226 -0.9763
 1644SOL     OW16564   0.120   0.788   0.898  0.5825 -0.0526 -0.8315
 1644SOL    HW116565   0.175   0.789   0.819  1.0032  0.6023 -0.5243
 1644SOL    HW216566   0.055   0.856   0.880 -1.3607 -1.1909  1.8720
 1645SOL     OW16567   2.760   0.371   5.035 -0.5545  0.4359 -0.0883
 1645SOL    HW116568   2.718   0.388   5.119 -0.0202  1.5980 -0.0571
 1645SOL    HW216569   2.686   0.327   4.993 -0.2842 -0.6523  0.5808
 1646SOL     OW16570   0.072   2.181   8.699  0.3890  0.6337 -0.2133
 1646SOL    HW116571   0.119   2.236   8.636  1.6354  1.0618  1.0975
 1646SOL    HW216572   0.130   2.180   8.775 -0.3264 -2.1485  0.2899
 1647SOL     OW16573   2.216   0.583   3.530  0.4975  0.1125 -0.4048
 1647SOL    HW116574   2.132   0.574   3.485  0.6108  2.2415 -1.0305
 1647SOL    HW216575   2.201   0.649   3.597  2.2421 -1.0553  1.1190
 1648SOL     OW16576   4.621   1.394  12.061  0.2492  0.0165 -0.3250
 1648SOL    HW116577   4.699   1.347  12.092 -1.2102 -1.3431  1.3070
 1648SOL    HW216578   4.637   1.468  12.119  0.0241  0.5270 -0.9206
 1649SOL     OW16579   0.470   0.315  16.001  0.3351  0.4285 -0.3595
 1649SOL    HW116580   0.378   0.309  16.026  0.5697 -0.0502  0.4031
 1649SOL    HW216581   0.476   0.390  15.942 -0.0369 -1.5242 -2.8712
 1650SOL     OW16582   0.279   1.265   4.240  0.3804  0.0395 -0.1226
 1650SOL    HW116583   0.217   1.289   4.309 -0.3608  0.4721 -0.9581
 1650SOL    HW216584   0.357   1.256   4.296  0.0327  0.3251  0.4072
 1651SOL     OW16585   0.175   2.763   1.713 -0.2078  0.1905  0.0413
 1651SOL    HW116586   0.159   2.671   1.691  1.2804 -0.6889  2.6028
 1651SOL    HW216587   0.167   2.803   1.626  1.5119 -1.3443 -0.8267
 1652SOL     OW16588   4.674   2.449  10.759 -0.6282  0.0242  0.6581
 1652SOL    HW116589   4.683   2.433  10.666 -1.2916  0.8469  0.4493
 1652SOL    HW216590   4.581   2.432  10.773 -0.4187  0.9378  3.3583
 1653SOL     OW16591   1.184   2.202   6.875  0.8341  0.1529 -0.1584
 1653SOL    HW116592   1.215   2.117   6.844  0.5674  1.1386 -3.0814
 1653SOL    HW216593   1.224   2.261   6.812 -0.6839  1.1680 -0.1609
 1654SOL     OW16594   4.302   3.907   6.740 -0.0926  0.6556  0.5287
 1654SOL    HW116595   4.283   3.950   6.824  1.3009 -2.5535  2.4846
 1654SOL    HW216596   4.355   3.833   6.769 -1.0098  0.0060  0.5160
 1655SOL     OW16597   3.051   2.253   7.499 -0.1661 -0.2414  0.0498
 1655SOL    HW116598   3.138   2.212   7.502 -0.5416 -1.0282  0.1362
 1655SOL    HW216599   3.049   2.281   7.408 -3.8971 -1.7259 -0.3217
 1656SOL     OW16600   1.762   1.542  12.615  0.1035  0.0614 -0.6356
 1656SOL    HW116601   1.718   1.541  12.700  0.5970  0.9429 -0.3617
 1656SOL    HW216602   1.849   1.551  12.654 -0.7747 -0.2181  1.3544
 1657SOL     OW16603   4.588   1.613   3.391 -0.4109 -0.0773  0.7861
 1657SOL    HW116604   4.677   1.648   3.396 -1.0613  2.0199 -2.6405
 1657SOL    HW216605   4.534   1.692   3.390  0.3644  0.4494 -1.7358
 1658SOL     OW16606   2.739   4.603   7.700  0.2227 -0.0601 -0.0225
 1658SOL    HW116607   2.773   4.526   7.745 -0.9821  0.1355  1.2091
 1658SOL    HW216608   2.733   4.579   7.607 -2.0006 -0.5138  0.2467
 1659SOL     OW16609   0.954   1.672  12.146  0.1593  0.2859 -0.1001
 1659SOL    HW116610   0.889   1.692  12.213  0.4648  2.0116 -0.3172
 1659SOL    HW216611   1.035   1.660  12.196  0.1646 -1.2045 -0.4723
 1660SOL     OW16612   4.524   3.823  10.287  0.0665 -0.4220 -0.1763
 1660SOL    HW116613   4.489   3.812  10.199 -1.7788 -0.1461  0.5154
 1660SOL    HW216614   4.592   3.889  10.272 -0.3981  0.2871  0.7750
 1661SOL     OW16615   3.411   4.416   1.495 -0.1406 -0.0897  0.0579
 1661SOL    HW116616   3.444   4.454   1.414  2.9489 -1.7196  0.5386
 1661SOL    HW216617   3.476   4.447   1.558 -0.1642 -1.2918  0.6670
 1662SOL     OW16618   2.347   3.151  15.200  0.6038  0.8535  0.2909
 1662SOL    HW116619   2.281   3.205  15.242 -1.4456 -1.6451  0.2973
 1662SOL    HW216620   2.341   3.071  15.253  0.4536 -0.3842 -1.5654
 1663SOL     OW16621   1.351   0.569   0.572  0.0339 -0.2269 -0.4424
 1663SOL    HW116622   1.308   0.613   0.499 -1.1843  0.6503  0.7808
 1663SOL    HW216623   1.378   0.646   0.623  1.1833 -0.5723 -0.5430
 1664SOL     OW16624   2.021   0.304   6.929  0.3595  0.4033  0.2417
 1664SOL    HW116625   1.954   0.242   6.901  3.6056 -1.5285 -3.2206
 1664SOL    HW216626   2.039   0.273   7.018  0.3339  0.3434  0.2259
 1665SOL     OW16627   3.064   0.804   7.660  0.0624 -0.0863  0.1791
 1665SOL    HW116628   3.157   0.783   7.671 -0.2494 -1.4418  0.2016
 1665SOL    HW216629   3.043   0.761   7.577 -0.6848  1.5314 -0.4814
 1666SOL     OW16630   3.056   0.574   5.700 -0.1198 -0.0632 -0.3163
 1666SOL    HW116631   3.082   0.503   5.759 -0.2818 -0.3408 -0.5798
 1666SOL    HW216632   2.995   0.617   5.760 -1.1325 -1.8983 -0.0352
 1667SOL     OW16633   4.015   4.187   5.761 -0.2007 -0.2526 -0.4255
 1667SOL    HW116634   3.930   4.224   5.737 -1.6327 -2.2383  1.5699
 1667SOL    HW216635   4.012   4.108   5.707 -0.9989 -1.0979  0.8376
 1668SOL     OW16636   1.811   3.972   2.959 -0.5058  0.4172 -0.6146
 1668SOL    HW116637   1.727   4.018   2.968  0.1201  1.7207 -1.4288
 1668SOL    HW216638   1.787   3.880   2.956  2.2243 -0.2463 -1.1853
 1669SOL     OW16639   1.131   1.838   4.368 -0.0427 -0.0635  1.1447
 1669SOL    HW116640   1.214   1.790   4.361  0.7992  1.1897  2.5503
 1669SOL    HW216641   1.169   1.924   4.384 -1.1224  0.9704 -1.9630
 1670SOL     OW16642   4.212   2.354   1.773 -0.7870 -0.0251  0.3034
 1670SOL    HW116643   4.260   2.287   1.724  0.2484 -1.1839  2.8860
 1670SOL    HW216644   4.205   2.435   1.723 -0.2075  0.0311  0.3045
 1671SOL     OW16645   0.425   3.048   4.974  0.2915 -0.0372  0.6487
 1671SOL    HW116646   0.396   3.043   5.065 -0.2722 -0.3062  0.4516
 1671SOL    HW216647   0.381   2.968   4.945 -0.9183 -0.7207  4.2515
 1672SOL     OW16648   4.270   2.680  12.647  0.4629  0.2124 -0.4327
 1672SOL    HW116649   4.347   2.634  12.616  0.5481 -1.1540  1.8059
 1672SOL    HW216650   4.297   2.771  12.631  0.5594  0.3495  0.5097
 1673SOL     OW16651   1.361   0.792  11.016  0.2797  0.8481 -0.0254
 1673SOL    HW116652   1.427   0.733  11.052 -2.7604 -1.3982  1.8953
 1673SOL    HW216653   1.392   0.787  10.925 -0.1101  1.6010 -0.2015
 1674SOL     OW16654   1.870   3.808   7.053  0.7504  0.0322 -0.0051
 1674SOL    HW116655   1.927   3.818   6.977 -0.4991 -0.6758 -1.0174
 1674SOL    HW216656   1.829   3.723   7.039  1.1385 -0.3236  0.9427
 1675SOL     OW16657   1.674   4.327   6.763 -0.6737 -0.1497  0.1217
 1675SOL    HW116658   1.680   4.233   6.782  4.0545 -0.5044 -3.1421
 1675SOL    HW216659   1.579   4.326   6.752 -0.7092  2.1614  0.3073
 1676SOL     OW16660   0.647   4.453  17.175  0.4508  0.0354 -0.5000
 1676SOL    HW116661   0.592   4.451  17.253  2.9514  0.5087  1.2676
 1676SOL    HW216662   0.580   4.446  17.107 -1.5785  0.9028  1.4059
 1677SOL     OW16663   2.705   1.407   3.769  0.5506 -0.7585  0.0212
 1677SOL    HW116664   2.635   1.432   3.829  0.3717 -0.2686 -0.3865
 1677SOL    HW216665   2.654   1.344   3.720  0.7805 -1.1682  0.3068
 1678SOL     OW16666   4.577   3.561   1.645 -0.6038 -0.5601  0.7474
 1678SOL    HW116667   4.525   3.520   1.715 -2.5552  2.8083  1.2738
 1678SOL    HW216668   4.547   3.651   1.657 -0.1169  0.1290 -3.1937
 1679SOL     OW16669   2.597   3.472   9.599 -0.4887 -0.3156 -0.2692
 1679SOL    HW116670   2.654   3.426   9.537 -0.2126  0.8729 -0.8980
 1679SOL    HW216671   2.606   3.409   9.671 -0.8589 -1.5162 -1.2709
 1680SOL     OW16672   1.298   1.468   5.560 -0.0880  0.3764  0.3513
 1680SOL    HW116673   1.205   1.458   5.578 -0.6130  1.9038 -1.6032
 1680SOL    HW216674   1.341   1.449   5.644 -0.4837  4.0990  1.4133
 1681SOL     OW16675   3.217   4.388   8.875  0.4817 -0.1703 -0.2764
 1681SOL    HW116676   3.234   4.466   8.822 -1.3548 -0.9387 -1.9638
 1681SOL    HW216677   3.218   4.433   8.960 -0.1554  1.7993 -1.3083
 1682SOL     OW16678   1.539   0.947   7.980 -0.1120 -0.5609  0.3809
 1682SOL    HW116679   1.591   0.994   8.045 -1.1323 -1.3934  1.7923
 1682SOL    HW216680   1.539   0.858   8.013 -0.9854 -0.4020  0.8134
 1683SOL     OW16681   2.585   0.010   3.011 -0.3638 -0.3207 -0.3937
 1683SOL    HW116682   2.665   0.054   2.982 -0.4715 -0.2802 -0.6295
 1683SOL    HW216683   2.524   0.084   3.018  0.7043  0.6300 -0.9551
 1684SOL     OW16684   1.278   0.519  10.968 -0.2058  0.2947 -0.1567
 1684SOL    HW116685   1.364   0.477  10.967 -1.1883 -1.7465 -0.5276
 1684SOL    HW216686   1.234   0.450  10.918 -3.4665  0.8347  1.9452
 1685SOL     OW16687   2.730   2.158   9.766  0.0597 -0.2562  0.0525
 1685SOL    HW116688   2.787   2.138   9.840  0.3433 -1.9804 -0.6565
 1685SOL    HW216689   2.748   2.252   9.763 -1.3421  0.0418  0.8860
 1686SOL     OW16690   1.044   2.220   4.134  0.2659 -0.3546 -0.2062
 1686SOL    HW116691   0.954   2.213   4.102  0.1998  1.5067 -0.4343
 1686SOL    HW216692   1.087   2.169   4.065 -0.1689  0.6221 -1.1911
 1687SOL     OW16693   1.074   0.513   1.441  0.0328  0.2024  0.4466
 1687SOL    HW116694   0.994   0.490   1.394  1.2578  0.4399 -1.7246
 1687SOL    HW216695   1.066   0.608   1.428  0.4668 -0.2192 -2.7626
 1688SOL     OW16696   3.435   4.141   2.392  0.0797 -0.4884  0.3723
 1688SOL    HW116697   3.388   4.193   2.458  1.2017 -1.9827  2.3547
 1688SOL    HW216698   3.522   4.147   2.431 -0.0008  0.3581  0.4286
 1689SOL     OW16699   2.091   2.556   4.821 -0.1806 -0.5293 -0.4309
 1689SOL    HW116700   2.160   2.609   4.782 -1.9668  0.8054 -1.7070
 1689SOL    HW216701   2.047   2.538   4.738  0.9358  1.3436 -1.4162
 1690SOL     OW16702   0.409   2.448   3.251  0.1270  0.3892  0.1715
 1690SOL    HW116703   0.476   2.424   3.315 -1.0806 -0.3461  1.1545
 1690SOL    HW216704   0.366   2.363   3.249 -0.9729  0.8510  3.3298
 1691SOL     OW16705   1.479   4.653   9.094  0.3908 -0.1494  0.1091
 1691SOL    HW116706   1.567   4.664   9.129  0.6053 -3.2255  0.5280
 1691SOL    HW216707   1.457   0.006   9.068 -1.7608 -0.3355  1.2645
 1692SOL     OW16708   2.403   2.448   3.573  0.2342  0.2488  0.1252
 1692SOL    HW116709   2.491   2.415   3.585  0.3071  0.4298  0.0923
 1692SOL    HW216710   2.361   2.369   3.541  1.3537 -1.3011  2.4936
 1693SOL     OW16711   2.329   1.672   3.648 -0.0543 -0.3091  0.4910
 1693SOL    HW116712   2.384   1.738   3.606  0.2376 -1.2200 -0.5473
 1693SOL    HW216713   2.295   1.629   3.570 -0.3490  0.9222 -0.0679
 1694SOL     OW16714   4.716   3.698   1.422 -0.6495 -0.0855 -0.5330
 1694SOL    HW116715   4.690   3.679   1.512 -1.6071  3.6129 -0.0243
 1694SOL    HW216716   4.666   3.777   1.400 -2.4774 -0.7257  1.3427
 1695SOL     OW16717   0.121   1.641  15.165 -0.1207 -0.7564 -0.0450
 1695SOL    HW116718   0.068   1.564  15.185 -2.7655  1.5564  1.8928
 1695SOL    HW216719   0.055   1.707  15.187  1.3569 -0.1469  2.5429
 1696SOL     OW16720   4.374   1.822   0.771 -0.4061  0.1349 -0.4524
 1696SOL    HW116721   4.331   1.750   0.724  0.4211 -0.2278 -0.6655
 1696SOL    HW216722   4.306   1.880   0.738  0.7267  2.3504  1.1293
 1697SOL     OW16723   1.008   1.250   0.226  0.1395 -0.3818 -0.1183
 1697SOL    HW116724   1.015   1.342   0.201 -0.0505 -0.4175 -0.2939
 1697SOL    HW216725   0.949   1.248   0.302 -0.4233  1.3686 -0.5202
 1698SOL     OW16726   2.641   1.430   8.327  0.1356  0.6582 -0.0249
 1698SOL    HW116727   2.702   1.484   8.276  1.3966  1.6611  2.4939
 1698SOL    HW216728   2.598   1.501   8.374 -0.9297 -0.4525  0.6496
 1699SOL     OW16729   3.820   1.912  17.058  0.7170 -0.2702  0.4086
 1699SOL    HW116730   3.810   1.968  17.134  0.0885 -2.4003  1.8869
 1699SOL    HW216731   3.897   1.866  17.092  0.4563 -0.1338  1.1739
 1700SOL     OW16732   4.559   0.082   8.618 -0.6384  0.7031  0.1857
 1700SOL    HW116733   4.623   0.076   8.689  0.9094  1.4203 -1.1689
 1700SOL    HW216734   4.572   0.174   8.596 -1.6055  0.8087  0.0365
 1701SOL     OW16735   0.465   2.754   0.032  0.0172 -0.8876 -0.4781
 1701SOL    HW116736   0.542   2.699   0.043  1.5147  1.2331 -0.4153
 1701SOL    HW216737   0.507   2.837   0.011 -0.5249  0.1899  2.6979
 1702SOL     OW16738   3.815   3.083   8.108 -0.0683 -0.3412 -0.1100
 1702SOL    HW116739   3.873   3.033   8.166  1.2201  0.7658 -0.4339
 1702SOL    HW216740   3.757   3.123   8.172  1.5211 -1.0623  1.7813
 1703SOL     OW16741   2.071   2.519   6.026  0.3849  0.1392  0.7690
 1703SOL    HW116742   1.980   2.545   6.042  0.1813 -0.1183  0.0011
 1703SOL    HW216743   2.127   2.591   6.056 -0.2931  1.3451 -0.8659
 1704SOL     OW16744   1.162   1.296   2.099  0.2874 -0.0272 -0.3914
 1704SOL    HW116745   1.199   1.376   2.137 -1.1619 -0.4344  1.8840
 1704SOL    HW216746   1.231   1.235   2.122 -0.3320 -1.0383 -1.2275
 1705SOL     OW16747   0.130   0.697   4.110  0.3128  0.1144 -0.5631
 1705SOL    HW116748   0.070   0.771   4.094  0.8485  0.2845 -1.8322
 1705SOL    HW216749   0.079   0.625   4.148 -0.4129 -0.0049 -1.7592
 1706SOL     OW16750   4.155   3.650  10.539  0.4745 -0.4632  0.1696
 1706SOL    HW116751   4.186   3.642  10.449 -2.0381  1.3991 -0.8574
 1706SOL    HW216752   4.217   3.707  10.585  0.5443 -0.4205  0.0212
 1707SOL     OW16753   1.410   2.099  13.216 -0.1948  0.2064 -0.1316
 1707SOL    HW116754   1.451   2.015  13.238  0.0060  1.0348  2.5834
 1707SOL    HW216755   1.320   2.074  13.197 -0.2289  2.3472 -2.8049
 1708SOL     OW16756   4.688   0.807  11.422  0.3809 -0.0681 -0.0356
 1708SOL    HW116757   0.010   0.796  11.348 -0.3505  0.3816 -0.6825
 1708SOL    HW216758   4.646   0.892  11.406 -1.1570 -0.9275 -0.5442
 1709SOL     OW16759   4.197   0.264   3.698  0.3313 -0.3306  0.0459
 1709SOL    HW116760   4.191   0.261   3.602  4.4287 -1.0928 -0.1941
 1709SOL    HW216761   4.174   0.355   3.717 -0.5658 -0.0265 -2.4248
 1710SOL     OW16762   3.972   2.224  17.407 -0.1180 -0.6791 -0.6527
 1710SOL    HW116763   4.062   2.220  17.441 -0.2978  0.5725 -0.0611
 1710SOL    HW216764   3.960   2.317  17.390  0.0692 -0.8608 -1.7947
 1711SOL     OW16765   0.155   1.016   5.339 -0.6041 -0.2128  0.7752
 1711SOL    HW116766   0.173   0.949   5.272 -0.2775 -0.1037  0.7502
 1711SOL    HW216767   0.063   1.032   5.319 -0.8101  0.3652  2.2181
 1712SOL     OW16768   4.171   1.664   3.303 -0.1418 -0.1676  0.6483
 1712SOL    HW116769   4.175   1.568   3.306  0.3358 -0.1036  1.7549
 1712SOL    HW216770   4.117   1.678   3.380  0.9833  1.9677  1.0557
 1713SOL     OW16771   1.428   0.760   2.667  0.1166 -0.1213 -0.1440
 1713SOL    HW116772   1.354   0.766   2.607  1.0279 -0.8620 -1.3616
 1713SOL    HW216773   1.502   0.781   2.610 -0.6423  0.6372 -0.8360
 1714SOL     OW16774   1.278   0.345   1.516 -0.1630  0.1590 -0.7090
 1714SOL    HW116775   1.232   0.262   1.506  2.7814 -1.7893  2.1083
 1714SOL    HW216776   1.235   0.400   1.451  0.0190  0.4058 -0.6241
 1715SOL     OW16777   1.953   1.872  16.479  0.4986  0.1632  0.1735
 1715SOL    HW116778   1.860   1.893  16.493  0.4325  0.2984 -0.4948
 1715SOL    HW216779   1.935   1.802  16.417  1.0709 -0.1023  0.3083
 1716SOL     OW16780   2.671   4.598   0.009 -0.5704  0.4774 -0.4387
 1716SOL    HW116781   2.754   4.562   0.041 -0.3500 -0.4062 -1.9644
 1716SOL    HW216782   2.697   4.610  17.659 -0.7140 -1.8494 -0.7897
 1717SOL     OW16783   2.920   0.889   2.228  0.2952  0.1248 -0.1181
 1717SOL    HW116784   2.922   0.984   2.221 -1.0598 -0.0106 -2.3258
 1717SOL    HW216785   2.833   0.882   2.267  0.2022  0.5613 -0.2469
 1718SOL     OW16786   0.307   2.758  11.477  0.3101 -0.0412 -0.1157
 1718SOL    HW116787   0.211   2.753  11.481  0.1891  1.8750 -0.2752
 1718SOL    HW216788   0.311   2.854  11.478  0.1266 -0.0481  0.7181
 1719SOL     OW16789   0.428   0.365   7.190  0.5907  0.2959 -0.0722
 1719SOL    HW116790   0.472   0.449   7.200  2.8585 -0.9790  0.5796
 1719SOL    HW216791   0.426   0.336   7.098 -0.8436  0.8504 -0.2216
 1720SOL     OW16792   1.982   4.692   0.810  0.2157  0.5144 -0.0697
 1720SOL    HW116793   2.077   4.695   0.816  0.2101  0.9551 -0.2227
 1720SOL    HW216794   1.988   4.636   0.732 -0.5035 -0.9424  0.9025
 1721SOL     OW16795   0.159   0.497   3.338  0.1463 -0.2452 -0.5988
 1721SOL    HW116796   0.163   0.476   3.245 -0.9561 -0.2680 -0.6468
 1721SOL    HW216797   0.065   0.485   3.351 -0.3158  3.2959 -0.7533
 1722SOL     OW16798   3.559   3.942   2.000  0.7676 -0.0349  0.6926
 1722SOL    HW116799   3.493   3.950   2.069 -0.7012  0.8946 -0.8205
 1722SOL    HW216800   3.590   3.853   2.016 -0.5752 -0.5467  0.4785
 1723SOL     OW16801   0.638   2.893   5.033 -0.1600 -0.3170 -0.2318
 1723SOL    HW116802   0.701   2.965   5.032  1.5226 -1.8045 -1.2719
 1723SOL    HW216803   0.557   2.942   5.017 -0.3276 -1.2380 -2.1514
 1724SOL     OW16804   1.378   3.640  16.598  0.2695  0.0942  0.3723
 1724SOL    HW116805   1.338   3.705  16.540 -0.9820 -0.0582  1.0715
 1724SOL    HW216806   1.305   3.624  16.657  0.2330  0.6341  0.4750
 1725SOL     OW16807   0.198   1.840  13.955 -0.2738 -0.0161 -0.2847
 1725SOL    HW116808   0.128   1.877  14.009  0.4622  1.2523 -0.2028
 1725SOL    HW216809   0.144   1.791  13.893  0.7348 -1.0368 -0.3568
 1726SOL     OW16810   2.118   2.100  16.379  0.3668  0.4904 -0.6085
 1726SOL    HW116811   2.119   2.180  16.431  2.9073  0.2688 -0.2908
 1726SOL    HW216812   2.090   2.042  16.450 -0.2574  0.7568 -0.6458
 1727SOL     OW16813   2.072   0.102  11.614 -0.4926 -0.7165  0.5217
 1727SOL    HW116814   2.031   0.188  11.610  0.0779 -0.4233  0.9542
 1727SOL    HW216815   1.997   0.042  11.618 -1.8554  1.0320  0.8370
 1728SOL     OW16816   1.904   1.318   7.609  0.8239  0.1674 -0.8375
 1728SOL    HW116817   1.946   1.285   7.529  0.8446  2.6802 -1.8532
 1728SOL    HW216818   1.978   1.322   7.670 -0.6382 -0.5324  0.9684
 1729SOL     OW16819   2.814   0.920   5.670 -0.3061 -0.3848 -0.2616
 1729SOL    HW116820   2.898   0.907   5.714  0.1485 -0.0928 -1.0342
 1729SOL    HW216821   2.779   0.995   5.718  0.1759 -0.5726  0.3884
 1730SOL     OW16822   0.865   1.498   3.359  0.1922 -0.3713  0.6083
 1730SOL    HW116823   0.830   1.427   3.412 -1.8256  1.3759  1.6637
 1730SOL    HW216824   0.874   1.553   3.437 -0.5309  0.4631  0.1207
 1731SOL     OW16825   1.235   3.876  12.542 -0.2777 -0.6417 -0.0582
 1731SOL    HW116826   1.290   3.928  12.485  0.6760  0.0330  1.4727
 1731SOL    HW216827   1.147   3.912  12.543  0.8632  2.1031  0.3245
 1732SOL     OW16828   2.146   2.919   6.963 -0.2423  0.2383  0.8696
 1732SOL    HW116829   2.065   2.871   6.978  0.5615 -0.9242  1.4535
 1732SOL    HW216830   2.114   2.999   7.006  0.0830  0.7260  0.1961
 1733SOL     OW16831   2.919   0.141   6.241 -0.1616  0.1660  0.3003
 1733SOL    HW116832   2.941   0.116   6.330 -1.5129 -1.4267  0.1896
 1733SOL    HW216833   2.954   0.068   6.190 -1.6508  0.1371 -0.7068
 1734SOL     OW16834   1.792   0.074   7.721  0.4202  0.6690 -0.2957
 1734SOL    HW116835   1.697   0.061   7.711  0.6193 -0.9656  0.0147
 1734SOL    HW216836   1.811   0.083   7.628 -1.3382 -0.9231 -0.8117
 1735SOL     OW16837   1.514   4.733   8.338  0.5506 -0.6567  0.5763
 1735SOL    HW116838   1.494   0.032   8.425 -2.2798 -0.5908 -0.0733
 1735SOL    HW216839   1.432   4.685   8.326  0.8913 -0.9279 -0.6319
 1736SOL     OW16840   0.343   1.874   8.478  0.2984 -0.6976  0.2348
 1736SOL    HW116841   0.431   1.892   8.446  1.2259 -3.6619  1.1709
 1736SOL    HW216842   0.304   1.961   8.488 -0.4217 -0.6651 -2.6854
 1737SOL     OW16843   1.878   4.106   6.976  0.5144  0.1884 -0.4520
 1737SOL    HW116844   1.790   4.111   6.937  0.3475 -0.0399 -0.1043
 1737SOL    HW216845   1.898   4.013   6.965  0.1380  0.4458 -3.3056
 1738SOL     OW16846   3.882   0.188   3.236  0.1582  0.3233 -0.6004
 1738SOL    HW116847   3.904   0.238   3.314 -0.7618  1.3244 -0.9945
 1738SOL    HW216848   3.794   0.223   3.222  0.6919  1.2407 -1.6418
 1739SOL     OW16849   1.412   2.977   1.455  0.0180  0.1605  0.0592
 1739SOL    HW116850   1.352   2.904   1.466  0.7375 -0.5247 -0.5251
 1739SOL    HW216851   1.431   2.970   1.361 -0.8942  0.9371 -0.1802
 1740SOL     OW16852   2.904   3.200   7.932 -0.0549  0.2113 -0.2423
 1740SOL    HW116853   2.929   3.157   8.013  0.1009  1.6409  0.4681
 1740SOL    HW216854   2.933   3.132   7.872 -1.6900  0.4101 -1.2656
 1741SOL     OW16855   0.977   2.043   2.887 -0.0304  0.2132  0.1541
 1741SOL    HW116856   1.045   2.009   2.946 -1.1150 -1.2604  0.5451
 1741SOL    HW216857   0.927   2.101   2.945 -1.8807 -0.5098 -0.7255
 1742SOL     OW16858   3.589   3.129   6.502 -0.4127  0.1274 -0.4055
 1742SOL    HW116859   3.495   3.125   6.522 -0.0754 -0.8656  1.0039
 1742SOL    HW216860   3.590   3.214   6.457  1.9060 -0.8429 -2.1839
 1743SOL     OW16861   4.247   3.533  14.700  0.4293  1.2603  0.1840
 1743SOL    HW116862   4.176   3.474  14.676  1.7405  0.1948 -1.1561
 1743SOL    HW216863   4.284   3.483  14.773  2.4436  3.2190  0.5175
 1744SOL     OW16864   4.479   0.835  12.908  0.5338  0.6065 -0.0821
 1744SOL    HW116865   4.437   0.816  12.992  1.7667 -0.7226  0.2358
 1744SOL    HW216866   4.524   0.750  12.911 -4.5081 -2.1657 -2.4124
 1745SOL     OW16867   3.181   4.643   3.633 -0.2565  0.0706 -0.0432
 1745SOL    HW116868   3.190   4.659   3.726  0.5055 -1.5350  0.1598
 1745SOL    HW216869   3.114   4.709   3.613 -1.4532 -1.2889 -0.5149
 1746SOL     OW16870   0.504   1.666   2.178  0.5009 -0.1472 -0.5187
 1746SOL    HW116871   0.575   1.617   2.218  0.5856 -0.2380 -0.7828
 1746SOL    HW216872   0.554   1.730   2.127  1.6978 -1.8221 -1.4410
 1747SOL     OW16873   1.929   4.306   8.228  0.5867  0.5465 -0.3260
 1747SOL    HW116874   1.862   4.278   8.290  1.8546  0.3237  0.9577
 1747SOL    HW216875   1.885   4.384   8.195 -0.6061 -0.3988 -0.9505
 1748SOL     OW16876   1.748   1.738   6.100  0.0795  0.4069  0.2174
 1748SOL    HW116877   1.833   1.719   6.059 -0.0966 -1.7798  0.8495
 1748SOL    HW216878   1.682   1.684   6.055 -0.2123 -0.2237  1.4084
 1749SOL     OW16879   3.405   1.522   8.866 -0.1988 -0.0027 -0.3764
 1749SOL    HW116880   3.411   1.465   8.943  1.0614  0.5273 -0.0791
 1749SOL    HW216881   3.369   1.605   8.899 -1.3459 -0.9732  0.8184
 1750SOL     OW16882   4.554   1.599   3.807 -0.5764 -0.2363 -0.3021
 1750SOL    HW116883   4.472   1.630   3.846  0.2313  0.7015  0.6772
 1750SOL    HW216884   4.572   1.664   3.740  1.0716 -1.4526 -1.0606
 1751SOL     OW16885   0.700   1.626   7.165 -0.0200 -0.5989 -0.3202
 1751SOL    HW116886   0.703   1.559   7.096  0.7841  1.0516 -1.8834
 1751SOL    HW216887   0.637   1.685   7.125 -0.8570 -1.5806 -0.4676
 1752SOL     OW16888   0.687   3.880   1.629  0.0763  0.6470 -0.2490
 1752SOL    HW116889   0.625   3.951   1.642 -1.0995 -0.5032  0.4653
 1752SOL    HW216890   0.752   3.895   1.697 -0.1062  0.4005 -0.0200
 1753SOL     OW16891   2.363   2.875   3.724  0.4950 -0.2409  0.1626
 1753SOL    HW116892   2.440   2.850   3.672  0.8776  1.4053 -0.0705
 1753SOL    HW216893   2.314   2.794   3.712  0.3022 -0.1877  0.5866
 1754SOL     OW16894   2.329   2.937   4.949 -0.1038  0.0867 -0.3846
 1754SOL    HW116895   2.290   3.024   4.941 -0.5926  0.1215  2.3540
 1754SOL    HW216896   2.410   2.963   4.993  0.6090 -1.3146 -0.8693
 1755SOL     OW16897   2.064   3.551  17.694 -0.5086  0.0654 -0.8549
 1755SOL    HW116898   2.144   3.536  17.644 -0.7442  0.6368 -1.3993
 1755SOL    HW216899   2.053   3.642  17.668 -1.4235  0.0953 -0.3809
 1756SOL     OW16900   0.091   2.341  15.919 -0.2133  0.2433  0.2168
 1756SOL    HW116901   0.010   2.323  15.871 -0.8985  1.4833  0.9247
 1756SOL    HW216902   0.111   2.434  15.918 -0.9468  0.4068  0.5109
 1757SOL     OW16903   4.212   3.027   4.125 -0.4134  0.4958  0.1592
 1757SOL    HW116904   4.283   3.084   4.095  0.3013 -0.2062  0.5125
 1757SOL    HW216905   4.136   3.076   4.092 -0.3413 -0.3423 -1.2505
 1758SOL     OW16906   0.345   2.022  11.667  0.4911  0.2805  0.0705
 1758SOL    HW116907   0.311   2.030  11.578  0.3629 -0.6114  0.0448
 1758SOL    HW216908   0.396   2.102  11.681  1.9154 -0.3916 -1.4222
 1759SOL     OW16909   1.778   1.156   7.125  0.8579 -0.0897 -0.0148
 1759SOL    HW116910   1.789   1.061   7.114 -1.9188 -0.2460 -1.3127
 1759SOL    HW216911   1.694   1.169   7.082  0.5393 -0.5656  0.4664
 1760SOL     OW16912   2.863   4.141   3.658  0.1042 -0.3477 -0.0244
 1760SOL    HW116913   2.912   4.211   3.616  0.0801  1.2637  2.6573
 1760SOL    HW216914   2.783   4.184   3.687 -0.0566 -1.0319  0.5520
 1761SOL     OW16915   0.027   0.274   6.621 -0.3669 -0.1205 -0.0840
 1761SOL    HW116916   0.067   0.237   6.699  0.1503  1.8631  0.5905
 1761SOL    HW216917   4.676   0.287   6.661 -0.4461 -0.0035 -0.2910
 1762SOL     OW16918   4.080   0.006  13.988 -0.2677 -0.6204  0.2964
 1762SOL    HW116919   4.160   4.719  13.942 -1.8052 -1.3958 -2.0140
 1762SOL    HW216920   4.114   0.082  14.035 -1.8985  1.9624 -2.6925
 1763SOL     OW16921   0.276   4.468   1.588  0.2248  0.5840 -0.1869
 1763SOL    HW116922   0.218   4.397   1.615 -0.5098  1.0457 -0.5740
 1763SOL    HW216923   0.328   4.481   1.667 -2.6202 -3.7258  2.3762
 1764SOL     OW16924   0.441   1.242   8.359  0.2413  0.0511 -0.3728
 1764SOL    HW116925   0.392   1.167   8.393 -1.1079  0.4665 -1.3685
 1764SOL    HW216926   0.376   1.312   8.366 -1.8449 -1.9573  0.2895
 1765SOL     OW16927   1.713   0.455   4.897  0.2896 -0.1634  0.3758
 1765SOL    HW116928   1.668   0.376   4.927 -2.0911  0.7548 -0.8038
 1765SOL    HW216929   1.793   0.419   4.858 -0.6426 -0.8668 -0.9108
 1766SOL     OW16930   1.761   3.326   2.196  0.2257 -0.4748 -0.1140
 1766SOL    HW116931   1.837   3.269   2.207  0.0964 -0.3110  1.6351
 1766SOL    HW216932   1.706   3.300   2.270 -0.4884 -0.4322 -0.6269
 1767SOL     OW16933   3.486   1.970   5.312 -0.0766 -0.0623  0.3372
 1767SOL    HW116934   3.534   1.890   5.290 -1.0464 -0.2458 -1.1320
 1767SOL    HW216935   3.412   1.977   5.252 -0.3360 -1.0455  0.5446
 1768SOL     OW16936   0.879   1.256  13.219  0.3411 -0.2543 -0.0371
 1768SOL    HW116937   0.868   1.162  13.234 -2.9819  0.2138  0.4229
 1768SOL    HW216938   0.870   1.290  13.308 -1.4216 -1.7825  0.3672
 1769SOL     OW16939   4.247   2.121  13.742 -0.1384  0.3455 -0.5334
 1769SOL    HW116940   4.324   2.176  13.725  0.9591 -0.5365  1.6087
 1769SOL    HW216941   4.180   2.186  13.763 -1.8362 -1.0737 -1.5495
 1770SOL     OW16942   0.889   2.550   1.452  0.3725  0.1830 -0.1463
 1770SOL    HW116943   0.923   2.473   1.498 -0.7471 -0.5638 -0.5470
 1770SOL    HW216944   0.893   2.536   1.357  0.3066 -3.0867  0.3324
 1771SOL     OW16945   3.272   2.453   3.138 -0.1890 -0.0058 -0.0803
 1771SOL    HW116946   3.204   2.399   3.097  0.9609 -2.7633  1.6257
 1771SOL    HW216947   3.233   2.538   3.158 -1.6239 -0.0971 -2.4916
 1772SOL     OW16948   2.086   1.024   0.447 -0.4564  0.3350 -0.1613
 1772SOL    HW116949   2.177   0.994   0.448 -0.5029  0.0617 -2.7841
 1772SOL    HW216950   2.077   1.041   0.540  1.2718  0.4482 -0.0055
 1773SOL     OW16951   3.385   1.095   4.053  0.0577  0.7479  0.1849
 1773SOL    HW116952   3.413   1.173   4.101  1.1689  0.5236 -0.1076
 1773SOL    HW216953   3.299   1.118   4.018 -0.3649  0.8776  1.2906
 1774SOL     OW16954   3.146   0.617   3.570 -0.1841  0.1665  0.3415
 1774SOL    HW116955   3.057   0.587   3.586 -0.3050  0.5117  0.3315
 1774SOL    HW216956   3.158   0.596   3.477 -1.3964  0.6495  0.0715
 1775SOL     OW16957   2.625   0.997   7.658  0.2816 -0.1734 -0.0594
 1775SOL    HW116958   2.646   0.987   7.751  1.4406 -2.8939 -0.6131
 1775SOL    HW216959   2.536   1.032   7.661  0.0945 -0.3577 -4.2731
 1776SOL     OW16960   2.970   1.088   1.864  0.7746  0.0348 -0.0365
 1776SOL    HW116961   2.957   1.161   1.924  0.7803 -1.2510  1.5264
 1776SOL    HW216962   3.056   1.118   1.834  0.5141  1.2934  0.4592
 1777SOL     OW16963   4.392   3.144   6.293 -0.0440  0.3855  0.5792
 1777SOL    HW116964   4.432   3.208   6.234 -1.6768 -0.5916 -1.5797
 1777SOL    HW216965   4.315   3.193   6.324  0.0166 -0.7123  2.4277
 1778SOL     OW16966   3.934   2.071   2.510 -0.0735 -0.4154  0.2308
 1778SOL    HW116967   4.015   2.038   2.471  0.2410  1.8671 -1.0259
 1778SOL    HW216968   3.917   1.990   2.558 -0.5237  0.4110  1.4777
 1779SOL     OW16969   1.955   3.937   4.063  0.2564  0.1989  0.4139
 1779SOL    HW116970   1.986   3.883   4.135 -0.4499 -1.1132 -0.2631
 1779SOL    HW216971   1.894   3.993   4.112  1.9359  1.8940  0.5501
 1780SOL     OW16972   3.989   3.855   6.884  1.1727  0.0329 -0.1583
 1780SOL    HW116973   4.081   3.863   6.910  0.7215  0.9470  1.1422
 1780SOL    HW216974   3.980   3.766   6.850  0.6081 -0.4997  1.4075
 1781SOL     OW16975   1.654   0.113   7.169  0.0738 -0.9240 -0.5397
 1781SOL    HW116976   1.620   0.067   7.093  0.8732  1.1494 -2.1603
 1781SOL    HW216977   1.683   0.038   7.221  0.4163  0.4853  1.3300
 1782SOL     OW16978   3.126   3.576   3.836  0.1653 -0.2734 -0.1739
 1782SOL    HW116979   3.061   3.616   3.779 -0.4973  0.1610  0.8875
 1782SOL    HW216980   3.114   3.633   3.912 -0.0028  0.2948 -0.6324
 1783SOL     OW16981   1.007   1.188   2.423 -0.2991 -0.2030  0.3327
 1783SOL    HW116982   0.923   1.149   2.401 -0.9314  1.4123 -0.1044
 1783SOL    HW216983   1.070   1.116   2.416 -0.0305  0.0941 -0.2711
 1784SOL     OW16984   3.184   3.816   2.064  0.4928 -0.4966 -0.4592
 1784SOL    HW116985   3.108   3.837   2.118 -1.5673 -2.8478 -2.4188
 1784SOL    HW216986   3.262   3.857   2.101 -0.9778  1.6040  0.3280
 1785SOL     OW16987   0.789   1.972   7.629  0.3403 -0.3367 -0.0508
 1785SOL    HW116988   0.768   1.987   7.721 -0.3942  0.8711 -0.4223
 1785SOL    HW216989   0.746   1.887   7.616 -1.0171  0.4252 -0.5106
 1786SOL     OW16990   1.325   3.129   9.642  0.9101 -0.2913  0.3607
 1786SOL    HW116991   1.278   3.055   9.682  1.5231 -0.6648  0.3806
 1786SOL    HW216992   1.270   3.197   9.681 -1.5921 -1.4541 -1.1348
 1787SOL     OW16993   2.123   1.028   2.351  0.2321  0.1414 -0.4602
 1787SOL    HW116994   2.140   0.962   2.418 -2.1428 -0.4527 -0.4509
 1787SOL    HW216995   2.032   1.053   2.363  0.1113  0.4179 -1.8553
 1788SOL     OW16996   1.815   2.630   6.046  0.4089  0.1861  0.3536
 1788SOL    HW116997   1.803   2.590   5.959 -2.7538  1.0769  0.3535
 1788SOL    HW216998   1.754   2.702   6.061 -0.6353 -0.2149 -1.9350
 1789SOL     OW16999   3.616   1.007   5.782  0.3533  0.4727  0.0809
 1789SOL    HW117000   3.675   0.940   5.816 -2.6530 -1.4532  1.4691
 1789SOL    HW217001   3.589   0.977   5.696 -0.7294  0.3064  0.4720
 1790SOL     OW17002   3.024   0.553  12.510  0.6677 -0.0694  0.1646
 1790SOL    HW117003   3.060   0.566  12.422  2.1577 -0.8412  0.6679
 1790SOL    HW217004   2.998   0.644  12.528  1.4289  0.4911 -1.4707
 1791SOL     OW17005   0.987   0.702  14.785  0.4558  0.9034 -0.0339
 1791SOL    HW117006   1.052   0.708  14.854 -1.2387 -1.4345  1.7660
 1791SOL    HW217007   1.033   0.758  14.723  3.5401  0.3966  1.8222
 1792SOL     OW17008   2.104   0.740  14.247  1.0214 -0.5784  0.0797
 1792SOL    HW117009   2.066   0.652  14.245  0.4226 -0.3156 -0.1068
 1792SOL    HW217010   2.160   0.728  14.170  0.0217 -1.0659 -0.5626
 1793SOL     OW17011   3.404   1.129   9.340  0.4144 -0.2793  0.3014
 1793SOL    HW117012   3.384   1.048   9.294 -0.1251 -0.5263  0.9731
 1793SOL    HW217013   3.360   1.191   9.282  0.8075 -0.4932 -0.2229
 1794SOL     OW17014   0.098   4.356   7.441  0.3854 -0.1368  0.1042
 1794SOL    HW117015   0.026   4.417   7.453  2.8781  2.5265  1.3744
 1794SOL    HW217016   0.169   4.398   7.489  0.2974 -1.0231  1.0066
 1795SOL     OW17017   2.949   0.541  17.524  0.2715  0.1117 -0.4741
 1795SOL    HW117018   2.864   0.560  17.484 -0.6083  0.7615  1.7187
 1795SOL    HW217019   2.983   0.630  17.533 -0.9992  0.6737 -1.0767
 1796SOL     OW17020   3.139   4.519   9.490  0.3200  0.7200  0.0908
 1796SOL    HW117021   3.099   4.459   9.554  2.6410  0.1744  0.9993
 1796SOL    HW217022   3.221   4.477   9.465 -0.5508  0.3483 -2.2511
 1797SOL     OW17023   0.491   1.673   0.459 -0.4581  0.2892  0.4954
 1797SOL    HW117024   0.461   1.624   0.536 -1.1827 -0.4812 -0.2847
 1797SOL    HW217025   0.548   1.734   0.505 -0.1724  1.4528 -1.3937
 1798SOL     OW17026   3.751   2.959   8.602  0.0515 -0.0079  0.0975
 1798SOL    HW117027   3.783   2.949   8.512 -0.7881  1.3114 -0.3453
 1798SOL    HW217028   3.659   2.971   8.578  0.0312 -0.2902  0.0305
 1799SOL     OW17029   4.436   2.340   7.643 -0.5513 -0.0896 -0.1595
 1799SOL    HW117030   4.444   2.285   7.721  0.7952  0.5849  0.1720
 1799SOL    HW217031   4.492   2.414   7.666 -1.4101  1.7925 -4.0671
 1800SOL     OW17032   1.127   1.128  17.736  0.4990 -0.1097 -0.6249
 1800SOL    HW117033   1.070   1.162   0.062  0.6986  0.8187 -0.9298
 1800SOL    HW217034   1.211   1.173   0.004 -0.0308  0.3040  1.8390
 1801SOL     OW17035   0.705   4.732   9.164  0.8591  0.8427  0.5160
 1801SOL    HW117036   0.662   4.697   9.242 -0.0856  2.3681  0.6925
 1801SOL    HW217037   0.687   0.090   9.177 -1.9680  0.5630 -1.6206
 1802SOL     OW17038   3.298   0.836   6.486  0.0001 -0.2531  0.3806
 1802SOL    HW117039   3.267   0.924   6.509  0.4809  0.4429 -1.6225
 1802SOL    HW217040   3.239   0.803   6.418  0.7644  1.9350 -1.3497
 1803SOL     OW17041   4.430   2.657   7.488  0.0733 -0.1761  0.2796
 1803SOL    HW117042   4.476   2.738   7.507 -1.8923  0.6506  1.4851
 1803SOL    HW217043   4.425   2.662   7.392  0.4924  1.9905  0.3835
 1804SOL     OW17044   2.106   1.062   0.712  0.5349 -0.4423  0.1491
 1804SOL    HW117045   2.048   1.089   0.783  3.1104 -0.5221  2.2659
 1804SOL    HW217046   2.100   0.967   0.727  1.1651 -0.8564 -2.2116
 1805SOL     OW17047   2.535   3.172   8.071  0.5821 -0.8109 -0.0508
 1805SOL    HW117048   2.501   3.199   8.156 -0.8590 -1.5777 -0.3760
 1805SOL    HW217049   2.491   3.234   8.013  0.9657  1.3593  1.9817
 1806SOL     OW17050   2.668   0.551   8.732 -0.1730 -0.3347 -0.7814
 1806SOL    HW117051   2.679   0.637   8.772 -1.4152 -0.7656  0.4709
 1806SOL    HW217052   2.579   0.532   8.761  0.2656 -3.2827 -1.3798
 1807SOL     OW17053   0.259   1.534   4.560 -0.2878  0.5148 -0.4804
 1807SOL    HW117054   0.267   1.592   4.636 -1.0941 -0.7399  0.5669
 1807SOL    HW217055   0.347   1.545   4.523 -0.4188  1.4658 -0.4883
 1808SOL     OW17056   2.513   2.409  14.757 -0.3526 -0.8508  0.8570
 1808SOL    HW117057   2.545   2.342  14.697  0.5362  0.3080  0.0431
 1808SOL    HW217058   2.505   2.486  14.700  3.0967 -0.6678  0.6463
 1809SOL     OW17059   2.779   0.916   6.306  0.0826  0.3927 -0.5471
 1809SOL    HW117060   2.826   0.915   6.223  0.0641 -0.9842 -0.5349
 1809SOL    HW217061   2.802   0.999   6.348  0.8784  0.8139 -1.8000
 1810SOL     OW17062   0.629   4.004  15.519 -0.0866  0.7008 -0.0887
 1810SOL    HW117063   0.708   4.000  15.464 -0.5975 -2.4585 -0.5570
 1810SOL    HW217064   0.592   3.917  15.506  0.8684  0.5370 -1.7617
 1811SOL     OW17065   0.927   4.065   3.388  0.7734  0.2761 -0.2715
 1811SOL    HW117066   0.904   3.982   3.430  0.2033  0.2863 -0.5653
 1811SOL    HW217067   0.840   4.099   3.367  0.9684  1.4357  0.7774
 1812SOL     OW17068   2.914   3.438  12.981 -0.1821 -0.3407 -0.5105
 1812SOL    HW117069   2.849   3.454  13.049 -0.1260  1.6906 -0.9442
 1812SOL    HW217070   2.977   3.510  12.989  1.2822 -1.7508  0.6733
 1813SOL     OW17071   0.249   3.718   1.408  0.7985 -0.2300 -0.0672
 1813SOL    HW117072   0.158   3.717   1.435  0.4959  1.3383 -1.0138
 1813SOL    HW217073   0.259   3.624   1.391 -0.4309 -0.2332 -0.7804
 1814SOL     OW17074   0.520   4.159  15.090 -0.1415  0.1738  0.0144
 1814SOL    HW117075   0.437   4.157  15.042 -0.3409  2.3927  0.2835
 1814SOL    HW217076   0.491   4.153  15.182 -1.0374 -1.2146 -0.3567
 1815SOL     OW17077   4.167   3.894   5.643 -0.4703 -0.3782 -0.2530
 1815SOL    HW117078   4.196   3.804   5.662  0.9190 -0.4696 -2.7668
 1815SOL    HW217079   4.218   3.954   5.697 -0.7091 -3.0256  2.9859
 1816SOL     OW17080   1.997   4.564  10.666 -0.1869  0.3215  0.0155
 1816SOL    HW117081   2.082   4.608  10.668  0.2590 -0.5536  0.3074
 1816SOL    HW217082   2.014   4.482  10.620 -0.6589 -1.1672  2.5217
 1817SOL     OW17083   2.063   1.890   3.977  0.1052  0.1605 -0.0087
 1817SOL    HW117084   2.015   1.865   4.056  2.4276  0.7225  1.6108
 1817SOL    HW217085   2.152   1.911   4.008 -0.5957 -0.0358  2.1429
 1818SOL     OW17086   4.494   1.394   6.645 -0.1807  0.2139  0.1181
 1818SOL    HW117087   4.490   1.489   6.639 -0.7732  0.1852  0.0245
 1818SOL    HW217088   4.584   1.379   6.616 -0.9080 -1.0248 -1.5088
 1819SOL     OW17089   3.971   2.884  15.828  0.1567 -0.1424 -0.2981
 1819SOL    HW117090   4.007   2.845  15.749  1.0034  1.0035 -0.4702
 1819SOL    HW217091   3.949   2.806  15.880 -1.1227 -1.3184 -2.6288
 1820SOL     OW17092   0.367   3.142  10.267 -0.0210  0.3002 -0.1281
 1820SOL    HW117093   0.441   3.080  10.271 -0.1477  0.0908 -1.0872
 1820SOL    HW217094   0.296   3.086  10.235  0.4160  0.6759 -1.7515
 1821SOL     OW17095   0.367   4.149   7.234 -0.0299 -0.0006  0.0694
 1821SOL    HW117096   0.428   4.205   7.187 -1.7356  0.7974 -1.2136
 1821SOL    HW217097   0.285   4.198   7.225  0.1901  0.0490 -1.7480
 1822SOL     OW17098   4.595   3.693   4.682  0.1319 -0.2666  0.3982
 1822SOL    HW117099   4.504   3.720   4.690 -0.1008 -0.9810  0.1063
 1822SOL    HW217100   4.591   3.658   4.593 -2.1057 -2.2171  1.2620
 1823SOL     OW17101   0.371   4.407   1.874  0.7090  0.5992 -0.5621
 1823SOL    HW117102   0.359   4.357   1.955 -1.1841  0.9089 -0.6386
 1823SOL    HW217103   0.280   4.417   1.846  0.5339 -0.3854 -0.3375
 1824SOL     OW17104   3.489   0.549   6.904 -0.2406  0.1827 -0.7114
 1824SOL    HW117105   3.451   0.576   6.821 -2.1906  0.2830  0.2053
 1824SOL    HW217106   3.407   0.532   6.952 -0.8848  1.2770 -1.4215
 1825SOL     OW17107   4.239   2.308   4.449  0.1878  0.0739  0.0539
 1825SOL    HW117108   4.199   2.299   4.362 -0.0813  1.4283  0.0422
 1825SOL    HW217109   4.331   2.299   4.426 -0.7129 -1.6224 -2.9782
 1826SOL     OW17110   1.706   0.387   6.210 -0.4118  0.1843  0.0667
 1826SOL    HW117111   1.612   0.393   6.189 -0.2175 -0.3500 -0.9888
 1826SOL    HW217112   1.716   0.292   6.199  1.2283  0.3472  0.1517
 1827SOL     OW17113   3.209   2.128  14.266 -0.2902 -0.4976  0.0852
 1827SOL    HW117114   3.257   2.147  14.347 -0.6248 -0.9833  0.3970
 1827SOL    HW217115   3.129   2.177  14.282 -0.8217 -1.9324  1.8598
 1828SOL     OW17116   3.899   2.423   6.464 -0.5897 -0.0585 -0.2806
 1828SOL    HW117117   3.927   2.345   6.416 -1.4686  0.0050 -0.8914
 1828SOL    HW217118   3.951   2.495   6.427 -2.2786  1.6679  0.7179
 1829SOL     OW17119   0.673   1.078  10.863 -0.1055 -0.2281  0.4053
 1829SOL    HW117120   0.667   1.031  10.780  1.0888 -0.4159  0.4324
 1829SOL    HW217121   0.703   1.007  10.920  0.0369  0.6740  1.4440
 1830SOL     OW17122   0.987   0.134   5.061 -0.5404  0.2195  0.3534
 1830SOL    HW117123   1.045   0.063   5.090  2.6004  2.0108 -1.4603
 1830SOL    HW217124   0.969   0.107   4.971 -0.3603 -0.1371  0.4240
 1831SOL     OW17125   1.098   0.485  11.994 -0.1467  0.2651 -0.1486
 1831SOL    HW117126   1.180   0.436  11.996 -1.4496 -1.9659 -0.4989
 1831SOL    HW217127   1.113   0.534  12.075  1.7870  2.2227 -1.6962
 1832SOL     OW17128   2.109   0.225   8.251  0.5196 -0.0018  0.1336
 1832SOL    HW117129   2.025   0.245   8.210 -0.5184 -2.0610  1.2886
 1832SOL    HW217130   2.116   0.140   8.207  1.5348  0.9748 -1.6039
 1833SOL     OW17131   0.686   0.719   9.457 -0.3673  0.1016 -0.2525
 1833SOL    HW117132   0.777   0.722   9.425 -0.0693  0.9249  0.6628
 1833SOL    HW217133   0.644   0.663   9.393 -0.3002 -2.8619  2.2904
 1834SOL     OW17134   0.266   0.527   0.824 -0.0620  0.2814 -0.2242
 1834SOL    HW117135   0.298   0.591   0.761  0.7056 -0.1597 -0.2858
 1834SOL    HW217136   0.189   0.569   0.862 -0.2896 -0.0658 -0.2886
 1835SOL     OW17137   2.206   3.176   9.145 -0.0508 -0.4011 -0.0992
 1835SOL    HW117138   2.245   3.147   9.227  0.5802 -2.2867 -1.0880
 1835SOL    HW217139   2.122   3.203   9.182 -1.2937  0.5387 -3.5009
 1836SOL     OW17140   0.223   0.071  10.314 -0.3887 -0.1914 -0.0779
 1836SOL    HW117141   0.136   0.099  10.285 -0.5796 -0.5662  0.1355
 1836SOL    HW217142   0.248   0.012  10.244  1.4478  1.7605 -1.0754
 1837SOL     OW17143   1.444   1.627  15.619  0.5409 -0.0481  0.0770
 1837SOL    HW117144   1.396   1.703  15.650  0.9784 -0.3485  1.4907
 1837SOL    HW217145   1.382   1.577  15.567 -0.6122  0.8035  0.6335
 1838SOL     OW17146   0.225   4.140   6.205 -0.0891 -0.2205  0.3016
 1838SOL    HW117147   0.163   4.147   6.132  0.7389  0.2536 -0.3551
 1838SOL    HW217148   0.179   4.187   6.275 -1.5534  0.0968 -0.8707
 1839SOL     OW17149   0.016   3.754  15.007  0.0183  0.1854  0.3612
 1839SOL    HW117150   0.039   3.681  15.064 -1.0177 -0.3135  0.1453
 1839SOL    HW217151   4.722   3.817  15.074  1.4125 -0.5923  1.7153
 1840SOL     OW17152   4.182   2.977   6.583 -0.8010 -0.4934  0.4603
 1840SOL    HW117153   4.254   3.033   6.610 -3.0140  1.6488  1.8707
 1840SOL    HW217154   4.117   3.045   6.563 -0.9734  0.1653  3.3436
 1841SOL     OW17155   1.311   0.697  16.609 -0.0157 -0.0288  0.0956
 1841SOL    HW117156   1.334   0.767  16.548 -1.0962 -1.0265 -1.4277
 1841SOL    HW217157   1.216   0.709  16.612  0.0877  0.2013  2.3996
 1842SOL     OW17158   1.839   0.370  11.109  0.4485  0.0885  0.2854
 1842SOL    HW117159   1.857   0.288  11.064  1.2425  1.0071 -1.0692
 1842SOL    HW217160   1.851   0.339  11.199  0.2129  0.1223  0.3289
 1843SOL     OW17161   4.268   3.620   6.536  0.4981  0.1240  0.0927
 1843SOL    HW117162   4.325   3.688   6.501 -0.8643  1.0095 -0.3901
 1843SOL    HW217163   4.273   3.572   6.454 -0.1308 -0.6572  0.5186
 1844SOL     OW17164   0.544   2.752   2.049 -0.4047  0.4226 -0.2323
 1844SOL    HW117165   0.598   2.677   2.022 -1.7663 -0.7622  0.2919
 1844SOL    HW217166   0.524   2.796   1.966  0.5899  0.9051 -0.2153
 1845SOL     OW17167   0.046   4.524   9.554 -0.3510  0.0206 -0.5662
 1845SOL    HW117168   0.025   4.510   9.647 -0.0158 -1.4072 -0.6900
 1845SOL    HW217169   4.699   4.532   9.507 -1.9251 -2.0801  1.8164
 1846SOL     OW17170   1.752   1.328   2.618  0.0454  0.4307  0.0838
 1846SOL    HW117171   1.791   1.265   2.677 -1.7855  0.0810  0.9361
 1846SOL    HW217172   1.659   1.328   2.644  0.3053 -1.7834  0.9879
 1847SOL     OW17173   2.190   0.857  12.720  1.4682 -0.1554  0.1361
 1847SOL    HW117174   2.251   0.931  12.717  0.7629  0.4185  0.0291
 1847SOL    HW217175   2.186   0.827  12.629  0.6213  0.8493 -0.1571
 1848SOL     OW17176   2.520   2.489   5.321 -0.4595 -0.0086  0.4296
 1848SOL    HW117177   2.609   2.474   5.352 -0.3476  0.9649  0.5594
 1848SOL    HW217178   2.526   2.579   5.291  2.0078 -0.4212 -0.2921
 1849SOL     OW17179   2.272   2.538   4.459  0.3913 -0.5348 -0.1632
 1849SOL    HW117180   2.285   2.446   4.482  0.6094 -0.3765  0.3414
 1849SOL    HW217181   2.363   2.567   4.466 -0.1083  1.0180 -0.1771
 1850SOL     OW17182   2.058   3.166   7.092  0.1201 -0.1447  0.3783
 1850SOL    HW117183   2.126   3.229   7.119 -1.9773  1.4996  1.8343
 1850SOL    HW217184   2.022   3.155   7.179  2.9142  0.2571  1.6085
 1851SOL     OW17185   1.369   1.138  14.935 -0.3525  0.0745  0.0978
 1851SOL    HW117186   1.306   1.127  15.006 -1.0734 -2.6190 -0.9633
 1851SOL    HW217187   1.345   1.063  14.880 -0.0370  0.2793 -0.3206
 1852SOL     OW17188   3.952   2.376   4.646 -0.2665  0.2002  0.6526
 1852SOL    HW117189   4.006   2.455   4.653  0.4257 -0.2225  0.0376
 1852SOL    HW217190   3.981   2.346   4.561 -1.2191  1.2726 -0.0545
 1853SOL     OW17191   3.318   4.086   6.615 -0.4688  0.2094 -0.2414
 1853SOL    HW117192   3.286   4.168   6.653 -1.7324 -0.7191  0.7214
 1853SOL    HW217193   3.405   4.101   6.579 -0.2979 -0.6393 -0.1975
 1854SOL     OW17194   2.150   3.471  14.920 -0.2992 -0.5783 -0.4217
 1854SOL    HW117195   2.144   3.456  14.825 -0.6880 -1.8051 -0.2030
 1854SOL    HW217196   2.056   3.481  14.937  0.0434  1.2885  0.2591
 1855SOL     OW17197   2.819   3.229  11.480  0.0664  0.8720 -0.4516
 1855SOL    HW117198   2.880   3.169  11.524  1.2712  1.8054 -0.8571
 1855SOL    HW217199   2.884   3.296  11.458 -0.2189  0.9285 -1.1262
 1856SOL     OW17200   4.612   1.106   5.256  0.2607  0.1505 -0.3603
 1856SOL    HW117201   4.569   1.168   5.197 -2.7327 -0.6287  0.9919
 1856SOL    HW217202   4.562   1.030   5.228 -0.5617  0.9160 -0.9546
 1857SOL     OW17203   1.514   3.001   4.488  0.3808  0.2863 -0.0383
 1857SOL    HW117204   1.556   2.917   4.506  0.5000  0.2799 -0.3363
 1857SOL    HW217205   1.595   3.046   4.461  0.2997  0.1103 -0.5778
 1858SOL     OW17206   2.378   2.746   1.799 -0.3197 -0.0666  0.3677
 1858SOL    HW117207   2.292   2.744   1.756 -0.5125  2.4078  0.6815
 1858SOL    HW217208   2.429   2.688   1.742 -0.7135 -0.0790  0.0255
 1859SOL     OW17209   0.697   0.157   2.964  0.0533  0.3154  0.3231
 1859SOL    HW117210   0.684   0.132   3.055  1.5348 -3.4245 -0.4476
 1859SOL    HW217211   0.778   0.107   2.948 -0.6323 -0.2935 -1.2242
 1860SOL     OW17212   4.578   2.947   7.667 -0.2849  0.3075  0.5412
 1860SOL    HW117213   4.554   3.019   7.726  0.4164 -0.8257  2.2049
 1860SOL    HW217214   4.587   2.982   7.578  0.0867  1.4957  1.0546
 1861SOL     OW17215   1.123   0.229   5.928 -0.4598 -0.1642 -0.4948
 1861SOL    HW117216   1.155   0.139   5.939  0.1690  0.3673  2.1247
 1861SOL    HW217217   1.167   0.262   5.850  1.7801  0.2927  0.9419
 1862SOL     OW17218   2.115   4.189  12.489 -0.0128 -0.3208  0.4785
 1862SOL    HW117219   2.180   4.174  12.558  0.8082  0.3129 -0.1636
 1862SOL    HW217220   2.162   4.225  12.414 -0.4593  1.6277  1.1443
 1863SOL     OW17221   3.733   2.595   1.829 -0.0401 -0.5067 -0.3094
 1863SOL    HW117222   3.780   2.530   1.881 -0.2106  0.1385  0.6518
 1863SOL    HW217223   3.726   2.552   1.744 -2.0653  1.0855 -0.9418
 1864SOL     OW17224   0.510   3.897   3.544 -0.6117  0.1391  0.9033
 1864SOL    HW117225   0.454   3.941   3.480  1.8786  3.4939  1.0656
 1864SOL    HW217226   0.540   3.834   3.478 -3.0023 -3.7299  3.5111
 1865SOL     OW17227   3.473   0.631  12.905 -0.5001  0.1775  0.1766
 1865SOL    HW117228   3.489   0.643  12.811  0.0368  0.1663  0.2670
 1865SOL    HW217229   3.490   0.537  12.905 -0.3513  0.1995 -0.6546
 1866SOL     OW17230   2.686   0.599   6.049  0.0185 -0.2978 -0.4894
 1866SOL    HW117231   2.753   0.594   6.117  0.0620  2.3438 -0.3167
 1866SOL    HW217232   2.698   0.520   5.997 -0.7995  0.3545 -1.6752
 1867SOL     OW17233   1.098   3.138   6.421 -0.0619 -0.2076  0.6343
 1867SOL    HW117234   1.032   3.186   6.471 -1.9439 -0.1492 -1.8759
 1867SOL    HW217235   1.062   3.144   6.333 -1.5945  0.3197  1.3026
 1868SOL     OW17236   0.728   2.679   3.768 -0.1115  0.1512 -0.1606
 1868SOL    HW117237   0.699   2.701   3.680 -0.1715  1.2034  0.1276
 1868SOL    HW217238   0.688   2.595   3.790 -0.3928  0.5590  0.9049
 1869SOL     OW17239   1.013   2.606   2.574 -0.2269  0.0566  0.4463
 1869SOL    HW117240   0.957   2.531   2.596 -0.1675  0.0147  0.4562
 1869SOL    HW217241   1.040   2.601   2.482  0.4168 -0.3406  0.6552
 1870SOL     OW17242   4.112   2.074   8.527  0.1548  0.0151  0.5881
 1870SOL    HW117243   4.085   2.160   8.495  2.2486 -0.1122 -1.4908
 1870SOL    HW217244   4.207   2.073   8.517  0.0208 -1.2428 -0.5308
 1871SOL     OW17245   3.832   1.580   4.085 -0.4484  0.1778  0.7129
 1871SOL    HW117246   3.791   1.626   4.012  0.9420 -1.0263 -0.8207
 1871SOL    HW217247   3.882   1.652   4.123 -0.2338  0.1767  0.4336
 1872SOL     OW17248   0.732   3.587   0.370  0.8644 -0.7306  0.1376
 1872SOL    HW117249   0.773   3.652   0.312 -2.1942  0.6816 -0.4283
 1872SOL    HW217250   0.661   3.552   0.315 -0.4779 -0.0605  1.4660
 1873SOL     OW17251   4.494   2.704  12.340  0.5156 -0.2083  0.6089
 1873SOL    HW117252   4.414   2.656  12.319  0.9079  0.0302 -1.4287
 1873SOL    HW217253   4.524   2.643  12.407  1.4810  1.3135  1.5656
 1874SOL     OW17254   4.554   4.649   3.244 -0.3047 -0.0198  0.0479
 1874SOL    HW117255   4.578   4.673   3.334 -0.1072 -0.5165  0.1264
 1874SOL    HW217256   4.496   4.580   3.277  2.9867 -1.9203  1.7413
 1875SOL     OW17257   0.319   3.551  14.662  0.3397 -0.7222 -0.1111
 1875SOL    HW117258   0.363   3.592  14.588  2.2073  0.4668  1.6423
 1875SOL    HW217259   0.389   3.545  14.727 -1.2232  1.5111  1.8010
 1876SOL     OW17260   2.226   2.459   7.400 -0.8830 -0.0158  0.2985
 1876SOL    HW117261   2.317   2.460   7.430 -0.6527 -1.0366 -0.3596
 1876SOL    HW217262   2.227   2.369   7.368 -1.8378 -0.0226  0.2917
 1877SOL     OW17263   1.558   1.948   3.832  0.2436  0.2444  0.3115
 1877SOL    HW117264   1.544   1.898   3.913  1.7584  0.9569  1.0137
 1877SOL    HW217265   1.654   1.955   3.827  0.2975 -0.2050  0.6770
 1878SOL     OW17266   3.421   3.853   9.038  0.1068 -0.1660 -0.1220
 1878SOL    HW117267   3.472   3.934   9.042 -2.0763  1.1890  0.4768
 1878SOL    HW217268   3.459   3.795   9.103 -0.8410  0.1642  0.7401
 1879SOL     OW17269   1.469   2.837   8.928  0.5382  0.0178 -0.5798
 1879SOL    HW117270   1.469   2.897   9.002 -0.5024 -0.8799  0.1622
 1879SOL    HW217271   1.561   2.812   8.921 -0.0140 -2.2441  0.2541
 1880SOL     OW17272   1.099   3.807   7.711  0.6255 -0.4110 -0.1507
 1880SOL    HW117273   1.068   3.858   7.636 -1.4020 -0.2099  0.8115
 1880SOL    HW217274   1.057   3.852   7.784  0.7878  0.5057 -0.6204
 1881SOL     OW17275   0.879   2.324  10.106 -0.1156  0.6254  0.3246
 1881SOL    HW117276   0.928   2.313  10.024 -0.2543 -2.0696  0.5974
 1881SOL    HW217277   0.936   2.376  10.163 -0.0517 -0.7583  1.5206
 1882SOL     OW17278   1.707   0.747   7.438  0.3664 -0.2851  0.1709
 1882SOL    HW117279   1.643   0.723   7.505  1.6132 -1.3573  0.9803
 1882SOL    HW217280   1.776   0.684   7.456  0.9925  0.1245 -0.8399
 1883SOL     OW17281   3.286   4.179  11.590  0.3068 -0.2010 -0.7535
 1883SOL    HW117282   3.215   4.239  11.568  0.2287 -0.1583 -0.3751
 1883SOL    HW217283   3.270   4.160  11.682  0.9099  0.4143 -0.5209
 1884SOL     OW17284   3.747   3.445  10.557  0.1374 -0.4801 -0.3795
 1884SOL    HW117285   3.784   3.359  10.538 -0.3609 -0.6443 -0.5886
 1884SOL    HW217286   3.798   3.501  10.498 -1.4541 -0.6720 -1.9285
 1885SOL     OW17287   2.939   0.574  10.561  0.5232  0.5024  0.2214
 1885SOL    HW117288   3.034   0.582  10.547  0.6191  0.0221  0.5722
 1885SOL    HW217289   2.928   0.663  10.592  1.8628  0.8540 -0.2828
 1886SOL     OW17290   2.745   1.713   5.174  0.1001 -0.2652 -0.5086
 1886SOL    HW117291   2.802   1.726   5.249  1.6830 -0.5501 -1.6549
 1886SOL    HW217292   2.755   1.799   5.132 -2.3452  0.0231 -0.5189
 1887SOL     OW17293   2.496   2.111   6.912  0.7643  0.5981 -0.2482
 1887SOL    HW117294   2.453   2.174   6.970  1.3137  0.7304  0.0157
 1887SOL    HW217295   2.482   2.032   6.964 -1.5100  0.5282 -0.9744
 1888SOL     OW17296   3.469   3.139  10.964  0.2665  0.1259 -0.0124
 1888SOL    HW117297   3.507   3.164  10.880 -0.2653 -0.2224 -0.3561
 1888SOL    HW217298   3.529   3.192  11.016 -1.6398  0.1965  2.1377
 1889SOL     OW17299   1.985   0.279   5.971  0.2133 -0.1704 -0.1156
 1889SOL    HW117300   1.954   0.214   5.907 -1.1855 -2.0792  2.5103
 1889SOL    HW217301   1.936   0.259   6.051  0.2117  1.4544  0.2960
 1890SOL     OW17302   2.476   3.172   4.654 -0.4720 -0.2810  0.2350
 1890SOL    HW117303   2.464   3.139   4.565 -0.1080  0.9496 -0.2694
 1890SOL    HW217304   2.482   3.088   4.699 -2.4172  0.3873  1.7513
 1891SOL     OW17305   2.456   4.679   4.934  0.3177  0.0202 -0.3092
 1891SOL    HW117306   2.366   4.659   4.909 -0.2576  1.6608  0.4395
 1891SOL    HW217307   2.482   4.594   4.969 -0.0653 -0.3331 -0.8771
 1892SOL     OW17308   3.863   1.519   7.613  0.6176  0.2388  0.0762
 1892SOL    HW117309   3.811   1.495   7.536  1.7654 -1.5951 -0.1120
 1892SOL    HW217310   3.910   1.589   7.568  0.1845 -0.8774 -2.1132
 1893SOL     OW17311   1.248   1.510   6.941  0.0781  0.1672  0.3074
 1893SOL    HW117312   1.195   1.451   6.995 -0.2839 -0.9250 -1.2241
 1893SOL    HW217313   1.198   1.500   6.860  0.8474 -1.3535  0.0067
 1894SOL     OW17314   1.026   3.897   6.821  0.4726 -0.0124  0.4969
 1894SOL    HW117315   1.088   3.826   6.807 -1.0692 -0.9552 -1.5182
 1894SOL    HW217316   0.953   3.864   6.873  0.7915  3.1697  2.9381
 1895SOL     OW17317   4.694   3.855   1.705  0.3860  0.1675  0.0595
 1895SOL    HW117318   4.672   3.926   1.645  1.1702  1.0942  0.8677
 1895SOL    HW217319   0.053   3.869   1.701 -0.0254  2.7619 -0.1227
 1896SOL     OW17320   1.410   0.764   0.746 -0.0445  0.5567  0.1635
 1896SOL    HW117321   1.462   0.807   0.814  0.6594  0.0703 -0.0592
 1896SOL    HW217322   1.343   0.829   0.726 -0.3640  0.4699  0.9464
 1897SOL     OW17323   0.388   4.194   5.603 -0.1397 -0.2156  0.1522
 1897SOL    HW117324   0.433   4.278   5.588  0.7729 -0.7156  0.0733
 1897SOL    HW217325   0.298   4.206   5.632 -0.0329  0.8841  0.0533
 1898SOL     OW17326   1.362   0.950   2.849  0.1272 -0.2213  0.8194
 1898SOL    HW117327   1.408   0.933   2.932 -0.1015  1.8142  1.3532
 1898SOL    HW217328   1.383   0.870   2.800  1.2070  2.3579 -2.8849
 1899SOL     OW17329   3.889   3.868   0.328 -0.2413  0.1292 -0.7766
 1899SOL    HW117330   3.968   3.825   0.361  1.0052  2.8664 -0.1712
 1899SOL    HW217331   3.909   3.929   0.257 -1.2170  1.0674 -0.2487
 1900SOL     OW17332   1.078   4.355   1.624  0.1181 -0.5667 -0.5851
 1900SOL    HW117333   1.001   4.309   1.659  0.0811  2.0401  2.7750
 1900SOL    HW217334   1.072   4.350   1.529 -1.1519  0.9676 -0.5761
 1901SOL     OW17335   0.854   0.352   2.078 -0.2156  0.3925  0.1287
 1901SOL    HW117336   0.925   0.415   2.085  0.5609 -0.2865 -1.7794
 1901SOL    HW217337   0.895   0.274   2.115 -0.5593  0.6336  1.0190
 1902SOL     OW17338   0.126   3.540   2.236 -0.1375  0.0220  0.0981
 1902SOL    HW117339   0.088   3.505   2.317 -1.5151  0.0121 -0.5696
 1902SOL    HW217340   0.215   3.503   2.243 -0.4271  0.0530  4.1175
 1903SOL     OW17341   0.928   2.257   5.690  0.5836 -0.1179 -0.0667
 1903SOL    HW117342   0.952   2.176   5.736  0.1567  0.4843  1.1901
 1903SOL    HW217343   1.006   2.305   5.716 -0.8938  0.5117  3.2356
 1904SOL     OW17344   2.566   4.038   9.089  0.1094 -0.4580 -0.4108
 1904SOL    HW117345   2.632   4.029   9.021 -0.3136 -1.6808 -0.6511
 1904SOL    HW217346   2.617   4.027   9.170 -0.3996 -0.2539 -0.0594
 1905SOL     OW17347   2.879   3.578   9.815  0.7820  0.1387 -0.4344
 1905SOL    HW117348   2.795   3.573   9.862  1.1807 -1.8040  0.0634
 1905SOL    HW217349   2.861   3.648   9.753 -1.1785 -0.9548 -1.1144
 1906SOL     OW17350   2.195   0.920   7.997 -0.4576  0.0551  0.3305
 1906SOL    HW117351   2.260   0.965   8.051  0.6954  0.0740 -1.0378
 1906SOL    HW217352   2.225   0.831   8.015  1.7087  0.8923  0.9047
 1907SOL     OW17353   0.563   3.087   5.833 -0.0272  0.0211 -0.2823
 1907SOL    HW117354   0.561   3.100   5.928 -0.5732 -1.1577 -0.1333
 1907SOL    HW217355   0.531   2.998   5.819 -1.2815  0.2948  0.7996
 1908SOL     OW17356   0.293   3.516  16.494 -0.1190  0.4399  0.0390
 1908SOL    HW117357   0.368   3.575  16.491  0.1171  0.2183  1.9502
 1908SOL    HW217358   0.310   3.465  16.573 -0.4851  3.0617  1.7779
 1909SOL     OW17359   3.682   2.886   5.190 -0.1365  0.3590  0.3476
 1909SOL    HW117360   3.611   2.822   5.197  0.1741 -0.0767 -0.4853
 1909SOL    HW217361   3.656   2.931   5.109  0.9032 -0.4460 -0.4277
 1910SOL     OW17362   1.759   1.202  10.198 -0.2606 -0.1679  1.1846
 1910SOL    HW117363   1.835   1.247  10.236 -0.1235  0.8395 -0.3013
 1910SOL    HW217364   1.701   1.274  10.174  0.5069 -0.0634 -0.2981
 1911SOL     OW17365   1.639   3.150   8.761 -0.6981  0.3085  0.2384
 1911SOL    HW117366   1.548   3.177   8.771 -0.0776  2.0381  1.3220
 1911SOL    HW217367   1.657   3.115   8.848 -1.0978  0.6829  0.4746
 1912SOL     OW17368   4.546   4.273   1.546  0.4154  0.4290 -0.2671
 1912SOL    HW117369   4.621   4.327   1.570  0.3132  0.1207  0.7611
 1912SOL    HW217370   4.496   4.281   1.627 -0.1413 -2.2141 -0.3498
 1913SOL     OW17371   1.527   2.286   3.764  0.3016  0.8280  0.3956
 1913SOL    HW117372   1.457   2.343   3.733  0.8943  0.8109 -0.9998
 1913SOL    HW217373   1.608   2.313   3.719  0.8548  1.7012  1.9251
 1914SOL     OW17374   2.157   3.702   6.288  0.2825 -0.0856 -0.3861
 1914SOL    HW117375   2.064   3.696   6.312  0.9112 -1.2410  1.6970
 1914SOL    HW217376   2.196   3.622   6.323  2.3602  0.8940 -0.4893
 1915SOL     OW17377   3.678   0.932  10.660 -0.5201 -0.6500 -0.5093
 1915SOL    HW117378   3.677   0.846  10.618 -0.9107 -1.1303  0.4764
 1915SOL    HW217379   3.738   0.967  10.594 -0.0232 -2.0825 -0.8227
 1916SOL     OW17380   4.405   0.946   2.917  0.4596  0.0750  0.5688
 1916SOL    HW117381   4.440   0.909   2.998 -0.5375 -1.5306  0.2789
 1916SOL    HW217382   4.325   0.988   2.946  0.9235  0.4534  1.3144
 1917SOL     OW17383   1.043   2.550   2.890  0.3450  0.1186 -0.9678
 1917SOL    HW117384   0.952   2.577   2.884  0.5354  0.9003 -0.2955
 1917SOL    HW217385   1.071   2.532   2.800  1.5704 -1.7496 -0.2160
 1918SOL     OW17386   3.930   3.787  16.835  0.0740 -0.4205 -0.3839
 1918SOL    HW117387   3.912   3.856  16.771  1.9301 -0.8517 -1.3788
 1918SOL    HW217388   3.849   3.802  16.884 -0.0891  2.1331 -1.4283
 1919SOL     OW17389   0.579   1.425   5.254  0.1574 -0.3192 -0.3845
 1919SOL    HW117390   0.600   1.335   5.276 -1.2134 -0.6390 -0.3697
 1919SOL    HW217391   0.506   1.409   5.194 -1.7924 -0.6623  2.0750
 1920SOL     OW17392   0.976   1.581  15.432  0.1525  0.5201  0.7812
 1920SOL    HW117393   0.923   1.513  15.474 -0.9645  0.9012 -0.0225
 1920SOL    HW217394   0.998   1.527  15.356  0.0572  0.0203  1.1021
 1921SOL     OW17395   0.675   2.279   6.390 -0.2740 -0.1253  0.0702
 1921SOL    HW117396   0.650   2.348   6.452 -1.6436 -1.4297  0.9800
 1921SOL    HW217397   0.594   2.277   6.338 -1.2229  2.1970  1.4278
 1922SOL     OW17398   3.180   4.022  16.958  0.8990  0.1132  0.4450
 1922SOL    HW117399   3.139   4.103  16.930 -0.3468 -0.2877  1.1429
 1922SOL    HW217400   3.108   3.959  16.963  1.5865 -0.6803  0.4770
 1923SOL     OW17401   3.274   3.644   7.802 -0.8704 -0.6023 -1.0642
 1923SOL    HW117402   3.281   3.727   7.756  0.3111  0.7229  1.4904
 1923SOL    HW217403   3.188   3.655   7.845  0.8901  2.9636  1.5498
 1924SOL     OW17404   0.337   2.181   3.261 -0.1630  0.6353  0.0500
 1924SOL    HW117405   0.280   2.127   3.207  0.9969 -0.1321 -0.3959
 1924SOL    HW217406   0.418   2.130   3.256 -0.0428  0.5710  2.3180
 1925SOL     OW17407   0.793   1.972   0.829 -0.1638 -0.0568 -0.3359
 1925SOL    HW117408   0.858   1.934   0.889 -0.3751  1.2288  0.6970
 1925SOL    HW217409   0.781   2.059   0.867 -2.4400 -1.3839  1.9797
 1926SOL     OW17410   2.163   2.524  17.461 -0.1760 -0.5991 -0.2170
 1926SOL    HW117411   2.081   2.544  17.415 -0.8776 -2.8850  0.0540
 1926SOL    HW217412   2.131   2.469  17.532  2.2135 -0.2811  1.0811
 1927SOL     OW17413   3.177   2.426   0.186  0.4694 -0.4509  0.4065
 1927SOL    HW117414   3.241   2.356   0.193  0.6316 -0.1829  1.7307
 1927SOL    HW217415   3.096   2.393   0.226 -1.7836  0.7894 -3.0845
 1928SOL     OW17416   2.425   0.421   2.461 -0.1790 -0.6468  0.1154
 1928SOL    HW117417   2.478   0.463   2.528  0.6975 -0.9285 -0.4028
 1928SOL    HW217418   2.391   0.339   2.496 -2.8538  0.5060  0.1998
 1929SOL     OW17419   0.955   1.927  12.428 -0.2139 -0.0909 -0.0758
 1929SOL    HW117420   1.004   1.895  12.351  0.6200  2.9231 -0.7966
 1929SOL    HW217421   1.022   1.971  12.481 -1.0589 -0.7034  1.4858
 1930SOL     OW17422   3.825   0.004  16.255  0.8606 -0.0915 -0.2458
 1930SOL    HW117423   3.832   4.645  16.267  0.0734  0.0986  1.6131
 1930SOL    HW217424   3.859   0.037  16.338 -0.4974  1.9778 -0.5262
 1931SOL     OW17425   4.372   1.626   4.949  0.3566  0.0795  0.3188
 1931SOL    HW117426   4.345   1.640   5.040 -0.3733  0.3911  0.0580
 1931SOL    HW217427   4.366   1.712   4.907  0.4708  0.0719  0.2896
 1932SOL     OW17428   4.679   0.905   2.819 -0.4019  0.6694  0.0189
 1932SOL    HW117429   4.698   0.976   2.758  0.7062 -0.9511 -1.5203
 1932SOL    HW217430   4.592   0.932   2.848 -0.3466 -1.0426  1.7454
 1933SOL     OW17431   4.274   0.310   4.289 -0.2349 -0.0438  0.7799
 1933SOL    HW117432   4.207   0.254   4.252 -1.8961  2.1162  0.5135
 1933SOL    HW217433   4.222   0.387   4.314  0.0382 -0.6183  3.1525
 1934SOL     OW17434   2.254   4.687   0.818 -0.0533  0.1010  0.5383
 1934SOL    HW117435   2.287   0.002   0.744  0.9344  1.1472  1.7025
 1934SOL    HW217436   2.316   4.615   0.823 -0.2689 -0.2427 -1.7382
 1935SOL     OW17437   2.014   4.319   5.827  0.0213 -0.1326 -0.1292
 1935SOL    HW117438   1.954   4.316   5.753 -0.0875 -0.6681 -0.0244
 1935SOL    HW217439   1.995   4.234   5.868 -2.8813  0.5665 -0.0276
 1936SOL     OW17440   2.272   1.058  12.370 -0.5563  0.0812  0.3705
 1936SOL    HW117441   2.275   1.150  12.343  1.3767 -1.2261 -3.9552
 1936SOL    HW217442   2.356   1.044  12.413  0.0965  0.5505 -0.7349
 1937SOL     OW17443   1.220   3.916  14.717 -0.1069  0.3443 -0.2853
 1937SOL    HW117444   1.128   3.943  14.717  0.1033  1.0297 -1.0571
 1937SOL    HW217445   1.256   3.964  14.643  3.4943 -3.7522 -1.1796
 1938SOL     OW17446   0.904   0.877  13.028 -0.0694  0.1560 -0.8858
 1938SOL    HW117447   0.999   0.882  13.033  0.0146  0.6386 -2.9469
 1938SOL    HW217448   0.896   0.945  12.961 -0.2497  0.8733 -0.1421
 1939SOL     OW17449   2.455   3.708   0.502 -0.2267 -0.7273 -0.3669
 1939SOL    HW117450   2.404   3.765   0.560  2.3327  2.0545 -0.8107
 1939SOL    HW217451   2.539   3.755   0.507 -0.5229 -0.1277 -1.1041
 1940SOL     OW17452   1.453   4.412  11.814 -0.5268  0.1819  0.4823
 1940SOL    HW117453   1.493   4.435  11.898  0.2395  0.1472  0.1248
 1940SOL    HW217454   1.451   4.317  11.825 -1.3439  0.2806  1.1497
 1941SOL     OW17455   4.369   3.741  10.017  0.3774  0.1374 -0.9124
 1941SOL    HW117456   4.310   3.721   9.944 -1.5916 -1.7519  1.1772
 1941SOL    HW217457   4.438   3.685   9.982  1.4139  0.9361 -0.1279
 1942SOL     OW17458   3.225   4.242   1.420  0.1422 -0.2425  0.6837
 1942SOL    HW117459   3.286   4.189   1.370 -1.0121 -0.4054 -0.5446
 1942SOL    HW217460   3.278   4.314   1.455 -3.0008  2.6070 -0.3243
 1943SOL     OW17461   4.241   0.899  12.750 -0.1509 -0.1281 -0.1899
 1943SOL    HW117462   4.190   0.954  12.810 -2.3017 -1.8085 -0.4901
 1943SOL    HW217463   4.313   0.875  12.808  0.3969 -0.7293 -1.1182
 1944SOL     OW17464   2.496   2.407   6.342  0.1749  0.2829  0.6899
 1944SOL    HW117465   2.413   2.392   6.297 -0.3387  0.7347  1.4901
 1944SOL    HW217466   2.469   2.457   6.419  0.9551 -0.2485  1.2977
 1945SOL     OW17467   2.338   0.817   3.168 -0.3335 -0.5378  0.3079
 1945SOL    HW117468   2.317   0.849   3.080  1.2562  0.4494  0.2725
 1945SOL    HW217469   2.279   0.742   3.171  1.5933 -2.1448 -1.5087
 1946SOL     OW17470   1.805   2.444   1.686 -0.3605  0.4066  0.3802
 1946SOL    HW117471   1.816   2.532   1.651 -1.2278  0.1472 -0.5454
 1946SOL    HW217472   1.784   2.466   1.776  0.9008  0.5308  0.6387
 1947SOL     OW17473   0.836   3.450   8.216 -0.3149 -0.5177 -0.2811
 1947SOL    HW117474   0.844   3.417   8.126  0.2725  0.0190 -0.4277
 1947SOL    HW217475   0.774   3.386   8.252 -1.1040 -0.2472 -1.1317
 1948SOL     OW17476   1.464   1.187   8.446 -0.4314 -0.0927 -0.2320
 1948SOL    HW117477   1.445   1.093   8.438 -1.1434  0.1878 -1.8945
 1948SOL    HW217478   1.509   1.191   8.530 -1.1457 -0.6129  0.1802
 1949SOL     OW17479   2.979   0.358   1.983  0.1019  0.0152  0.3678
 1949SOL    HW117480   2.907   0.351   2.047 -1.1234  0.8659 -0.9247
 1949SOL    HW217481   3.016   0.446   1.990 -0.0449  0.2085 -1.2489
 1950SOL     OW17482   2.795   0.977  17.428  0.2112  0.1279  0.2225
 1950SOL    HW117483   2.828   1.028  17.354  2.2679  1.7361  2.2602
 1950SOL    HW217484   2.724   0.934  17.380 -0.8679  0.1430  1.7998
 1951SOL     OW17485   1.000   1.319  17.034  0.3642 -0.2016  0.4941
 1951SOL    HW117486   0.927   1.359  17.080  1.2470  2.6269 -0.5802
 1951SOL    HW217487   1.028   1.386  16.972 -0.8413  1.6857  1.9939
 1952SOL     OW17488   1.339   4.267   6.639  0.6058 -0.1246 -0.4980
 1952SOL    HW117489   1.399   4.301   6.573  0.7097 -2.2827 -1.5351
 1952SOL    HW217490   1.322   4.178   6.607 -2.0344  0.6816 -1.3463
 1953SOL     OW17491   0.724   3.305   2.608 -0.2308  0.3726 -0.2409
 1953SOL    HW117492   0.782   3.263   2.545 -0.1783  2.8672 -1.8794
 1953SOL    HW217493   0.777   3.286   2.685  0.1439 -0.2476 -0.6578
 1954SOL     OW17494   4.369   2.829   9.616 -0.0887 -0.6059  0.2343
 1954SOL    HW117495   4.294   2.775   9.642  0.1733 -1.7257 -1.3040
 1954SOL    HW217496   4.338   2.916   9.593 -0.4386 -0.8197 -0.1067
 1955SOL     OW17497   3.989   0.758   8.958 -0.6058  0.3677  0.1583
 1955SOL    HW117498   3.961   0.717   9.040  1.1603 -2.2653 -0.5612
 1955SOL    HW217499   4.023   0.844   8.985 -0.6846  0.6667 -0.7138
 1956SOL     OW17500   2.258   1.224  16.280 -0.1657  0.5539  0.1265
 1956SOL    HW117501   2.218   1.289  16.222  2.4832  1.6505 -0.4767
 1956SOL    HW217502   2.286   1.157  16.218 -0.5858  0.6105 -0.1283
 1957SOL     OW17503   2.431   2.982  15.992  0.2875  0.5412  0.0339
 1957SOL    HW117504   2.345   2.973  16.032  0.5670 -0.4588  0.4253
 1957SOL    HW217505   2.409   3.026  15.910 -0.6606  3.3691  1.8210
 1958SOL     OW17506   4.719   0.728  14.546 -0.1723  0.0435  0.0172
 1958SOL    HW117507   0.048   0.691  14.607  0.5530  1.8388  0.3220
 1958SOL    HW217508   4.644   0.705  14.601  0.8831 -1.4386  0.8424
 1959SOL     OW17509   3.693   3.424  15.131  0.4754 -0.9606  0.2863
 1959SOL    HW117510   3.615   3.469  15.097 -0.6776 -2.9161  0.3142
 1959SOL    HW217511   3.654   3.350  15.178  2.3898 -1.8490  0.4918
 1960SOL     OW17512   3.702   2.330   8.324  0.7673  0.3523  0.4518
 1960SOL    HW117513   3.767   2.343   8.256 -0.0304  1.6438 -0.0608
 1960SOL    HW217514   3.716   2.235   8.330  1.1934  0.3297 -0.8928
 1961SOL     OW17515   0.866   1.104   4.402 -0.2619 -0.0952 -0.3432
 1961SOL    HW117516   0.839   1.053   4.478 -0.1380 -0.0884 -0.2956
 1961SOL    HW217517   0.941   1.056   4.368  0.2185  0.9964 -0.8363
 1962SOL     OW17518   3.600   2.813  12.582  0.2251  0.0774  0.2863
 1962SOL    HW117519   3.525   2.762  12.554  0.3656 -0.5501  1.0499
 1962SOL    HW217520   3.602   2.861  12.499  1.8330  1.2960  1.0064
 1963SOL     OW17521   0.634   4.373   5.054 -0.0580 -0.3097 -0.4202
 1963SOL    HW117522   0.703   4.417   5.103 -1.2214 -0.1285  1.0620
 1963SOL    HW217523   0.581   4.324   5.117  1.5906  0.4121  1.5175
 1964SOL     OW17524   1.449   1.908   2.888  0.0187  0.2626  0.1685
 1964SOL    HW117525   1.454   1.937   2.797 -1.1363 -1.7930 -0.5398
 1964SOL    HW217526   1.357   1.883   2.891 -0.3115  1.5970  1.0918
 1965SOL     OW17527   1.953   2.428   3.003  0.1141 -0.2385  0.7310
 1965SOL    HW117528   1.880   2.444   3.063  1.1809  1.2506  1.6195
 1965SOL    HW217529   2.019   2.410   3.071 -0.6284 -0.9034  1.2794
 1966SOL     OW17530   2.261   3.497   6.061 -0.2869  0.2729 -0.6637
 1966SOL    HW117531   2.229   3.563   6.123  2.3562  0.2697  0.7341
 1966SOL    HW217532   2.354   3.489   6.084 -0.9962 -1.4972  1.6990
 1967SOL     OW17533   3.266   2.392  12.641  0.5758 -0.2110 -0.0444
 1967SOL    HW117534   3.292   2.407  12.732 -0.6708  2.6270 -0.1403
 1967SOL    HW217535   3.336   2.437  12.594 -0.4732  0.8458 -0.5977
 1968SOL     OW17536   0.105   2.182   4.114  0.1760  0.4797 -0.0492
 1968SOL    HW117537   0.047   2.124   4.063 -0.2188  1.0576 -0.2517
 1968SOL    HW217538   0.048   2.187   4.190  1.0703 -0.2171  0.6692
 1969SOL     OW17539   4.256   1.098  11.847 -0.3653  0.4677 -0.3952
 1969SOL    HW117540   4.261   1.003  11.859  1.7936  0.8540  1.7693
 1969SOL    HW217541   4.166   1.117  11.872 -0.7176 -0.7788 -0.7464
 1970SOL     OW17542   1.526   0.367   0.816 -0.6315  0.3815  0.5151
 1970SOL    HW117543   1.614   0.405   0.815 -0.7378  0.6059 -1.4204
 1970SOL    HW217544   1.537   0.303   0.745  1.2998  0.9617  0.2962
 1971SOL     OW17545   3.713   2.687   7.839  0.1135  0.0418 -0.1996
 1971SOL    HW117546   3.740   2.777   7.827  1.8599 -0.4009  0.4301
 1971SOL    HW217547   3.617   2.691   7.843  0.1109 -0.3759  0.2728
 1972SOL     OW17548   3.228   1.257   2.609 -0.5497  0.2095 -0.3254
 1972SOL    HW117549   3.216   1.340   2.563  1.4101 -0.0041 -1.2281
 1972SOL    HW217550   3.197   1.189   2.550  0.4527 -1.3892  0.9774
 1973SOL     OW17551   2.163   1.405   5.100 -0.7244 -0.0107  0.5133
 1973SOL    HW117552   2.244   1.389   5.053 -0.6780 -1.2791  1.0503
 1973SOL    HW217553   2.183   1.495   5.129  1.1874  0.3663 -2.0187
 1974SOL     OW17554   3.777   0.671  14.882  0.2973 -0.4858  0.2012
 1974SOL    HW117555   3.703   0.693  14.826  0.0253 -0.5973  0.5124
 1974SOL    HW217556   3.812   0.597  14.833 -1.0045 -0.7466 -0.3394
 1975SOL     OW17557   2.174   2.393   5.626 -0.0773 -0.3368  0.0091
 1975SOL    HW117558   2.147   2.462   5.687  1.9522 -1.0537  1.7690
 1975SOL    HW217559   2.127   2.412   5.545 -1.2543 -1.9663  0.3161
 1976SOL     OW17560   1.927   3.608  16.573  0.5383  0.4855  0.0116
 1976SOL    HW117561   1.843   3.587  16.533  0.6213 -1.2112  0.7371
 1976SOL    HW217562   1.900   3.656  16.651  0.3378  2.0559 -1.0272
 1977SOL     OW17563   3.080   3.884   9.552 -0.1794 -0.5868  0.1317
 1977SOL    HW117564   3.169   3.913   9.570 -0.6754  0.7234  0.5177
 1977SOL    HW217565   3.035   3.964   9.580  0.0705 -0.6610  0.7392
 1978SOL     OW17566   1.697   2.924   2.924 -0.7595  0.0469 -0.6532
 1978SOL    HW117567   1.693   3.010   2.882 -2.9211 -0.6089 -1.8411
 1978SOL    HW217568   1.673   2.948   3.013  2.3126  3.0384 -0.6616
 1979SOL     OW17569   0.322   3.854   8.050 -0.2591 -0.0868  0.2339
 1979SOL    HW117570   0.407   3.890   8.076  0.6693 -1.2044 -1.2376
 1979SOL    HW217571   0.318   3.799   8.127  1.6394 -1.1134 -0.3856
 1980SOL     OW17572   3.088   2.801   2.035 -0.2416 -0.2707  0.5818
 1980SOL    HW117573   3.051   2.889   2.024  1.0045 -0.0715 -2.1574
 1980SOL    HW217574   3.074   2.772   1.945  1.8562 -1.7163  0.7358
 1981SOL     OW17575   0.244   4.555   7.560  0.0036 -0.4172 -0.9758
 1981SOL    HW117576   0.327   4.563   7.514  0.8628  1.6898  0.9633
 1981SOL    HW217577   0.186   4.628   7.538 -1.3095 -0.3743  2.6783
 1982SOL     OW17578   3.553   1.758   7.524 -0.4834  0.0489 -0.6021
 1982SOL    HW117579   3.480   1.794   7.474  2.2177  2.9428 -2.3827
 1982SOL    HW217580   3.621   1.752   7.458 -0.7949  0.9501 -0.9974
 1983SOL     OW17581   3.599   0.437  10.020  0.4230 -0.7726 -0.6525
 1983SOL    HW117582   3.508   0.439   9.991 -0.2494  0.7488  1.5331
 1983SOL    HW217583   3.648   0.417   9.940  1.7255 -0.0781 -0.0227
 1984SOL     OW17584   2.477   0.558   7.109 -0.0028 -0.1029  0.1483
 1984SOL    HW117585   2.438   0.606   7.036  0.1947  0.4181  0.3847
 1984SOL    HW217586   2.507   0.624   7.171  2.4538 -0.8238 -0.2918
 1985SOL     OW17587   0.461   3.620   4.280 -0.2649  0.0803 -0.0938
 1985SOL    HW117588   0.367   3.638   4.270  0.1677  2.0318 -0.6341
 1985SOL    HW217589   0.483   3.696   4.335 -1.6885  0.0284  0.5561
 1986SOL     OW17590   2.803   2.074   4.919 -0.1767  0.0977  0.9135
 1986SOL    HW117591   2.722   2.124   4.923 -0.5640 -0.4279 -0.4752
 1986SOL    HW217592   2.775   1.990   4.882  1.8356  0.7293 -2.0329
 1987SOL     OW17593   1.671   2.659   5.106 -0.1131 -0.5319 -0.1709
 1987SOL    HW117594   1.625   2.727   5.057 -1.3477  0.3000  2.1242
 1987SOL    HW217595   1.745   2.700   5.151 -2.6286 -0.2608  3.7649
 1988SOL     OW17596   4.422   0.843   6.682  0.0878 -0.4500  1.5712
 1988SOL    HW117597   4.481   0.830   6.608 -2.1000  3.2030 -0.7882
 1988SOL    HW217598   4.355   0.777   6.665 -0.2510 -0.0166  1.2148
 1989SOL     OW17599   4.435   3.350   2.190  0.1136 -0.1433  0.3221
 1989SOL    HW117600   4.435   3.306   2.105 -0.3830 -0.2157  0.3607
 1989SOL    HW217601   4.342   3.370   2.191 -0.1665 -1.3587 -1.3464
 1990SOL     OW17602   1.779   3.586   6.949 -0.4812 -0.4983 -0.2574
 1990SOL    HW117603   1.827   3.506   6.971 -0.1506  0.0087  0.8597
 1990SOL    HW217604   1.711   3.550   6.892 -0.6809 -0.4174 -0.0710
 1991SOL     OW17605   0.745   2.049  11.981 -0.3104 -0.2777  0.3483
 1991SOL    HW117606   0.790   2.116  11.930 -0.9774 -1.7300 -2.1402
 1991SOL    HW217607   0.729   1.980  11.917  2.2023 -0.9943  0.4869
 1992SOL     OW17608   0.067   1.798   9.811  0.2471  0.3533  0.1246
 1992SOL    HW117609   0.161   1.791   9.823 -0.4071 -1.2420  4.0966
 1992SOL    HW217610   0.050   1.865   9.877 -0.1962  0.6002 -0.2320
 1993SOL     OW17611   3.272   4.229   0.203 -0.8725  0.5335 -0.2650
 1993SOL    HW117612   3.309   4.183   0.128  0.2457  1.4438 -0.2870
 1993SOL    HW217613   3.321   4.195   0.277 -0.6491  1.1098 -0.1432
 1994SOL     OW17614   0.994   3.893  15.801 -0.2483  0.1371 -0.2818
 1994SOL    HW117615   0.967   3.906  15.892 -2.6498 -0.7074 -0.8470
 1994SOL    HW217616   1.033   3.980  15.795  1.6942 -0.5902  2.1430
 1995SOL     OW17617   3.195   2.199   2.563 -0.5150  0.3064 -0.4030
 1995SOL    HW117618   3.180   2.289   2.593 -2.3284  0.5954 -2.2057
 1995SOL    HW217619   3.185   2.206   2.468 -0.8676  0.8951 -0.3235
 1996SOL     OW17620   0.561   1.527   4.877 -0.0836  0.2659  0.0130
 1996SOL    HW117621   0.542   1.593   4.810 -0.7726  0.3844  0.3202
 1996SOL    HW217622   0.485   1.541   4.934  1.8026 -2.8661  3.3473
 1997SOL     OW17623   1.935   3.589   7.890  0.1689  0.6566 -0.2504
 1997SOL    HW117624   1.993   3.515   7.868  1.0387  0.2493  3.2528
 1997SOL    HW217625   1.941   3.636   7.807 -2.0615  0.5793 -0.4579
 1998SOL     OW17626   0.120   1.813   4.347  0.3609 -0.7104  0.3303
 1998SOL    HW117627   0.142   1.881   4.285 -1.1232 -0.0323  0.5678
 1998SOL    HW217628   0.197   1.819   4.405 -0.6084 -0.3264  1.5860
 1999SOL     OW17629   4.037   0.286   0.952 -0.2170 -0.0780  0.1042
 1999SOL    HW117630   4.026   0.362   1.008 -0.7372 -0.7789  0.9410
 1999SOL    HW217631   4.125   0.256   0.977 -1.9439 -3.9486  1.6288
 2000SOL     OW17632   2.560   3.719  16.251  0.0374 -0.3654  0.4747
 2000SOL    HW117633   2.514   3.750  16.329 -0.0798 -1.3978  0.8081
 2000SOL    HW217634   2.529   3.782  16.185 -0.7343 -0.2727  0.9209
 2001SOL     OW17635   2.014   0.235  13.196  0.2496 -0.2870  0.1684
 2001SOL    HW117636   1.961   0.187  13.259 -0.1601  1.1580  0.9205
 2001SOL    HW217637   2.086   0.173  13.182  0.9331  0.8668 -1.4542
 2002SOL     OW17638   4.309   2.642   1.642 -0.7750 -0.4593  0.0869
 2002SOL    HW117639   4.352   2.638   1.727 -0.5481  1.2689  0.0618
 2002SOL    HW217640   4.235   2.695   1.671 -0.2996  2.0620 -3.3116
 2003SOL     OW17641   3.776   0.279   4.878  0.2916 -0.3521  0.4489
 2003SOL    HW117642   3.687   0.304   4.852  0.7285 -0.4334 -1.1623
 2003SOL    HW217643   3.777   0.295   4.972  2.5369 -1.1837  0.5598
 2004SOL     OW17644   0.954   4.011   3.850 -0.2289  0.2248 -0.1931
 2004SOL    HW117645   0.907   3.998   3.768  1.2980 -0.2006 -0.9966
 2004SOL    HW217646   0.957   4.106   3.834 -1.2697 -0.0122 -1.8725
 2005SOL     OW17647   2.993   4.004  15.741 -0.2921 -0.2278  0.2345
 2005SOL    HW117648   2.920   3.979  15.797  2.5657 -2.7059  2.8595
 2005SOL    HW217649   3.070   3.969  15.785 -1.1353  0.8497  2.5392
 2006SOL     OW17650   4.698   4.030  13.993  0.1584 -0.5405  0.5445
 2006SOL    HW117651   4.675   4.110  14.041 -0.4307 -2.4042  3.3581
 2006SOL    HW217652   4.621   3.980  14.019 -0.2575 -0.8199 -1.2290
 2007SOL     OW17653   1.677   1.033   6.039 -0.4275 -0.1189  0.0497
 2007SOL    HW117654   1.646   1.019   5.949  0.4773  1.9498 -0.6003
 2007SOL    HW217655   1.654   0.956   6.090 -0.5754 -1.1690 -1.5994
 2008SOL     OW17656   0.317   2.388  15.173  0.2310  0.4201 -0.5538
 2008SOL    HW117657   0.241   2.381  15.231  0.8181 -0.4867  0.0990
 2008SOL    HW217658   0.296   2.316  15.114 -0.6272 -0.3539  0.7012
 2009SOL     OW17659   4.688   3.563   9.334  0.3049  0.3427 -0.4203
 2009SOL    HW117660   0.030   3.608   9.299 -0.5901  3.3699  1.4347
 2009SOL    HW217661   4.635   3.634   9.369 -3.8957 -2.1510 -1.7979
 2010SOL     OW17662   2.383   4.325  16.465 -0.5976  0.0518 -0.1385
 2010SOL    HW117663   2.360   4.273  16.388  1.5993 -0.5795 -0.3600
 2010SOL    HW217664   2.354   4.270  16.538  1.7184 -0.3114  0.4981
 2011SOL     OW17665   3.550   0.087   2.307 -0.0265  0.4548 -0.3376
 2011SOL    HW117666   3.500   0.065   2.228  0.2855 -0.0670 -0.3884
 2011SOL    HW217667   3.603   0.157   2.267 -0.0174 -0.4033 -1.8372
 2012SOL     OW17668   0.372   1.852  13.065 -0.5496 -0.0738  0.2051
 2012SOL    HW117669   0.467   1.843  13.075 -0.5391  1.8500  1.7682
 2012SOL    HW217670   0.363   1.912  12.992 -2.9541 -0.5945  0.0761
 2013SOL     OW17671   3.104   0.609   0.923 -0.3102  0.2241 -0.2953
 2013SOL    HW117672   3.183   0.580   0.877 -0.0830 -0.1144  0.3058
 2013SOL    HW217673   3.030   0.580   0.869  0.0900  2.2108 -1.9153
 2014SOL     OW17674   4.075   0.522   4.039 -0.0072  0.2047 -0.4773
 2014SOL    HW117675   4.000   0.573   4.070 -1.1910 -1.2150 -0.9731
 2014SOL    HW217676   4.028   0.446   4.004 -0.7755  0.6971 -0.5092
 2015SOL     OW17677   3.668   4.296   9.061  0.0367  0.4405  0.0093
 2015SOL    HW117678   3.588   4.346   9.077  0.1350  0.7371 -0.4201
 2015SOL    HW217679   3.695   4.333   8.977 -0.5981 -0.8813 -0.7621
 2016SOL     OW17680   3.194   4.646  14.357  0.2097  0.3066 -0.1894
 2016SOL    HW117681   3.151   4.573  14.401  1.4604 -0.8563 -0.9204
 2016SOL    HW217682   3.207   4.708  14.429  0.8389 -0.3148  0.2237
 2017SOL     OW17683   3.756   1.572   1.611  0.4600 -0.0217  0.8756
 2017SOL    HW117684   3.805   1.542   1.534 -1.9247  0.0968 -0.6761
 2017SOL    HW217685   3.667   1.538   1.610  0.8881 -1.2145  2.2289
 2018SOL     OW17686   1.971   1.013  15.321 -0.6041 -0.1944  0.1168
 2018SOL    HW117687   1.968   0.918  15.331 -1.3720 -0.1176  0.6585
 2018SOL    HW217688   2.017   1.024  15.238  0.0723 -0.0241  0.5169
 2019SOL     OW17689   1.872   4.487   1.375  0.3591 -0.1751 -0.9701
 2019SOL    HW117690   1.917   4.505   1.293 -1.3361 -0.8784 -2.0423
 2019SOL    HW217691   1.949   4.464   1.428 -0.4939 -0.5425  0.1055
 2020SOL     OW17692   1.058   3.493   0.726  0.3142 -0.7015 -0.0055
 2020SOL    HW117693   0.971   3.507   0.689  0.7363 -0.0431 -0.7533
 2020SOL    HW217694   1.111   3.503   0.646  0.7614  1.5183  0.5608
 2021SOL     OW17695   0.115   1.740   8.452  0.8985 -0.4049 -0.2711
 2021SOL    HW117696   0.066   1.730   8.533 -0.0747  0.8420 -0.7022
 2021SOL    HW217697   0.198   1.764   8.491  0.5683 -0.0427  0.2070
 2022SOL     OW17698   1.348   3.187  11.440 -0.4711 -0.3242 -0.1034
 2022SOL    HW117699   1.365   3.103  11.483  3.5003 -0.1204 -1.2112
 2022SOL    HW217700   1.436   3.220  11.422 -1.1839  1.9772  0.6226
 2023SOL     OW17701   4.007   3.144   0.806  0.9617 -0.2540 -0.0156
 2023SOL    HW117702   3.988   3.070   0.863  0.1999 -1.7747 -2.2668
 2023SOL    HW217703   4.101   3.146   0.825  0.8402  0.4448  0.5163
 2024SOL     OW17704   2.650   1.058   4.239 -0.2660 -0.3779 -0.8694
 2024SOL    HW117705   2.739   1.039   4.270 -0.9772  0.7262  1.8615
 2024SOL    HW217706   2.614   1.057   4.328 -0.2690  3.4656 -0.8356
 2025SOL     OW17707   3.548   2.887  15.635  0.6205 -0.4942 -0.2811
 2025SOL    HW117708   3.582   2.812  15.585  0.7190 -0.5797 -0.0843
 2025SOL    HW217709   3.509   2.834  15.705 -1.6293 -0.3933 -1.4570
 2026SOL     OW17710   3.806   1.706   3.327 -0.3877  0.0459 -0.0863
 2026SOL    HW117711   3.771   1.620   3.302 -1.5258 -0.3121  2.7355
 2026SOL    HW217712   3.825   1.751   3.245  1.9529  0.5356  0.7197
 2027SOL     OW17713   1.731   3.770  10.516  0.3687  0.7229  0.7589
 2027SOL    HW117714   1.778   3.770  10.432 -0.8040 -0.5523  0.1084
 2027SOL    HW217715   1.752   3.684  10.551 -0.9168  0.4395  0.8175
 2028SOL     OW17716   4.587   4.406   5.458  0.3133  0.0264 -0.2075
 2028SOL    HW117717   4.506   4.417   5.508 -0.9426  0.3887 -2.3086
 2028SOL    HW217718   4.655   4.412   5.525 -0.1633  0.0630  0.2716
 2029SOL     OW17719   0.884   4.516   3.791  0.5187  0.1752  0.1018
 2029SOL    HW117720   0.840   4.552   3.715 -1.8560  0.1757  1.4787
 2029SOL    HW217721   0.919   4.599   3.823  2.7715 -2.3794  4.3038
 2030SOL     OW17722   2.517   2.314   8.200 -0.0022  0.3440 -0.2185
 2030SOL    HW117723   2.590   2.327   8.138  0.5455 -1.3614  0.0669
 2030SOL    HW217724   2.556   2.357   8.276  0.9958 -0.9090 -0.0074
 2031SOL     OW17725   1.746   1.869   2.879  0.3186 -0.3546 -0.1204
 2031SOL    HW117726   1.674   1.932   2.889  0.6677 -0.3044  1.9012
 2031SOL    HW217727   1.713   1.802   2.820  0.7406 -1.8066  1.3087
 2032SOL     OW17728   2.712   2.538   7.841 -0.2843  0.6965  0.4415
 2032SOL    HW117729   2.704   2.494   7.756  0.6579  0.2657  0.5681
 2032SOL    HW217730   2.695   2.626   7.807 -2.2545  0.4287  0.7488
 2033SOL     OW17731   2.358   1.412  11.709 -0.2717  0.2151 -0.0482
 2033SOL    HW117732   2.384   1.437  11.798  1.1781  1.0182 -0.6908
 2033SOL    HW217733   2.312   1.330  11.730  0.6758 -0.1895  0.4592
 2034SOL     OW17734   3.811   2.383   2.000 -0.2748 -0.3999  0.8809
 2034SOL    HW117735   3.851   2.341   1.924 -1.4434  1.0194 -0.5294
 2034SOL    HW217736   3.757   2.311   2.032 -1.0124 -1.0053 -1.6948
 2035SOL     OW17737   3.472   2.818  15.306  0.0642 -0.0258  0.0453
 2035SOL    HW117738   3.551   2.776  15.340  0.3072  0.1667 -0.2858
 2035SOL    HW217739   3.419   2.751  15.349  0.8038 -1.1566 -0.8222
 2036SOL     OW17740   0.578   3.055   4.029  0.4321 -0.5909 -0.2735
 2036SOL    HW117741   0.659   3.038   3.981  0.4953 -1.1654  0.0397
 2036SOL    HW217742   0.544   2.966   4.024  0.4938 -0.5868 -0.7692
 2037SOL     OW17743   0.626   0.382   6.786  0.0714  0.3608  0.4463
 2037SOL    HW117744   0.547   0.356   6.740  0.9173  0.3360 -0.9867
 2037SOL    HW217745   0.692   0.323   6.748  0.5977 -1.0347  3.4949
 2038SOL     OW17746   3.621   1.570   2.292  0.0031  0.1502  1.1297
 2038SOL    HW117747   3.702   1.560   2.242  0.1171  0.2546  1.2914
 2038SOL    HW217748   3.570   1.634   2.243  1.5846  2.1264  2.0664
 2039SOL     OW17749   0.609   3.980   1.269 -0.2754  0.3409  0.1232
 2039SOL    HW117750   0.582   4.071   1.282 -0.1248  0.2030  1.3867
 2039SOL    HW217751   0.703   3.982   1.289 -0.3937  0.4288  0.6574
 2040SOL     OW17752   3.913   2.836  17.032  0.2353  0.4066 -0.0560
 2040SOL    HW117753   3.961   2.841  16.949  0.2865 -1.0510 -0.1133
 2040SOL    HW217754   3.826   2.818  16.997  0.9383 -1.6717 -0.7400
 2041SOL     OW17755   0.296   3.132  11.121 -0.3013 -0.3288  0.0176
 2041SOL    HW117756   0.284   3.128  11.026 -0.9799 -0.1876  0.0929
 2041SOL    HW217757   0.336   3.050  11.151  3.8517  1.4517 -0.7587
 2042SOL     OW17758   1.230   1.132   2.698  0.5584  0.0554  0.6357
 2042SOL    HW117759   1.295   1.079   2.744 -0.5613 -0.0819  2.0614
 2042SOL    HW217760   1.277   1.152   2.617 -1.2875  0.0977 -0.4222
 2043SOL     OW17761   2.294   0.637   2.353  0.0692 -0.0685 -0.5897
 2043SOL    HW117762   2.338   0.684   2.283 -1.8854  3.4894  0.5872
 2043SOL    HW217763   2.344   0.555   2.360 -0.6428 -0.5036 -0.5188
 2044SOL     OW17764   0.662   2.299   8.759  0.5695  0.4127  0.3851
 2044SOL    HW117765   0.730   2.360   8.785  0.4649  0.1143  1.3689
 2044SOL    HW217766   0.611   2.354   8.700 -2.4957 -1.3683  1.3740
 2045SOL     OW17767   1.359   1.323  10.700  0.3546  0.2998 -0.0486
 2045SOL    HW117768   1.286   1.356  10.752  0.5341 -1.0223  1.0370
 2045SOL    HW217769   1.322   1.235  10.690 -0.2628  0.5266  0.2247
 2046SOL     OW17770   3.468   4.545   5.961 -0.2690  0.5834 -0.2306
 2046SOL    HW117771   3.559   4.564   5.982 -0.5168  0.8665  0.5859
 2046SOL    HW217772   3.461   4.559   5.866 -0.5660  1.7674 -0.0366
 2047SOL     OW17773   2.246   3.329   4.724 -0.1899 -0.7797  0.5057
 2047SOL    HW117774   2.310   3.281   4.672  1.0737 -0.6339  1.9073
 2047SOL    HW217775   2.211   3.392   4.662  0.8662 -0.3613  0.3304
 2048SOL     OW17776   1.037   4.233   3.153 -0.0328  0.0634 -0.0301
 2048SOL    HW117777   1.077   4.174   3.089 -0.9400 -0.3021 -0.2725
 2048SOL    HW217778   1.108   4.265   3.208 -0.2983 -2.4957  1.8358
 2049SOL     OW17779   3.187   3.611  15.870 -0.4615 -0.3851 -1.0900
 2049SOL    HW117780   3.176   3.640  15.780 -0.5698 -0.6186 -1.1519
 2049SOL    HW217781   3.273   3.651  15.887 -1.1764  0.4719  0.4596
 2050SOL     OW17782   3.149   3.548   9.848  0.3250  0.5599 -0.0271
 2050SOL    HW117783   3.071   3.603   9.837 -0.7727 -1.0161 -0.1576
 2050SOL    HW217784   3.208   3.622   9.832  1.5520 -0.2268  0.8868
 2051SOL     OW17785   1.085   2.157  16.248 -0.4289  0.1155 -0.0094
 2051SOL    HW117786   1.179   2.174  16.241 -0.6082  1.3113  0.5225
 2051SOL    HW217787   1.064   2.173  16.340 -0.5636  1.9434 -0.3547
 2052SOL     OW17788   1.147   2.166   3.203  0.0203  0.3338 -0.2543
 2052SOL    HW117789   1.185   2.097   3.258 -1.8302  0.7508  1.5591
 2052SOL    HW217790   1.225   2.181   3.149  0.5235 -1.9788 -0.1722
 2053SOL     OW17791   1.027   3.002  15.512 -0.3172  0.0099  0.0642
 2053SOL    HW117792   0.985   3.084  15.538  0.4834  0.8049 -1.1179
 2053SOL    HW217793   1.118   3.029  15.522 -0.1710 -0.2935 -0.4179
 2054SOL     OW17794   1.796   1.847   3.598 -0.0364  0.8382 -0.2206
 2054SOL    HW117795   1.851   1.885   3.529  0.1510 -2.5172 -1.8914
 2054SOL    HW217796   1.816   1.901   3.675 -0.0157  0.7953 -0.1964
 2055SOL     OW17797   4.364   1.007   9.136  0.4355 -0.2363 -0.4708
 2055SOL    HW117798   4.351   1.102   9.143  0.4125 -0.2558 -0.2515
 2055SOL    HW217799   4.283   0.977   9.096 -0.3000  2.5815 -1.0859
 2056SOL     OW17800   3.550   1.087   6.696  0.2154 -0.5934 -0.4182
 2056SOL    HW117801   3.507   1.097   6.781  0.5564 -1.6864 -0.1177
 2056SOL    HW217802   3.575   1.177   6.675 -0.9251 -0.0927  0.3425
 2057SOL     OW17803   1.945   3.288   1.730  0.2695 -0.6300 -0.1714
 2057SOL    HW117804   1.875   3.304   1.793  0.2785  0.3270 -0.4023
 2057SOL    HW217805   1.995   3.221   1.775 -2.3669 -2.3676  0.1807
 2058SOL     OW17806   1.949   4.410  16.065  0.0903 -0.2604 -0.2604
 2058SOL    HW117807   1.867   4.365  16.085  0.5756 -1.2175 -0.4106
 2058SOL    HW217808   2.015   4.342  16.076 -2.7720 -3.1130 -0.5774
 2059SOL     OW17809   4.654   3.130  11.729 -0.6198  0.1355  0.2143
 2059SOL    HW117810   4.673   3.181  11.650 -2.5844 -2.5325 -1.9770
 2059SOL    HW217811   4.576   3.176  11.758 -0.2542  3.3466 -3.9095
 2060SOL     OW17812   3.738   2.003  12.817 -0.2011  0.0170  0.5521
 2060SOL    HW117813   3.732   1.992  12.912 -2.4366  1.6660  0.6027
 2060SOL    HW217814   3.647   2.021  12.794  0.2188  0.8311 -0.4694
 2061SOL     OW17815   0.014   2.925   3.846  0.0821 -0.4103 -0.6728
 2061SOL    HW117816   0.011   3.017   3.820  4.6959 -0.0249  0.1065
 2061SOL    HW217817   0.060   2.895   3.768 -1.6442 -0.5226 -1.6281
 2062SOL     OW17818   4.125   2.982   5.595 -0.0591  0.1249 -0.1154
 2062SOL    HW117819   4.136   2.906   5.537  1.6670  0.5508 -0.3533
 2062SOL    HW217820   4.097   3.045   5.529  0.8113  1.7927  1.1099
 2063SOL     OW17821   1.348   0.193   6.370  0.9328  0.8764 -0.3811
 2063SOL    HW117822   1.376   0.148   6.290  1.5995 -2.4409  1.7214
 2063SOL    HW217823   1.393   0.147   6.441 -1.5634  0.0184  0.6622
 2064SOL     OW17824   0.792   1.255   6.344 -0.4633 -0.4058 -0.0682
 2064SOL    HW117825   0.793   1.196   6.269 -0.9136  1.0642 -1.2302
 2064SOL    HW217826   0.788   1.342   6.305  1.5919 -0.1887  0.2191
 2065SOL     OW17827   3.151   1.428   7.476 -0.6993  0.6687  0.2807
 2065SOL    HW117828   3.127   1.345   7.517 -1.6286  0.7334 -0.1367
 2065SOL    HW217829   3.151   1.405   7.383  2.4459 -0.5348  0.5711
 2066SOL     OW17830   4.682   2.988   1.710 -0.0367  0.2783 -0.0636
 2066SOL    HW117831   4.598   2.986   1.664 -0.3910 -1.5646  0.6344
 2066SOL    HW217832   0.004   3.042   1.656  1.1110 -1.7362 -0.8542
 2067SOL     OW17833   2.610   0.136   8.384  0.3844  0.1908 -0.5882
 2067SOL    HW117834   2.589   0.161   8.294  1.2471 -0.1953 -0.8943
 2067SOL    HW217835   2.606   0.215   8.438 -1.0707 -0.4268  0.2036
 2068SOL     OW17836   3.890   2.871  15.330  0.5902 -0.5065 -0.1497
 2068SOL    HW117837   3.924   2.853  15.418  0.4226 -1.8902 -0.3651
 2068SOL    HW217838   3.879   2.782  15.296  0.0871  0.5773 -2.8004
 2069SOL     OW17839   1.679   2.223  12.204  0.1726  0.0112 -0.4318
 2069SOL    HW117840   1.769   2.204  12.178  0.7634  1.2990  0.6552
 2069SOL    HW217841   1.662   2.148  12.260  0.7518  1.1968  1.3385
 2070SOL     OW17842   3.322   2.475   7.524  0.2025  0.2811 -0.5030
 2070SOL    HW117843   3.334   2.562   7.562  1.1810 -0.3110  0.5628
 2070SOL    HW217844   3.329   2.418   7.601  3.1841 -0.9408 -1.6479
 2071SOL     OW17845   2.741   2.009  16.520  0.1434 -0.0577  0.2514
 2071SOL    HW117846   2.818   1.991  16.466 -0.5945 -1.4933 -0.3232
 2071SOL    HW217847   2.751   2.103  16.532 -1.4668  0.3329 -1.5460
 2072SOL     OW17848   3.560   3.818   5.689  0.0009  0.1862  0.1415
 2072SOL    HW117849   3.649   3.836   5.657  0.1523 -0.8336 -0.0023
 2072SOL    HW217850   3.578   3.767   5.768 -0.3411  0.9233  0.6949
 2073SOL     OW17851   4.244   2.007   4.361 -0.0513  0.4945 -0.1281
 2073SOL    HW117852   4.151   2.027   4.366  0.0564  0.8447  0.4192
 2073SOL    HW217853   4.239   1.913   4.340 -1.3227  0.7131 -0.8187
 2074SOL     OW17854   4.400   2.903  12.537  0.1557  0.3565  0.0480
 2074SOL    HW117855   4.466   2.973  12.540  1.6894 -0.9700 -2.2725
 2074SOL    HW217856   4.426   2.868  12.451 -0.7686 -0.4456  0.1064
 2075SOL     OW17857   3.337   2.570  11.082  0.3768 -0.1898 -0.2571
 2075SOL    HW117858   3.362   2.647  11.133 -0.2717 -0.2693  0.1815
 2075SOL    HW217859   3.264   2.539  11.136  0.9797 -2.1345 -0.5591
 2076SOL     OW17860   3.658   2.523  10.734 -0.3635  0.3040  0.1833
 2076SOL    HW117861   3.644   2.615  10.758 -0.7086  0.5407 -0.9294
 2076SOL    HW217862   3.590   2.478  10.783  1.5001 -0.6322  1.8955
 2077SOL     OW17863   0.396   2.179   7.011  0.7823  0.3375 -0.2194
 2077SOL    HW117864   0.307   2.146   7.006  0.0129  2.1611  1.2592
 2077SOL    HW217865   0.414   2.139   7.096  1.3853  1.5891  0.2553
 2078SOL     OW17866   0.602   4.674  12.800  0.5048 -0.2565  0.1528
 2078SOL    HW117867   0.612   4.595  12.747  1.4950  0.2536 -0.4157
 2078SOL    HW217868   0.688   4.716  12.792  0.0408  1.1870  2.9086
 2079SOL     OW17869   0.027   3.743  14.173  0.0596  0.0495 -0.1118
 2079SOL    HW117870   4.683   3.784  14.139 -0.9864 -0.3664  1.8043
 2079SOL    HW217871   4.727   3.693  14.247  0.6923  0.8485  0.7219
 2080SOL     OW17872   1.088   2.684   1.665  0.0097 -0.1846  0.0808
 2080SOL    HW117873   1.151   2.616   1.687  2.1370  1.4969 -0.7798
 2080SOL    HW217874   1.017   2.637   1.622  1.0258 -1.0418 -0.6692
 2081SOL     OW17875   3.547   0.819  15.864 -0.4146 -0.0445 -0.2447
 2081SOL    HW117876   3.465   0.792  15.822 -0.6142 -2.0560  1.3898
 2081SOL    HW217877   3.522   0.794  15.953  1.2288 -0.3450  0.1420
 2082SOL     OW17878   0.977   0.824   2.428  0.6079 -0.1621  0.1907
 2082SOL    HW117879   0.951   0.802   2.517  0.4453  1.1981  0.4768
 2082SOL    HW217880   0.904   0.882   2.404  1.2846  0.5998 -0.0326
 2083SOL     OW17881   1.879   0.166  12.614  0.1194 -0.6471  0.5454
 2083SOL    HW117882   1.863   0.191  12.705 -2.9216  0.4027 -0.2674
 2083SOL    HW217883   1.810   0.100  12.601 -0.9843  0.5456  0.3876
 2084SOL     OW17884   4.645   0.510  16.267  0.3065  0.1325  0.5367
 2084SOL    HW117885   0.003   0.505  16.283  0.4245 -1.1503 -0.5729
 2084SOL    HW217886   4.624   0.509  16.361 -1.1051  1.9147  0.2483
 2085SOL     OW17887   1.089   1.047   0.481 -0.0501 -0.2668 -0.0568
 2085SOL    HW117888   1.012   1.037   0.425  0.5352  0.9310 -1.0762
 2085SOL    HW217889   1.049   1.079   0.562  0.2351 -1.1909  0.4490
 2086SOL     OW17890   0.866   1.260  10.712 -0.0697  0.2087 -0.0597
 2086SOL    HW117891   0.942   1.262  10.769 -0.2639 -1.7269  0.2837
 2086SOL    HW217892   0.807   1.205  10.764  1.0186 -1.5791 -0.7311
 2087SOL     OW17893   0.376   3.287   3.319  0.0662  0.6967 -0.0542
 2087SOL    HW117894   0.386   3.203   3.273  0.6461  0.9695 -0.4163
 2087SOL    HW217895   0.321   3.249   3.388 -1.3822 -1.7115 -2.5329
 2088SOL     OW17896   4.330   0.024   8.426  0.6769 -0.0767  0.1269
 2088SOL    HW117897   4.412   0.067   8.452  1.2513 -0.6379 -0.7506
 2088SOL    HW217898   4.266   0.059   8.488 -0.9721  0.0162 -1.6693
 2089SOL     OW17899   0.818   0.753   3.424 -0.2108 -0.5520  0.3762
 2089SOL    HW117900   0.767   0.691   3.477 -2.3805  0.0461 -1.0144
 2089SOL    HW217901   0.864   0.794   3.497 -0.9349  0.2810  0.3642
 2090SOL     OW17902   2.723   1.186  10.853 -0.2371  0.0686  0.0450
 2090SOL    HW117903   2.797   1.126  10.855  0.8972  1.4601 -0.3971
 2090SOL    HW217904   2.676   1.162  10.933  1.9681 -0.9115  1.0434
 2091SOL     OW17905   3.806   1.376  12.359 -0.3917 -0.4153  0.4473
 2091SOL    HW117906   3.753   1.329  12.295  1.1591 -0.3946 -0.8570
 2091SOL    HW217907   3.877   1.317  12.384 -0.0645 -0.3181 -0.2376
 2092SOL     OW17908   2.314   2.172  12.334 -0.5381  0.0652 -0.0664
 2092SOL    HW117909   2.231   2.213  12.358 -0.4034 -0.2503  0.9519
 2092SOL    HW217910   2.380   2.232  12.369 -2.7348  2.2841  0.2680
 2093SOL     OW17911   4.135   4.548   9.510  0.5157 -0.0941 -0.4025
 2093SOL    HW117912   4.041   4.532   9.499 -0.2888  3.3463  1.6014
 2093SOL    HW217913   4.128   4.550   9.605 -1.2950 -0.8972 -0.5180
 2094SOL     OW17914   1.376   0.654   8.415  0.3168  0.0364 -0.0551
 2094SOL    HW117915   1.297   0.607   8.389  0.3124 -0.3986  0.7391
 2094SOL    HW217916   1.444   0.587   8.418  1.0082  0.7970  1.3948
 2095SOL     OW17917   2.354   2.987   3.131  0.0861  0.0363 -0.3924
 2095SOL    HW117918   2.309   2.988   3.216 -0.9422 -0.0512 -0.9449
 2095SOL    HW217919   2.342   2.901   3.089  0.5803  0.3843 -1.2473
 2096SOL     OW17920   4.374   3.856   7.215 -0.9473 -0.0702  0.6096
 2096SOL    HW117921   4.362   3.951   7.220  0.8796  0.1698  0.2783
 2096SOL    HW217922   4.463   3.851   7.180 -0.5980 -1.4392  1.6640
 2097SOL     OW17923   1.238   4.035   3.909 -0.8216 -0.3069  0.1203
 2097SOL    HW117924   1.148   4.033   3.942 -0.9200 -0.9300 -0.1865
 2097SOL    HW217925   1.212   3.990   3.828 -4.1246  3.6911 -1.0287
 2098SOL     OW17926   4.714   3.432   5.542 -0.3396  0.7895  0.1921
 2098SOL    HW117927   4.621   3.422   5.562  0.2108  1.9486  3.2426
 2098SOL    HW217928   4.719   3.483   5.461 -1.3612 -0.8784 -0.9345
 2099SOL     OW17929   2.873   0.922   3.834 -0.1606 -0.5687 -0.1638
 2099SOL    HW117930   2.966   0.936   3.819 -0.1898  0.2804  0.4876
 2099SOL    HW217931   2.837   0.954   3.751 -2.3478  0.9439  1.3750
 2100SOL     OW17932   1.408   2.048   3.617 -0.6756 -0.8033  0.1065
 2100SOL    HW117933   1.416   2.130   3.666  0.0786 -1.4543  1.0709
 2100SOL    HW217934   1.475   1.998   3.664  0.9111  1.1725 -0.0569
 2101SOL     OW17935   2.881   4.259   5.037  0.0696  0.2849  0.1266
 2101SOL    HW117936   2.835   4.289   5.116  0.6583  0.9893  0.2015
 2101SOL    HW217937   2.837   4.179   5.010  0.3163  0.6745 -1.3803
 2102SOL     OW17938   4.264   0.656   3.470  0.4030  0.0965  0.3111
 2102SOL    HW117939   4.313   0.611   3.538 -0.3251  1.1996  1.5555
 2102SOL    HW217940   4.208   0.705   3.530 -0.1722 -1.7198  1.2363
 2103SOL     OW17941   0.311   3.391   5.230  0.1864  0.3113  0.8951
 2103SOL    HW117942   0.335   3.482   5.212 -0.9008  0.3120 -0.5153
 2103SOL    HW217943   0.379   3.341   5.186  0.9738  0.5518  1.8443
 2104SOL     OW17944   3.118   0.281   3.143  0.1432 -0.0220  0.3468
 2104SOL    HW117945   3.207   0.298   3.112 -0.7475 -1.6023 -3.1058
 2104SOL    HW217946   3.123   0.186   3.136  0.0874  0.0982 -1.3713
 2105SOL     OW17947   2.906   4.074  11.042 -0.1400  0.2279 -0.4710
 2105SOL    HW117948   2.945   4.055  10.957 -0.6003 -2.4369 -0.0776
 2105SOL    HW217949   2.952   4.008  11.093  0.8791  1.1956 -0.1387
 2106SOL     OW17950   4.573   1.355   4.516 -0.0188 -0.0468 -0.5327
 2106SOL    HW117951   4.493   1.349   4.464  0.1087 -0.1203 -0.7235
 2106SOL    HW217952   4.531   1.369   4.600 -2.8846 -3.9461 -1.3278
 2107SOL     OW17953   2.550   2.602   9.016  0.2815  0.0894 -0.3522
 2107SOL    HW117954   2.507   2.594   8.931  1.3892 -1.6691 -0.7474
 2107SOL    HW217955   2.473   2.613   9.072  1.6617 -0.5432  1.6577
 2108SOL     OW17956   3.853   4.150  12.754 -0.1505  0.0443 -0.6304
 2108SOL    HW117957   3.798   4.105  12.819  1.4845 -0.2927  0.4953
 2108SOL    HW217958   3.934   4.100  12.754  1.6613  3.0286  1.7158
 2109SOL     OW17959   1.211   0.115  10.301  0.8144  0.4186 -0.0888
 2109SOL    HW117960   1.192   0.168  10.224 -0.5008  1.3337  0.8579
 2109SOL    HW217961   1.281   0.059  10.268  1.2159  1.3782 -0.8535
 2110SOL     OW17962   1.752   3.572   9.456 -0.2058 -0.0161  0.0938
 2110SOL    HW117963   1.699   3.620   9.392 -0.0066  0.4372  0.2712
 2110SOL    HW217964   1.684   3.540   9.515  1.6783  0.3083  2.4049
 2111SOL     OW17965   2.274   2.647   5.009 -0.1242  0.0340  0.5609
 2111SOL    HW117966   2.318   2.731   4.997 -0.8148  0.4081  0.6211
 2111SOL    HW217967   2.208   2.648   4.940  0.4285  0.1654  0.0353
 2112SOL     OW17968   1.064   4.721  10.062 -1.0210 -0.1487  0.2029
 2112SOL    HW117969   1.024   4.649  10.112  1.2040 -1.2666  0.3911
 2112SOL    HW217970   1.006   0.060  10.077 -0.7705  0.2531 -0.8991
 2113SOL     OW17971   0.302   3.181   7.113  0.5164  0.1669  0.2796
 2113SOL    HW117972   0.355   3.108   7.081 -1.3096 -0.9283 -0.2948
 2113SOL    HW217973   0.217   3.163   7.073 -0.9136  0.2855  3.2442
 2114SOL     OW17974   2.316   3.134  10.541  0.0670  0.0377  0.1601
 2114SOL    HW117975   2.253   3.068  10.570 -2.7336  2.8625  0.6098
 2114SOL    HW217976   2.375   3.078  10.491 -2.2038 -1.2352 -1.1504
 2115SOL     OW17977   3.145   0.735   3.156 -1.0288 -0.5436  0.4994
 2115SOL    HW117978   3.202   0.774   3.089 -0.5210  1.0028  1.8370
 2115SOL    HW217979   3.067   0.788   3.143 -2.4061 -2.6308  0.1713
 2116SOL     OW17980   4.517   0.065   8.945  0.5766  0.1600 -0.3103
 2116SOL    HW117981   4.477   4.721   8.911 -0.8744  0.1306  1.4866
 2116SOL    HW217982   4.487   0.062   9.036  1.7647 -3.1995 -0.0371
 2117SOL     OW17983   4.611   4.017   1.489  0.0251 -0.5318 -0.3313
 2117SOL    HW117984   4.594   4.111   1.490 -1.1269 -0.7496  2.1062
 2117SOL    HW217985   4.549   3.986   1.423 -0.4225  0.4956 -0.3989
 2118SOL     OW17986   1.587   2.006   9.054  0.3606  0.0585  0.4895
 2118SOL    HW117987   1.637   2.081   9.022 -0.3076  0.3834  0.2041
 2118SOL    HW217988   1.656   1.961   9.102 -0.4339 -1.2141  0.4541
 2119SOL     OW17989   2.694   0.014  10.635 -0.2054 -0.1717  0.3327
 2119SOL    HW117990   2.647   0.085  10.677 -0.4910  0.7506 -1.5418
 2119SOL    HW217991   2.783   0.044  10.651 -0.3921  0.1149  0.8160
 2120SOL     OW17992   2.127   4.597  15.323  0.3679 -0.2870  0.2949
 2120SOL    HW117993   2.057   4.533  15.310  1.3121 -1.3856  0.6024
 2120SOL    HW217994   2.122   4.662  15.253  1.7921  0.3732  0.7993
 2121SOL     OW17995   3.271   1.605   8.188  0.5981 -0.3303  0.2949
 2121SOL    HW117996   3.302   1.624   8.100  0.1754  1.4482  0.5207
 2121SOL    HW217997   3.197   1.546   8.172 -1.5587  2.1730  0.9883
 2122SOL     OW17998   4.165   2.965  17.260 -0.0337 -0.0488 -0.3996
 2122SOL    HW117999   4.254   2.989  17.285 -0.1006 -1.1805  0.9435
 2122SOL    HW218000   4.180   2.919  17.177 -0.5264  0.3252 -0.6933
 2123SOL     OW18001   0.330   3.426   5.502  0.6496  0.1307 -0.0539
 2123SOL    HW118002   0.315   3.433   5.408  1.4627  0.1620 -0.1779
 2123SOL    HW218003   0.296   3.340   5.524 -0.3880  0.3928 -0.6120
 2124SOL     OW18004   0.251   1.649   0.316 -0.3041 -0.3939  0.3590
 2124SOL    HW118005   0.225   1.579   0.375  0.8201 -2.7300 -1.9344
 2124SOL    HW218006   0.340   1.658   0.351 -0.2415 -1.9266  0.6049
 2125SOL     OW18007   1.423   0.583   9.606  0.5973  0.0951 -0.1500
 2125SOL    HW118008   1.433   0.631   9.688 -0.9682  0.1019  0.0414
 2125SOL    HW218009   1.513   0.578   9.574  0.6110 -1.1537  0.0921
 2126SOL     OW18010   0.931   2.109  15.311 -0.2025 -0.4390 -0.1943
 2126SOL    HW118011   0.901   2.027  15.272 -1.3627  0.7889 -1.8652
 2126SOL    HW218012   1.023   2.087  15.328 -0.1172 -0.3290 -0.5147
 2127SOL     OW18013   1.719   1.370   2.332 -0.0875 -0.3472 -0.3298
 2127SOL    HW118014   1.734   1.465   2.335 -2.2235  0.0608 -1.9219
 2127SOL    HW218015   1.672   1.362   2.415 -0.9082  0.3938 -0.7162
 2128SOL     OW18016   1.726   4.298  12.264 -0.7480 -0.7222  0.0058
 2128SOL    HW118017   1.770   4.226  12.220 -0.7673 -0.4323 -0.4890
 2128SOL    HW218018   1.795   4.331  12.322  0.3050 -3.4547  0.2897
 2129SOL     OW18019   1.442   0.351   4.637  0.7293 -0.6296  0.1068
 2129SOL    HW118020   1.511   0.341   4.703 -0.2801 -1.1657  1.0841
 2129SOL    HW218021   1.488   0.349   4.553  0.2932 -1.0762 -0.1226
 2130SOL     OW18022   2.690   3.045   9.240 -0.7145  0.5600 -0.2595
 2130SOL    HW118023   2.693   2.970   9.180  0.0964  1.2126 -1.0410
 2130SOL    HW218024   2.771   3.087   9.210 -0.0524 -0.1164  0.5976
 2131SOL     OW18025   0.478   4.270   5.247 -0.1410  0.0749  0.4730
 2131SOL    HW118026   0.442   4.185   5.275  3.0051 -1.7366 -1.0795
 2131SOL    HW218027   0.399   4.322   5.235  0.8610  1.6680  0.9029
 2132SOL     OW18028   1.207   0.937   7.450  0.8002 -0.1086  0.4870
 2132SOL    HW118029   1.261   0.862   7.423  2.4853  1.5564 -0.7661
 2132SOL    HW218030   1.256   0.951   7.531  1.5107  3.3848 -0.5637
 2133SOL     OW18031   2.570   3.276   1.869  0.2351 -0.0406 -0.3289
 2133SOL    HW118032   2.597   3.317   1.787  0.6410  0.0712 -0.1415
 2133SOL    HW218033   2.481   3.248   1.849  0.9734 -1.9571 -0.8540
 2134SOL     OW18034   1.427   0.160   3.976  0.0735 -0.3573 -0.6016
 2134SOL    HW118035   1.419   0.239   3.923  0.8985  0.2456  0.1769
 2134SOL    HW218036   1.369   0.180   4.049  1.1068  3.3230 -0.7702
 2135SOL     OW18037   1.915   2.955   3.505 -0.1030 -0.2099  0.3363
 2135SOL    HW118038   1.975   2.883   3.483  1.6760  0.9036  1.5610
 2135SOL    HW218039   1.967   2.994   3.575 -0.1973  2.0566 -0.8762
 2136SOL     OW18040   3.303   4.488   3.040 -0.3140  0.2309  0.4554
 2136SOL    HW118041   3.266   4.486   3.129  2.0674 -1.2251  1.4127
 2136SOL    HW218042   3.389   4.526   3.053  0.5634 -1.0791 -1.6313
 2137SOL     OW18043   4.591   3.591   4.439 -0.0350 -0.0914 -0.4184
 2137SOL    HW118044   4.498   3.614   4.427  0.4256  2.3943  0.8435
 2137SOL    HW218045   4.638   3.664   4.400 -1.4262  1.8449  1.5099
 2138SOL     OW18046   0.292   0.814   4.572 -0.0661  0.1372  0.0817
 2138SOL    HW118047   0.206   0.772   4.570 -0.2400  0.4962  0.0892
 2138SOL    HW218048   0.312   0.827   4.479  0.1773 -0.6444  0.0256
 2139SOL     OW18049   0.545   2.254   9.464 -0.2582  0.4937  0.0311
 2139SOL    HW118050   0.501   2.179   9.504  0.8738 -0.1372  0.1140
 2139SOL    HW218051   0.533   2.228   9.372  0.1541  1.7022 -0.3579
 2140SOL     OW18052   1.760   2.052   5.872 -0.1215 -0.1032  0.3525
 2140SOL    HW118053   1.841   2.005   5.853 -1.4834 -1.6056 -1.8799
 2140SOL    HW218054   1.774   2.133   5.823 -0.6171  0.1747  0.6738
 2141SOL     OW18055   0.482   1.857   3.469  0.0669 -0.0958  0.1353
 2141SOL    HW118056   0.448   1.779   3.512  3.2392 -0.5737  1.7685
 2141SOL    HW218057   0.415   1.923   3.486  1.1804  0.8059  1.0176
 2142SOL     OW18058   1.304   2.975   8.722 -0.4405  0.2324  0.3104
 2142SOL    HW118059   1.250   2.903   8.690 -1.5587  2.1297 -2.0478
 2142SOL    HW218060   1.355   2.925   8.786  1.3175  0.5836 -0.7877
 2143SOL     OW18061   3.592   2.127   2.331 -0.2146 -0.5153 -0.1905
 2143SOL    HW118062   3.546   2.046   2.352  0.9984 -0.7559  1.5098
 2143SOL    HW218063   3.572   2.174   2.412 -2.0802 -0.6258 -0.6015
 2144SOL     OW18064   2.420   0.053   7.629 -0.7761  0.1057 -0.0536
 2144SOL    HW118065   2.420   4.711   7.573 -0.3076 -0.3708  0.6023
 2144SOL    HW218066   2.430   0.017   7.717  1.9675  2.0943  0.4595
 2145SOL     OW18067   1.908   1.839   8.945 -0.0956 -0.0200 -0.4445
 2145SOL    HW118068   1.962   1.903   8.992 -1.5962 -1.5649  3.3942
 2145SOL    HW218069   1.852   1.893   8.890  0.3324 -0.2505 -1.1127
 2146SOL     OW18070   1.062   3.822   0.428  0.6406 -0.2755 -0.3984
 2146SOL    HW118071   1.040   3.838   0.520 -1.3253  1.5633 -1.1704
 2146SOL    HW218072   1.009   3.892   0.390 -1.4555 -0.9139  1.3361
 2147SOL     OW18073   2.342   0.332  17.635  0.4476 -0.3529 -0.7714
 2147SOL    HW118074   2.391   0.413  17.653 -1.9288  1.4247 -2.3804
 2147SOL    HW218075   2.411   0.271  17.661  1.4360  1.5897  1.2342
 2148SOL     OW18076   2.148   3.260  15.330 -0.1887 -0.3165 -0.0183
 2148SOL    HW118077   2.070   3.222  15.371 -0.0147 -0.4613  0.1800
 2148SOL    HW218078   2.157   3.351  15.359 -0.6134  0.0017 -0.8579
 2149SOL     OW18079   0.360   1.825   4.515 -1.1555 -0.4229  0.1162
 2149SOL    HW118080   0.366   1.920   4.510 -0.2712 -0.4710  0.1705
 2149SOL    HW218081   0.324   1.817   4.603  0.9779  0.0985  1.0350
 2150SOL     OW18082   1.213   1.938  14.681  0.2012  0.2074  0.5728
 2150SOL    HW118083   1.130   1.970  14.716 -0.6763 -0.3094 -1.0128
 2150SOL    HW218084   1.245   2.013  14.632 -1.1007 -0.3729 -1.1536
 2151SOL     OW18085   2.918   1.554   0.605  0.5412  0.1543 -0.5082
 2151SOL    HW118086   2.985   1.622   0.611 -0.4524  1.1118 -0.2335
 2151SOL    HW218087   2.938   1.510   0.522 -1.3857 -2.3296  0.3448
 2152SOL     OW18088   3.672   1.135  17.139 -0.2640 -0.0635  0.2283
 2152SOL    HW118089   3.712   1.049  17.148 -0.9638 -0.3968  0.1220
 2152SOL    HW218090   3.742   1.190  17.104  0.8846 -0.2857  2.1246
 2153SOL     OW18091   2.209   2.908  12.920  0.0294 -0.3010  0.4193
 2153SOL    HW118092   2.272   2.969  12.958  0.5228  0.7425 -2.0810
 2153SOL    HW218093   2.232   2.823  12.957  0.0043 -0.1599  0.7655
 2154SOL     OW18094   3.398   2.767   7.100 -0.3279 -0.6598 -0.0313
 2154SOL    HW118095   3.329   2.717   7.056 -0.8884 -0.0830  0.1910
 2154SOL    HW218096   3.347   2.801   7.173 -1.3412 -1.8620 -0.1841
 2155SOL     OW18097   1.059   4.181   7.802 -0.2384  0.1926 -0.3264
 2155SOL    HW118098   0.998   4.119   7.842  2.0573 -0.5152  2.0877
 2155SOL    HW218099   1.125   4.197   7.870 -1.8514 -2.6958  1.8929
 2156SOL     OW18100   1.866   0.094  13.383  0.0507  0.0020 -0.1769
 2156SOL    HW118101   1.853   0.152  13.458  3.6690  1.7617 -0.9162
 2156SOL    HW218102   1.845   0.009  13.422  2.2337 -0.8539 -0.8981
 2157SOL     OW18103   2.274   0.034  10.907  0.8053 -0.1359 -0.2874
 2157SOL    HW118104   2.367   0.043  10.924  0.7222 -0.2192  0.2129
 2157SOL    HW218105   2.238   0.068  10.989  0.7079 -1.6427  0.2973
 2158SOL     OW18106   0.908   2.923  13.413  0.2033  0.2216 -0.0502
 2158SOL    HW118107   0.817   2.953  13.422 -0.4001 -1.5512 -0.2061
 2158SOL    HW218108   0.938   2.943  13.324  2.0386 -0.7129  0.3746
 2159SOL     OW18109   1.517   4.077   4.680 -0.6965  0.4725 -0.4678
 2159SOL    HW118110   1.608   4.085   4.709 -0.5528  0.7356 -0.9763
 2159SOL    HW218111   1.494   3.989   4.708 -3.6568  1.0802 -0.9905
 2160SOL     OW18112   4.623   0.239  11.884 -0.0959 -0.2831  0.0238
 2160SOL    HW118113   4.569   0.306  11.843 -0.9238  0.1119  1.7582
 2160SOL    HW218114   4.687   0.289  11.934 -0.4595 -1.6140  1.8102
 2161SOL     OW18115   3.658   1.850   6.735  0.2674  1.2211  0.3962
 2161SOL    HW118116   3.569   1.866   6.704  0.5005  0.1532 -0.8572
 2161SOL    HW218117   3.701   1.931   6.705 -0.6796  1.4218 -0.4496
 2162SOL     OW18118   2.748   4.519   1.454 -0.0992 -0.3423  0.1075
 2162SOL    HW118119   2.739   4.490   1.545 -3.0280  2.8389  0.8342
 2162SOL    HW218120   2.735   4.613   1.466 -0.0824 -0.3229 -0.0303
 2163SOL     OW18121   3.694   2.311   9.963 -0.6944 -0.5644 -0.2211
 2163SOL    HW118122   3.734   2.383  10.012 -0.1561 -0.5692 -0.6436
 2163SOL    HW218123   3.618   2.300  10.019 -1.0843  0.5022 -0.5433
 2164SOL     OW18124   1.995   3.050   5.459  0.4287 -0.2710 -0.3920
 2164SOL    HW118125   2.056   2.980   5.480 -0.3584 -0.1748  2.2599
 2164SOL    HW218126   1.994   3.058   5.364 -0.4732  0.5055 -0.3219
 2165SOL     OW18127   0.746   0.009   5.400  0.2871 -0.4130 -0.2764
 2165SOL    HW118128   0.702   4.701   5.473  1.5474 -0.1040  0.6601
 2165SOL    HW218129   0.820   4.684   5.403  2.5071  2.2842 -0.2367
 2166SOL     OW18130   4.401   2.869   0.833 -0.0461  0.0268  0.2993
 2166SOL    HW118131   4.403   2.963   0.816 -1.4837 -0.1256 -0.7401
 2166SOL    HW218132   4.479   2.864   0.888 -1.6148  1.6491  2.6677
 2167SOL     OW18133   1.912   1.757   2.556  0.1133 -0.1499 -0.2590
 2167SOL    HW118134   1.869   1.823   2.501  0.8709  0.3598 -0.2394
 2167SOL    HW218135   1.999   1.735   2.524  0.5282 -0.4910  1.1093
 2168SOL     OW18136   2.055   4.288   0.539 -0.0362  0.0637 -0.2239
 2168SOL    HW118137   2.103   4.362   0.576  1.6860 -0.3341 -1.6582
 2168SOL    HW218138   2.019   4.252   0.620  1.8739  0.5375  0.8315
 2169SOL     OW18139   4.373   1.941   6.710 -0.4582 -0.4663  0.0779
 2169SOL    HW118140   4.435   1.999   6.753 -1.6058  1.1355 -0.4257
 2169SOL    HW218141   4.387   1.961   6.618 -1.5720  0.8883  0.1857
 2170SOL     OW18142   2.617   0.037   9.261  0.1421 -0.1202 -0.2770
 2170SOL    HW118143   2.583   4.684   9.271  2.6684 -0.7515  2.6147
 2170SOL    HW218144   2.542   0.090   9.290 -0.4547  0.0556 -2.1592
 2171SOL     OW18145   2.983   2.215  14.385 -0.1677  0.2600  0.0916
 2171SOL    HW118146   2.975   2.151  14.456 -0.1517 -0.1515 -0.2835
 2171SOL    HW218147   2.993   2.298  14.432 -1.6960 -0.3580  1.5062
 2172SOL     OW18148   3.291   3.466   4.458 -0.1384 -0.4878  0.1203
 2172SOL    HW118149   3.314   3.559   4.464 -0.9681 -0.4730  3.2711
 2172SOL    HW218150   3.276   3.446   4.366 -1.6591 -0.4115  0.3577
 2173SOL     OW18151   2.226   0.683   1.296  0.3303  0.2838  0.2624
 2173SOL    HW118152   2.272   0.612   1.251  1.4969  1.4947 -0.4453
 2173SOL    HW218153   2.233   0.645   1.383 -0.0822  2.8974  1.4252
 2174SOL     OW18154   1.354   3.568   2.411  0.0180  0.0566  0.0984
 2174SOL    HW118155   1.353   3.481   2.370  1.3753  0.0427  0.0764
 2174SOL    HW218156   1.385   3.617   2.335  0.2231 -0.0957  0.0819
 2175SOL     OW18157   4.567   1.703  15.803 -0.1109  0.3221  0.2804
 2175SOL    HW118158   4.663   1.705  15.798 -0.1941  0.3949 -1.2123
 2175SOL    HW218159   4.544   1.702  15.896  1.2251  0.7147  0.6134
 2176SOL     OW18160   2.728   2.623   7.304  0.0307  0.3952  0.1842
 2176SOL    HW118161   2.735   2.533   7.272 -1.5981  0.8847 -1.5019
 2176SOL    HW218162   2.817   2.634   7.339 -0.3727 -0.4739  1.5007
 2177SOL     OW18163   2.284   2.886  11.965 -0.4991 -0.7788  0.1424
 2177SOL    HW118164   2.261   2.793  11.966  1.0654 -1.1297  2.1172
 2177SOL    HW218165   2.269   2.900  12.058 -1.7829 -1.3335  0.0240
 2178SOL     OW18166   2.886   4.221   6.202  0.6516  0.3987  0.1094
 2178SOL    HW118167   2.887   4.282   6.276  1.3011  0.6542 -0.1128
 2178SOL    HW218168   2.934   4.272   6.136 -0.7036  0.7860 -0.5695
 2179SOL     OW18169   4.570   1.980   0.052 -0.2038 -0.4362 -0.4295
 2179SOL    HW118170   4.540   2.054   0.105 -1.8457 -1.0176 -0.5434
 2179SOL    HW218171   4.660   2.002   0.027  0.3404 -2.4582 -0.2652
 2180SOL     OW18172   2.667   3.574  14.036 -0.5309 -0.1223 -0.1059
 2180SOL    HW118173   2.628   3.518  13.969  1.1757 -2.2201  0.6609
 2180SOL    HW218174   2.747   3.587  13.985 -0.3353  1.5888  0.6434
 2181SOL     OW18175   1.686   3.005   2.152 -0.4437 -0.1742  0.2726
 2181SOL    HW118176   1.780   2.985   2.160 -0.8641 -2.5204 -0.5655
 2181SOL    HW218177   1.676   2.986   2.059  1.0927 -3.8131  0.8706
 2182SOL     OW18178   1.851   3.676  16.064 -0.0269  0.1124  0.1011
 2182SOL    HW118179   1.794   3.684  15.987  0.7517 -4.9657 -0.9795
 2182SOL    HW218180   1.935   3.652  16.024  0.2820  0.4994  0.5177
 2183SOL     OW18181   2.193   1.225   4.655 -0.2043  0.2943  0.1183
 2183SOL    HW118182   2.154   1.160   4.714  1.9528 -1.2685 -0.1679
 2183SOL    HW218183   2.263   1.260   4.710  0.7661 -1.2842 -0.1046
 2184SOL     OW18184   4.482   3.897  17.252  0.8399 -0.2539  0.4051
 2184SOL    HW118185   4.446   3.934  17.333  2.5434  0.2474  0.9472
 2184SOL    HW218186   4.420   3.928  17.186  1.4990  0.4044  0.0981
 2185SOL     OW18187   0.302   3.293   4.861  0.2280  0.1237  0.5234
 2185SOL    HW118188   0.373   3.344   4.898 -0.2238  1.7658 -0.9208
 2185SOL    HW218189   0.330   3.205   4.887 -0.3774 -0.6122 -1.2833
 2186SOL     OW18190   2.047   0.082   1.284  0.6504 -0.4350 -0.2474
 2186SOL    HW118191   2.113   0.066   1.216 -0.1531  0.3130 -1.1995
 2186SOL    HW218192   2.023   0.173   1.272  1.6581 -0.6444 -3.8862
 2187SOL     OW18193   2.080   0.853  13.057  0.4580  0.1710 -0.4422
 2187SOL    HW118194   2.069   0.946  13.037  1.3267  0.4831  0.4920
 2187SOL    HW218195   2.162   0.824  13.016 -0.9377 -1.9404 -1.7518
 2188SOL     OW18196   2.292   3.263   6.945  0.0073 -0.4740  0.0637
 2188SOL    HW118197   2.233   3.189   6.954 -1.4324  0.4225 -1.9001
 2188SOL    HW218198   2.351   3.235   6.875 -2.6655 -1.5059 -1.7595
 2189SOL     OW18199   3.229   0.242   3.561  0.1888  0.0478  0.2302
 2189SOL    HW118200   3.287   0.199   3.498 -1.5142  0.4800 -1.6566
 2189SOL    HW218201   3.302   0.276   3.612  0.5949 -2.0846  1.0544
 2190SOL     OW18202   0.102   1.322   4.453  0.0215  0.2007  0.1250
 2190SOL    HW118203   0.009   1.335   4.473  0.1079  1.1905 -0.1022
 2190SOL    HW218204   0.136   1.392   4.508 -0.2300 -0.9446  1.7234
 2191SOL     OW18205   2.985   2.836   1.777  0.1960  0.0049  0.1188
 2191SOL    HW118206   2.909   2.844   1.835  0.6613  0.4847  0.6658
 2191SOL    HW218207   2.943   2.826   1.691 -0.1098  0.7437  0.1791
 2192SOL     OW18208   3.138   2.646   7.331  0.3859 -0.1635  0.0048
 2192SOL    HW118209   3.069   2.623   7.392 -0.1688  1.4901 -0.0146
 2192SOL    HW218210   3.215   2.620   7.382  0.2071  0.8330  0.7573
 2193SOL     OW18211   3.561   3.875   5.351  0.4904 -0.5814  0.3533
 2193SOL    HW118212   3.516   3.791   5.354  2.1520 -1.4338  1.2597
 2193SOL    HW218213   3.644   3.845   5.316  1.5674 -0.1632  2.5504
 2194SOL     OW18214   0.887   1.228   5.213  0.0653  0.1180 -0.1114
 2194SOL    HW118215   0.805   1.183   5.236  0.3967 -0.8869 -0.8797
 2194SOL    HW218216   0.950   1.157   5.219 -0.4133 -0.6086 -3.4408
 2195SOL     OW18217   0.883   0.640   9.047  0.2387  0.2092  0.3028
 2195SOL    HW118218   0.915   0.622   8.958  0.7430  3.0449 -0.1025
 2195SOL    HW218219   0.841   0.725   9.031  2.2129  1.2239  0.4642
 2196SOL     OW18220   4.115   0.183   2.164 -0.4403  0.1933  0.2396
 2196SOL    HW118221   4.164   0.244   2.218 -0.2719 -0.0541  0.3664
 2196SOL    HW218222   4.113   0.230   2.081  1.6717 -1.0129 -0.4792
 2197SOL     OW18223   4.223   2.153   3.240  0.2520  0.1788  0.4055
 2197SOL    HW118224   4.315   2.176   3.226 -0.5894  2.4565 -1.2645
 2197SOL    HW218225   4.222   2.093   3.166  0.0591  1.0957 -0.3281
 2198SOL     OW18226   3.746   3.955   3.910 -0.5776 -0.4413 -0.5028
 2198SOL    HW118227   3.825   3.907   3.886  0.4743  1.3156 -0.5316
 2198SOL    HW218228   3.761   4.021   3.842  1.4451  1.3529  1.6949
 2199SOL     OW18229   0.214   1.667   5.781  0.1936 -0.3178  0.5298
 2199SOL    HW118230   0.239   1.640   5.693 -0.2673 -2.8503  1.1853
 2199SOL    HW218231   0.289   1.641   5.835  0.1878 -0.9549  0.2218
 2200SOL     OW18232   0.496   2.383  10.630 -0.5047  0.0093  0.1600
 2200SOL    HW118233   0.411   2.363  10.670 -0.2818  1.0325  1.1497
 2200SOL    HW218234   0.500   2.325  10.554 -0.4860 -0.3965  0.4709
 2201SOL     OW18235   2.754   3.270   3.327 -0.0110  0.0344  0.9291
 2201SOL    HW118236   2.825   3.219   3.289 -0.4775 -0.1026  0.2367
 2201SOL    HW218237   2.689   3.263   3.257 -0.7093 -0.6088  1.6355
 2202SOL     OW18238   2.033   1.084   1.425  0.1540  0.2264  0.2330
 2202SOL    HW118239   2.010   1.005   1.475 -0.2665  2.0714  2.9825
 2202SOL    HW218240   2.052   1.145   1.496  2.1910  1.4152 -1.3531
 2203SOL     OW18241   3.189   0.033  14.602 -0.5962 -0.0318 -0.1764
 2203SOL    HW118242   3.101   0.064  14.625 -0.0852  0.1935  1.4385
 2203SOL    HW218243   3.221   0.036  14.692  1.9680 -2.1081 -1.0213
 2204SOL     OW18244   1.601   0.001   6.905 -0.2048  0.2180  0.4158
 2204SOL    HW118245   1.647   4.655   6.927 -2.1926 -0.2480  2.8545
 2204SOL    HW218246   1.525   4.702   6.859 -0.4483 -1.2008  1.8679
 2205SOL     OW18247   3.039   1.392  10.582  0.3533 -0.0654 -0.1880
 2205SOL    HW118248   2.951   1.360  10.606  0.0872  1.9834  1.5871
 2205SOL    HW218249   3.057   1.455  10.652  0.3642 -1.0254  0.6822
 2206SOL     OW18250   3.555   4.118   2.788  0.3415 -0.3810 -0.1365
 2206SOL    HW118251   3.464   4.088   2.797 -0.0919  0.7913 -0.6908
 2206SOL    HW218252   3.573   4.161   2.871 -1.2926  0.1516 -0.0575
 2207SOL     OW18253   2.661   1.968   8.818  0.1533 -0.4184 -0.2025
 2207SOL    HW118254   2.747   1.929   8.805  0.6180 -0.1668  2.1288
 2207SOL    HW218255   2.646   1.932   8.906  1.9162 -1.5346 -0.3539
 2208SOL     OW18256   0.923   0.622   0.974 -0.2964  0.3704  0.0209
 2208SOL    HW118257   0.852   0.565   1.004 -0.4171 -1.0584 -2.9570
 2208SOL    HW218258   0.993   0.558   0.960  0.7949  0.9796  2.5404
 2209SOL     OW18259   3.184   2.463  12.099 -0.2572  0.3957 -0.1378
 2209SOL    HW118260   3.135   2.496  12.023 -0.7770  1.7817  0.8056
 2209SOL    HW218261   3.117   2.406  12.137 -0.4803 -0.0175 -1.1377
 2210SOL     OW18262   1.873   2.340  10.629 -0.1275 -0.2322 -0.3039
 2210SOL    HW118263   1.845   2.256  10.593 -0.0361 -0.4156  0.0510
 2210SOL    HW218264   1.821   2.361  10.707 -0.5295  0.4831 -0.7630
 2211SOL     OW18265   1.246   0.281   2.280 -0.7442 -1.0657  0.7746
 2211SOL    HW118266   1.273   0.200   2.323 -0.8585 -0.4982  1.9183
 2211SOL    HW218267   1.231   0.261   2.188 -1.0790 -2.2118  1.0777
 2212SOL     OW18268   0.196   2.017   6.830  0.6688  0.2365  0.1466
 2212SOL    HW118269   0.186   1.923   6.844  0.0933 -0.0339 -2.1768
 2212SOL    HW218270   0.134   2.051   6.895  2.2836  0.0435  1.7865
 2213SOL     OW18271   1.243   0.685   3.243  0.0627 -0.6689 -0.1063
 2213SOL    HW118272   1.174   0.739   3.203 -0.9379 -1.6604  0.2611
 2213SOL    HW218273   1.201   0.684   3.329 -1.1517 -0.5852 -0.6987
 2214SOL     OW18274   1.408   1.631   3.340  0.4940 -0.2144  0.3262
 2214SOL    HW118275   1.480   1.653   3.399  0.8089 -3.3087  1.0775
 2214SOL    HW218276   1.416   1.537   3.327  1.3304 -0.2093  0.8464
 2215SOL     OW18277   3.433   1.292  17.430  0.3039  0.5633  0.0926
 2215SOL    HW118278   3.422   1.200  17.405 -2.1487  0.4777  1.4382
 2215SOL    HW218279   3.350   1.329  17.401  1.1674  2.2162 -0.2504
 2216SOL     OW18280   2.016   3.509   2.216  0.4779 -0.2088 -0.3065
 2216SOL    HW118281   2.027   3.513   2.121  3.5940 -1.6831 -0.0013
 2216SOL    HW218282   1.951   3.439   2.219 -1.2655  1.4127 -0.1406
 2217SOL     OW18283   0.090   3.216   8.302 -0.5108  0.0095  0.1193
 2217SOL    HW118284   0.082   3.152   8.372  2.8385 -1.1625 -0.5798
 2217SOL    HW218285   0.022   3.276   8.333  1.5727  3.0402 -1.1416
 2218SOL     OW18286   4.126   0.060   9.406  0.1804 -0.4829  0.6865
 2218SOL    HW118287   4.145   4.714   9.451 -0.3404  0.4985  2.6776
 2218SOL    HW218288   4.034   0.045   9.383  0.3243  1.2751 -1.0871
 2219SOL     OW18289   0.313   3.090   2.948 -0.4238 -0.2035 -0.2985
 2219SOL    HW118290   0.255   3.166   2.949 -1.1562 -0.7834  1.0308
 2219SOL    HW218291   0.338   3.094   3.041 -1.1140 -0.4931 -0.1030
 2220SOL     OW18292   1.501   0.795   4.466 -0.5068  0.6617 -0.0670
 2220SOL    HW118293   1.441   0.725   4.492  0.0123  0.4179  0.4751
 2220SOL    HW218294   1.519   0.832   4.552 -2.3445  2.0969 -0.2790
 2221SOL     OW18295   2.002   0.049   2.166 -0.0988 -0.1059  0.1847
 2221SOL    HW118296   2.052   0.081   2.092  0.0184 -1.1324 -0.1741
 2221SOL    HW218297   2.017   0.116   2.234  0.4952 -0.6172  0.5587
 2222SOL     OW18298   1.715   4.525   7.206  0.3984 -0.1222 -0.1330
 2222SOL    HW118299   1.769   4.576   7.145  0.2957  1.2137  0.8791
 2222SOL    HW218300   1.780   4.476   7.257  1.5523  1.3454 -0.1921
 2223SOL     OW18301   4.091   2.507  16.069  0.4361  0.4684  0.6225
 2223SOL    HW118302   4.177   2.474  16.043  0.8794  1.2761  1.0742
 2223SOL    HW218303   4.090   2.484  16.162 -0.2300  2.2089  1.0398
 2224SOL     OW18304   1.353   2.863   1.739  0.1197  0.7735  0.3730
 2224SOL    HW118305   1.333   2.957   1.747  1.8961  1.2985 -1.2960
 2224SOL    HW218306   1.395   2.856   1.653 -0.8201  1.3480 -0.1329
 2225SOL     OW18307   4.177   3.549   0.205 -0.0226  0.5535 -0.0351
 2225SOL    HW118308   4.153   3.463   0.239  2.6893  0.0354  0.5779
 2225SOL    HW218309   4.113   3.603   0.251  0.0820 -1.0391  1.9364
 2226SOL     OW18310   0.257   2.976   6.148  0.4792  0.1474  0.3062
 2226SOL    HW118311   0.316   2.902   6.131 -0.4956 -0.7781  0.9550
 2226SOL    HW218312   0.322   3.036   6.183 -0.6486  0.2367  2.2377
 2227SOL     OW18313   2.067   2.495   2.292  0.0332  0.1128 -0.4058
 2227SOL    HW118314   2.116   2.556   2.237  1.7459 -0.2183  0.7575
 2227SOL    HW218315   2.138   2.438   2.322 -0.1944  0.0358 -0.0007
 2228SOL     OW18316   2.813   1.119   8.392  0.5469 -0.4572  0.0403
 2228SOL    HW118317   2.772   1.054   8.449 -2.7265  0.3127 -1.4259
 2228SOL    HW218318   2.860   1.169   8.457 -1.4849  0.6598  0.6572
 2229SOL     OW18319   3.474   0.933   3.860 -0.0335 -0.2462  0.5016
 2229SOL    HW118320   3.466   0.989   3.782  1.6887  0.2369  0.6651
 2229SOL    HW218321   3.429   0.989   3.923  0.7389  1.5680 -0.5182
 2230SOL     OW18322   3.447   1.320   8.079 -0.0766  0.5828  0.2946
 2230SOL    HW118323   3.401   1.266   8.143  0.4364 -1.9195 -1.4273
 2230SOL    HW218324   3.494   1.385   8.130  0.6583  0.4155 -0.1768
 2231SOL     OW18325   4.709   0.924   1.479  0.1719 -0.0255 -0.1923
 2231SOL    HW118326   4.646   0.907   1.549  0.9189  0.7476  0.6751
 2231SOL    HW218327   0.043   0.861   1.496 -0.9366 -0.5881  2.1709
 2232SOL     OW18328   1.137   0.114   4.745 -0.1255 -0.0178 -0.4835
 2232SOL    HW118329   1.047   0.082   4.757 -0.7969  2.2809  0.6752
 2232SOL    HW218330   1.134   0.122   4.650  0.6517  0.0168 -0.5053
 2233SOL     OW18331   1.158   0.461  13.203 -0.4392 -0.5192  0.3597
 2233SOL    HW118332   1.240   0.504  13.180 -1.9368  1.9306 -0.3865
 2233SOL    HW218333   1.173   0.439  13.295  0.4642  0.0428  0.3445
 2234SOL     OW18334   0.691   2.237   0.139 -0.1307  0.0156 -0.0305
 2234SOL    HW118335   0.639   2.198   0.209 -0.0442 -0.5393 -0.2751
 2234SOL    HW218336   0.642   2.217   0.060 -1.8706  0.7903  0.8429
 2235SOL     OW18337   4.710   1.095   4.553 -0.3164 -0.2337 -0.4939
 2235SOL    HW118338   4.671   1.155   4.490 -1.8640  0.5355  1.2156
 2235SOL    HW218339   0.061   1.131   4.571  0.5657 -0.9352 -3.2990
 2236SOL     OW18340   0.326   0.100   7.828 -0.8043  0.4788  0.5804
 2236SOL    HW118341   0.316   0.100   7.923 -3.2195  0.6644  0.3304
 2236SOL    HW218342   0.367   0.016   7.811  0.1601  1.2691 -0.9716
 2237SOL     OW18343   2.823   2.170   8.280 -0.0356  0.2040 -0.2796
 2237SOL    HW118344   2.760   2.197   8.346 -0.8095  1.4890 -1.5251
 2237SOL    HW218345   2.784   2.092   8.240 -0.2399  0.1849 -0.0395
 2238SOL     OW18346   1.828   0.711   2.059  0.3144  0.0053 -0.1151
 2238SOL    HW118347   1.791   0.791   2.097  0.7818 -0.4538  1.2979
 2238SOL    HW218348   1.922   0.718   2.074  0.2353 -2.0399  1.2933
 2239SOL     OW18349   2.798   1.306  10.624  0.3808  0.4241  0.2299
 2239SOL    HW118350   2.717   1.308  10.573  1.2632 -1.2749 -1.2583
 2239SOL    HW218351   2.767   1.267  10.706 -1.7924 -0.7045 -1.1261
 2240SOL     OW18352   0.925   3.388   7.563  0.0082  0.2938 -0.3452
 2240SOL    HW118353   0.967   3.311   7.524  0.9244  1.3371 -1.4337
 2240SOL    HW218354   0.994   3.452   7.579 -0.9489  1.2913 -0.2211
 2241SOL     OW18355   3.576   0.157   5.712  0.2005 -0.2786  0.0936
 2241SOL    HW118356   3.529   0.212   5.650  0.4523 -0.4645 -0.2651
 2241SOL    HW218357   3.561   0.070   5.675  1.7141 -0.5253  0.0885
 2242SOL     OW18358   0.170   2.807   6.630  0.0328  0.1230 -0.0023
 2242SOL    HW118359   0.164   2.743   6.559  2.8701 -1.4570  1.2207
 2242SOL    HW218360   0.179   2.743   6.701  0.3083  0.4637  0.2690
 2243SOL     OW18361   1.365   0.254   9.228 -0.0713 -0.0209 -0.0931
 2243SOL    HW118362   1.369   0.183   9.291 -1.0348 -0.1831 -0.2165
 2243SOL    HW218363   1.448   0.234   9.186 -0.6885  0.4104 -1.5196
 2244SOL     OW18364   2.506   0.881   3.491 -0.4983  0.1472 -0.1939
 2244SOL    HW118365   2.514   0.880   3.396 -0.3279 -0.1572 -0.1751
 2244SOL    HW218366   2.457   0.963   3.497 -1.4346 -0.4712  0.6253
 2245SOL     OW18367   3.042   0.345  17.690  0.2537  0.2551 -0.1233
 2245SOL    HW118368   2.985   0.298   0.010  0.4295  0.0084 -0.1470
 2245SOL    HW218369   2.991   0.425  17.679 -0.7929 -0.3109  0.5468
 2246SOL     OW18370   2.587   4.439   3.054  0.9287  0.0982 -0.2088
 2246SOL    HW118371   2.669   4.488   3.057 -0.7572  2.7778  2.7029
 2246SOL    HW218372   2.622   4.351   3.060  0.1626 -0.0879  1.6118
 2247SOL     OW18373   1.363   1.319   3.124 -0.1587  0.0791  0.1908
 2247SOL    HW118374   1.430   1.265   3.166 -2.4623  0.3973  4.2328
 2247SOL    HW218375   1.280   1.291   3.162 -0.2022 -0.0916 -0.0301
 2248SOL     OW18376   4.320   1.473   4.607  1.0667  0.5168 -0.2430
 2248SOL    HW118377   4.251   1.539   4.602  2.2428  1.6586 -1.3957
 2248SOL    HW218378   4.311   1.428   4.523 -0.9644 -0.9747  0.7760
 2249SOL     OW18379   2.313   3.736  15.335 -0.4743 -0.0826 -0.1094
 2249SOL    HW118380   2.247   3.713  15.270  0.6069 -0.0556 -1.2225
 2249SOL    HW218381   2.285   3.826  15.354 -0.7869  0.1351 -1.6255
 2250SOL     OW18382   1.249   3.653   1.595  0.7882 -0.4545 -0.2910
 2250SOL    HW118383   1.343   3.633   1.595  1.2606  1.8228 -1.1107
 2250SOL    HW218384   1.247   3.735   1.546 -1.8958 -1.1157 -1.2892
 2251SOL     OW18385   0.208   0.993   4.959  0.2881 -0.2361 -0.5980
 2251SOL    HW118386   0.171   0.953   4.881  2.0356  0.0097 -1.5288
 2251SOL    HW218387   0.138   1.059   4.962 -1.9456 -2.6566  0.6422
 2252SOL     OW18388   0.880   2.292   3.750 -0.1784 -0.3912  0.0871
 2252SOL    HW118389   0.799   2.330   3.784 -0.1461  0.6373 -0.9913
 2252SOL    HW218390   0.905   2.217   3.805  0.4198 -0.0058  0.3463
 2253SOL     OW18391   3.387   3.046   9.028 -0.4027 -0.1024 -0.4584
 2253SOL    HW118392   3.437   3.006   8.957  1.2709  1.4918 -0.1862
 2253SOL    HW218393   3.350   3.130   9.001 -0.2131  0.1942  0.1984
 2254SOL     OW18394   0.724   3.338   3.439 -0.1046 -0.0935  0.0414
 2254SOL    HW118395   0.707   3.404   3.506  1.7959 -0.3004  0.7476
 2254SOL    HW218396   0.660   3.364   3.373  2.0994  1.1944 -1.6036
 2255SOL     OW18397   2.549   3.066   1.658 -0.3056 -0.0600  0.1766
 2255SOL    HW118398   2.624   3.124   1.645  0.0491 -0.5716 -0.0751
 2255SOL    HW218399   2.515   3.059   1.569 -0.5756  2.3660  0.0921
 2256SOL     OW18400   3.051   3.087  17.211 -0.0591  0.4523 -0.3421
 2256SOL    HW118401   3.098   3.026  17.267  1.1736 -0.4079 -2.3038
 2256SOL    HW218402   2.959   3.062  17.220  0.1898 -0.5739 -0.7524
 2257SOL     OW18403   3.126   3.064  13.598 -0.1928  0.7144 -0.2124
 2257SOL    HW118404   3.052   3.046  13.540 -0.2774 -0.7154  0.3475
 2257SOL    HW218405   3.086   3.093  13.679 -1.3183 -1.0499 -0.1526
 2258SOL     OW18406   0.997   3.246   2.470 -0.1948  0.3038 -0.4097
 2258SOL    HW118407   0.997   3.159   2.510  0.2118  0.4857 -0.0133
 2258SOL    HW218408   1.046   3.227   2.390  0.9461  0.9840  0.1409
 2259SOL     OW18409   3.796   2.315  13.353 -0.8825 -0.5728 -0.1935
 2259SOL    HW118410   3.707   2.283  13.338 -1.4937  0.2320  1.7339
 2259SOL    HW218411   3.808   2.315  13.448  1.6745 -2.7220 -0.5258
 2260SOL     OW18412   0.489   2.282   6.173 -0.2690  0.3667  0.4406
 2260SOL    HW118413   0.458   2.355   6.119 -1.4893  0.6357  1.5158
 2260SOL    HW218414   0.411   2.228   6.167  1.1454 -1.7392  1.0403
 2261SOL     OW18415   2.624   2.576   5.845  0.0788 -0.1431 -0.1799
 2261SOL    HW118416   2.570   2.618   5.912 -0.3707 -1.5078  0.3230
 2261SOL    HW218417   2.650   2.494   5.886  0.4124  0.4678  0.8257
 2262SOL     OW18418   0.232   4.480  17.144  0.4292 -0.3501  0.0830
 2262SOL    HW118419   0.257   4.420  17.074  1.6421 -1.4530  1.4520
 2262SOL    HW218420   0.257   4.559  17.097 -0.8925  0.6946  1.1447
 2263SOL     OW18421   4.455   1.123   1.871 -0.0821 -0.1756 -0.1079
 2263SOL    HW118422   4.382   1.100   1.929  1.3877  1.9552  2.6463
 2263SOL    HW218423   4.530   1.102   1.926 -0.5590  0.1521  0.6773
 2264SOL     OW18424   2.319   3.168  12.253 -0.7998  0.3651  0.3654
 2264SOL    HW118425   2.279   3.195  12.336  0.9696 -2.1895  2.0194
 2264SOL    HW218426   2.339   3.250  12.208  0.8154  0.4911  1.3211
 2265SOL     OW18427   2.981   1.298   5.932  0.2531 -0.2306 -0.7275
 2265SOL    HW118428   2.915   1.361   5.904 -1.5871 -1.1551  1.4882
 2265SOL    HW218429   2.948   1.265   6.016  0.1522 -1.2369 -1.1622
 2266SOL     OW18430   1.375   3.961   6.542 -0.3614 -0.3167 -0.1851
 2266SOL    HW118431   1.441   3.975   6.474  0.9478 -0.6815  1.0172
 2266SOL    HW218432   1.295   3.952   6.489  0.1081  1.5274 -1.2093
 2267SOL     OW18433   0.986   0.902   0.006 -0.3000  0.1366 -0.5607
 2267SOL    HW118434   1.035   0.983  17.735  1.4271 -0.6943  0.8170
 2267SOL    HW218435   0.895   0.928   0.021  0.6815  1.7446  2.4818
 2268SOL     OW18436   3.820   2.257   8.632  0.4110 -0.9256  0.4599
 2268SOL    HW118437   3.823   2.162   8.622  0.8728 -0.6022 -2.2936
 2268SOL    HW218438   3.727   2.275   8.621  1.4156  1.1454 -4.3659
 2269SOL     OW18439   2.796   0.836  12.276  0.1077 -0.3747  0.1159
 2269SOL    HW118440   2.795   0.930  12.261  1.1922 -0.3432  0.1857
 2269SOL    HW218441   2.811   0.825  12.370 -2.8821  4.5332  1.1121
 2270SOL     OW18442   2.214   1.292   7.385  0.0221 -0.4145  0.6252
 2270SOL    HW118443   2.189   1.380   7.359  1.3331  0.8613  3.6591
 2270SOL    HW218444   2.129   1.249   7.377  0.4557 -1.0524 -0.5044
 2271SOL     OW18445   2.916   2.445   7.077  0.3245 -0.1834 -0.8780
 2271SOL    HW118446   2.824   2.471   7.070  0.3442 -0.1099 -0.8705
 2271SOL    HW218447   2.952   2.530   7.053 -1.6932  0.9828  0.1613
 2272SOL     OW18448   1.746   1.616  13.007  0.4703 -0.1892 -0.0075
 2272SOL    HW118449   1.682   1.685  12.993 -1.8285 -2.4843 -0.7948
 2272SOL    HW218450   1.707   1.534  12.977  0.3821 -0.2784  0.3576
 2273SOL     OW18451   3.602   0.237  14.087  0.4601 -0.3687 -0.3271
 2273SOL    HW118452   3.598   0.224  13.992  1.3563 -1.5222 -0.2069
 2273SOL    HW218453   3.583   0.331  14.085  0.5720 -0.2914  2.1945
 2274SOL     OW18454   3.194   4.112   2.596 -0.9807 -0.5378 -0.0088
 2274SOL    HW118455   3.217   4.205   2.601  0.4517 -0.9954  1.9771
 2274SOL    HW218456   3.217   4.088   2.686 -0.2155 -0.0683 -0.0811
 2275SOL     OW18457   1.153   0.841   4.630  0.6258 -0.1683  0.1162
 2275SOL    HW118458   1.196   0.767   4.586  2.1784  1.1586 -0.6160
 2275SOL    HW218459   1.065   0.805   4.621  1.6219 -2.5964  0.0899
 2276SOL     OW18460   1.873   2.927   7.538  0.5139 -0.0075  0.1546
 2276SOL    HW118461   1.824   2.943   7.619  1.5124 -1.4634  1.0259
 2276SOL    HW218462   1.829   2.856   7.492  0.3642 -0.5056  1.0775
 2277SOL     OW18463   2.558   0.205   4.930  0.3150 -0.6139 -0.0634
 2277SOL    HW118464   2.502   0.128   4.942  0.0760 -0.3118  0.7720
 2277SOL    HW218465   2.572   0.200   4.835 -0.6327 -0.0729 -0.2392
 2278SOL     OW18466   3.204   4.085   1.024 -0.0823  0.1225  0.0832
 2278SOL    HW118467   3.117   4.113   1.053 -0.1458 -0.8577  0.8417
 2278SOL    HW218468   3.253   4.167   1.024  0.4017 -0.1683  0.1541
 2279SOL     OW18469   3.697   1.253  13.211  0.1537 -0.2891 -0.2917
 2279SOL    HW118470   3.688   1.203  13.292 -0.4346 -0.6419 -0.5763
 2279SOL    HW218471   3.712   1.339  13.251 -1.1235  0.5100 -1.5395
 2280SOL     OW18472   1.489   2.214   5.661  0.5142 -0.3067  0.0102
 2280SOL    HW118473   1.544   2.256   5.727 -0.2131  0.9010 -0.1495
 2280SOL    HW218474   1.503   2.268   5.583  1.7601 -0.1558  0.3373
 2281SOL     OW18475   2.004   1.769   2.800  0.1600 -0.2854 -0.1395
 2281SOL    HW118476   1.924   1.816   2.826 -0.1050  0.9270 -3.1916
 2281SOL    HW218477   1.983   1.748   2.709  3.3155 -0.6629 -0.7554
 2282SOL     OW18478   4.189   4.070   8.403  0.0914  0.1509  0.2121
 2282SOL    HW118479   4.251   3.997   8.411 -1.2157 -0.9569  0.0606
 2282SOL    HW218480   4.145   4.048   8.321 -1.1281 -0.5609  1.0596
 2283SOL     OW18481   4.146   4.234  14.065  0.2407  0.3514 -0.1186
 2283SOL    HW118482   4.234   4.258  14.094 -0.4957  2.1431  0.6122
 2283SOL    HW218483   4.152   4.274  13.978  1.8120  1.6551  0.6090
 2284SOL     OW18484   0.894   0.099   4.241  0.2948 -0.0485  0.5843
 2284SOL    HW118485   0.824   0.090   4.176 -0.7509  0.3210  1.6649
 2284SOL    HW218486   0.948   0.172   4.211 -0.4448  1.2716  2.5066
 2285SOL     OW18487   0.937   1.042  10.526 -0.2104 -1.1480 -0.3931
 2285SOL    HW118488   0.951   0.995  10.608  1.4536  2.6045  1.5317
 2285SOL    HW218489   0.892   1.116  10.568  1.9052 -0.3773  0.5281
 2286SOL     OW18490   0.312   2.959   7.773 -0.0379 -0.3986  0.0513
 2286SOL    HW118491   0.376   2.975   7.843 -0.3394 -1.9592  0.6811
 2286SOL    HW218492   0.290   3.051   7.759 -1.2825 -0.7356 -0.1409
 2287SOL     OW18493   1.894   3.443  14.599 -0.1236  0.1305  0.0686
 2287SOL    HW118494   1.833   3.507  14.562  0.8818 -0.3111 -2.3587
 2287SOL    HW218495   1.833   3.407  14.664  0.7713  1.2805  1.5271
 2288SOL     OW18496   2.818   4.509   2.872  0.4856 -0.2846  0.6112
 2288SOL    HW118497   2.873   4.458   2.931  1.5092  0.4745  0.3340
 2288SOL    HW218498   2.884   4.555   2.818  0.4553 -0.9484  0.0081
 2289SOL     OW18499   4.140   2.074   7.479  0.2233 -0.0596  0.8487
 2289SOL    HW118500   4.212   2.102   7.423 -1.4217  0.8091 -0.8638
 2289SOL    HW218501   4.073   2.109   7.420  2.3670  1.2536 -0.8330
 2290SOL     OW18502   2.188   4.604   4.866 -0.1876 -0.8814  0.0973
 2290SOL    HW118503   2.149   4.678   4.912  0.9680  0.3501 -0.9046
 2290SOL    HW218504   2.181   4.642   4.778  2.5634 -3.2266 -1.1246
 2291SOL     OW18505   0.659   3.155  12.504 -0.1033 -0.0622  0.4236
 2291SOL    HW118506   0.625   3.111  12.582 -2.4066 -1.8233 -1.5409
 2291SOL    HW218507   0.675   3.239  12.546 -0.4485 -0.1107  0.6533
 2292SOL     OW18508   1.808   4.136   1.603  0.3566 -0.3165  0.2476
 2292SOL    HW118509   1.712   4.135   1.603  0.3471 -0.1352  1.7639
 2292SOL    HW218510   1.837   4.067   1.662 -0.2636 -0.6033  0.2120
 2293SOL     OW18511   1.321   1.690   6.389 -0.3725 -0.0326 -0.6106
 2293SOL    HW118512   1.338   1.784   6.377 -0.9323  0.5000  2.6387
 2293SOL    HW218513   1.406   1.664   6.424 -1.7959 -1.7499  1.5107
 2294SOL     OW18514   0.246   2.108   7.348  0.1569  0.6633  0.1166
 2294SOL    HW118515   0.256   2.200   7.371  0.4258  0.8910 -0.9442
 2294SOL    HW218516   0.155   2.107   7.318  0.0560  0.1572  0.4371
 2295SOL     OW18517   2.298   3.728   7.579  0.0839  0.5772 -0.2775
 2295SOL    HW118518   2.296   3.727   7.675 -0.3803  0.6707 -0.2875
 2295SOL    HW218519   2.347   3.805   7.551  2.2004 -1.3241 -1.7536
 2296SOL     OW18520   2.496   1.862   2.732  0.3590 -0.3935 -0.3332
 2296SOL    HW118521   2.409   1.901   2.742  1.7249  2.5986 -0.2306
 2296SOL    HW218522   2.562   1.928   2.752 -1.6899  1.4064  0.5389
 2297SOL     OW18523   3.187   1.437   1.530 -0.3861  1.3806 -0.1881
 2297SOL    HW118524   3.137   1.383   1.591  1.3375 -1.3097 -1.1832
 2297SOL    HW218525   3.231   1.504   1.582 -1.3937  0.6052  1.6582
 2298SOL     OW18526   1.318   1.975   1.187  0.4686  0.2453 -0.0203
 2298SOL    HW118527   1.355   1.888   1.197  0.2600  0.1115 -0.4228
 2298SOL    HW218528   1.250   1.981   1.254  1.5433 -0.9572  1.1634
 2299SOL     OW18529   1.286   2.705   3.000 -0.3992  0.1909 -0.3204
 2299SOL    HW118530   1.210   2.694   2.943 -0.4601  2.6325 -0.6837
 2299SOL    HW218531   1.255   2.775   3.058 -1.0825  0.2450 -0.7507
 2300SOL     OW18532   0.592   0.422  10.145  0.3679 -0.3336 -0.4164
 2300SOL    HW118533   0.561   0.443  10.233  3.5255  1.2349  0.3047
 2300SOL    HW218534   0.625   0.505  10.110  1.0390  0.5350  2.3204
 2301SOL     OW18535   3.492   3.188   8.709 -0.1347 -0.0512 -0.3505
 2301SOL    HW118536   3.501   3.256   8.642 -2.1716  1.0215  0.4746
 2301SOL    HW218537   3.405   3.151   8.695  0.2404 -1.0659 -0.0398
 2302SOL     OW18538   0.665   0.972   8.052 -0.0530 -0.5769  0.3295
 2302SOL    HW118539   0.573   0.968   8.026 -0.5077 -0.0367  1.8147
 2302SOL    HW218540   0.672   0.907   8.121 -0.1355 -2.3664 -1.3654
 2303SOL     OW18541   3.470   2.387   1.907  0.5407 -0.5173  0.5368
 2303SOL    HW118542   3.530   2.337   1.962  1.1391  0.6753  0.9570
 2303SOL    HW218543   3.493   2.477   1.928  0.5143  0.8717 -5.3826
 2304SOL     OW18544   0.010   3.513   0.797  0.2865  0.6897  0.7788
 2304SOL    HW118545   4.681   3.568   0.754  1.2629 -0.3479 -2.0323
 2304SOL    HW218546   4.716   3.429   0.763 -0.6626  1.8236 -1.1759
 2305SOL     OW18547   4.348   0.295  11.941 -0.3291 -0.5256  0.1559
 2305SOL    HW118548   4.359   0.341  12.024  0.8596 -1.7841  0.6919
 2305SOL    HW218549   4.311   0.210  11.964  0.8293 -0.7186  1.3313
 2306SOL     OW18550   1.759   4.181   0.646  0.8780 -0.6602 -0.0917
 2306SOL    HW118551   1.695   4.253   0.649 -1.3937 -2.6766 -0.6148
 2306SOL    HW218552   1.822   4.205   0.715 -0.4202  0.3031  0.7606
 2307SOL     OW18553   1.071   0.926   5.922  0.0551 -0.5434  0.4146
 2307SOL    HW118554   1.103   0.890   5.839  0.8265 -0.2658  0.5918
 2307SOL    HW218555   0.981   0.949   5.900 -0.4665 -2.9497  0.1075
 2308SOL     OW18556   2.686   4.071   8.809  0.6279  0.2157  0.6561
 2308SOL    HW118557   2.688   4.047   8.716 -0.0100  2.7508 -0.0242
 2308SOL    HW218558   2.703   3.987   8.849  0.1733 -1.3735 -2.4452
 2309SOL     OW18559   3.573   0.777   7.014  0.1955  0.2015  0.0010
 2309SOL    HW118560   3.532   0.697   6.983  1.9114 -0.3157 -0.9749
 2309SOL    HW218561   3.495   0.829   7.029 -0.1941  0.1676 -1.8502
 2310SOL     OW18562   1.810   0.424   0.913 -0.3259 -0.2636  0.3644
 2310SOL    HW118563   1.815   0.392   1.003  2.9167  1.0478  0.6422
 2310SOL    HW218564   1.841   0.342   0.873  0.7413  0.5607 -0.4898
 2311SOL     OW18565   2.244   0.480  14.996 -0.0055  0.2347 -0.2565
 2311SOL    HW118566   2.268   0.434  15.077  1.2976 -1.4062 -1.5739
 2311SOL    HW218567   2.197   0.559  15.022 -1.7062 -0.2378 -1.8839
 2312SOL     OW18568   3.712   2.930   6.615  0.5907 -0.0582 -0.2247
 2312SOL    HW118569   3.753   2.875   6.549  2.0117 -0.5500  1.0534
 2312SOL    HW218570   3.714   3.017   6.576  0.5306  0.4918  0.9831
 2313SOL     OW18571   4.052   3.611  12.933 -0.5325 -0.4044 -0.0347
 2313SOL    HW118572   3.962   3.644  12.942 -0.3594  0.4348 -1.3285
 2313SOL    HW218573   4.045   3.574  12.845  1.3355 -0.6873 -0.0669
 2314SOL     OW18574   4.529   2.546  12.582  0.0076  0.2091 -0.2841
 2314SOL    HW118575   4.609   2.527  12.630 -0.7431 -3.2896 -0.3569
 2314SOL    HW218576   4.509   2.459  12.546  2.1947  1.2437 -3.9552
 2315SOL     OW18577   2.811   3.809  13.562  0.0936 -0.2835  0.8347
 2315SOL    HW118578   2.806   3.802  13.467  1.0995 -0.1188  0.7717
 2315SOL    HW218579   2.810   3.717  13.588  2.3028 -0.0591  1.7172
 2316SOL     OW18580   2.491   3.946   7.104  0.1912 -0.0099  0.1472
 2316SOL    HW118581   2.421   3.942   7.039  1.1326 -1.5600 -0.7689
 2316SOL    HW218582   2.459   4.019   7.157  0.9065 -0.4936  1.2466
 2317SOL     OW18583   3.214   0.320   9.693 -0.1271  0.2075 -0.5023
 2317SOL    HW118584   3.151   0.254   9.664  0.0714  0.7488 -2.1342
 2317SOL    HW218585   3.291   0.272   9.662 -0.0379  0.2199 -0.2989
 2318SOL     OW18586   2.928   0.074  14.666 -0.5280 -0.7646  0.4257
 2318SOL    HW118587   2.859   0.108  14.610  1.3038 -2.8312 -3.0522
 2318SOL    HW218588   2.901   4.719  14.675 -0.2817 -0.9879 -1.2469
 2319SOL     OW18589   2.314   2.297   5.336  0.1012 -0.2314  0.0685
 2319SOL    HW118590   2.379   2.366   5.323  0.0518  0.0977  1.5565
 2319SOL    HW218591   2.328   2.288   5.430  0.2869  0.2065  0.0791
 2320SOL     OW18592   3.251   4.613   8.730  0.3284 -0.3023  0.5824
 2320SOL    HW118593   3.175   4.648   8.684 -0.2864  0.7759  2.4000
 2320SOL    HW218594   3.305   4.586   8.655 -1.5443  0.3399 -0.9993
 2321SOL     OW18595   0.647   0.798  14.266 -0.6622 -0.4580  0.9589
 2321SOL    HW118596   0.724   0.854  14.252 -1.2028 -0.0525 -0.3400
 2321SOL    HW218597   0.575   0.860  14.255 -0.4654 -0.3303  0.4111
 2322SOL     OW18598   1.545   1.020   7.698 -0.0428  0.0098  0.4287
 2322SOL    HW118599   1.522   1.002   7.789 -2.5727  0.5940 -0.1098
 2322SOL    HW218600   1.635   0.988   7.700  0.2577  0.9217  2.3173
 2323SOL     OW18601   1.748   3.411   1.175  0.7537  0.4509 -0.5543
 2323SOL    HW118602   1.826   3.409   1.120  0.7611 -0.0673 -0.5207
 2323SOL    HW218603   1.749   3.504   1.199  2.1853  0.1132  0.6637
 2324SOL     OW18604   2.326   3.590   6.448 -0.1587  0.0121  0.1495
 2324SOL    HW118605   2.279   3.599   6.531 -1.0162  0.9634 -0.4270
 2324SOL    HW218606   2.402   3.647   6.460  0.9907 -1.9018  1.9818
 2325SOL     OW18607   1.817   0.629   4.524  0.5630  0.1852 -0.0154
 2325SOL    HW118608   1.778   0.625   4.437  1.5271 -0.9500 -0.4000
 2325SOL    HW218609   1.834   0.535   4.527  1.8548  0.3942 -0.9250
 2326SOL     OW18610   0.869   3.358   2.236  0.5523  0.2354  0.1532
 2326SOL    HW118611   0.876   3.318   2.322  0.8287 -2.0988 -0.9556
 2326SOL    HW218612   0.900   3.293   2.173 -0.7915 -0.1916 -0.0842
 2327SOL     OW18613   1.285   2.609  12.968 -0.5344  0.2098  0.1376
 2327SOL    HW118614   1.326   2.531  12.932  1.7948  0.8990  1.3198
 2327SOL    HW218615   1.262   2.586  13.058  0.9237 -2.4861 -0.1798
 2328SOL     OW18616   3.356   2.121   4.401 -0.1803 -0.4259 -0.4771
 2328SOL    HW118617   3.397   2.205   4.380 -1.7224  0.2801 -0.6645
 2328SOL    HW218618   3.373   2.123   4.495 -0.4323  0.3134 -0.4496
 2329SOL     OW18619   0.864   4.399   2.042 -0.2410  0.0450  0.6427
 2329SOL    HW118620   0.829   4.313   2.018 -2.2981  0.5804  1.7853
 2329SOL    HW218621   0.784   4.451   2.037  1.5387  2.4658 -3.1182
 2330SOL     OW18622   4.559   0.004   6.191  0.2354 -0.0944  0.2924
 2330SOL    HW118623   4.579   0.070   6.125 -0.8696  0.9700  1.0187
 2330SOL    HW218624   4.537   4.664   6.136  1.1833  1.2244 -1.8733
 2331SOL     OW18625   1.909   1.797   8.506  0.8151  0.4105  0.2925
 2331SOL    HW118626   1.930   1.706   8.528  0.9683  0.4205  0.1878
 2331SOL    HW218627   1.837   1.773   8.448  2.0214 -1.1370 -0.5850
 2332SOL     OW18628   3.860   4.672   7.092  0.2344  0.0237  0.0484
 2332SOL    HW118629   3.901   0.012   7.049  2.5571 -1.4828 -0.3524
 2332SOL    HW218630   3.770   4.676   7.060  0.8378 -1.7659 -1.8985
 2333SOL     OW18631   4.484   0.603   5.017 -0.2404  0.4926  0.0366
 2333SOL    HW118632   4.507   0.510   5.016 -1.2961  0.2474 -0.9481
 2333SOL    HW218633   4.467   0.619   4.924 -0.1429 -0.9266 -0.2191
 2334SOL     OW18634   2.560   2.886  11.960  0.3834 -0.3085 -0.4836
 2334SOL    HW118635   2.561   2.852  11.871 -1.4107  0.2005 -0.6900
 2334SOL    HW218636   2.482   2.942  11.961  0.0897 -0.6706 -3.0783
 2335SOL     OW18637   2.265   1.317  12.658  0.3621 -0.3324 -0.1291
 2335SOL    HW118638   2.279   1.406  12.689 -1.2975  0.3484 -1.3039
 2335SOL    HW218639   2.304   1.322  12.571 -0.2960  0.4709 -0.3763
 2336SOL     OW18640   1.463   1.824   6.949  0.1999 -0.7512 -0.3842
 2336SOL    HW118641   1.393   1.852   6.890 -0.4372  1.0003  1.2053
 2336SOL    HW218642   1.470   1.902   7.003  1.2772  0.6250 -2.5374
 2337SOL     OW18643   3.836   0.198  16.065  0.0054 -0.3609  0.7136
 2337SOL    HW118644   3.825   0.122  16.122  0.7780  1.1114  2.8364
 2337SOL    HW218645   3.804   0.275  16.113  0.6063  0.0555  0.4488
 2338SOL     OW18646   1.125   4.292   8.936  0.1922  0.2757  0.4986
 2338SOL    HW118647   1.075   4.371   8.916 -1.5218 -0.7447  0.7457
 2338SOL    HW218648   1.197   4.319   8.879  0.0447  0.4882  0.4114
 2339SOL     OW18649   1.997   4.556   1.140 -0.1636 -0.8162  0.0180
 2339SOL    HW118650   2.013   4.630   1.199 -1.3704 -0.2176 -0.4057
 2339SOL    HW218651   2.083   4.550   1.099 -0.2296 -2.7838  0.1765
 2340SOL     OW18652   2.135   3.192   5.651  0.2377  0.0086 -0.7846
 2340SOL    HW118653   2.092   3.131   5.591  0.7987 -0.0459 -1.1386
 2340SOL    HW218654   2.188   3.134   5.706 -2.3245 -0.5077  1.0985
 2341SOL     OW18655   3.853   4.149  17.059 -0.1351  0.0042  0.1353
 2341SOL    HW118656   3.770   4.121  17.021 -0.0636  1.5117 -1.1186
 2341SOL    HW218657   3.821   4.184  17.142  0.5733  0.2151  0.3188
 2342SOL     OW18658   2.729   0.679  14.805 -0.0504 -0.3008 -0.4588
 2342SOL    HW118659   2.814   0.689  14.848 -0.2755 -3.6380  0.7589
 2342SOL    HW218660   2.730   0.589  14.772  1.2455 -0.4986  0.1235
 2343SOL     OW18661   0.077   3.138   9.408 -0.1240 -0.4261  0.3340
 2343SOL    HW118662   0.033   3.056   9.429 -3.1217  0.5570 -2.1507
 2343SOL    HW218663   0.153   3.136   9.467 -0.6703 -0.4999  1.0317
 2344SOL     OW18664   3.656   0.786   5.173  0.0531 -0.0068 -0.2104
 2344SOL    HW118665   3.678   0.759   5.263 -0.0488 -1.0158 -0.4913
 2344SOL    HW218666   3.578   0.834   5.202 -0.1812 -0.4125 -0.1764
 2345SOL     OW18667   1.021   0.688   3.928 -0.3253  0.0449 -0.8406
 2345SOL    HW118668   0.962   0.743   3.979 -0.8556  0.8049 -2.2716
 2345SOL    HW218669   0.996   0.602   3.961  1.3847  0.0085  0.3766
 2346SOL     OW18670   4.231   3.680  14.952 -0.3437  0.6192  0.4080
 2346SOL    HW118671   4.213   3.622  14.877  0.7485  1.2523 -0.3348
 2346SOL    HW218672   4.142   3.701  14.980 -0.1552  2.3800 -0.2778
 2347SOL     OW18673   1.018   3.070   4.656  0.2739 -0.5836  0.0937
 2347SOL    HW118674   0.989   3.135   4.593 -3.1034  0.3840  2.6427
 2347SOL    HW218675   1.113   3.075   4.644  0.1597 -0.9201 -0.9298
 2348SOL     OW18676   2.058   3.380   7.765 -0.5315  0.0601 -0.0349
 2348SOL    HW118677   2.083   3.382   7.673  0.1155 -0.3734  0.1317
 2348SOL    HW218678   2.032   3.290   7.782  0.7234 -0.1884  0.6074
 2349SOL     OW18679   4.295   2.063  12.575 -0.1948 -0.2597 -0.0859
 2349SOL    HW118680   4.232   2.121  12.531  0.5613  2.8844  2.9159
 2349SOL    HW218681   4.326   2.006  12.505  3.2453 -1.5927  2.5387
 2350SOL     OW18682   0.537   3.640   9.275 -0.6734  0.1252 -0.2117
 2350SOL    HW118683   0.520   3.728   9.310  0.7067  0.6488 -0.8559
 2350SOL    HW218684   0.538   3.668   9.184  0.9102 -0.7892 -0.4666
 2351SOL     OW18685   1.821   3.201   2.516 -0.4568 -0.2606  0.2386
 2351SOL    HW118686   1.794   3.291   2.494 -0.2907  0.1086  1.5287
 2351SOL    HW218687   1.884   3.211   2.587 -1.0349  2.4889  0.3954
 2352SOL     OW18688   2.020   0.008   5.578  0.1974  0.1968  0.5490
 2352SOL    HW118689   2.071   4.683   5.631 -0.6109 -1.3339 -0.4290
 2352SOL    HW218690   2.078   0.023   5.503  2.0722 -0.8512  1.8052
 2353SOL     OW18691   4.648   1.501   0.043 -0.7123 -0.8296 -0.3134
 2353SOL    HW118692   0.001   1.518   0.074 -0.2807 -0.1233 -1.9280
 2353SOL    HW218693   4.639   1.589   0.007  0.6967  0.1419  1.7041
 2354SOL     OW18694   4.711   0.635   7.807 -0.2246  0.0520 -0.2423
 2354SOL    HW118695   4.652   0.560   7.796 -0.2565 -0.0738  0.7872
 2354SOL    HW218696   4.695   0.658   7.898  1.4915 -0.4317  0.1814
 2355SOL     OW18697   4.511   4.366  13.033 -0.6425 -0.1607  0.3917
 2355SOL    HW118698   4.459   4.390  13.109 -1.6706 -1.0299 -0.0277
 2355SOL    HW218699   4.594   4.329  13.063 -1.6194 -1.4825  1.4545
 2356SOL     OW18700   4.514   2.968   7.060 -0.3361 -0.5245  0.3851
 2356SOL    HW118701   4.575   2.911   7.013 -1.8764 -1.5393 -0.3812
 2356SOL    HW218702   4.435   2.914   7.068 -0.8355 -0.0531 -1.4363
 2357SOL     OW18703   2.548   3.578  10.902 -0.0008  0.0024  0.2864
 2357SOL    HW118704   2.487   3.651  10.895 -0.1676 -0.2178 -0.5739
 2357SOL    HW218705   2.486   3.511  10.930 -1.1764  1.9045  2.1891
 2358SOL     OW18706   2.258   1.994   2.788 -0.5363  0.0572  0.2960
 2358SOL    HW118707   2.259   2.089   2.778  0.6865 -0.0393 -0.6182
 2358SOL    HW218708   2.167   1.984   2.816 -0.8456  0.8886 -0.4155
 2359SOL     OW18709   4.483   0.719   7.601 -0.0885 -0.2622 -0.5339
 2359SOL    HW118710   4.517   0.652   7.542  0.4163 -0.2601 -0.2494
 2359SOL    HW218711   4.547   0.784   7.573 -0.3609  0.0390 -0.4508
 2360SOL     OW18712   0.085   0.441  15.750  0.1823  0.1535 -0.0778
 2360SOL    HW118713   4.728   0.424  15.734  0.6047 -3.0313  0.8412
 2360SOL    HW218714   0.103   0.405  15.837  0.1246 -2.5987 -1.1984
 2361SOL     OW18715   3.102   0.539   2.470 -0.2874 -0.0336 -0.3843
 2361SOL    HW118716   3.039   0.498   2.411 -0.3354  1.2291 -1.2207
 2361SOL    HW218717   3.138   0.461   2.513 -0.6151  0.8364  1.4911
 2362SOL     OW18718   1.668   0.530   1.204  0.2004  0.3201  0.5020
 2362SOL    HW118719   1.599   0.538   1.138  1.3855  0.6449 -0.6981
 2362SOL    HW218720   1.719   0.609   1.187 -1.0272  0.6541 -1.7061
 2363SOL     OW18721   2.489   3.454   5.167 -0.2959 -0.5343 -0.0717
 2363SOL    HW118722   2.536   3.444   5.084  0.0181  0.0407  0.0368
 2363SOL    HW218723   2.568   3.452   5.220 -0.5610 -0.8125  0.3169
 2364SOL     OW18724   3.218   0.229   8.256 -0.5869  0.4024 -0.3453
 2364SOL    HW118725   3.177   0.216   8.170 -0.0360 -2.1448 -0.2361
 2364SOL    HW218726   3.161   0.173   8.309  1.4088  0.4880  1.9044
 2365SOL     OW18727   4.338   0.481   2.802  0.6491 -0.0928  0.1434
 2365SOL    HW118728   4.272   0.415   2.778  0.5210  0.8850 -2.2271
 2365SOL    HW218729   4.318   0.557   2.747  1.7072 -0.9676 -1.4510
 2366SOL     OW18730   3.992   3.384   0.973 -0.0075  0.2733 -0.1959
 2366SOL    HW118731   4.000   3.454   0.908  0.7113 -1.3683 -1.8981
 2366SOL    HW218732   4.004   3.308   0.915  1.1760 -1.8463  2.8314
 2367SOL     OW18733   1.402   0.072   6.079 -0.0407  0.2234  0.3953
 2367SOL    HW118734   1.432   0.159   6.051  1.7832 -0.0782  1.4046
 2367SOL    HW218735   1.466   0.011   6.044 -0.9587 -2.0436  2.6352
 2368SOL     OW18736   3.572   1.042   1.197 -0.4045  0.7067 -0.0505
 2368SOL    HW118737   3.477   1.052   1.194 -0.6048 -1.7520 -1.4411
 2368SOL    HW218738   3.581   0.954   1.162 -0.1004 -0.7302  3.6696
 2369SOL     OW18739   1.747   4.118   1.069 -0.2098 -0.5241  0.0938
 2369SOL    HW118740   1.783   4.205   1.054 -1.0361 -0.1593  0.2541
 2369SOL    HW218741   1.652   4.130   1.062 -0.2991 -2.0511 -1.3099
 2370SOL     OW18742   0.022   3.765   6.618  0.0535  0.1713  0.0402
 2370SOL    HW118743   0.058   3.846   6.580 -1.9659  1.7457  1.4929
 2370SOL    HW218744   0.094   3.726   6.667 -1.0130  0.3036  1.6904
 2371SOL     OW18745   2.498   3.433   7.955 -0.0794 -0.0526 -0.8824
 2371SOL    HW118746   2.432   3.458   7.890 -0.3030  4.4058  1.1087
 2371SOL    HW218747   2.445   3.451   8.032 -0.2870  0.7155 -1.2027
 2372SOL     OW18748   3.007   1.590   6.506 -0.1535  0.1146  0.4469
 2372SOL    HW118749   2.956   1.546   6.438  2.0398 -0.7653 -0.5991
 2372SOL    HW218750   2.950   1.666   6.516 -1.3946 -0.5255 -1.7717
 2373SOL     OW18751   3.505   3.666  12.469  0.1413 -0.1636  0.1219
 2373SOL    HW118752   3.468   3.728  12.531  1.5856  0.2675  0.5454
 2373SOL    HW218753   3.491   3.583  12.515  0.0538 -1.6570 -2.5795
 2374SOL     OW18754   4.107   0.259   5.792 -0.5005 -0.1959 -0.2045
 2374SOL    HW118755   4.155   0.198   5.848  0.1068 -0.9762 -1.5801
 2374SOL    HW218756   4.020   0.219   5.792  0.0682 -1.4192  3.4895
 2375SOL     OW18757   3.856   3.404   1.943 -0.5186 -0.8920 -0.2613
 2375SOL    HW118758   3.785   3.348   1.912 -2.0642  0.4282  0.8910
 2375SOL    HW218759   3.867   3.375   2.033  0.1425  1.4347  0.3836
 2376SOL     OW18760   1.772   2.422   2.802 -0.0148 -0.1368 -1.1955
 2376SOL    HW118761   1.718   2.498   2.825  0.4849  0.6986 -2.7548
 2376SOL    HW218762   1.848   2.424   2.859  0.7074 -0.0715 -2.1575
 2377SOL     OW18763   3.732   2.686   8.215  0.3331  0.0460 -0.2796
 2377SOL    HW118764   3.776   2.641   8.143  0.1049 -0.8240  0.1206
 2377SOL    HW218765   3.649   2.697   8.169  0.8405  1.4319 -0.8460
 2378SOL     OW18766   1.696   3.777   6.701 -0.7153 -0.2540 -0.3318
 2378SOL    HW118767   1.742   3.727   6.768 -3.1359  0.7250  2.0813
 2378SOL    HW218768   1.642   3.704   6.671 -2.2717  0.5010  0.6342
 2379SOL     OW18769   1.358   0.618  14.320 -0.5175  0.5531  0.3118
 2379SOL    HW118770   1.306   0.689  14.356 -0.0055  0.2735  1.6113
 2379SOL    HW218771   1.329   0.641  14.232  1.1705 -2.4292 -1.0148
 2380SOL     OW18772   1.886   4.325   3.554 -0.4570  0.4524  0.3574
 2380SOL    HW118773   1.868   4.369   3.470  0.3731  2.0125  1.0092
 2380SOL    HW218774   1.909   4.238   3.521 -2.6227  0.5027 -1.3194
 2381SOL     OW18775   4.385   0.146   6.991 -0.1840  0.3666 -0.1254
 2381SOL    HW118776   4.388   0.215   7.057 -1.1951  0.9227 -0.6463
 2381SOL    HW218777   4.466   0.096   6.997 -0.4079  0.1978  1.4347
 2382SOL     OW18778   3.841   2.730   6.969 -0.3454  0.1384  0.3421
 2382SOL    HW118779   3.792   2.771   6.897  0.0414 -0.5500 -0.3232
 2382SOL    HW218780   3.831   2.796   7.037  2.2403  2.6951 -1.7728
 2383SOL     OW18781   2.710   3.634   8.224 -0.4427  0.4271  0.3200
 2383SOL    HW118782   2.804   3.646   8.242 -0.7886  2.1076  0.9456
 2383SOL    HW218783   2.688   3.726   8.209  1.4705  0.1076 -4.5011
 2384SOL     OW18784   3.994   1.048   3.547  0.3782 -0.3473  0.0585
 2384SOL    HW118785   3.915   1.064   3.598  0.4662 -2.0445  0.6914
 2384SOL    HW218786   4.045   1.127   3.564 -1.0326  1.3220 -3.3749
 2385SOL     OW18787   3.304   3.378   6.195 -0.5046  0.0002  0.1287
 2385SOL    HW118788   3.241   3.331   6.250 -0.3423 -0.4453 -0.0659
 2385SOL    HW218789   3.383   3.379   6.250 -1.0528  3.3056  0.8532
 2386SOL     OW18790   4.334   4.019  17.072 -0.4591  0.5752  0.5253
 2386SOL    HW118791   4.239   4.029  17.074 -0.4471  0.4903  1.3171
 2386SOL    HW218792   4.361   4.110  17.059 -0.4097  0.7539  1.8876
 2387SOL     OW18793   3.334   2.414   5.325 -0.1565  0.4582  0.3881
 2387SOL    HW118794   3.241   2.436   5.322 -0.0643  0.8339  0.2449
 2387SOL    HW218795   3.339   2.390   5.418  0.2911  0.3657  0.3384
 2388SOL     OW18796   2.233   0.252   0.716 -0.3285  0.5649  0.4037
 2388SOL    HW118797   2.173   0.305   0.768 -1.3021 -0.0932 -0.0206
 2388SOL    HW218798   2.319   0.291   0.730 -0.0101  0.2588 -0.6498
 2389SOL     OW18799   3.682   4.356   0.769  0.4840  0.0313  0.2945
 2389SOL    HW118800   3.729   4.382   0.689  2.5191 -1.6416  0.9330
 2389SOL    HW218801   3.698   4.433   0.822 -1.5456 -0.7721  2.0558
 2390SOL     OW18802   1.561   3.245  11.672  0.4812  0.1069  0.0393
 2390SOL    HW118803   1.634   3.304  11.651  1.3978 -0.7540  0.7766
 2390SOL    HW218804   1.580   3.173  11.613 -1.0428  0.4556 -0.8616
 2391SOL     OW18805   2.883   1.790   5.451  0.0973 -0.0141  0.2450
 2391SOL    HW118806   2.823   1.811   5.523 -0.2723  0.3819 -0.1754
 2391SOL    HW218807   2.914   1.880   5.439  1.1072 -0.6950 -2.1583
 2392SOL     OW18808   1.035   0.284  12.205  0.3008 -0.1404  0.2244
 2392SOL    HW118809   0.956   0.231  12.192 -0.6328  1.0896  1.0277
 2392SOL    HW218810   1.036   0.338  12.126  1.0144 -0.3280  0.1012
 2393SOL     OW18811   3.483   3.187   6.106  0.2115 -0.0193 -0.2116
 2393SOL    HW118812   3.447   3.152   6.025 -1.1505  0.9680 -0.0470
 2393SOL    HW218813   3.446   3.276   6.107 -0.0369 -0.1147 -0.8194
 2394SOL     OW18814   4.242   4.322   1.905  0.3673 -0.0755 -0.2294
 2394SOL    HW118815   4.257   4.395   1.965 -0.5624 -0.0489 -0.0438
 2394SOL    HW218816   4.176   4.365   1.851  1.2318  2.1228  0.4327
 2395SOL     OW18817   3.723   3.844   2.791 -0.7505 -0.2466 -0.3235
 2395SOL    HW118818   3.672   3.910   2.744 -1.1387  0.6089  1.2777
 2395SOL    HW218819   3.672   3.764   2.787  0.0006 -0.6776 -1.3380
 2396SOL     OW18820   2.544   3.968   8.382  0.3950  0.6218 -0.2520
 2396SOL    HW118821   2.619   3.952   8.325 -0.3560 -0.2244 -0.9947
 2396SOL    HW218822   2.480   4.004   8.321  0.2718 -1.5241 -1.3873
 2397SOL     OW18823   1.498   1.118   2.625  0.2763 -0.8492 -0.1163
 2397SOL    HW118824   1.574   1.063   2.605  0.9562  0.2020 -0.4359
 2397SOL    HW218825   1.520   1.156   2.710 -0.2828 -1.3974  0.2770
 2398SOL     OW18826   0.339   1.619   3.241 -0.1954 -0.0877 -0.2490
 2398SOL    HW118827   0.250   1.605   3.212 -0.7856  0.7400  1.1245
 2398SOL    HW218828   0.324   1.636   3.334 -3.7341  0.6415 -0.9643
 2399SOL     OW18829   1.525   1.150   4.387 -0.0338  0.6597 -0.3268
 2399SOL    HW118830   1.464   1.076   4.380  0.3377  0.5160 -1.9366
 2399SOL    HW218831   1.536   1.156   4.482  1.9460  2.5865 -0.6854
 2400SOL     OW18832   2.702   1.132   5.792  0.4066  0.1158 -0.1956
 2400SOL    HW118833   2.614   1.155   5.821 -0.1751 -1.9470 -0.3347
 2400SOL    HW218834   2.751   1.214   5.800 -0.7682  0.8875 -0.9904
 2401SOL     OW18835   1.938   3.845  13.019  0.1781 -0.0538  0.1122
 2401SOL    HW118836   1.952   3.906  13.092 -0.3478  0.7925 -0.4947
 2401SOL    HW218837   1.969   3.767  13.065 -1.1570  0.4995  1.9478
 2402SOL     OW18838   1.207   4.160  15.174  0.2674 -0.2868  0.2006
 2402SOL    HW118839   1.238   4.084  15.223 -1.7786  0.5287  2.7999
 2402SOL    HW218840   1.126   4.189  15.216  0.6384 -1.3744  1.6599
 2403SOL     OW18841   1.639   2.525  11.001  0.1838  0.4171 -0.1207
 2403SOL    HW118842   1.702   2.470  11.048  0.1590 -0.0118 -0.5923
 2403SOL    HW218843   1.698   2.582  10.952  1.8066  0.4534  1.9092
 2404SOL     OW18844   3.909   1.430   4.544  0.4356 -0.0101  0.1913
 2404SOL    HW118845   3.943   1.395   4.627  1.0529  1.3753  0.5236
 2404SOL    HW218846   3.819   1.441   4.575  0.8421  0.6197  1.1629
 2405SOL     OW18847   2.094   0.722   2.115 -0.4176  0.2686 -0.4015
 2405SOL    HW118848   2.128   0.810   2.130  1.1808 -0.5000  0.4422
 2405SOL    HW218849   2.166   0.672   2.154 -2.1655 -1.1968  0.9691
 2406SOL     OW18850   0.691   3.226   7.358 -0.1469 -0.4514  0.1821
 2406SOL    HW118851   0.614   3.252   7.307 -1.2095 -1.3312  1.3448
 2406SOL    HW218852   0.761   3.262   7.303  1.0366  1.7912  3.1567
 2407SOL     OW18853   0.934   3.190  12.804  0.1996  0.4630 -0.0906
 2407SOL    HW118854   0.841   3.204  12.821  0.7940  1.2362  2.4046
 2407SOL    HW218855   0.954   3.102  12.835 -1.0277 -0.2648 -1.3370
 2408SOL     OW18856   4.164   4.550   6.155  0.2704  0.5162  0.4720
 2408SOL    HW118857   4.198   4.568   6.067  0.0512  0.7564  0.4379
 2408SOL    HW218858   4.084   4.513   6.119  1.4353 -0.4698 -1.1182
 2409SOL     OW18859   0.495   1.746   6.253  0.3873  0.3821  0.0126
 2409SOL    HW118860   0.428   1.776   6.314 -0.4796 -2.6341  0.5063
 2409SOL    HW218861   0.580   1.763   6.293  0.2508 -0.0908  0.4977
 2410SOL     OW18862   2.187   3.289   8.905  0.3226 -0.0441  0.3690
 2410SOL    HW118863   2.214   3.249   8.987 -1.9456 -2.4774 -0.0526
 2410SOL    HW218864   2.097   3.308   8.930  0.8140  0.5780  1.6518
 2411SOL     OW18865   3.526   1.484   6.399  0.5824 -0.3384 -0.1541
 2411SOL    HW118866   3.612   1.486   6.357 -0.0158  0.2968 -1.3213
 2411SOL    HW218867   3.491   1.559   6.351  0.7752 -0.9374 -1.2164
 2412SOL     OW18868   3.306   3.785   7.157 -0.0802  0.4254 -0.1088
 2412SOL    HW118869   3.239   3.719   7.138 -0.4887  1.1617 -1.1719
 2412SOL    HW218870   3.361   3.740   7.221  0.7505  2.3001  0.4835
 2413SOL     OW18871   2.744   2.024   5.874 -0.4068  0.6023 -0.0049
 2413SOL    HW118872   2.780   1.951   5.925  1.0038 -0.1456 -2.0518
 2413SOL    HW218873   2.813   2.089   5.883  0.4564 -0.4509  0.9950
 2414SOL     OW18874   2.297   1.881   8.160 -0.2663 -0.0952  0.1286
 2414SOL    HW118875   2.208   1.867   8.193  0.0873 -0.3842  0.9500
 2414SOL    HW218876   2.307   1.976   8.163  0.5361 -0.0945 -2.2263
 2415SOL     OW18877   0.545   2.804   2.945 -0.3751 -0.4669 -0.7418
 2415SOL    HW118878   0.477   2.803   2.878 -0.6796 -1.0068 -0.4292
 2415SOL    HW218879   0.509   2.735   3.002 -1.6303  1.6491  1.0704
 2416SOL     OW18880   2.605   1.723   6.024 -0.1541  0.2830 -0.1724
 2416SOL    HW118881   2.585   1.728   6.118  1.3761  0.3422  0.1397
 2416SOL    HW218882   2.686   1.773   6.020 -1.3476  2.0898 -2.0742
 2417SOL     OW18883   0.486   2.602  12.007  0.5129  0.0011  0.1797
 2417SOL    HW118884   0.474   2.526  11.950 -0.5333  0.7171 -0.5432
 2417SOL    HW218885   0.398   2.609  12.043  0.0493 -0.2985 -0.8744
 2418SOL     OW18886   2.722   1.648   8.971 -0.0036  0.0651 -0.1189
 2418SOL    HW118887   2.634   1.652   8.934  0.0452  1.2983 -0.0930
 2418SOL    HW218888   2.728   1.554   8.988  0.4142 -0.2369 -1.9476
 2419SOL     OW18889   2.166   4.447   8.196  0.2660  0.2013  0.2051
 2419SOL    HW118890   2.157   4.417   8.105  1.1973 -0.3175  0.2898
 2419SOL    HW218891   2.104   4.391   8.242 -0.3982  0.0632 -0.8474
 2420SOL     OW18892   3.580   4.050   8.986 -0.3533 -0.5272  0.3750
 2420SOL    HW118893   3.621   4.132   9.015 -1.5147 -0.1403  0.9235
 2420SOL    HW218894   3.531   4.088   8.913 -0.2590  2.1203  1.6642
 2421SOL     OW18895   4.613   4.357  10.051  0.0214  0.8787  0.4284
 2421SOL    HW118896   4.563   4.438  10.057  2.2491  2.3887 -1.7205
 2421SOL    HW218897   4.563   4.304  10.113 -0.7517  1.6648  0.4802
 2422SOL     OW18898   1.173   3.712   0.851  0.2313 -0.2081 -0.6769
 2422SOL    HW118899   1.229   3.753   0.786 -1.6295  2.4982 -0.5897
 2422SOL    HW218900   1.134   3.639   0.802  0.5226  0.0764 -1.3313
 2423SOL     OW18901   0.843   1.585  16.634 -0.0154  0.2367  0.1933
 2423SOL    HW118902   0.805   1.672  16.622  1.4765  0.7852 -0.6787
 2423SOL    HW218903   0.936   1.604  16.621  0.1846 -0.5093  0.5358
 2424SOL     OW18904   4.699   1.405  13.357 -0.1051  0.2127 -0.4864
 2424SOL    HW118905   0.014   1.422  13.437 -1.3965 -1.6367  0.7168
 2424SOL    HW218906   4.712   1.476  13.295 -2.2672  0.9020 -0.1410
 2425SOL     OW18907   2.001   2.500   7.542 -0.2886  0.1596  0.0892
 2425SOL    HW118908   2.004   2.427   7.605  0.7378 -0.5605 -0.7963
 2425SOL    HW218909   2.085   2.488   7.498  0.0591 -0.0098  0.7979
 2426SOL     OW18910   2.074   4.478   6.181  0.4953  0.3468  0.4689
 2426SOL    HW118911   2.106   4.388   6.172  2.4525  0.9182  1.4790
 2426SOL    HW218912   2.148   4.526   6.218 -0.1275  1.1144  0.7083
 2427SOL     OW18913   3.976   2.406   7.468  0.2619 -0.2980  0.5035
 2427SOL    HW118914   3.911   2.449   7.523  0.6932 -2.0640  2.4074
 2427SOL    HW218915   4.050   2.460   7.496  0.4569 -0.9802  1.2975
 2428SOL     OW18916   1.514   1.111   7.044 -0.3926 -0.1930 -0.8432
 2428SOL    HW118917   1.465   1.068   7.115 -0.0678  0.3118 -0.3191
 2428SOL    HW218918   1.439   1.112   6.984  0.1964 -0.4517 -1.5720
 2429SOL     OW18919   4.018   2.583   4.339  0.7250 -0.0933 -0.0760
 2429SOL    HW118920   3.981   2.671   4.353  0.2519 -0.6276  2.1053
 2429SOL    HW218921   3.971   2.548   4.263 -1.9487  1.6185  0.7734
 2430SOL     OW18922   1.857   4.726   3.482  0.5560 -0.5190 -0.4036
 2430SOL    HW118923   1.948   4.732   3.512  0.3495  0.3185  0.0718
 2430SOL    HW218924   1.872   4.689   3.395 -0.2652 -1.9134  0.0487
 2431SOL     OW18925   0.436   0.804   4.998  0.3977 -0.7197  0.7097
 2431SOL    HW118926   0.406   0.882   4.953  0.6225 -1.0491 -0.0070
 2431SOL    HW218927   0.354   0.758   5.014 -0.4332 -0.1298 -1.9963
 2432SOL     OW18928   1.737   2.563   7.695 -0.2806 -0.0021 -0.3540
 2432SOL    HW118929   1.829   2.556   7.721  0.0807  3.8184 -0.6305
 2432SOL    HW218930   1.712   2.473   7.718 -1.8698  0.0180 -1.9889
 2433SOL     OW18931   2.733   3.508   8.776 -0.7848  0.0714  0.6772
 2433SOL    HW118932   2.806   3.564   8.747 -0.0299 -2.3912 -2.1821
 2433SOL    HW218933   2.663   3.561   8.738  1.8536  2.9168 -0.2703
 2434SOL     OW18934   2.525   4.484   5.739 -0.3905  0.3743 -0.7645
 2434SOL    HW118935   2.443   4.480   5.788  0.9480  2.1831  1.6597
 2434SOL    HW218936   2.559   4.406   5.782  0.8763 -0.6132 -3.5571
 2435SOL     OW18937   3.127   3.977   0.795 -0.0587 -0.4797 -0.1580
 2435SOL    HW118938   3.196   3.991   0.730  0.4464  2.3150  0.9650
 2435SOL    HW218939   3.161   4.033   0.865  0.2896 -0.7971 -0.0767
 2436SOL     OW18940   4.377   3.874   6.211 -0.0218  0.0707 -0.3610
 2436SOL    HW118941   4.405   3.857   6.301 -0.6746  3.7543  0.5489
 2436SOL    HW218942   4.420   3.799   6.170  1.3555  1.9511 -2.3675
 2437SOL     OW18943   0.335   2.501  10.176 -0.5635  0.3764 -0.0594
 2437SOL    HW118944   0.325   2.537  10.264  0.5588 -0.3999  0.3736
 2437SOL    HW218945   0.429   2.499  10.164 -0.3632  0.4643  1.5333
 2438SOL     OW18946   3.506   1.128   2.519 -0.1506 -0.3356 -0.3891
 2438SOL    HW118947   3.442   1.197   2.536 -1.0494 -1.3472  0.3664
 2438SOL    HW218948   3.462   1.043   2.516 -0.3775 -0.3591  4.0159
 2439SOL     OW18949   2.241   0.270   5.925  0.5150 -0.3024  0.1374
 2439SOL    HW118950   2.151   0.257   5.955  0.1431  0.3382 -0.7050
 2439SOL    HW218951   2.280   0.183   5.932  0.1780 -0.4431  0.2793
 2440SOL     OW18952   2.223   0.129   4.144 -0.4546  0.1643 -0.0003
 2440SOL    HW118953   2.249   0.047   4.101 -0.7179 -0.2676  0.6719
 2440SOL    HW218954   2.217   0.185   4.067 -1.4271 -0.6913 -0.5480
 2441SOL     OW18955   2.495   0.807  11.433  0.5152 -0.9049  0.5168
 2441SOL    HW118956   2.488   0.902  11.427  0.5779 -0.8329  1.6092
 2441SOL    HW218957   2.497   0.782  11.340 -0.5909  1.9490 -0.2655
 2442SOL     OW18958   4.219   3.723   6.996 -0.2209  0.5221 -0.2357
 2442SOL    HW118959   4.260   3.803   7.029 -0.1620  0.4913 -0.2349
 2442SOL    HW218960   4.297   3.669   6.988  0.8180  2.4205 -3.0510
 2443SOL     OW18961   3.035   1.596   3.124  0.2055  0.4192 -0.3947
 2443SOL    HW118962   3.070   1.513   3.091  0.1400  0.6472 -1.0430
 2443SOL    HW218963   3.087   1.652   3.066  1.8378  0.0969  0.7618
 2444SOL     OW18964   3.209   0.782   1.117 -0.3678  0.1667  0.6240
 2444SOL    HW118965   3.175   0.715   1.057  1.4856 -0.9289  0.7892
 2444SOL    HW218966   3.224   0.732   1.197 -2.1342 -0.2987  0.6612
 2445SOL     OW18967   2.861   0.616   5.260 -0.0998 -0.0265 -0.0905
 2445SOL    HW118968   2.784   0.590   5.310 -0.4150 -0.1696 -0.6438
 2445SOL    HW218969   2.818   0.685   5.209 -0.1990  0.5628  0.7961
 2446SOL     OW18970   4.164   0.813   4.284  0.0027  0.1406  0.1304
 2446SOL    HW118971   4.155   0.907   4.301 -1.4179  0.1842 -0.8647
 2446SOL    HW218972   4.118   0.772   4.357 -1.2856  0.9378 -0.2201
 2447SOL     OW18973   1.156   2.978   5.089 -0.0641  0.3224 -0.7403
 2447SOL    HW118974   1.185   2.974   4.998  1.5399  1.4778 -0.2768
 2447SOL    HW218975   1.171   3.072   5.101  1.2889  0.2701 -2.0811
 2448SOL     OW18976   0.276   0.835   9.703 -0.0337  0.1339 -0.2628
 2448SOL    HW118977   0.349   0.871   9.753 -0.7354 -0.5516  1.2389
 2448SOL    HW218978   0.260   0.896   9.631 -0.7519 -0.7924 -0.8892
 2449SOL     OW18979   2.731   4.595  13.890  0.0726 -0.3477  0.0013
 2449SOL    HW118980   2.751   4.571  13.799  2.3254  1.1544  0.0867
 2449SOL    HW218981   2.787   4.673  13.893  3.3480 -2.6344 -1.2681
 2450SOL     OW18982   2.458   2.078   6.311 -0.1934  0.1801  0.3887
 2450SOL    HW118983   2.424   2.141   6.247 -0.0178  0.5818  0.6910
 2450SOL    HW218984   2.387   2.059   6.372  0.0601  1.0025  0.9459
 2451SOL     OW18985   1.738   1.514   7.630 -0.3057  0.1385 -0.1085
 2451SOL    HW118986   1.788   1.438   7.598  2.0858  1.1264  1.2244
 2451SOL    HW218987   1.772   1.573   7.563 -0.3064 -1.4007 -1.4767
 2452SOL     OW18988   3.885   0.477   2.025  0.1080 -0.0271  0.4993
 2452SOL    HW118989   3.815   0.515   1.971 -0.2914  1.8432  2.3578
 2452SOL    HW218990   3.932   0.557   2.049  0.7339  0.2146 -1.5433
 2453SOL     OW18991   0.942   1.657  13.869  0.3587  0.0505  0.2856
 2453SOL    HW118992   0.860   1.614  13.845  0.5275  0.3248 -0.7547
 2453SOL    HW218993   0.930   1.672  13.963 -0.5951 -1.6814  0.4388
 2454SOL     OW18994   3.535   1.132   3.169 -0.1225 -0.0836  0.5163
 2454SOL    HW118995   3.561   1.040   3.175 -0.4447 -0.4142 -3.0535
 2454SOL    HW218996   3.610   1.159   3.116  0.5324 -2.2208  0.3343
 2455SOL     OW18997   3.401   0.003   8.359 -0.0356 -0.3476  0.1070
 2455SOL    HW118998   3.309   0.029   8.358  0.4664  1.3934 -0.4439
 2455SOL    HW218999   3.446   0.087   8.351  0.7138 -0.5481  2.3546
 2456SOL     OW19000   1.977   3.883   4.576  0.1594 -0.3367  0.3106
 2456SOL    HW119001   2.050   3.920   4.626 -0.9429 -1.7919  2.9660
 2456SOL    HW219002   2.012   3.861   4.489  4.4258  0.2762  1.8615
 2457SOL     OW19003   0.022   3.390   5.879  0.2371 -0.1933 -0.5670
 2457SOL    HW119004   0.092   3.343   5.925 -0.3026 -0.4783 -0.0321
 2457SOL    HW219005   4.696   3.319   5.861  0.0785  0.0281 -0.8760
 2458SOL     OW19006   1.443   3.953  13.776 -0.3761  0.1343  0.4906
 2458SOL    HW119007   1.414   3.997  13.696 -1.1946  0.0136  0.7232
 2458SOL    HW219008   1.361   3.935  13.820 -0.4860 -0.9409 -0.1453
 2459SOL     OW19009   3.217   2.505   2.056  0.7648  0.2907 -0.1750
 2459SOL    HW119010   3.262   2.587   2.037  1.0617  0.7629  2.5750
 2459SOL    HW219011   3.270   2.466   2.125  0.9796  3.1895  1.2914
 2460SOL     OW19012   3.387   2.068   8.818  0.3601 -0.0772  0.7454
 2460SOL    HW119013   3.468   2.057   8.869  1.3590 -2.2009 -1.2976
 2460SOL    HW219014   3.409   2.119   8.740  1.1059 -0.1849  0.8767
 2461SOL     OW19015   1.111   3.557   5.854 -0.1603  0.1136  0.2545
 2461SOL    HW119016   1.112   3.543   5.759  0.1167 -1.4619  0.4765
 2461SOL    HW219017   1.062   3.637   5.872 -2.3618 -0.7864 -1.7729
 2462SOL     OW19018   2.881   0.594   4.096  0.3246  0.2062 -0.3104
 2462SOL    HW119019   2.809   0.638   4.051 -0.3378  0.7246  1.2965
 2462SOL    HW219020   2.909   0.537   4.024  0.6500 -1.7245  1.3462
 2463SOL     OW19021   2.247   0.987   5.986 -0.5792  0.6968 -0.9108
 2463SOL    HW119022   2.257   0.892   5.987  0.4121  0.8077  0.1559
 2463SOL    HW219023   2.152   0.995   5.988 -0.6400 -0.0315 -0.8884
 2464SOL     OW19024   1.203   3.560  16.324  0.1707 -0.3155 -0.8271
 2464SOL    HW119025   1.128   3.528  16.274  1.3404 -2.9907 -0.8916
 2464SOL    HW219026   1.185   3.652  16.343  2.6244 -0.0826  0.3493
 2465SOL     OW19027   0.916   3.248   7.216  0.0991 -0.1818 -0.0564
 2465SOL    HW119028   0.983   3.312   7.193 -2.2178  2.2842  0.0530
 2465SOL    HW219029   0.904   3.200   7.134  2.0239 -1.6380  0.4922
 2466SOL     OW19030   3.607   0.994  10.995 -0.3054 -0.0965 -0.2507
 2466SOL    HW119031   3.601   1.047  10.915 -0.9099 -0.2015 -0.2810
 2466SOL    HW219032   3.609   1.054  11.069  3.3910 -0.3322 -0.1866
 2467SOL     OW19033   4.427   1.977   7.069  0.8264  0.3560 -0.3759
 2467SOL    HW119034   4.491   1.956   7.137  0.6315 -1.4826 -0.7500
 2467SOL    HW219035   4.354   2.018   7.116  1.5302  1.0318  0.1109
 2468SOL     OW19036   3.801   2.477  10.157  0.5907 -0.2105  0.3477
 2468SOL    HW119037   3.785   2.430  10.239 -1.6861 -0.9664 -0.5334
 2468SOL    HW219038   3.875   2.531  10.184  0.3954 -0.2933  1.0528
 2469SOL     OW19039   1.699   4.158   8.337  0.2388 -0.4623  0.3103
 2469SOL    HW119040   1.713   4.069   8.305  3.0301  1.1511 -2.9787
 2469SOL    HW219041   1.714   4.156   8.431 -1.5063  0.4794  0.6149
 2470SOL     OW19042   3.889   2.740   5.476 -0.8780 -0.2743  0.4226
 2470SOL    HW119043   3.913   2.674   5.541  1.6674  0.7144  0.4872
 2470SOL    HW219044   3.975   2.772   5.450 -1.4827 -0.8721 -2.2615
 2471SOL     OW19045   3.686   1.581   7.115  0.3781  0.1333  0.5881
 2471SOL    HW119046   3.778   1.594   7.091 -0.1466  0.3093 -1.3281
 2471SOL    HW219047   3.655   1.672   7.117  2.4581  0.8438  0.9055
 2472SOL     OW19048   1.683   0.665   9.044 -0.4285 -0.3820  0.2445
 2472SOL    HW119049   1.702   0.642   8.953 -0.9659 -0.8781  0.2550
 2472SOL    HW219050   1.740   0.739   9.063 -1.8972  0.7724  0.1985
 2473SOL     OW19051   1.581   2.598   8.422  0.4649 -0.0347  0.1102
 2473SOL    HW119052   1.649   2.649   8.467  1.3297 -0.1361 -1.0839
 2473SOL    HW219053   1.598   2.628   8.332 -0.4349 -2.4660 -0.8727
 2474SOL     OW19054   1.630   0.019  17.637  0.3496  0.7750  0.4732
 2474SOL    HW119055   1.540   0.040  17.659  0.0290  1.4585 -1.4307
 2474SOL    HW219056   1.678   0.079  17.694  1.0504  2.0546 -1.4542
 2475SOL     OW19057   0.252   3.324   9.215  0.0929 -0.4118 -0.0212
 2475SOL    HW119058   0.254   3.254   9.280  1.7113 -1.1465 -0.8835
 2475SOL    HW219059   0.238   3.274   9.135 -0.0245 -0.2971 -0.0723
 2476SOL     OW19060   0.832   0.922   6.499 -0.2444 -0.2048 -0.2734
 2476SOL    HW119061   0.861   0.897   6.587 -2.9544 -0.5707  0.4988
 2476SOL    HW219062   0.915   0.938   6.454  1.2872 -0.9330  2.2957
 2477SOL     OW19063   4.605   2.284  15.764  0.0847 -0.3091 -0.1044
 2477SOL    HW119064   4.566   2.209  15.719 -0.2756 -0.2689  0.1410
 2477SOL    HW219065   4.529   2.342  15.756  1.2549  0.9886 -1.7991
 2478SOL     OW19066   3.244   4.581   1.330  0.0827  0.0459 -0.4100
 2478SOL    HW119067   3.203   4.559   1.246 -0.8873 -0.7923  0.2753
 2478SOL    HW219068   3.180   4.561   1.398 -0.9252  0.1806 -1.3251
 2479SOL     OW19069   1.703   4.002   1.940 -0.2651 -0.2620  0.1192
 2479SOL    HW119070   1.741   4.090   1.931  0.7295 -0.8027 -1.0340
 2479SOL    HW219071   1.753   3.948   1.878  0.8341  1.3996 -0.4509
 2480SOL     OW19072   4.632   3.341   5.120  0.2896  0.1931 -0.2235
 2480SOL    HW119073   4.582   3.263   5.145  1.0466 -0.4500 -0.7166
 2480SOL    HW219074   4.704   3.296   5.077 -0.1309 -0.8604  0.1717
 2481SOL     OW19075   0.607   1.383   3.017 -1.2436  0.0267  0.4098
 2481SOL    HW119076   0.693   1.341   3.019 -0.0961  2.3203 -0.9623
 2481SOL    HW219077   0.568   1.364   3.102 -0.0717 -0.1850  0.9071
 2482SOL     OW19078   0.237   2.560  10.434  0.6194  0.2188  0.8273
 2482SOL    HW119079   0.219   2.639  10.383  1.0385  0.6761  1.3856
 2482SOL    HW219080   0.307   2.584  10.495  1.7834 -0.5074 -0.2373
 2483SOL     OW19081   1.565   1.560   5.473 -0.9343 -0.0058 -0.1906
 2483SOL    HW119082   1.478   1.521   5.489 -0.8547  0.0354  0.3421
 2483SOL    HW219083   1.577   1.593   5.562 -1.4441  0.4141 -0.2752
 2484SOL     OW19084   3.745   0.717   1.353  0.3168 -0.1387 -0.1322
 2484SOL    HW119085   3.713   0.687   1.438  0.9421  0.5821  0.3550
 2484SOL    HW219086   3.809   0.784   1.377 -0.8571  0.9377  0.0133
 2485SOL     OW19087   2.828   2.626   9.293 -0.6799  0.6894  0.3192
 2485SOL    HW119088   2.802   2.713   9.261 -1.1864  0.1374 -0.7612
 2485SOL    HW219089   2.752   2.594   9.342  0.5297 -0.9641  1.0997
 2486SOL     OW19090   4.395   2.275   6.288 -0.0484  0.3065  0.0632
 2486SOL    HW119091   4.461   2.324   6.336 -0.6275  0.4456  0.7147
 2486SOL    HW219092   4.426   2.262   6.198  1.2084  1.2081  0.3685
 2487SOL     OW19093   3.776   0.242   6.287 -0.1340  0.5232  0.0000
 2487SOL    HW119094   3.795   0.303   6.358  2.5850 -0.8149  0.4139
 2487SOL    HW219095   3.809   0.158   6.320 -0.6889  0.2158 -0.2183
 2488SOL     OW19096   3.350   4.350   3.501 -0.0861 -0.1101  0.1082
 2488SOL    HW119097   3.427   4.333   3.447  0.7889 -1.6321  1.7988
 2488SOL    HW219098   3.390   4.343   3.588  0.9721  1.4280 -0.2607
 2489SOL     OW19099   3.859   4.709   9.638 -0.2817  0.3125 -0.3800
 2489SOL    HW119100   3.871   4.614   9.644  1.8408  0.6439  0.5032
 2489SOL    HW219101   3.864   0.008   9.727  1.2585 -0.6734 -0.0843
 2490SOL     OW19102   4.485   3.216   3.310 -0.0171 -0.2859 -0.1012
 2490SOL    HW119103   4.548   3.272   3.354  1.2359 -1.9593  0.2422
 2490SOL    HW219104   4.416   3.201   3.375 -1.0040 -0.9333 -1.2840
 2491SOL     OW19105   0.815   2.228   4.816 -0.1505  0.0695 -0.3242
 2491SOL    HW119106   0.881   2.161   4.832  0.8489  0.7418 -1.6132
 2491SOL    HW219107   0.777   2.233   4.904 -1.7036  0.6522 -1.0267
 2492SOL     OW19108   4.059   2.141  13.393  0.2234 -0.0614  0.0976
 2492SOL    HW119109   4.125   2.206  13.415  0.1641 -0.6098  1.8811
 2492SOL    HW219110   3.979   2.173  13.434 -1.4876 -1.4031 -2.2003
 2493SOL     OW19111   2.961   4.259   6.731  0.2751 -0.2917 -0.4867
 2493SOL    HW119112   2.877   4.214   6.724  0.1019 -0.2185  1.2159
 2493SOL    HW219113   2.933   4.347   6.705 -0.5800 -0.0602  1.2196
 2494SOL     OW19114   4.712   2.466   4.468  0.0510  0.4522 -0.1235
 2494SOL    HW119115   0.038   2.517   4.520 -0.9373  1.0159  0.4927
 2494SOL    HW219116   4.637   2.526   4.460 -1.2230 -1.1444 -0.2552
 2495SOL     OW19117   0.984   3.782   8.606 -0.3678  0.7358 -0.3158
 2495SOL    HW119118   0.921   3.811   8.672 -0.9324 -1.3713  0.0480
 2495SOL    HW219119   1.028   3.867   8.597  2.1599 -0.5927 -0.3142
 2496SOL     OW19120   4.064   3.920   9.967 -0.1064  0.3269 -0.3737
 2496SOL    HW119121   4.098   3.929  10.056  0.7741 -3.1349 -0.3830
 2496SOL    HW219122   4.082   4.002   9.921  2.1662  0.2406  0.3613
 2497SOL     OW19123   4.039   2.478  15.310 -0.2180 -0.0999 -0.5054
 2497SOL    HW119124   4.087   2.428  15.243  0.0632 -0.2037 -0.2262
 2497SOL    HW219125   4.108   2.524  15.358  2.0620 -1.5254 -2.4235
 2498SOL     OW19126   0.308   4.373  11.304 -1.0484 -0.2368 -0.2482
 2498SOL    HW119127   0.400   4.362  11.279 -0.3795 -2.9907  3.4308
 2498SOL    HW219128   0.316   4.466  11.325  0.5579 -0.4381  0.0540
 2499SOL     OW19129   1.991   3.370   8.274 -0.1666  0.0438  0.2425
 2499SOL    HW119130   2.056   3.363   8.343  0.5722  0.4623 -0.4154
 2499SOL    HW219131   1.917   3.330   8.320 -1.0116  2.3963  0.9247
 2500SOL     OW19132   1.334   1.766   4.016 -0.5535  0.2084 -0.0612
 2500SOL    HW119133   1.353   1.822   4.091 -0.7536  0.2217 -0.0210
 2500SOL    HW219134   1.317   1.679   4.053 -0.6924  0.3255  0.1462
 2501SOL     OW19135   3.211   1.782   4.482  0.2512 -0.0904  0.3713
 2501SOL    HW119136   3.197   1.843   4.554 -0.9326 -1.1021  0.9878
 2501SOL    HW219137   3.246   1.840   4.414  0.5705  0.4728  1.0151
 2502SOL     OW19138   4.556   2.703   6.524 -0.2581 -0.4401 -0.0477
 2502SOL    HW119139   4.585   2.790   6.551 -0.8572 -0.0006 -0.8121
 2502SOL    HW219140   4.480   2.701   6.581 -0.6933  1.8083 -0.5633
 2503SOL     OW19141   2.984   3.834  11.902  0.2281 -0.7884  0.0836
 2503SOL    HW119142   2.910   3.798  11.950  2.2311 -3.0702  1.4652
 2503SOL    HW219143   2.956   3.924  11.885  1.6669 -0.2593  0.4834
 2504SOL     OW19144   0.615   1.630   0.220 -0.0150 -0.1169  0.5364
 2504SOL    HW119145   0.556   1.633   0.295 -1.1519 -0.3176 -0.3491
 2504SOL    HW219146   0.662   1.713   0.231  0.0786 -0.0033 -0.7469
 2505SOL     OW19147   4.042   1.387   4.304 -0.3165  0.3129  0.1199
 2505SOL    HW119148   4.015   1.392   4.395 -2.7448  1.6637 -0.6720
 2505SOL    HW219149   3.953   1.395   4.270 -0.4653  3.5847  1.2773
 2506SOL     OW19150   3.217   2.420   8.097 -0.7333  0.0076  0.6009
 2506SOL    HW119151   3.152   2.358   8.131 -1.1904 -0.8509 -1.8219
 2506SOL    HW219152   3.296   2.367   8.103 -1.7165 -1.6203 -0.7839
 2507SOL     OW19153   2.171   0.722   9.722  0.5375  0.4172 -0.5984
 2507SOL    HW119154   2.175   0.783   9.649 -0.0314  1.3829  0.1830
 2507SOL    HW219155   2.128   0.775   9.790 -0.6327 -1.8715  0.4604
 2508SOL     OW19156   2.838   2.203   1.997  0.7341  0.4661 -0.2092
 2508SOL    HW119157   2.812   2.113   2.018  2.3546  0.5054  1.9005
 2508SOL    HW219158   2.909   2.177   1.938  0.7819 -0.8300  0.4043
 2509SOL     OW19159   3.005   1.984   3.398  0.2433  0.4334  0.2212
 2509SOL    HW119160   2.912   1.972   3.380  0.1650 -0.8361  1.5106
 2509SOL    HW219161   3.041   1.974   3.309 -0.9419 -0.2964 -0.1737
 2510SOL     OW19162   0.598   4.175   1.629  0.0725  0.1005  0.0626
 2510SOL    HW119163   0.620   4.183   1.536 -2.2256  0.6674 -0.4442
 2510SOL    HW219164   0.664   4.237   1.660 -2.2522  1.7482  1.7623
 2511SOL     OW19165   2.784   0.210   4.004 -0.5506 -0.1893 -0.2321
 2511SOL    HW119166   2.698   0.244   3.980  1.1826  5.0430  1.1434
 2511SOL    HW219167   2.761   0.143   4.069 -0.0176 -0.7615 -0.6364
 2512SOL     OW19168   4.238   3.668   1.253  0.1804  0.0295 -0.0114
 2512SOL    HW119169   4.333   3.655   1.245  0.1112  0.7927 -2.2467
 2512SOL    HW219170   4.200   3.591   1.212 -0.6429 -0.2247  1.2319
 2513SOL     OW19171   3.894   2.689  15.999 -0.1486  0.4481  0.7433
 2513SOL    HW119172   3.966   2.627  16.011 -0.3795  0.4318  2.0267
 2513SOL    HW219173   3.907   2.755  16.067 -0.5765 -1.6406  2.8497
 2514SOL     OW19174   3.599   0.754   3.686 -0.1213  0.1536  0.2552
 2514SOL    HW119175   3.575   0.804   3.764  1.0977 -1.3647  1.6133
 2514SOL    HW219176   3.519   0.768   3.635 -0.1535 -1.6043 -0.1687
 2515SOL     OW19177   2.388   3.380   7.232  0.1093  0.7614 -0.0880
 2515SOL    HW119178   2.454   3.326   7.275 -1.4496 -0.9413  0.1611
 2515SOL    HW219179   2.418   3.468   7.252 -0.3779  0.9693 -0.2865
 2516SOL     OW19180   2.757   3.616  10.450 -0.1135 -0.2982 -0.1908
 2516SOL    HW119181   2.781   3.533  10.408  2.3533  1.2616 -1.8709
 2516SOL    HW219182   2.698   3.588  10.520 -0.8397  0.3547 -0.5337
 2517SOL     OW19183   4.287   2.532   3.396 -0.6065 -0.2001  0.0495
 2517SOL    HW119184   4.320   2.601   3.338 -0.1047 -0.2762  0.2403
 2517SOL    HW219185   4.197   2.563   3.405 -0.6826 -0.4440  0.1347
 2518SOL     OW19186   4.703   1.722  17.616 -0.1043  0.3185  0.7335
 2518SOL    HW119187   4.700   1.817  17.609  1.4799  0.3026 -0.0018
 2518SOL    HW219188   0.062   1.713  17.624  0.0013  1.7758  1.0485
 2519SOL     OW19189   4.109   2.239   7.054 -0.2353 -0.1708  0.3456
 2519SOL    HW119190   4.077   2.222   7.143  0.2280 -0.4511  0.4619
 2519SOL    HW219191   4.081   2.327   7.030  1.2506  0.5180  1.1641
 2520SOL     OW19192   3.352   2.236   2.923 -0.0481  0.0850  0.5601
 2520SOL    HW119193   3.381   2.149   2.895 -4.2371 -0.4215 -2.1271
 2520SOL    HW219194   3.258   2.222   2.935 -0.2448 -1.1150 -2.3001
 2521SOL     OW19195   0.203   4.677   2.164  0.1086 -0.5276  0.1498
 2521SOL    HW119196   0.172   4.606   2.221  0.0056 -1.4000 -1.0012
 2521SOL    HW219197   0.146   4.665   2.089 -0.6753  0.6998  0.5490
 2522SOL     OW19198   4.442   4.434  17.599  0.0304  0.3207  0.0280
 2522SOL    HW119199   4.415   4.516  17.641  0.7252  1.1067 -1.0726
 2522SOL    HW219200   4.431   4.460  17.508 -1.3414 -0.6297 -0.0862
 2523SOL     OW19201   3.937   2.111  16.905 -0.5414  0.9808  0.2948
 2523SOL    HW119202   3.900   2.051  16.969 -1.8854  0.7627 -0.6908
 2523SOL    HW219203   3.886   2.086  16.828  0.3007  2.3503 -0.7155
 2524SOL     OW19204   0.236   3.663   2.747 -0.0509 -0.4688  0.4030
 2524SOL    HW119205   0.212   3.700   2.832 -0.0898  1.6277 -0.5141
 2524SOL    HW219206   0.277   3.579   2.767 -0.0376 -1.0039 -1.9690
 2525SOL     OW19207   2.222   3.718  14.727 -0.2115  0.1713  0.0388
 2525SOL    HW119208   2.221   3.628  14.694 -0.7761  0.3223 -0.3696
 2525SOL    HW219209   2.288   3.711  14.795 -0.3006 -2.1319 -0.1023
 2526SOL     OW19210   1.315   1.117   6.818  0.3148  0.3704 -0.8201
 2526SOL    HW119211   1.244   1.181   6.821 -0.3012 -0.4368  1.8703
 2526SOL    HW219212   1.296   1.045   6.758  2.7857 -0.2942 -0.7983
 2527SOL     OW19213   2.894   0.393   5.570 -0.1297  0.2303 -0.3932
 2527SOL    HW119214   2.957   0.331   5.533  1.2995  2.5692 -1.9342
 2527SOL    HW219215   2.956   0.442   5.624  0.4583 -2.5967  1.4704
 2528SOL     OW19216   4.586   3.598   9.845 -0.6958  0.3704 -0.3632
 2528SOL    HW119217   4.630   3.581   9.928  2.4169  1.4451 -1.7923
 2528SOL    HW219218   4.644   3.663   9.805 -1.0829 -0.7238 -2.6960
 2529SOL     OW19219   3.619   0.029   8.024 -0.3494 -0.3523 -0.4045
 2529SOL    HW119220   3.657   4.728   7.944 -2.4587  0.0537 -1.5904
 2529SOL    HW219221   3.647   0.120   8.031 -0.9701 -0.0783 -1.5298
 2530SOL     OW19222   2.122   3.479   6.895 -0.2202 -0.7672  0.2204
 2530SOL    HW119223   2.172   3.406   6.931  2.8291  1.6595  0.9467
 2530SOL    HW219224   2.038   3.454   6.934 -0.8196  1.8094  0.6242
 2531SOL     OW19225   1.334   3.808   9.018  0.7188  0.7980  0.0552
 2531SOL    HW119226   1.420   3.801   9.059  1.5457 -2.8262 -2.3404
 2531SOL    HW219227   1.314   3.718   8.992  0.6699 -0.2334  3.6377
 2532SOL     OW19228   3.366   0.626   1.890  0.1813  0.1512  0.2168
 2532SOL    HW119229   3.393   0.585   1.808  2.0840 -0.9941  1.4411
 2532SOL    HW219230   3.316   0.703   1.862  1.1903  0.7306  0.0190
 2533SOL     OW19231   2.120   0.984   5.315  0.3298  0.8568  0.2352
 2533SOL    HW119232   2.202   0.970   5.268 -1.1278 -0.2269 -1.9680
 2533SOL    HW219233   2.147   0.967   5.406  1.8573  1.9020 -0.0190
 2534SOL     OW19234   3.192   4.106   1.930  0.0706  0.0102  0.1108
 2534SOL    HW119235   3.181   4.011   1.938  0.0909  0.0480  0.5695
 2534SOL    HW219236   3.101   4.131   1.946 -0.8082 -1.2635 -2.8065
 2535SOL     OW19237   4.296   2.024   5.581  0.2376 -0.1537 -0.0742
 2535SOL    HW119238   4.305   1.931   5.604  0.9882 -0.0379  0.0803
 2535SOL    HW219239   4.293   2.068   5.666  0.6082  0.2898 -0.2955
 2536SOL     OW19240   3.755   2.960   7.875 -0.3815 -0.4383  0.4953
 2536SOL    HW119241   3.715   3.032   7.827  1.5186 -0.0699 -0.5283
 2536SOL    HW219242   3.772   2.991   7.964 -0.6988  0.5809  0.1953
 2537SOL     OW19243   0.056   2.153   4.835  0.5594  0.2724  0.3234
 2537SOL    HW119244   4.699   2.170   4.818  0.5882 -0.0843 -0.1994
 2537SOL    HW219245   0.081   2.221   4.898  1.1469  0.3952 -0.0427
 2538SOL     OW19246   4.308   2.301  15.446  0.2114 -0.0185 -0.1782
 2538SOL    HW119247   4.319   2.217  15.491  2.9714 -1.1745 -2.9541
 2538SOL    HW219248   4.316   2.270  15.355  1.7919  0.2384 -0.1228
 2539SOL     OW19249   3.384   3.642   1.557 -0.3321 -0.3004 -0.1192
 2539SOL    HW119250   3.333   3.682   1.627  2.6021  1.3900  1.0026
 2539SOL    HW219251   3.433   3.718   1.528 -0.5506  0.4401  1.4559
 2540SOL     OW19252   3.940   4.153   8.122 -0.3714  0.2227  0.5190
 2540SOL    HW119253   3.859   4.203   8.126 -0.5430  0.0781 -0.9212
 2540SOL    HW219254   4.004   4.217   8.089 -0.4720  0.4722  0.8086
 2541SOL     OW19255   0.556   2.550   5.268  0.3516  0.4326 -0.1965
 2541SOL    HW119256   0.605   2.551   5.351  0.2555  1.6475 -0.1442
 2541SOL    HW219257   0.547   2.456   5.252  0.3396  0.2227  1.0541
 2542SOL     OW19258   1.410   3.274   1.142 -0.0271  0.1294  0.0724
 2542SOL    HW119259   1.352   3.220   1.195 -0.0853  2.7577  2.6880
 2542SOL    HW219260   1.487   3.292   1.197  1.4333 -1.7975 -1.3371
 2543SOL     OW19261   0.257   3.370  10.137 -0.0928  0.1216  0.1315
 2543SOL    HW119262   0.275   3.314  10.061 -2.3228 -1.2284  0.5948
 2543SOL    HW219263   0.289   3.311  10.205 -0.6263 -1.5087 -1.0315
 2544SOL     OW19264   4.256   1.340  11.451 -0.4227 -0.2238  0.2737
 2544SOL    HW119265   4.232   1.402  11.382 -0.1062 -0.1937  0.1911
 2544SOL    HW219266   4.328   1.383  11.498 -0.1660 -0.1618 -0.1766
 2545SOL     OW19267   3.167   4.360   6.486  0.6254  0.6030  0.5042
 2545SOL    HW119268   3.079   4.381   6.516  1.4086  1.2201  2.3834
 2545SOL    HW219269   3.202   4.449   6.484  4.0071 -0.8084 -2.1676
 2546SOL     OW19270   2.326   1.295   8.163  0.5484  0.0923 -0.3373
 2546SOL    HW119271   2.306   1.202   8.171  1.6536 -0.2017 -0.9846
 2546SOL    HW219272   2.421   1.293   8.166  0.5333 -0.3959 -0.2482
 2547SOL     OW19273   3.624   1.675  14.673 -0.1456 -0.3045  0.2313
 2547SOL    HW119274   3.683   1.665  14.748  0.9133 -2.2382 -0.8532
 2547SOL    HW219275   3.670   1.626  14.604 -1.1077 -1.2345  0.2526
 2548SOL     OW19276   3.819   1.553   8.243  0.3295  0.5363  0.0440
 2548SOL    HW119277   3.756   1.546   8.315  2.2417  0.9829  1.7443
 2548SOL    HW219278   3.752   1.563   8.174 -0.4797  1.0643  0.9110
 2549SOL     OW19279   0.858   0.597  13.426  0.3078 -0.1494 -0.1699
 2549SOL    HW119280   0.896   0.673  13.469  0.4173  0.1290 -0.7527
 2549SOL    HW219281   0.856   0.630  13.336  1.6855  0.4078  0.0053
 2550SOL     OW19282   1.467   3.854   4.179 -0.2166  0.5222  0.4284
 2550SOL    HW119283   1.485   3.869   4.087 -0.5642 -1.8743 -0.0292
 2550SOL    HW219284   1.506   3.937   4.207 -0.6788  1.1912 -0.9502
 2551SOL     OW19285   0.832   3.038  13.666  0.7042 -0.3847 -0.2713
 2551SOL    HW119286   0.897   2.994  13.612 -0.8805 -1.5777 -1.2171
 2551SOL    HW219287   0.887   3.096  13.719 -0.0486  1.9476 -2.0088
 2552SOL     OW19288   2.961   3.736   8.245  0.2620 -0.5193 -0.6305
 2552SOL    HW119289   3.010   3.808   8.205  0.7739 -1.1222 -1.0890
 2552SOL    HW219290   3.025   3.683   8.292  1.4383  0.1487 -1.4525
 2553SOL     OW19291   3.846   3.123   9.054 -0.8582 -0.0807  0.0371
 2553SOL    HW119292   3.789   3.101   8.980 -0.7680 -3.4514  0.9775
 2553SOL    HW219293   3.802   3.206   9.074 -0.6499 -0.3212  1.5088
 2554SOL     OW19294   4.542   4.625  12.598  0.0459 -0.5563 -0.4700
 2554SOL    HW119295   4.504   4.564  12.535 -2.2280 -0.7385  1.0896
 2554SOL    HW219296   4.521   4.579  12.679 -0.5717  1.7434  0.6610
 2555SOL     OW19297   3.118   3.225   5.814 -0.3315 -0.5938 -0.2779
 2555SOL    HW119298   3.140   3.305   5.860 -0.7293  1.0397 -2.9036
 2555SOL    HW219299   3.145   3.157   5.876 -1.9596 -1.0837 -0.1060
 2556SOL     OW19300   3.613   2.604  13.188  0.5293 -0.0481  0.2022
 2556SOL    HW119301   3.619   2.649  13.272 -3.2259 -0.4988  0.7174
 2556SOL    HW219302   3.627   2.513  13.215  1.1370 -0.3522 -1.1308
 2557SOL     OW19303   3.051   0.209   5.458 -0.3738  0.6335 -0.4800
 2557SOL    HW119304   3.106   0.147   5.505 -1.1655  3.7307  4.5497
 2557SOL    HW219305   2.973   0.155   5.441  0.2575  0.0453 -1.5037
 2558SOL     OW19306   1.838   3.877   1.742  0.6553  0.2703  0.2207
 2558SOL    HW119307   1.796   3.836   1.667 -1.3415  2.2950  0.2328
 2558SOL    HW219308   1.864   3.806   1.801  0.1196 -1.8110 -2.0817
 2559SOL     OW19309   1.126   3.438   1.530 -0.0735 -0.1389 -0.2103
 2559SOL    HW119310   1.163   3.514   1.574  0.9032 -0.2268 -0.8758
 2559SOL    HW219311   1.202   3.384   1.508  1.4795  2.1489 -0.4268
 2560SOL     OW19312   3.981   2.427   5.904 -0.4008  0.3994  0.4362
 2560SOL    HW119313   4.033   2.442   5.983  0.2398  0.1879  0.0555
 2560SOL    HW219314   3.995   2.334   5.890  0.1162  0.7064 -1.1444
 2561SOL     OW19315   0.514   0.257   6.253  0.5021 -0.4781  0.9525
 2561SOL    HW119316   0.545   0.334   6.300  0.5797 -2.6765  4.4643
 2561SOL    HW219317   0.434   0.240   6.304 -0.0582 -1.4717 -0.2508
 2562SOL     OW19318   4.474   0.029  17.075 -0.0893 -0.0221 -0.3276
 2562SOL    HW119319   4.428   0.033  17.159  1.0460 -2.6839  0.4169
 2562SOL    HW219320   4.536   0.099  17.096  1.3315 -1.8526  1.5890
 2563SOL     OW19321   1.088   1.432  12.008 -0.0315  0.3694  0.4313
 2563SOL    HW119322   1.095   1.465  12.098  2.2604  0.6931  0.1429
 2563SOL    HW219323   0.995   1.413  12.004  0.2699 -0.7090 -1.0684
 2564SOL     OW19324   3.929   0.941   2.073  0.4732  0.6228 -0.1203
 2564SOL    HW119325   3.842   0.977   2.057  1.0388  2.2755  0.4974
 2564SOL    HW219326   3.966   1.023   2.041  0.8242  1.0607  1.3717
 2565SOL     OW19327   1.123   4.670   2.045  0.1928  0.3737  0.0910
 2565SOL    HW119328   1.158   4.626   1.967 -0.9960 -0.5157  0.0582
 2565SOL    HW219329   1.134   0.027   2.025  0.3773 -0.0769 -1.8992
 2566SOL     OW19330   1.646   4.161  17.625  0.0336  0.3629 -0.7691
 2566SOL    HW119331   1.724   4.217  17.622  0.3744 -0.2016 -2.3257
 2566SOL    HW219332   1.579   4.209  17.577 -0.1893  3.5523  2.7307
 2567SOL     OW19333   4.636   2.248   2.802 -0.4157 -0.2776 -0.1824
 2567SOL    HW119334   4.555   2.202   2.822 -1.3665  1.0076 -0.9847
 2567SOL    HW219335   4.680   2.165   2.787 -1.6050 -1.0669  0.7895
 2568SOL     OW19336   2.213   3.063   7.867  0.1758  0.8015 -0.1120
 2568SOL    HW119337   2.188   3.101   7.951 -0.8311 -0.6183  0.2330
 2568SOL    HW219338   2.124   3.048   7.836 -0.0056 -1.4738  1.4303
 2569SOL     OW19339   1.695   3.047   6.674 -0.3450 -0.1661  0.0351
 2569SOL    HW119340   1.657   2.971   6.718  0.7629 -1.3602 -1.0808
 2569SOL    HW219341   1.664   3.019   6.588  0.5302 -3.0674  0.6835
 2570SOL     OW19342   0.269   0.970   9.467 -0.1272 -0.4110 -0.1825
 2570SOL    HW119343   0.281   0.898   9.405  0.7769  0.6077 -1.1786
 2570SOL    HW219344   0.187   1.010   9.439 -0.0737 -0.2597 -0.1206
 2571SOL     OW19345   1.285   3.796   5.693  0.3899 -0.2115  0.0408
 2571SOL    HW119346   1.241   3.713   5.674 -2.2334  0.8701  1.3066
 2571SOL    HW219347   1.375   3.777   5.669  0.7900 -1.0809  2.2293
 2572SOL     OW19348   0.434   3.477  10.398  0.4018 -0.0705  0.3230
 2572SOL    HW119349   0.385   3.558  10.411 -0.7479 -0.6317 -0.5251
 2572SOL    HW219350   0.390   3.414  10.455 -0.6627  0.4422  0.0661
 2573SOL     OW19351   2.659   1.812   1.030  0.3432  0.2071 -0.1482
 2573SOL    HW119352   2.683   1.723   1.002  1.4582  0.2656  0.6372
 2573SOL    HW219353   2.605   1.832   0.953  1.2356  1.2468 -0.5115
 2574SOL     OW19354   1.090   2.203   0.259 -0.2401 -0.1398 -0.2894
 2574SOL    HW119355   1.136   2.162   0.186  0.5026  0.4084 -0.1192
 2574SOL    HW219356   1.164   2.250   0.296 -0.8748 -0.2872  1.1420
 2575SOL     OW19357   2.138   1.945   6.393  0.4694  0.1339 -0.7200
 2575SOL    HW119358   2.101   1.917   6.476  0.3726 -0.7452 -1.0557
 2575SOL    HW219359   2.072   2.007   6.363  0.6701  1.5126  1.6957
 2576SOL     OW19360   4.531   4.398   9.218 -0.3808  0.0881  0.3963
 2576SOL    HW119361   4.446   4.373   9.183 -0.8862 -0.8387  2.2817
 2576SOL    HW219362   4.508   4.460   9.288  0.9412  0.6727  0.3262
 2577SOL     OW19363   1.302   4.326  17.182 -0.6862 -0.9978 -0.6464
 2577SOL    HW119364   1.295   4.392  17.113 -1.7676  0.8545  1.2241
 2577SOL    HW219365   1.351   4.258  17.136 -2.1739 -1.9595 -0.8264
 2578SOL     OW19366   1.276   2.018   3.373  0.0356  0.2894  0.4053
 2578SOL    HW119367   1.306   2.026   3.464 -0.9105 -1.7365  0.8873
 2578SOL    HW219368   1.251   1.927   3.363  2.0065 -0.5096  2.5246
 2579SOL     OW19369   0.972   1.572  11.357 -0.4618  0.0865 -0.0079
 2579SOL    HW119370   1.038   1.553  11.290  0.0015 -1.3521  0.8743
 2579SOL    HW219371   0.893   1.558  11.304  0.0064 -0.5953 -0.5311
 2580SOL     OW19372   2.071   4.707   0.338 -0.5524 -0.4400 -0.2561
 2580SOL    HW119373   2.143   4.659   0.379  0.8077 -0.8830 -3.1631
 2580SOL    HW219374   2.129   0.029   0.289  0.7434 -3.6791 -2.5099
 2581SOL     OW19375   2.655   2.928   2.771  0.4711 -0.4217  0.0549
 2581SOL    HW119376   2.616   2.856   2.820  0.7263 -0.5688  0.0390
 2581SOL    HW219377   2.632   2.903   2.682  0.8493  0.6019 -0.3350
 2582SOL     OW19378   2.561   3.044  12.720 -0.1545 -0.1700 -0.4205
 2582SOL    HW119379   2.545   3.027  12.813 -0.8314  1.1433 -0.3028
 2582SOL    HW219380   2.479   3.086  12.694 -0.5656 -1.1880 -0.7773
 2583SOL     OW19381   2.290   3.078   0.379 -0.1332 -0.2182  0.0369
 2583SOL    HW119382   2.312   3.006   0.321  1.3470  0.0417  0.2774
 2583SOL    HW219383   2.195   3.071   0.371  0.1104 -0.6582 -2.3081
 2584SOL     OW19384   4.232   1.776   7.831  0.0656  0.3316  0.5933
 2584SOL    HW119385   4.273   1.725   7.762  0.1034 -0.6156  1.3255
 2584SOL    HW219386   4.154   1.802   7.783  1.5565  1.3386 -1.2711
 2585SOL     OW19387   0.611   3.698   4.060  0.2301  0.5730  0.2805
 2585SOL    HW119388   0.650   3.611   4.069 -1.6499 -0.5360 -2.1628
 2585SOL    HW219389   0.536   3.677   4.116  0.9239 -1.0944  0.5851
 2586SOL     OW19390   4.484   0.125   5.115 -0.1360 -0.2823 -0.1478
 2586SOL    HW119391   4.447   0.209   5.143  2.0146  0.0634  1.6797
 2586SOL    HW219392   4.574   0.144   5.087 -0.4573  0.5472 -0.6317
 2587SOL     OW19393   3.962   4.550   1.443 -0.2351 -0.3058  0.7430
 2587SOL    HW119394   3.942   4.512   1.528 -3.2916  0.5294  0.4074
 2587SOL    HW219395   4.022   4.620   1.469  0.0532  0.2723 -1.4339
 2588SOL     OW19396   3.992   4.305   4.721  0.1985  0.8075 -0.3304
 2588SOL    HW119397   4.058   4.299   4.790  0.0350 -0.0893 -0.2468
 2588SOL    HW219398   3.932   4.359   4.771 -1.0946 -0.6873 -0.2553
 2589SOL     OW19399   2.265   2.686   7.832 -0.9136  0.0143  0.2239
 2589SOL    HW119400   2.315   2.610   7.863 -1.5868 -0.9895 -1.1624
 2589SOL    HW219401   2.330   2.754   7.853 -0.9891 -1.0767  3.9394
 2590SOL     OW19402   3.276   2.843  13.667 -0.4604 -0.4433 -0.2111
 2590SOL    HW119403   3.218   2.909  13.630 -0.0989  1.2649  2.2477
 2590SOL    HW219404   3.223   2.821  13.744  3.2100 -0.7355  2.2457
 2591SOL     OW19405   3.007   3.346   2.784  0.1689 -0.1661 -0.6736
 2591SOL    HW119406   2.960   3.325   2.704 -0.1250 -1.8787 -0.0424
 2591SOL    HW219407   3.068   3.272   2.787 -0.3621 -0.6442 -1.7687
 2592SOL     OW19408   1.446   4.032   5.323  0.1205  0.6534  0.1055
 2592SOL    HW119409   1.402   4.045   5.408 -0.6637  2.1840 -0.5333
 2592SOL    HW219410   1.528   3.992   5.350  0.1407  1.6053  1.4522
 2593SOL     OW19411   4.285   4.175   2.689  0.0496  0.7313 -0.2238
 2593SOL    HW119412   4.272   4.083   2.664  3.3129 -0.7712  3.5746
 2593SOL    HW219413   4.343   4.207   2.620  0.9569  0.4040  0.3776
 2594SOL     OW19414   0.265   1.433   6.718 -0.0214 -0.0609 -0.3777
 2594SOL    HW119415   0.262   1.362   6.653 -1.1929 -0.5553  0.2282
 2594SOL    HW219416   0.339   1.397   6.768 -0.2902  0.0887  0.1286
 2595SOL     OW19417   1.404   1.614  13.179 -0.1647 -0.1670 -0.3586
 2595SOL    HW119418   1.322   1.566  13.191 -0.2381  0.6219  2.3455
 2595SOL    HW219419   1.462   1.547  13.144 -0.2634 -0.6552  0.4048
 2596SOL     OW19420   2.220   3.494   5.202  0.0230  0.1578  0.1153
 2596SOL    HW119421   2.305   3.519   5.239  0.5233  0.9122 -1.5093
 2596SOL    HW219422   2.246   3.496   5.110  0.4563  1.1575  0.2675
 2597SOL     OW19423   4.509   3.109   1.948 -0.0757 -0.4785  0.1547
 2597SOL    HW119424   4.573   3.061   1.895  1.5069  1.2746  0.4813
 2597SOL    HW219425   4.481   3.048   2.016 -0.7372  0.5129  0.7768
 2598SOL     OW19426   3.472   3.329   9.559  0.1901  0.4214 -0.2263
 2598SOL    HW119427   3.540   3.357   9.620  0.1391 -2.4265  1.0982
 2598SOL    HW219428   3.394   3.344   9.612 -0.0167 -0.2082 -0.3545
 2599SOL     OW19429   0.294   4.036   0.128 -0.2259  0.4021  0.0591
 2599SOL    HW119430   0.330   4.075   0.207 -1.7408  2.3637 -0.2215
 2599SOL    HW219431   0.226   3.979   0.161 -1.2599  1.5899 -0.0244
 2600SOL     OW19432   2.811   0.771  15.135 -0.1201  0.2170  0.2037
 2600SOL    HW119433   2.900   0.743  15.157 -0.3593  0.1808  1.1220
 2600SOL    HW219434   2.781   0.719  15.060  2.5714  1.5207 -1.7811
 2601SOL     OW19435   0.739   1.830   3.969 -0.1239 -0.7624  0.5767
 2601SOL    HW119436   0.820   1.822   3.920 -0.1842 -1.3652  0.5725
 2601SOL    HW219437   0.668   1.853   3.909  1.2694  1.2146 -0.3043
 2602SOL     OW19438   2.992   4.536   4.202 -0.2523 -0.3203 -0.3596
 2602SOL    HW119439   3.012   4.630   4.206  2.1997 -0.8249 -1.2945
 2602SOL    HW219440   2.917   4.515   4.259 -0.5753 -0.9610 -1.0264
 2603SOL     OW19441   4.469   3.607   5.123 -0.4996  0.4493 -0.2932
 2603SOL    HW119442   4.392   3.626   5.176 -1.6748 -0.8444 -1.5393
 2603SOL    HW219443   4.519   3.535   5.160  0.3082  0.7077 -0.8674
 2604SOL     OW19444   4.577   3.749   6.849 -0.0920 -0.3482 -0.4244
 2604SOL    HW119445   4.635   3.720   6.779 -0.1864  0.0627 -0.6668
 2604SOL    HW219446   4.626   3.820   6.890 -2.4448  1.9345 -1.5380
 2605SOL     OW19447   3.811   3.314   4.365 -0.7846  0.2553 -0.0842
 2605SOL    HW119448   3.853   3.324   4.451  0.8769 -1.4410 -0.7067
 2605SOL    HW219449   3.718   3.323   4.386 -0.7189  2.3871 -0.7176
 2606SOL     OW19450   2.962   1.322   1.995 -0.6039  0.5952 -0.1562
 2606SOL    HW119451   2.937   1.350   1.906  0.4268 -0.7713 -0.8704
 2606SOL    HW219452   2.931   1.395   2.048 -0.5735 -0.4234  1.2498
 2607SOL     OW19453   4.144   4.636   2.309 -0.0474 -0.2268 -0.2434
 2607SOL    HW119454   4.118   4.583   2.384 -2.1035  1.3955  0.1812
 2607SOL    HW219455   4.060   4.676   2.288  0.3310  0.5296 -0.2909
 2608SOL     OW19456   3.220   0.490   4.247  0.1024  0.0426 -0.4457
 2608SOL    HW119457   3.128   0.468   4.266 -0.5353  1.0876 -2.3207
 2608SOL    HW219458   3.265   0.423   4.298 -3.0106 -0.3022  1.8837
 2609SOL     OW19459   3.994   0.062  17.713  0.4465  0.1000  0.2080
 2609SOL    HW119460   4.070   0.105   0.010 -0.6969  0.1356  2.4241
 2609SOL    HW219461   3.962   0.021   0.051 -1.5214  0.9404 -0.1544
 2610SOL     OW19462   4.203   3.200   4.483 -0.1121  0.0052 -0.3279
 2610SOL    HW119463   4.255   3.120   4.476  0.5441  0.4855 -0.9685
 2610SOL    HW219464   4.118   3.171   4.516 -0.5216  0.2129 -1.1907
 2611SOL     OW19465   0.367   1.526   7.889 -0.6896  0.3541  0.1691
 2611SOL    HW119466   0.451   1.562   7.917 -0.3622  0.0356 -0.3919
 2611SOL    HW219467   0.354   1.562   7.801 -1.2553  1.3549  0.6621
 2612SOL     OW19468   1.294   1.282   5.125  0.3387 -0.0495 -0.5407
 2612SOL    HW119469   1.272   1.269   5.217  0.0150 -3.0182 -1.0551
 2612SOL    HW219470   1.230   1.345   5.092 -0.2471 -0.1168  0.4720
 2613SOL     OW19471   0.614   3.325   4.027 -0.5703  0.0396  0.1134
 2613SOL    HW119472   0.554   3.354   3.958  0.1714 -4.0927 -2.3046
 2613SOL    HW219473   0.591   3.235   4.050  0.3691  0.3858  2.4081
 2614SOL     OW19474   3.415   3.897   8.461 -0.0050 -0.1144 -0.1776
 2614SOL    HW119475   3.432   3.989   8.483  0.9644  0.0434 -1.6205
 2614SOL    HW219476   3.484   3.857   8.513 -1.0270 -0.0233  1.2672
 2615SOL     OW19477   2.894   0.431  15.745 -0.2031 -0.1967 -0.1435
 2615SOL    HW119478   2.919   0.374  15.673 -1.4951  0.6020 -1.2259
 2615SOL    HW219479   2.904   0.373  15.821 -1.4314 -0.4277 -0.1580
 2616SOL     OW19480   4.146   1.650   0.921 -0.3116  0.3794 -0.2092
 2616SOL    HW119481   4.174   1.640   0.830 -1.0042  2.7781 -0.6924
 2616SOL    HW219482   4.086   1.576   0.917 -0.3854  0.3433  1.7558
 2617SOL     OW19483   4.629   4.424   8.490 -0.2616 -0.5366 -0.0101
 2617SOL    HW119484   4.722   4.414   8.507  0.1182 -0.7967 -2.3503
 2617SOL    HW219485   4.635   4.428   8.395  0.7533  2.0589  0.1648
 2618SOL     OW19486   3.260   0.128  17.261  0.8057 -0.1526 -0.2675
 2618SOL    HW119487   3.213   0.098  17.183  1.1320 -2.3899  0.4072
 2618SOL    HW219488   3.191   0.149  17.323  1.3769 -1.9172  0.9362
 2619SOL     OW19489   3.983   3.933   5.239  0.0173  0.1292 -0.2737
 2619SOL    HW119490   4.076   3.909   5.243 -0.0855 -0.5407 -2.5311
 2619SOL    HW219491   3.980   4.000   5.308 -1.2553  0.8099 -1.0060
 2620SOL     OW19492   0.310   4.269  16.998 -0.0841 -0.1558  0.2667
 2620SOL    HW119493   0.355   4.237  16.920 -1.0265 -0.7655 -0.0324
 2620SOL    HW219494   0.309   4.193  17.057  0.7760 -0.4376 -0.0800
 2621SOL     OW19495   3.520   2.995   8.481 -0.8107 -0.3121 -0.4764
 2621SOL    HW119496   3.533   2.949   8.398  0.6712 -2.3314  0.8667
 2621SOL    HW219497   3.426   3.010   8.481 -0.9611 -1.3012  0.9961
 2622SOL     OW19498   2.492   4.187   4.243 -0.0705 -0.1280 -0.4497
 2622SOL    HW119499   2.554   4.187   4.316  0.0905  0.1799 -0.5868
 2622SOL    HW219500   2.415   4.205   4.296 -1.1748 -0.0100 -2.1025
 2623SOL     OW19501   1.678   3.624   9.041  0.0905  0.2251 -0.1035
 2623SOL    HW119502   1.751   3.677   9.010  0.0901  0.6156  0.5494
 2623SOL    HW219503   1.644   3.570   8.969 -1.8713  1.7361 -0.3305
 2624SOL     OW19504   2.732   3.922  10.500 -0.7032 -0.0694  0.0796
 2624SOL    HW119505   2.699   3.838  10.533  3.2898 -1.1036  1.4751
 2624SOL    HW219506   2.724   3.974  10.580 -1.4606 -2.4086  1.5079
 2625SOL     OW19507   2.361   3.357   1.448  0.5859  0.1554 -0.2426
 2625SOL    HW119508   2.365   3.261   1.441 -2.8705  0.0625 -0.9619
 2625SOL    HW219509   2.445   3.373   1.490  1.0367  0.8876 -1.4245
 2626SOL     OW19510   2.333   1.899   5.160  0.0527  0.5225  0.0366
 2626SOL    HW119511   2.298   1.824   5.113 -1.3597  1.9553 -1.2005
 2626SOL    HW219512   2.308   1.884   5.251  1.8063  2.8834  0.9169
 2627SOL     OW19513   1.454   2.461   6.338 -0.4290 -0.3549 -0.4729
 2627SOL    HW119514   1.417   2.520   6.272  1.2462  1.9667  0.6613
 2627SOL    HW219515   1.505   2.512   6.400  1.8310 -1.7748 -1.1603
 2628SOL     OW19516   4.516   3.596   2.314 -0.0163  0.0675 -0.0519
 2628SOL    HW119517   4.521   3.502   2.297 -2.9991  0.5454 -3.4212
 2628SOL    HW219518   4.513   3.627   2.223  0.3375 -0.0246 -0.0942
 2629SOL     OW19519   3.493   2.352   8.118 -0.0416  0.1334  0.0538
 2629SOL    HW119520   3.533   2.288   8.061  0.9532  0.2090  0.6760
 2629SOL    HW219521   3.526   2.324   8.204  2.0059  1.0285 -0.4443
 2630SOL     OW19522   1.146   0.741   0.477  0.1341  0.0650 -0.2474
 2630SOL    HW119523   1.055   0.730   0.450 -0.6663  1.7417  1.7487
 2630SOL    HW219524   1.179   0.788   0.401 -0.1816 -2.9843 -2.2815
 2631SOL     OW19525   4.575   2.963   2.990  0.3689  0.9138 -0.5983
 2631SOL    HW119526   4.646   2.998   3.043  0.1791 -0.4502  0.5768
 2631SOL    HW219527   4.601   2.874   2.966  0.2457  0.5513  0.6010
 2632SOL     OW19528   3.168   4.283   2.291 -0.0136 -0.5989 -0.3866
 2632SOL    HW119529   3.151   4.226   2.366  1.1249 -0.2517  0.1335
 2632SOL    HW219530   3.079   4.293   2.255  0.0789  0.0825 -0.4204
 2633SOL     OW19531   4.433   2.230  11.917 -0.4527 -0.1015  0.2399
 2633SOL    HW119532   4.447   2.290  11.843 -1.3594  2.3016  2.0157
 2633SOL    HW219533   4.523   2.208  11.940 -0.5356 -1.3459 -0.6742
 2634SOL     OW19534   0.306   0.930   2.989  0.1226 -0.2615  0.4304
 2634SOL    HW119535   0.347   1.001   3.037  1.7841 -0.4028 -0.7873
 2634SOL    HW219536   0.367   0.862   3.018 -0.4493 -1.2361 -0.6433
 2635SOL     OW19537   0.264   0.275   6.398 -0.6988 -0.1933 -0.5791
 2635SOL    HW119538   0.206   0.242   6.466 -0.6817 -3.7359 -2.3082
 2635SOL    HW219539   0.209   0.278   6.320 -0.9571  2.2926 -0.3310
 2636SOL     OW19540   0.924   1.434   2.368  0.0281  0.0236  0.0572
 2636SOL    HW119541   0.953   1.345   2.388  0.1736  0.3401  1.2484
 2636SOL    HW219542   1.008   1.480   2.368  0.3589 -0.5934 -1.1850
 2637SOL     OW19543   2.158   4.102   6.661  0.5554  0.3924  0.4578
 2637SOL    HW119544   2.235   4.140   6.618  1.0237 -1.3955 -0.2729
 2637SOL    HW219545   2.181   4.009   6.663 -0.1282  0.2364  0.9761
 2638SOL     OW19546   0.513   3.095  12.913  0.7199  0.4485 -0.3759
 2638SOL    HW119547   0.578   3.053  12.855  0.3961 -2.6568  1.5022
 2638SOL    HW219548   0.494   3.021  12.971 -1.8946  0.9420 -0.6367
 2639SOL     OW19549   0.725   4.349   4.099 -0.4770  0.0421  0.5126
 2639SOL    HW119550   0.666   4.310   4.036 -1.6313  0.5992  1.2485
 2639SOL    HW219551   0.809   4.338   4.055 -0.9588 -0.7892 -0.1868
 2640SOL     OW19552   1.687   0.556  13.450  0.4147  0.6783  0.0072
 2640SOL    HW119553   1.782   0.571  13.455  1.0511 -2.3576 -2.9601
 2640SOL    HW219554   1.676   0.514  13.535  2.1735 -0.0360 -0.1117
 2641SOL     OW19555   3.932   4.377   3.680  0.1493  0.3834  0.1356
 2641SOL    HW119556   3.957   4.380   3.588 -2.1331 -0.4279 -0.5082
 2641SOL    HW219557   4.019   4.376   3.722 -1.1380 -0.2155  2.8225
 2642SOL     OW19558   3.039   3.537  11.847  0.0814  0.4047  0.1943
 2642SOL    HW119559   3.099   3.600  11.806  1.6467 -0.2810  1.4367
 2642SOL    HW219560   3.079   3.549  11.933  1.2091  0.1412 -0.3047
 2643SOL     OW19561   3.502   0.372   5.971 -0.5086  0.0654 -0.5001
 2643SOL    HW119562   3.574   0.429   6.000 -0.6023 -0.1567  0.1747
 2643SOL    HW219563   3.523   0.340   5.883  0.1036 -0.1685 -0.2682
 2644SOL     OW19564   0.449   1.309   7.540 -0.5211  0.1960 -0.4867
 2644SOL    HW119565   0.477   1.378   7.601  0.4621 -0.2884 -0.3869
 2644SOL    HW219566   0.440   1.365   7.463 -1.2420  1.8181  0.7718
 2645SOL     OW19567   2.869   2.345   5.686 -0.6141 -0.6700 -0.4638
 2645SOL    HW119568   2.883   2.277   5.751  0.5952  0.4060  0.4083
 2645SOL    HW219569   2.883   2.421   5.742  1.2498 -0.1467 -1.6364
 2646SOL     OW19570   0.605   2.838   4.262 -0.0711 -0.3619  0.2050
 2646SOL    HW119571   0.604   2.748   4.229  2.1013 -0.6325  0.8679
 2646SOL    HW219572   0.535   2.872   4.207  1.1937  3.8063  1.1041
 2647SOL     OW19573   2.205   3.392   7.538  0.1970  0.0731 -0.4401
 2647SOL    HW119574   2.168   3.400   7.450  0.8188 -0.5706 -0.7615
 2647SOL    HW219575   2.255   3.311   7.527 -0.9386 -0.5455 -1.0828
 2648SOL     OW19576   2.778   0.219   8.783  0.0809 -0.4585  0.1089
 2648SOL    HW119577   2.741   0.143   8.827  0.5878 -1.9448 -2.0418
 2648SOL    HW219578   2.857   0.246   8.829  1.1153 -2.7738 -0.3453
 2649SOL     OW19579   1.769   0.599   7.807 -0.1773 -0.3386 -0.0307
 2649SOL    HW119580   1.749   0.508   7.830  0.9526 -0.5660  0.0652
 2649SOL    HW219581   1.691   0.644   7.839 -1.1602 -1.7288 -0.4877
 2650SOL     OW19582   0.459   1.459  15.865  0.5963  0.0394  0.0561
 2650SOL    HW119583   0.429   1.544  15.897 -1.1763 -0.5356 -0.0944
 2650SOL    HW219584   0.409   1.395  15.916 -0.2915 -0.4804 -1.4681
 2651SOL     OW19585   2.855   2.527   4.191 -0.4987  0.1358 -0.0779
 2651SOL    HW119586   2.778   2.531   4.248 -0.1803 -2.4390  0.5349
 2651SOL    HW219587   2.891   2.616   4.191  0.1332 -0.1219 -0.5053
 2652SOL     OW19588   2.842   4.561   4.560 -0.0261 -0.3412 -0.1417
 2652SOL    HW119589   2.814   4.559   4.468 -0.0536  1.7191 -0.1790
 2652SOL    HW219590   2.906   4.493   4.540  1.4030  0.9763 -0.0071
 2653SOL     OW19591   0.419   0.594   6.260  0.1730  0.1876 -0.5101
 2653SOL    HW119592   0.353   0.586   6.192 -0.6081 -0.2498  0.2993
 2653SOL    HW219593   0.371   0.573   6.340  0.6197 -1.2643 -0.6033
 2654SOL     OW19594   4.132   4.157   0.363  0.0092  0.3557  0.3414
 2654SOL    HW119595   4.164   4.067   0.358 -2.0139 -0.4439  1.3443
 2654SOL    HW219596   4.199   4.197   0.418 -0.0424 -1.1617  1.5073
 2655SOL     OW19597   0.173   4.563   6.053  0.6865  0.0111 -0.1757
 2655SOL    HW119598   0.264   4.535   6.064  1.5946  2.8940 -0.3663
 2655SOL    HW219599   0.123   4.498   6.103  1.3344  0.8624  1.5895
 2656SOL     OW19600   1.735   2.923  14.581  0.0179  0.3712 -0.7775
 2656SOL    HW119601   1.698   2.840  14.611  1.4938  0.2971  0.8487
 2656SOL    HW219602   1.826   2.895  14.574 -0.4804 -1.6576  0.7466
 2657SOL     OW19603   0.853   1.533  13.035  0.1034  0.0879 -0.1886
 2657SOL    HW119604   0.858   1.447  12.994 -0.0291  0.8598 -1.7890
 2657SOL    HW219605   0.822   1.504  13.121 -0.3025 -2.1634 -1.0884
 2658SOL     OW19606   0.875   0.278   2.461  0.4352  0.0094  0.1702
 2658SOL    HW119607   0.872   0.209   2.396  2.9362  1.3678 -1.3863
 2658SOL    HW219608   0.854   0.226   2.539  0.1898 -0.5552 -0.2733
 2659SOL     OW19609   4.519   3.895   8.062 -0.0797 -0.0345 -0.2583
 2659SOL    HW119610   4.429   3.915   8.038  0.9256  1.1247 -3.0395
 2659SOL    HW219611   4.551   3.983   8.043 -0.8953  0.1034 -0.9653
 2660SOL     OW19612   4.041   2.311   8.375  0.1119  0.4138  0.0695
 2660SOL    HW119613   4.012   2.312   8.284 -0.7056  2.6456  0.3538
 2660SOL    HW219614   3.970   2.370   8.403 -1.0795 -0.6057 -0.8455
 2661SOL     OW19615   0.922   4.566   5.453 -1.2909  0.0622 -0.2858
 2661SOL    HW119616   0.968   4.558   5.369 -0.5575  0.8418  0.0414
 2661SOL    HW219617   0.884   4.481   5.474 -0.5052  0.4124  2.4647
 2662SOL     OW19618   0.468   4.733   7.393  0.1068  0.0575  0.2349
 2662SOL    HW119619   0.407   0.012   7.320 -0.5171  0.8601  0.9162
 2662SOL    HW219620   0.542   0.054   7.372  0.9842 -1.3989 -0.5905
 2663SOL     OW19621   1.854   1.885  11.488  0.2753 -0.0370  0.2227
 2663SOL    HW119622   1.886   1.800  11.456  1.2179  0.6893 -0.7831
 2663SOL    HW219623   1.927   1.943  11.465 -1.2797  2.2721  1.2101
 2664SOL     OW19624   2.196   3.738   2.757 -0.5987  0.4429 -0.3130
 2664SOL    HW119625   2.204   3.807   2.691  0.3618  2.2618  1.6833
 2664SOL    HW219626   2.195   3.798   2.832  0.5887  0.0241  0.0392
 2665SOL     OW19627   0.463   1.150   5.004 -0.1857  0.8191 -0.3604
 2665SOL    HW119628   0.447   1.221   4.941  0.5467  1.9281  0.7128
 2665SOL    HW219629   0.383   1.099   4.986 -1.6381  3.2702 -0.8613
 2666SOL     OW19630   1.143   4.593   7.080  0.4449  0.6089  0.1127
 2666SOL    HW119631   1.237   4.575   7.078  0.8410  1.9656  4.4079
 2666SOL    HW219632   1.135   4.671   7.026  0.0805 -0.4776 -1.4026
 2667SOL     OW19633   2.273   2.776   2.299 -0.3028  0.3338  0.2523
 2667SOL    HW119634   2.310   2.842   2.241  0.8684 -0.7838 -0.2744
 2667SOL    HW219635   2.253   2.810   2.386 -2.9148  0.4004 -0.3675
 2668SOL     OW19636   0.941   1.421   2.806  0.0765 -0.6344 -0.3028
 2668SOL    HW119637   0.925   1.332   2.776 -0.9929 -1.5253  2.9442
 2668SOL    HW219638   1.029   1.439   2.772 -0.4828  0.5099 -1.1469
 2669SOL     OW19639   4.292   2.141  12.963 -0.1908  0.3376  0.0573
 2669SOL    HW119640   4.343   2.174  12.889  0.8852 -2.2355 -0.3191
 2669SOL    HW219641   4.205   2.120  12.930 -1.0694  3.4322  0.3428
 2670SOL     OW19642   3.210   2.935  14.194 -0.1052  0.1766 -0.3366
 2670SOL    HW119643   3.291   2.944  14.244 -0.5881 -1.7234  0.7924
 2670SOL    HW219644   3.235   2.962  14.105 -1.4209  1.4345 -0.3193
 2671SOL     OW19645   1.711   0.817   9.580 -0.0731 -0.2633 -0.5015
 2671SOL    HW119646   1.757   0.786   9.658  0.5878 -1.9980 -1.5547
 2671SOL    HW219647   1.706   0.734   9.532 -1.1270 -1.2893  1.4145
 2672SOL     OW19648   1.819   4.569   7.912 -0.9219  0.0782 -0.0164
 2672SOL    HW119649   1.799   4.639   7.974 -2.9339 -0.6175  0.1202
 2672SOL    HW219650   1.748   4.506   7.925  0.0570 -0.6343  1.7326
 2673SOL     OW19651   2.040   0.279   2.842 -0.5779  0.3128 -0.2498
 2673SOL    HW119652   2.050   0.234   2.758 -1.5989 -0.3416 -0.0139
 2673SOL    HW219653   1.945   0.269   2.844 -0.6583  1.7657  2.4117
 2674SOL     OW19654   4.288   3.948  17.443 -0.4999  0.8039 -0.5232
 2674SOL    HW119655   4.268   4.041  17.439 -1.9840  0.6352  3.4353
 2674SOL    HW219656   4.207   3.914  17.404  0.2569 -1.7300  0.1338
 2675SOL     OW19657   2.677   3.828   7.572 -0.5250  0.0583 -0.3528
 2675SOL    HW119658   2.618   3.788   7.509  0.5011 -0.2868 -1.0918
 2675SOL    HW219659   2.665   3.765   7.643  0.8241  0.1545 -0.0452
 2676SOL     OW19660   2.916   4.408  10.627  0.0323  0.6636 -0.4884
 2676SOL    HW119661   2.930   4.463  10.703 -0.3813  0.0477  0.0337
 2676SOL    HW219662   2.864   4.461  10.567 -0.0921  0.8756 -0.1927
 2677SOL     OW19663   3.065   3.395  16.764  0.4053  0.1925 -0.5466
 2677SOL    HW119664   3.048   3.336  16.837 -0.5625  1.8859  0.5858
 2677SOL    HW219665   3.057   3.473  16.818 -1.7001 -0.0152 -0.5681
 2678SOL     OW19666   0.814   0.822   5.068  0.2583  0.1521 -0.7671
 2678SOL    HW119667   0.773   0.868   4.995  1.1084 -0.0957 -1.3985
 2678SOL    HW219668   0.753   0.840   5.140  0.8756  0.8559 -0.4180
 2679SOL     OW19669   2.766   2.647  12.645  0.4735  0.0695  0.5554
 2679SOL    HW119670   2.786   2.562  12.606  0.5096 -0.7154  2.2722
 2679SOL    HW219671   2.797   2.642  12.736  0.7065  0.3906  0.4911
 2680SOL     OW19672   1.286   3.716   8.580  0.3389  0.5595  0.1787
 2680SOL    HW119673   1.333   3.789   8.540 -0.6659  1.8206  1.2637
 2680SOL    HW219674   1.224   3.769   8.632 -1.2281 -0.2366 -0.8880
 2681SOL     OW19675   0.371   2.021  13.487  0.2116  0.1014  0.3285
 2681SOL    HW119676   0.439   2.081  13.515  1.7050  0.3823 -3.9017
 2681SOL    HW219677   0.294   2.038  13.541 -0.0526 -1.9553  0.6094
 2682SOL     OW19678   3.951   3.316   8.619  0.0464 -0.4379 -0.2877
 2682SOL    HW119679   3.938   3.295   8.526  1.9316  2.8239 -1.2894
 2682SOL    HW219680   3.975   3.228   8.649 -1.5494 -0.5024  0.7850
 2683SOL     OW19681   3.875   1.120   8.007 -0.3340 -0.1474  0.3077
 2683SOL    HW119682   3.835   1.167   8.080 -0.5799  1.4623 -0.8728
 2683SOL    HW219683   3.798   1.072   7.977  0.0390  0.2390 -1.2598
 2684SOL     OW19684   4.035   1.702   4.873  0.2042  0.0234 -0.0671
 2684SOL    HW119685   4.052   1.709   4.779 -1.6890  2.2159 -0.2735
 2684SOL    HW219686   4.078   1.620   4.893  1.4216  0.1041 -2.4381
 2685SOL     OW19687   0.422   0.016   6.575  0.0944  0.1814 -0.2419
 2685SOL    HW119688   0.361   4.694   6.529  1.1409 -2.0193  1.1247
 2685SOL    HW219689   0.497   0.028   6.517  0.7754 -0.2182  0.5624
 2686SOL     OW19690   0.386   4.459   6.403  0.1395 -0.1512  0.0600
 2686SOL    HW119691   0.340   4.471   6.320 -2.8033 -1.2773  1.5411
 2686SOL    HW219692   0.316   4.464   6.468 -0.0792  2.3079 -0.3353
 2687SOL     OW19693   0.577   4.630  13.068  0.0516 -0.1872  0.1125
 2687SOL    HW119694   0.646   4.569  13.096 -0.7510 -1.4018 -0.5628
 2687SOL    HW219695   0.593   4.642  12.974  0.2792 -0.2883  0.1361
 2688SOL     OW19696   3.676   1.603   4.380 -0.4025 -0.2379 -0.3127
 2688SOL    HW119697   3.690   1.651   4.298 -1.6008 -1.0392 -0.9913
 2688SOL    HW219698   3.683   1.679   4.438 -3.3563 -0.4348  0.3100
 2689SOL     OW19699   2.765   0.826   2.829 -0.0165  0.1381  0.5934
 2689SOL    HW119700   2.838   0.887   2.816 -1.3832  1.5525 -0.5369
 2689SOL    HW219701   2.719   0.880   2.894  2.7765 -0.1360  2.8262
 2690SOL     OW19702   1.141   0.066   2.591  0.2191  0.1534  0.8130
 2690SOL    HW119703   1.057   0.023   2.578  0.8918 -0.3012 -2.1745
 2690SOL    HW219704   1.203   4.728   2.599  0.4986  0.1999 -0.8768
 2691SOL     OW19705   4.317   2.189   7.271  0.1662 -0.3683 -0.0922
 2691SOL    HW119706   4.288   2.278   7.253  0.2383 -0.0789  1.2703
 2691SOL    HW219707   4.407   2.216   7.285  0.0890 -0.9058  1.4035
 2692SOL     OW19708   0.071   0.334   0.034  0.3384  0.4269  0.2556
 2692SOL    HW119709   0.002   0.387  17.736 -0.6384 -0.3994  0.8495
 2692SOL    HW219710   0.078   0.346   0.129  0.2239  3.6807 -0.1533
 2693SOL     OW19711   2.015   0.806   6.265 -0.1857 -0.4694  0.7203
 2693SOL    HW119712   2.084   0.743   6.245 -0.2171 -0.4061  0.4017
 2693SOL    HW219713   1.993   0.848   6.182 -0.9729 -0.8205  0.7488
 2694SOL     OW19714   3.025   1.073   6.713 -0.3368  0.5421 -0.2033
 2694SOL    HW119715   3.008   1.000   6.773 -0.3135  0.0704 -0.7611
 2694SOL    HW219716   2.988   1.148   6.760 -3.0897 -1.4251  0.7805
 2695SOL     OW19717   1.809   3.425   8.068  0.8259 -0.6307  0.1861
 2695SOL    HW119718   1.879   3.393   8.125  0.5728 -0.8364  0.3803
 2695SOL    HW219719   1.854   3.483   8.006  1.4247 -1.0487  0.2278
 2696SOL     OW19720   4.352   4.167   8.774  0.1990  0.5543  0.2667
 2696SOL    HW119721   4.432   4.131   8.736 -0.1960 -4.0661  3.7690
 2696SOL    HW219722   4.289   4.137   8.708  1.0335 -1.4450  0.3710
 2697SOL     OW19723   3.914   1.659   9.294 -0.1065 -0.2134  0.7237
 2697SOL    HW119724   4.000   1.695   9.313  0.6090 -2.5410  1.9767
 2697SOL    HW219725   3.898   1.706   9.212 -2.3441  2.2068  2.5554
 2698SOL     OW19726   4.387   0.437   5.471  0.5120 -0.4083 -0.0884
 2698SOL    HW119727   4.295   0.410   5.472  0.6821 -1.0439 -1.4595
 2698SOL    HW219728   4.398   0.462   5.379  0.4996 -1.0216 -0.2556
 2699SOL     OW19729   3.477   0.248   8.289  0.0907 -0.0856 -0.2701
 2699SOL    HW119730   3.393   0.240   8.243  1.9679  0.2822 -3.7426
 2699SOL    HW219731   3.454   0.287   8.373  0.4306 -1.9680  0.6854
 2700SOL     OW19732   2.332   0.941   5.630 -0.3497  0.0481 -0.3218
 2700SOL    HW119733   2.353   0.953   5.537 -0.2195 -2.2414 -0.5868
 2700SOL    HW219734   2.243   0.908   5.635  0.1038 -1.2710 -1.1182
 2701SOL     OW19735   1.190   0.251  12.932 -0.1251  0.1295  0.4000
 2701SOL    HW119736   1.190   0.265  12.837 -1.5589  2.3660  0.7307
 2701SOL    HW219737   1.240   0.331  12.952 -1.0761  0.8832 -0.2686
 2702SOL     OW19738   1.011   2.712   7.351  0.1426 -0.3706 -0.4149
 2702SOL    HW119739   0.917   2.710   7.370  0.1092 -0.0640 -0.5463
 2702SOL    HW219740   1.037   2.620   7.346 -1.4617 -0.8189 -0.4848
 2703SOL     OW19741   3.124   2.463   3.797 -0.1338 -0.1087  0.9967
 2703SOL    HW119742   3.035   2.458   3.833 -0.1554  0.2722  0.9923
 2703SOL    HW219743   3.109   2.506   3.713 -0.0393 -0.8115  0.6200
 2704SOL     OW19744   1.387   0.195   1.224 -0.8806  0.1161  0.0112
 2704SOL    HW119745   1.332   0.273   1.227 -0.6413  0.2758  0.1978
 2704SOL    HW219746   1.386   0.172   1.131 -1.6599  0.7610 -0.1478
 2705SOL     OW19747   2.451   3.118   4.351  0.1939 -0.2402  0.3509
 2705SOL    HW119748   2.525   3.148   4.299  0.3435 -0.5278  0.3979
 2705SOL    HW219749   2.428   3.207   4.377 -0.8061 -0.5547  0.5682
 2706SOL     OW19750   2.526   3.332   2.916 -0.1230  0.6668 -0.2424
 2706SOL    HW119751   2.599   3.323   2.855  0.1812 -3.4339  0.7013
 2706SOL    HW219752   2.460   3.272   2.881  0.1623  0.0884  0.2220
 2707SOL     OW19753   3.043   2.940  12.010 -0.1565  0.5706 -0.0321
 2707SOL    HW119754   2.949   2.931  12.025 -0.1806  0.7125 -0.0937
 2707SOL    HW219755   3.058   3.031  11.984 -2.1495  0.2396 -2.3320
 2708SOL     OW19756   3.386   0.173  15.973 -0.0318  0.1504 -0.2613
 2708SOL    HW119757   3.448   0.197  16.042  0.3174 -1.2300 -0.0946
 2708SOL    HW219758   3.315   0.235  15.989 -1.8451 -2.0301  0.0037
 2709SOL     OW19759   2.586   0.770   5.682  0.1298  0.2098  0.0912
 2709SOL    HW119760   2.673   0.806   5.667 -0.5667  1.6976 -0.3147
 2709SOL    HW219761   2.540   0.846   5.646 -0.3794 -0.1504 -0.0196
 2710SOL     OW19762   3.322   1.329   9.722 -0.2179 -0.5545  0.2015
 2710SOL    HW119763   3.300   1.396   9.786  2.8867  0.7199 -0.0572
 2710SOL    HW219764   3.248   1.328   9.661  1.6592  1.5822 -2.1337
 2711SOL     OW19765   1.618   3.928  12.541 -0.5027 -0.0487  0.1536
 2711SOL    HW119766   1.713   3.936  12.538 -0.5899  1.6248  1.6995
 2711SOL    HW219767   1.598   3.906  12.450  0.4036  0.8174 -0.2538
 2712SOL     OW19768   4.023   0.747  12.331 -0.1592 -0.0243  0.1892
 2712SOL    HW119769   4.069   0.807  12.389 -0.5883  2.2033 -1.7407
 2712SOL    HW219770   4.093   0.698  12.288  0.3236  1.1008 -0.3011
 2713SOL     OW19771   3.503   4.517   3.726 -0.3291  0.1630  0.1806
 2713SOL    HW119772   3.592   4.541   3.751  0.6395  0.0387 -3.1713
 2713SOL    HW219773   3.456   4.499   3.807  0.2029  1.2387  0.7324
 2714SOL     OW19774   4.438   2.088   1.933  0.3006 -0.0473 -0.3778
 2714SOL    HW119775   4.491   2.115   2.008  1.2050 -2.0123 -0.2992
 2714SOL    HW219776   4.370   2.154   1.946  1.3802  0.9806  0.0784
 2715SOL     OW19777   2.464   3.674   8.954  0.2452 -0.0141  0.2891
 2715SOL    HW119778   2.445   3.581   8.939  1.0042 -0.4551  1.9708
 2715SOL    HW219779   2.557   3.684   8.934  0.3321 -1.4754 -0.0836
 2716SOL     OW19780   0.604   2.089   8.989  0.3338 -0.8615  0.0903
 2716SOL    HW119781   0.618   2.155   8.921 -1.2802 -1.7583 -1.1099
 2716SOL    HW219782   0.633   2.007   8.947 -1.6016 -1.1078 -0.7742
 2717SOL     OW19783   1.501   4.253  11.448  0.0168  0.3241 -0.0777
 2717SOL    HW119784   1.414   4.292  11.455  0.7121  2.3373 -2.4995
 2717SOL    HW219785   1.535   4.286  11.365  1.5863  0.2190  0.5147
 2718SOL     OW19786   3.439   1.118  16.380  0.7514  0.0592 -0.0518
 2718SOL    HW119787   3.486   1.184  16.431 -0.1813  0.6411  0.0616
 2718SOL    HW219788   3.453   1.042  16.438  0.1301 -1.0230 -1.3219
 2719SOL     OW19789   0.173   0.323   5.125 -0.2499  0.1020  0.3009
 2719SOL    HW119790   0.128   0.251   5.081  1.0884 -0.9494  0.6650
 2719SOL    HW219791   0.112   0.393   5.100 -2.0405 -1.9380 -0.9636
 2720SOL     OW19792   0.102   2.928   5.486 -0.3301 -0.0824 -0.3697
 2720SOL    HW119793   0.067   2.850   5.443 -0.0657  0.7942 -2.1711
 2720SOL    HW219794   0.186   2.901   5.524  0.4070  1.5015 -0.8737
 2721SOL     OW19795   1.232   1.113   4.451  0.0600 -0.4051 -0.6808
 2721SOL    HW119796   1.196   1.077   4.370  1.2204 -1.4514 -0.7258
 2721SOL    HW219797   1.211   1.045   4.515 -0.7634  2.2296  1.8728
 2722SOL     OW19798   1.687   3.395   8.606  0.2118 -0.0420 -0.5297
 2722SOL    HW119799   1.748   3.360   8.540  2.0402 -0.5099  1.4102
 2722SOL    HW219800   1.680   3.322   8.668  2.7119 -0.2942 -0.5402
 2723SOL     OW19801   0.127   1.907   8.241  0.0993  0.1089  0.6211
 2723SOL    HW119802   0.130   1.849   8.317 -0.1536 -0.2135  0.3888
 2723SOL    HW219803   0.048   1.872   8.198 -0.0122  0.2421  0.7159
 2724SOL     OW19804   1.467   2.286   9.068  0.6690 -0.2745  0.0517
 2724SOL    HW119805   1.387   2.291   9.120 -0.1189 -0.4565 -1.1365
 2724SOL    HW219806   1.529   2.279   9.140  1.7141  0.3129 -0.7952
 2725SOL     OW19807   0.032   1.954  11.553  0.3189 -0.2147  0.1234
 2725SOL    HW119808   4.694   2.014  11.547  0.6509 -0.0144 -1.9306
 2725SOL    HW219809   0.027   1.912  11.467 -0.0704  0.0041  0.0409
 2726SOL     OW19810   1.618   3.995  11.221 -0.4863 -0.1141  0.0368
 2726SOL    HW119811   1.591   3.939  11.148 -0.1007  0.9547 -0.9285
 2726SOL    HW219812   1.697   4.039  11.189 -1.7958  1.0449 -1.5731
 2727SOL     OW19813   1.772   3.109   4.430 -0.3975  0.2677  0.2217
 2727SOL    HW119814   1.801   3.078   4.344 -4.6914 -2.7193 -0.1681
 2727SOL    HW219815   1.851   3.140   4.473  0.5956  0.8556 -2.0076
 2728SOL     OW19816   2.508   1.954  16.085 -0.5258 -0.5287 -0.3016
 2728SOL    HW119817   2.530   2.030  16.139 -2.4628  1.7089 -2.6285
 2728SOL    HW219818   2.494   1.888  16.152  1.1290 -0.6764 -0.1011
 2729SOL     OW19819   0.699   0.244   4.781 -0.8630 -0.0900 -0.2483
 2729SOL    HW119820   0.675   0.236   4.688  0.3953  0.8216 -0.6477
 2729SOL    HW219821   0.612   0.248   4.820 -0.3315 -0.9773  1.0102
 2730SOL     OW19822   0.128   4.270  10.151 -0.0256 -0.8588 -0.8045
 2730SOL    HW119823   0.196   4.293  10.087  0.9663 -1.9271 -0.1487
 2730SOL    HW219824   0.044   4.291  10.111 -0.0278  1.1393  0.2669
 2731SOL     OW19825   2.190   1.994   7.075 -0.2561 -0.0093 -0.1892
 2731SOL    HW119826   2.096   2.000   7.057 -0.2280 -2.1363 -1.0483
 2731SOL    HW219827   2.207   1.922   7.013  0.6712  0.3817 -0.3967
 2732SOL     OW19828   1.312   4.568   3.546 -0.2456  0.3347 -0.0096
 2732SOL    HW119829   1.381   4.620   3.587  1.0532 -1.2589 -0.1722
 2732SOL    HW219830   1.270   4.536   3.625  1.3452  0.3130  0.8195
 2733SOL     OW19831   2.861   3.309  15.566  0.2614 -0.0383 -0.3323
 2733SOL    HW119832   2.780   3.353  15.592 -0.5525 -1.7963  0.1273
 2733SOL    HW219833   2.923   3.331  15.636 -1.1100  0.1872  0.8100
 2734SOL     OW19834   3.643   2.730  15.905 -0.0454  0.9259 -0.4660
 2734SOL    HW119835   3.680   2.703  15.821  2.0624  1.0738  0.4244
 2734SOL    HW219836   3.714   2.721  15.968 -0.1111  1.7285 -0.2831
 2735SOL     OW19837   2.812   0.966  11.499 -0.1154 -0.2812  0.2502
 2735SOL    HW119838   2.883   0.960  11.564 -2.6028 -0.2169  2.9798
 2735SOL    HW219839   2.737   0.965  11.558 -1.9386 -0.5872 -2.0758
 2736SOL     OW19840   4.204   2.605   6.896 -0.1856 -0.0656  0.2413
 2736SOL    HW119841   4.115   2.571   6.909  0.1772 -2.1035 -2.8527
 2736SOL    HW219842   4.253   2.543   6.950  0.2238  0.6410  0.6853
 2737SOL     OW19843   0.064   0.373  16.542 -0.4710 -0.1925 -0.0616
 2737SOL    HW119844   0.097   0.284  16.545  0.6502  0.3009  1.6832
 2737SOL    HW219845   0.144   0.421  16.563 -1.5283  1.0307  1.1614
 2738SOL     OW19846   2.447   1.090   6.641 -0.1968  0.5296  0.5325
 2738SOL    HW119847   2.409   1.055   6.721 -0.5425  1.3638  0.7319
 2738SOL    HW219848   2.542   1.077   6.650  0.4321  3.1157 -2.0986
 2739SOL     OW19849   4.043   0.161   7.035 -0.2211 -0.3668 -0.5552
 2739SOL    HW119850   4.112   0.225   7.053 -0.3471 -0.6863  1.1121
 2739SOL    HW219851   3.967   0.219   7.038  0.0711 -0.0792  1.1403
 2740SOL     OW19852   1.600   3.571   3.006  0.3897 -0.2343  0.0476
 2740SOL    HW119853   1.690   3.553   3.034  0.2874  1.4836  1.4469
 2740SOL    HW219854   1.614   3.639   2.940 -1.6417  0.5239  0.4130
 2741SOL     OW19855   1.984   3.153   7.349 -0.1686  0.2773 -0.2484
 2741SOL    HW119856   1.905   3.115   7.388  0.2275 -0.8679 -0.5638
 2741SOL    HW219857   2.050   3.098   7.390 -0.7637  1.0332  1.7867
 2742SOL     OW19858   1.731   4.597   2.802  0.4669  0.0058 -0.3730
 2742SOL    HW119859   1.802   4.658   2.780 -0.1254  0.2384 -1.6354
 2742SOL    HW219860   1.729   4.620   2.895 -0.7563 -0.2266 -0.3337
 2743SOL     OW19861   1.623   2.831   6.021 -0.4421  0.2683  0.4469
 2743SOL    HW119862   1.546   2.822   5.965 -0.3500 -0.5561  0.4595
 2743SOL    HW219863   1.662   2.907   5.977  1.2599 -1.0100 -0.2693
 2744SOL     OW19864   2.530   2.179   7.836 -0.0704 -0.2885  0.8408
 2744SOL    HW119865   2.570   2.258   7.797 -0.0828 -0.1135  1.1871
 2744SOL    HW219866   2.589   2.104   7.827 -0.0007 -0.0983 -0.3675
 2745SOL     OW19867   4.307   3.436  13.374  0.1830  0.4649  0.5641
 2745SOL    HW119868   4.376   3.500  13.355  1.1175 -0.7343 -0.0250
 2745SOL    HW219869   4.237   3.484  13.330 -0.1709  0.9543  1.6473
 2746SOL     OW19870   4.472   0.605   8.933 -0.4200 -0.6642  0.0831
 2746SOL    HW119871   4.376   0.605   8.938 -0.4873 -1.9413 -1.2392
 2746SOL    HW219872   4.484   0.512   8.951  0.7559 -0.4911  0.2090
 2747SOL     OW19873   1.599   3.471   3.862 -0.3291  0.3331  0.7139
 2747SOL    HW119874   1.516   3.511   3.889 -0.7277  0.4102 -0.5965
 2747SOL    HW219875   1.650   3.523   3.923 -0.1240 -1.3833  2.0010
 2748SOL     OW19876   2.577   4.256   0.937  0.5571  0.2663  0.2547
 2748SOL    HW119877   2.654   4.278   0.989  0.7538 -2.8517  1.2440
 2748SOL    HW219878   2.572   4.161   0.942  0.5436  0.1891 -1.1373
 2749SOL     OW19879   2.927   3.017   5.357  0.1601  0.4125  0.7431
 2749SOL    HW119880   2.876   3.015   5.439 -0.8790 -1.2746  0.0512
 2749SOL    HW219881   2.860   3.058   5.302 -1.3607 -0.8781  1.6271
 2750SOL     OW19882   3.087   2.682   3.955 -0.1516  0.4193 -0.2010
 2750SOL    HW119883   3.125   2.625   3.888 -2.5263 -0.9592 -0.3670
 2750SOL    HW219884   3.052   2.620   4.020 -0.6597 -0.0230 -0.8950
 2751SOL     OW19885   1.880   4.330   8.703  0.2119  0.6690  0.6331
 2751SOL    HW119886   1.966   4.328   8.660  0.0235 -0.0805  0.3005
 2751SOL    HW219887   1.836   4.381   8.635  1.9401  0.0603 -0.9353
 2752SOL     OW19888   2.466   0.485   7.499 -0.0606 -0.0705 -0.4894
 2752SOL    HW119889   2.513   0.569   7.497 -0.6532  0.2894  0.5817
 2752SOL    HW219890   2.532   0.426   7.535  1.1583  2.4434  1.4068
 2753SOL     OW19891   1.080   1.270  10.870 -0.1937 -0.7154 -0.1601
 2753SOL    HW119892   1.136   1.310  10.937 -0.3338  0.7393 -0.9151
 2753SOL    HW219893   1.119   1.183  10.862  0.4790 -0.3875 -0.4697
 2754SOL     OW19894   1.213   0.777   3.710 -0.6366 -0.5302  0.0620
 2754SOL    HW119895   1.171   0.726   3.780 -2.6914 -1.1921 -1.6833
 2754SOL    HW219896   1.184   0.726   3.635  0.1398  0.5293 -0.9689
 2755SOL     OW19897   2.376   3.779  14.412  0.1060 -0.0927 -0.2486
 2755SOL    HW119898   2.391   3.754  14.503 -0.1991 -0.3420 -0.2646
 2755SOL    HW219899   2.421   3.706  14.369 -0.9618 -0.5150 -0.6656
 2756SOL     OW19900   1.534   0.654  15.073 -0.1046  0.0184  0.4061
 2756SOL    HW119901   1.483   0.624  14.997  1.8375  0.2255 -0.9806
 2756SOL    HW219902   1.562   0.573  15.116 -0.4564 -0.6267 -0.5697
 2757SOL     OW19903   4.415   1.878   9.728  0.2213  1.5057  1.0008
 2757SOL    HW119904   4.465   1.826   9.791 -0.0409  0.3693  0.2816
 2757SOL    HW219905   4.465   1.863   9.648 -2.5487 -3.3437  0.1483
 2758SOL     OW19906   3.911   3.750   1.267 -0.2118  0.5237  0.5754
 2758SOL    HW119907   3.872   3.742   1.354 -3.1726  1.1507 -0.7042
 2758SOL    HW219908   3.935   3.661   1.239  0.3059  0.6790  0.5265
 2759SOL     OW19909   2.246   3.837   8.310 -0.2686  0.3509  0.3103
 2759SOL    HW119910   2.253   3.914   8.253  2.3193  0.7479  1.1518
 2759SOL    HW219911   2.196   3.783   8.250  0.1958 -0.1765  0.4023
 2760SOL     OW19912   4.619   3.225   3.705 -0.6317 -0.1140 -0.6600
 2760SOL    HW119913   4.604   3.309   3.748 -0.4442  0.3237 -1.4469
 2760SOL    HW219914   4.626   3.259   3.616  0.0771 -3.0284 -1.7205
 2761SOL     OW19915   1.770   0.322   9.652  0.1937  0.2919 -0.2017
 2761SOL    HW119916   1.703   0.325   9.584 -0.6785 -0.6153  0.6027
 2761SOL    HW219917   1.797   0.230   9.643 -0.1968  0.1842 -0.3030
 2762SOL     OW19918   1.585   4.016   6.367 -0.0301 -0.3028  0.0410
 2762SOL    HW119919   1.625   4.048   6.286 -2.6468 -0.1871 -1.1850
 2762SOL    HW219920   1.654   4.035   6.431  1.3546  0.9721 -1.8504
 2763SOL     OW19921   0.758   1.955   4.436  0.1642  0.3404 -0.3744
 2763SOL    HW119922   0.785   1.902   4.511  0.1100  1.8386  0.6902
 2763SOL    HW219923   0.781   2.045   4.457  0.7601 -0.0226  0.5590
 2764SOL     OW19924   3.100   4.328  17.669 -0.0250  0.2360 -0.8192
 2764SOL    HW119925   3.071   4.267  17.602  0.1026 -1.0867  0.3220
 2764SOL    HW219926   3.039   4.311  17.741  1.6317  1.0569  0.7824
 2765SOL     OW19927   0.659   0.555   9.210 -0.6848 -0.0824  0.1736
 2765SOL    HW119928   0.606   0.589   9.138 -0.1850 -0.0942 -0.2016
 2765SOL    HW219929   0.746   0.566   9.171 -1.4050 -1.0324 -1.7329
 2766SOL     OW19930   1.913   0.574   0.634  0.0866 -0.1600 -0.2575
 2766SOL    HW119931   1.947   0.657   0.669  0.6087  0.2059 -1.5998
 2766SOL    HW219932   1.892   0.528   0.715 -1.7727  0.2461 -0.5079
 2767SOL     OW19933   0.163   2.352   5.042  0.0518  0.5165  0.1301
 2767SOL    HW119934   0.196   2.356   5.132 -0.9917  0.6499  0.5102
 2767SOL    HW219935   0.095   2.420   5.038 -0.8813 -0.3605  0.9927
 2768SOL     OW19936   0.483   2.057   6.468  0.5966 -0.2251  0.2122
 2768SOL    HW119937   0.418   2.116   6.507 -0.0348  0.1320 -1.3786
 2768SOL    HW219938   0.425   1.982   6.454 -1.2933  1.6769 -2.1352
 2769SOL     OW19939   2.913   3.192   2.571 -0.3117  0.0885 -0.2349
 2769SOL    HW119940   2.989   3.201   2.514  1.0998 -1.1936  1.4614
 2769SOL    HW219941   2.929   3.101   2.596 -0.1411  0.1351 -0.1772
 2770SOL     OW19942   0.573   0.434   8.370  0.2881  0.1935 -0.6678
 2770SOL    HW119943   0.579   0.357   8.427 -2.5799  0.9472  0.6478
 2770SOL    HW219944   0.561   0.408   8.279 -0.3844  0.8605 -0.7689
 2771SOL     OW19945   0.073   0.437  11.961 -0.1619 -0.0690  0.7974
 2771SOL    HW119946   0.136   0.509  11.949 -0.7720  0.5114  1.0842
 2771SOL    HW219947   4.731   0.493  11.959  0.0760  0.2741  1.1958
 2772SOL     OW19948   3.355   2.260   0.008  0.4255 -0.3006  0.2377
 2772SOL    HW119949   3.321   2.305  17.672  0.3695 -0.7397  0.0120
 2772SOL    HW219950   3.402   2.184  17.715 -1.7027 -0.9019 -1.2736
 2773SOL     OW19951   3.072   1.941   2.609  0.1793  0.2801 -0.3689
 2773SOL    HW119952   3.056   1.907   2.521  1.5016 -0.4537 -0.3292
 2773SOL    HW219953   3.103   2.030   2.597  1.6882 -0.6576 -3.6049
 2774SOL     OW19954   4.121   1.653   4.600  0.0712  0.0337 -0.0925
 2774SOL    HW119955   4.133   1.733   4.548 -1.0036  0.0094 -0.3663
 2774SOL    HW219956   4.039   1.611   4.577  0.2356 -0.6267  0.5418
 2775SOL     OW19957   4.341   0.367   6.524  0.0095  0.6186  0.1259
 2775SOL    HW119958   4.343   0.281   6.482 -0.5634  0.7587 -0.1961
 2775SOL    HW219959   4.256   0.410   6.509  0.3997  0.7950 -1.6777
 2776SOL     OW19960   3.088   0.757   4.876 -0.0561 -0.4672  0.0671
 2776SOL    HW119961   3.002   0.721   4.898 -0.5509  2.0927  2.2236
 2776SOL    HW219962   3.063   0.828   4.818 -0.0670  0.7109  1.5274
 2777SOL     OW19963   2.616   2.895   6.141 -0.3077 -0.0226  0.1532
 2777SOL    HW119964   2.616   2.939   6.056 -1.9241 -0.0354  0.1477
 2777SOL    HW219965   2.620   2.966   6.206  0.9488 -0.9441  1.0750
 2778SOL     OW19966   0.993   2.236   8.549 -0.1261  0.5179 -0.4567
 2778SOL    HW119967   1.031   2.305   8.603 -0.0658  0.5261 -0.5086
 2778SOL    HW219968   1.047   2.228   8.470  1.5548  2.1892  0.5183
 2779SOL     OW19969   0.798   3.576  11.147  0.1925 -0.5721  0.3321
 2779SOL    HW119970   0.838   3.569  11.233 -0.7471  0.4273  0.8511
 2779SOL    HW219971   0.744   3.655  11.143 -1.7647 -1.9560 -0.9733
 2780SOL     OW19972   3.757   4.494   8.565 -0.5933  0.4035  0.4635
 2780SOL    HW119973   3.719   4.578   8.591 -1.3291 -0.1783  1.2923
 2780SOL    HW219974   3.828   4.531   8.514 -1.2035  1.6490  0.5073
 2781SOL     OW19975   2.613   1.519  10.866 -0.1578  0.2407 -0.5123
 2781SOL    HW119976   2.557   1.442  10.864 -0.1988  0.1875  3.3966
 2781SOL    HW219977   2.557   1.596  10.862  1.5659  1.5359  0.1215
 2782SOL     OW19978   4.518   1.015  16.374 -0.2696 -0.2294  0.0630
 2782SOL    HW119979   4.524   0.988  16.282 -0.2666 -1.7140  0.4902
 2782SOL    HW219980   4.434   1.060  16.384 -0.2989  0.3150 -2.5748
 2783SOL     OW19981   3.345   3.551  11.954 -0.2552 -0.1530 -0.3158
 2783SOL    HW119982   3.403   3.574  11.881  1.3485  2.6705  1.8709
 2783SOL    HW219983   3.392   3.579  12.032 -1.6022  0.9960  0.0793
 2784SOL     OW19984   0.725   0.703  13.156  0.2078 -0.7524 -0.1632
 2784SOL    HW119985   0.793   0.746  13.104 -0.7541  0.9147 -0.0304
 2784SOL    HW219986   0.729   0.615  13.117  3.3441 -0.6530 -0.1052
 2785SOL     OW19987   3.299   2.032   9.512 -0.4284  0.4331 -0.3535
 2785SOL    HW119988   3.358   1.977   9.564  1.4457  3.0467  0.2482
 2785SOL    HW219989   3.365   2.082   9.464 -0.9987 -0.3510 -1.9550
 2786SOL     OW19990   1.580   3.679   9.293  0.2020  0.1745  0.0466
 2786SOL    HW119991   1.602   3.643   9.207 -1.2502  1.2204 -0.7672
 2786SOL    HW219992   1.590   3.771   9.268 -2.1372  0.4715  0.1750
 2787SOL     OW19993   4.502   3.130   7.844 -0.0285  0.5885 -0.1162
 2787SOL    HW119994   4.571   3.195   7.829 -2.3928  2.9546 -0.6213
 2787SOL    HW219995   4.422   3.174   7.817 -1.2497 -1.7244 -0.2198
 2788SOL     OW19996   4.154   2.687   2.311  0.6125  0.1339 -0.4356
 2788SOL    HW119997   4.111   2.602   2.300 -1.7298  1.0866  1.3649
 2788SOL    HW219998   4.211   2.674   2.387 -1.3259  1.7373  1.3063
 2789SOL     OW19999   0.732   2.062   6.920 -0.0798  0.3155 -0.4381
 2789SOL    HW120000   0.655   2.049   6.864 -0.9646  1.3074  0.5605
 2789SOL    HW220001   0.803   2.040   6.859 -0.0906  0.1716 -0.3980
 2790SOL     OW20002   0.632   2.921  13.536  1.0640 -0.9067 -0.0287
 2790SOL    HW120003   0.698   2.969  13.586  0.2940  0.1796 -0.0406
 2790SOL    HW220004   0.596   2.867  13.606 -1.5515 -0.4591 -1.0213
 2791SOL     OW20005   2.843   1.452   7.763  0.1971  0.2439 -0.4473
 2791SOL    HW120006   2.838   1.367   7.719  0.0623 -0.5676  1.1131
 2791SOL    HW220007   2.788   1.503   7.704 -0.8674 -1.4099 -0.8874
 2792SOL     OW20008   3.059   0.341  15.170 -0.0239 -0.6720  0.3003
 2792SOL    HW120009   3.047   0.315  15.078  0.8114  0.3127 -0.0887
 2792SOL    HW220010   3.131   0.402  15.152 -1.4892  1.3957  1.4511
 2793SOL     OW20011   0.759   0.202   5.589 -0.6367  0.2249  0.9491
 2793SOL    HW120012   0.761   0.123   5.535 -0.8003  0.5392  0.4896
 2793SOL    HW220013   0.757   0.166   5.678 -1.2973 -0.7841  0.5252
 2794SOL     OW20014   3.633   0.987   7.608  0.4587 -0.4574  0.1231
 2794SOL    HW120015   3.709   1.014   7.556 -0.8973  0.3931 -1.3890
 2794SOL    HW220016   3.655   0.896   7.631 -1.1454 -1.1143 -0.9535
 2795SOL     OW20017   0.618   2.596   4.136  0.7055  0.3189 -0.1075
 2795SOL    HW120018   0.687   2.537   4.106 -0.0692 -0.6775  0.1105
 2795SOL    HW220019   0.544   2.555   4.092  1.3728  0.8020 -1.6717
 2796SOL     OW20020   0.968   0.391  13.523  0.8483  0.0668  0.5343
 2796SOL    HW120021   0.947   0.469  13.471  2.4446 -0.4530 -0.8943
 2796SOL    HW220022   1.064   0.389  13.515  0.6062 -0.4748 -2.2605
 2797SOL     OW20023   1.265   1.263   2.460 -0.1937 -0.5393 -0.2032
 2797SOL    HW120024   1.173   1.259   2.434 -0.0458  0.4310 -0.8660
 2797SOL    HW220025   1.289   1.196   2.397 -1.2719  1.7601 -3.0323
 2798SOL     OW20026   4.227   1.943   2.450 -0.2422  0.3137  0.2123
 2798SOL    HW120027   4.217   1.958   2.356  0.4669  1.3307  0.3039
 2798SOL    HW220028   4.227   1.847   2.448 -1.9526  0.2815  1.6860
 2799SOL     OW20029   0.183   2.107   2.584  0.2277  0.4241  0.3570
 2799SOL    HW120030   0.122   2.180   2.573  0.8785  0.6767 -1.4794
 2799SOL    HW220031   0.126   2.049   2.634  0.2671  0.8562  0.8968
 2800SOL     OW20032   3.565   2.582  16.632  0.5985 -0.6161  0.0036
 2800SOL    HW120033   3.523   2.583  16.546 -1.0397  0.5696  0.8103
 2800SOL    HW220034   3.578   2.676  16.644 -3.1798 -0.2754  1.5943
 2801SOL     OW20035   2.643   0.594   0.857  0.2852 -0.1800  0.6181
 2801SOL    HW120036   2.624   0.513   0.906 -0.2768 -0.6935 -0.4351
 2801SOL    HW220037   2.562   0.634   0.826  1.0620  0.5363 -0.4495
 2802SOL     OW20038   1.278   0.096  15.081  0.1355  0.1104 -0.4171
 2802SOL    HW120039   1.327   0.157  15.027  0.7005  1.1729  1.3075
 2802SOL    HW220040   1.195   0.142  15.089 -1.1586 -2.0793 -1.0676
 2803SOL     OW20041   1.379   0.909   2.215 -0.2409 -0.8734 -0.3955
 2803SOL    HW120042   1.315   0.903   2.144 -0.8904  1.7433 -0.0187
 2803SOL    HW220043   1.391   0.814   2.225 -0.0360 -0.7043  0.9333
 2804SOL     OW20044   0.897   0.645   3.183  0.0161  0.0836 -0.1738
 2804SOL    HW120045   0.845   0.663   3.261  0.8705 -0.4519  0.5231
 2804SOL    HW220046   0.978   0.603   3.212 -1.2686 -1.4970  1.1073
 2805SOL     OW20047   3.330   2.660  12.231  0.1543  0.3550 -0.6200
 2805SOL    HW120048   3.382   2.655  12.151  1.9537  0.0932  0.5716
 2805SOL    HW220049   3.259   2.599  12.208  0.0701 -0.5965  2.1134
 2806SOL     OW20050   4.478   1.354   2.906  0.3066  0.3832  0.1775
 2806SOL    HW120051   4.505   1.262   2.911 -0.9363 -0.0154 -0.5794
 2806SOL    HW220052   4.460   1.366   2.999  0.7653 -1.1559  0.4656
 2807SOL     OW20053   2.043   4.241   4.699 -0.0340  0.2658  0.4236
 2807SOL    HW120054   2.120   4.289   4.670 -0.1198 -0.3968 -0.9016
 2807SOL    HW220055   2.082   4.154   4.689  1.3075  0.9706 -0.4844
 2808SOL     OW20056   0.140   3.963   5.673  0.1951 -0.0741  0.2316
 2808SOL    HW120057   0.091   4.043   5.692 -1.4774 -1.2553  0.8233
 2808SOL    HW220058   0.146   3.922   5.759 -0.6333 -0.5232  0.0675
 2809SOL     OW20059   3.662   4.318   7.209  0.2110 -0.4501  0.0192
 2809SOL    HW120060   3.660   4.275   7.123 -0.2110  0.1245 -0.2567
 2809SOL    HW220061   3.624   4.253   7.269  2.4469 -2.1373 -0.3713
 2810SOL     OW20062   3.511   3.818   3.017  0.4159 -0.2173 -0.0381
 2810SOL    HW120063   3.422   3.850   3.027  0.6845  0.6661 -0.4065
 2810SOL    HW220064   3.510   3.771   2.934  0.3883 -2.2066  1.1081
 2811SOL     OW20065   1.725   2.390   3.163  0.1312 -0.0812  0.1490
 2811SOL    HW120066   1.686   2.344   3.089  2.1549 -0.1972 -0.8391
 2811SOL    HW220067   1.651   2.434   3.204  0.9616  1.6257 -0.1859
 2812SOL     OW20068   1.501   3.841   1.798  0.2677  0.3872  0.2577
 2812SOL    HW120069   1.474   3.754   1.828 -1.0215 -0.3878 -3.1500
 2812SOL    HW220070   1.551   3.869   1.875  0.3341 -0.5008  0.5342
 2813SOL     OW20071   2.145   3.678   3.184  0.1368 -0.0324 -0.0594
 2813SOL    HW120072   2.168   3.740   3.114 -2.1739  0.0937 -0.7006
 2813SOL    HW220073   2.222   3.704   3.236 -0.7881 -1.7187  2.1196
 2814SOL     OW20074   4.034   3.094   7.521 -0.2076 -0.1048 -0.0875
 2814SOL    HW120075   4.039   3.105   7.426 -0.3505 -0.3400 -0.1229
 2814SOL    HW220076   4.116   3.133   7.549 -0.6626  0.2600  0.7311
 2815SOL     OW20077   4.463   0.294  14.970  0.8068 -0.2379  0.1967
 2815SOL    HW120078   4.501   0.352  14.904 -2.1242  2.4712  0.9068
 2815SOL    HW220079   4.421   0.356  15.029 -0.6201 -0.9659 -0.0533
 2816SOL     OW20080   3.013   3.044   6.634 -0.0823  0.0529 -0.1389
 2816SOL    HW120081   3.079   3.002   6.579  0.1980  1.7225 -1.0541
 2816SOL    HW220082   2.941   2.982   6.621 -0.4458  0.6995 -1.2383
 2817SOL     OW20083   4.267   0.515   8.561 -0.0824 -0.2584 -0.1809
 2817SOL    HW120084   4.197   0.528   8.625  0.4982  2.7623 -0.1641
 2817SOL    HW220085   4.289   0.607   8.546 -0.6532 -0.1250 -0.1908
 2818SOL     OW20086   2.215   0.314   6.737  0.9659 -0.3290  0.3971
 2818SOL    HW120087   2.193   0.407   6.725  1.6410 -0.2065  0.0842
 2818SOL    HW220088   2.141   0.300   6.797 -0.1193  0.4610 -0.7499
 2819SOL     OW20089   3.514   1.928  10.910  0.8737  0.3182  0.2217
 2819SOL    HW120090   3.542   1.898  10.823 -1.7449 -3.3218  0.6073
 2819SOL    HW220091   3.556   1.862  10.966  0.6859  0.3941  0.4520
 2820SOL     OW20092   1.407   3.472   9.346  0.2442 -0.0559 -0.0217
 2820SOL    HW120093   1.466   3.547   9.353  1.9690 -1.2852 -1.3622
 2820SOL    HW220094   1.450   3.402   9.395 -0.6778 -2.3900 -2.4915
 2821SOL     OW20095   1.360   2.525  13.995 -1.3189 -0.2809 -0.1965
 2821SOL    HW120096   1.265   2.523  13.979 -1.2575 -0.0982 -0.6040
 2821SOL    HW220097   1.376   2.439  13.954 -0.1801 -0.1090 -0.0898
 2822SOL     OW20098   0.782   1.564   9.855  0.4921  0.4973 -0.8706
 2822SOL    HW120099   0.811   1.552   9.945 -0.9469 -1.0334 -0.6070
 2822SOL    HW220100   0.818   1.487   9.810  2.3673  0.0986  1.2957
 2823SOL     OW20101   3.840   1.404  17.709  0.0850  0.3051 -0.1333
 2823SOL    HW120102   3.926   1.446  17.719  0.6933 -0.8954 -0.2751
 2823SOL    HW220103   3.782   1.473  17.739  1.7440  2.8545 -2.7645
 2824SOL     OW20104   0.257   3.751   7.553  0.5601  0.0963  0.3614
 2824SOL    HW120105   0.263   3.744   7.648  1.7496  0.4594  0.3137
 2824SOL    HW220106   0.305   3.829   7.526  1.4498 -0.6674 -0.2732
 2825SOL     OW20107   4.711   0.521   6.512  0.0789 -0.5167  0.5142
 2825SOL    HW120108   4.652   0.476   6.451  0.4291  0.0424 -0.2364
 2825SOL    HW220109   0.025   0.457   6.564  1.2961  1.3631  1.6612
 2826SOL     OW20110   2.774   3.213   6.663 -0.6915  0.4559  0.1011
 2826SOL    HW120111   2.751   3.290   6.715  0.3050 -1.4498  3.3189
 2826SOL    HW220112   2.860   3.231   6.625  0.1519 -0.8641  1.3789
 2827SOL     OW20113   0.755   0.276  10.387 -0.0477  0.0546 -0.5039
 2827SOL    HW120114   0.673   0.320  10.362  0.3061  0.6767 -0.5819
 2827SOL    HW220115   0.718   0.189  10.398 -0.0293  0.1791  0.5006
 2828SOL     OW20116   0.114   2.613   6.436  0.4609  0.3309  0.7395
 2828SOL    HW120117   0.087   2.667   6.362  2.1158 -1.9472 -1.5040
 2828SOL    HW220118   0.122   2.531   6.388  0.2108  0.9901 -0.4215
 2829SOL     OW20119   2.865   4.114   7.804 -0.0333  0.0117  0.2829
 2829SOL    HW120120   2.885   4.072   7.720 -0.0486 -0.9519  0.7546
 2829SOL    HW220121   2.869   4.041   7.866  0.5493  1.3325  1.7849
 2830SOL     OW20122   0.152   4.448   7.790 -0.2946  0.2153  0.4960
 2830SOL    HW120123   0.191   4.489   7.713  1.8180 -1.8563  0.4801
 2830SOL    HW220124   0.180   4.357   7.779  0.0579  0.3506  0.2632
 2831SOL     OW20125   4.086   1.012   5.331  0.0320  0.3952  0.1317
 2831SOL    HW120126   4.014   1.014   5.393 -0.8495  0.7343 -0.8984
 2831SOL    HW220127   4.059   0.945   5.268 -0.3140  1.8392 -1.2564
 2832SOL     OW20128   1.496   0.872   4.736 -0.0623 -0.2180 -0.1150
 2832SOL    HW120129   1.409   0.835   4.748  0.4085 -1.4624 -0.5496
 2832SOL    HW220130   1.557   0.824   4.792 -0.6116 -0.1039  0.5800
 2833SOL     OW20131   4.360   0.677   4.747 -0.0139  0.0896 -0.0233
 2833SOL    HW120132   4.334   0.763   4.713  1.6816 -0.4377 -2.6801
 2833SOL    HW220133   4.281   0.628   4.726 -0.4172  0.7181  0.0362
 2834SOL     OW20134   0.537   2.990   2.446  0.4527  0.7663 -0.2850
 2834SOL    HW120135   0.465   2.981   2.508  0.4345  1.9351 -0.1212
 2834SOL    HW220136   0.606   3.031   2.498  0.0948  1.0682 -0.0485
 2835SOL     OW20137   0.094   0.970   9.208 -0.1965  0.4400  1.0439
 2835SOL    HW120138   0.117   0.880   9.229 -0.9561  0.1482  0.5974
 2835SOL    HW220139   0.019   0.963   9.148  0.4428 -2.4592  0.5974
 2836SOL     OW20140   2.435   0.402   5.751 -0.2105  0.0498  0.7904
 2836SOL    HW120141   2.352   0.362   5.776  0.2232 -1.3044  0.0298
 2836SOL    HW220142   2.418   0.494   5.772  0.9634  0.2357  0.9753
 2837SOL     OW20143   4.411   0.002   7.883 -0.5220 -0.7129 -0.0456
 2837SOL    HW120144   4.476   0.027   7.817  0.9225 -2.3043  0.7596
 2837SOL    HW220145   4.424   0.075   7.943  1.2644 -0.9083 -0.1794
 2838SOL     OW20146   4.427   0.428   7.116  0.2575 -0.3576 -0.3593
 2838SOL    HW120147   4.429   0.442   7.021  0.8611  0.2235 -0.2657
 2838SOL    HW220148   4.408   0.516   7.148  1.0154 -0.6036  0.7338
 2839SOL     OW20149   4.648   4.515  13.590 -0.7125 -0.3842  0.3406
 2839SOL    HW120150   4.646   4.552  13.678  1.7099  0.5587  0.0004
 2839SOL    HW220151   4.614   4.430  13.618 -0.2598 -1.0768 -1.1824
 2840SOL     OW20152   4.634   0.592   5.847 -0.3324  0.3416 -0.2469
 2840SOL    HW120153   4.693   0.521   5.872 -1.1093 -0.2159  0.0050
 2840SOL    HW220154   4.605   0.555   5.764  2.4318  1.1149 -1.5506
 2841SOL     OW20155   0.725   3.285  11.986  0.3715  0.1155 -0.1195
 2841SOL    HW120156   0.686   3.372  11.978 -0.2983 -0.0314  1.4047
 2841SOL    HW220157   0.813   3.314  12.008  1.1370 -0.1602 -2.9057
 2842SOL     OW20158   2.662   4.178  16.066 -0.1983 -0.3384  0.2981
 2842SOL    HW120159   2.752   4.149  16.083 -0.5428 -1.8218 -0.4347
 2842SOL    HW220160   2.614   4.096  16.057 -2.2559  0.8335  0.6859
 2843SOL     OW20161   1.364   2.184   1.057  0.6018  0.0537 -0.0268
 2843SOL    HW120162   1.342   2.103   1.102 -0.5530 -0.2779 -1.1606
 2843SOL    HW220163   1.415   2.155   0.981  0.9983  1.5259 -0.3229
 2844SOL     OW20164   1.185   1.122   8.907 -0.0816 -0.2730  0.2953
 2844SOL    HW120165   1.180   1.214   8.881  0.1892  0.1199  1.6662
 2844SOL    HW220166   1.122   1.124   8.978  0.5566  0.5799  0.8309
 2845SOL     OW20167   1.906   1.158   2.874 -0.0188 -0.1746  0.0283
 2845SOL    HW120168   1.858   1.239   2.893  0.8110  0.7204 -1.6422
 2845SOL    HW220169   1.939   1.145   2.963 -1.5951  0.6108  0.7213
 2846SOL     OW20170   4.603   2.943   3.307  0.0525 -0.2953  0.8680
 2846SOL    HW120171   4.689   2.976   3.280 -0.7506  0.1611 -1.1127
 2846SOL    HW220172   4.556   3.026   3.311 -0.0935 -0.3867  1.0746
 2847SOL     OW20173   0.148   2.743   8.063  0.0785  0.5457  0.1113
 2847SOL    HW120174   0.213   2.728   8.131  0.3901  2.0316  0.1417
 2847SOL    HW220175   0.209   2.731   7.990 -0.7436  0.4185 -0.5605
 2848SOL     OW20176   3.199   0.530   3.320 -0.8073 -0.9980 -0.5457
 2848SOL    HW120177   3.187   0.611   3.271  0.7495  0.5817  1.6934
 2848SOL    HW220178   3.162   0.473   3.253 -3.6264  0.6252 -0.3835
 2849SOL     OW20179   1.597   1.570   5.950  0.3824 -0.3307 -0.2909
 2849SOL    HW120180   1.601   1.478   5.923 -1.0618 -0.7073  0.8110
 2849SOL    HW220181   1.593   1.615   5.866  0.3137  0.4849  0.1485
 2850SOL     OW20182   4.313   0.985  17.082 -0.2095  0.3488 -0.1394
 2850SOL    HW120183   4.223   0.987  17.049 -0.9131  1.9656  1.8700
 2850SOL    HW220184   4.360   0.954  17.004  2.3259  1.2675  1.0056
 2851SOL     OW20185   3.009   4.725   7.615  0.2449  0.0678  0.5189
 2851SOL    HW120186   3.074   4.663   7.581 -0.2828  0.2248 -0.7827
 2851SOL    HW220187   2.989   4.697   7.704 -0.9737 -0.4256  0.0873
 2852SOL     OW20188   0.909   3.787   3.485  0.3901 -0.0132  1.1393
 2852SOL    HW120189   0.820   3.755   3.466  0.2144  0.7376  0.7279
 2852SOL    HW220190   0.935   3.747   3.568 -1.2594  0.7923  2.0431
 2853SOL     OW20191   3.911   4.440   6.137  0.3793 -0.3857  0.8861
 2853SOL    HW120192   3.841   4.435   6.072  0.0799 -0.2087  1.1959
 2853SOL    HW220193   3.932   4.347   6.145  1.6131 -0.2965 -1.1820
 2854SOL     OW20194   4.230   0.041  12.620  0.8234 -0.3424 -0.4640
 2854SOL    HW120195   4.235   4.721  12.698  0.7072  0.8373  0.3948
 2854SOL    HW220196   4.284   0.114  12.650 -0.7051  1.0336 -1.0513
 2855SOL     OW20197   0.439   2.841  13.025 -0.3915 -0.3923  0.4215
 2855SOL    HW120198   0.454   2.748  13.045  0.6386 -0.6247 -1.4288
 2855SOL    HW220199   0.433   2.886  13.109 -2.3203 -1.0612  0.6490
 2856SOL     OW20200   1.737   2.350   3.606  0.3268 -0.4633  0.1699
 2856SOL    HW120201   1.780   2.431   3.634  2.1290 -1.7693  1.2093
 2856SOL    HW220202   1.731   2.346   3.511  1.4954  0.8545  0.0491
 2857SOL     OW20203   0.036   0.038   9.222 -0.3891 -0.0615  0.4128
 2857SOL    HW120204   0.046   0.126   9.185 -0.2912 -0.5019 -0.6027
 2857SOL    HW220205   0.072   0.057   9.309 -0.5614  1.4354  0.1638
 2858SOL     OW20206   0.247   4.013   9.338  0.7132 -0.4854 -0.0245
 2858SOL    HW120207   0.239   4.107   9.356  2.7279 -0.4966  0.9767
 2858SOL    HW220208   0.154   3.995   9.356  0.1627  1.2587 -1.1323
 2859SOL     OW20209   1.590   0.205   5.018  0.5027 -0.0444 -0.4126
 2859SOL    HW120210   1.507   0.173   5.054  0.7368  0.3158  0.4494
 2859SOL    HW220211   1.613   0.126   4.970  0.0010  0.2740 -1.1815
 2860SOL     OW20212   2.954   1.731   8.932  0.7610  0.7509 -0.0183
 2860SOL    HW120213   2.864   1.697   8.932  0.7057  0.9046  0.7276
 2860SOL    HW220214   2.961   1.761   9.023 -0.7052 -1.1331  0.7340
 2861SOL     OW20215   4.531   2.074   1.681  0.3884 -0.4155 -0.1878
 2861SOL    HW120216   4.440   2.100   1.668 -0.3356 -3.0538 -0.3731
 2861SOL    HW220217   4.544   2.066   1.776  1.9006 -2.8621 -0.6023
 2862SOL     OW20218   2.996   0.744  10.854  0.6683  0.1397  0.6222
 2862SOL    HW120219   2.992   0.839  10.844  1.6123  0.0534 -0.5713
 2862SOL    HW220220   3.089   0.738  10.835  0.6928 -0.2188  0.8625
 2863SOL     OW20221   1.094   3.880   2.656 -0.1187  0.0993 -0.2089
 2863SOL    HW120222   1.005   3.883   2.690 -1.2743 -0.2141 -3.1332
 2863SOL    HW220223   1.104   3.971   2.626 -0.3017  0.3409  0.4784
 2864SOL     OW20224   3.595   1.196   1.453  0.0265  0.5616  0.5285
 2864SOL    HW120225   3.604   1.135   1.380  1.4903 -0.7555  1.8076
 2864SOL    HW220226   3.685   1.200   1.483  0.5809 -0.3425 -1.0406
 2865SOL     OW20227   1.821   2.000   8.164  0.1793  0.1285 -0.1822
 2865SOL    HW120228   1.819   2.082   8.214  1.4774 -0.5458  0.9659
 2865SOL    HW220229   1.888   2.030   8.103 -0.1621 -0.0493 -0.6435
 2866SOL     OW20230   4.521   4.260  11.464  0.1282 -0.5657  0.3605
 2866SOL    HW120231   4.573   4.311  11.402 -0.5244 -0.5017 -0.1341
 2866SOL    HW220232   4.563   4.298  11.541 -1.1880 -1.3072  1.4462
 2867SOL     OW20233   1.950   3.156   1.224 -0.1554 -0.2307 -0.1285
 2867SOL    HW120234   1.945   3.224   1.157 -1.9368 -0.1937  0.0550
 2867SOL    HW220235   1.969   3.202   1.305 -0.1653 -0.1059 -0.1981
 2868SOL     OW20236   1.984   3.152   2.163  0.4406  0.1840 -0.5710
 2868SOL    HW120237   2.061   3.207   2.147  1.1969 -0.5079  0.7768
 2868SOL    HW220238   2.005   3.098   2.239  0.1966 -0.3924 -0.9166
 2869SOL     OW20239   3.780   4.669   7.805 -0.0291  0.0636  0.1426
 2869SOL    HW120240   3.859   4.706   7.766 -0.8943  0.3492 -1.3372
 2869SOL    HW220241   3.761   4.596   7.747  0.1130  0.1372  0.0047
 2870SOL     OW20242   1.463   0.388   8.041 -0.4503  0.2815 -0.6334
 2870SOL    HW120243   1.396   0.429   7.986  0.0355  1.5551 -0.2818
 2870SOL    HW220244   1.441   0.298   8.018 -0.4336  0.2818 -0.6506
 2871SOL     OW20245   4.659   2.929   6.584  0.5807  0.7272  0.6615
 2871SOL    HW120246   0.011   2.893   6.596  0.1604 -0.1087  1.2367
 2871SOL    HW220247   4.675   3.021   6.562  3.7645 -0.5065 -2.1020
 2872SOL     OW20248   0.606   1.102   9.120 -0.1561 -0.2923 -0.0901
 2872SOL    HW120249   0.609   1.018   9.075 -0.6870 -0.0235 -0.6304
 2872SOL    HW220250   0.568   1.077   9.204 -0.0677  1.3413  0.4412
 2873SOL     OW20251   0.188   1.317   5.507 -0.0958 -0.4698  0.4886
 2873SOL    HW120252   0.123   1.254   5.539 -0.6735 -1.4932 -2.6615
 2873SOL    HW220253   0.249   1.253   5.470 -0.1051 -0.5831  0.6661
 2874SOL     OW20254   3.308   1.426  15.783  0.3957 -0.4297  0.4177
 2874SOL    HW120255   3.285   1.343  15.740 -0.5906 -0.3089  0.7165
 2874SOL    HW220256   3.254   1.423  15.862 -0.7331 -1.5219 -0.3939
 2875SOL     OW20257   2.094   0.482   5.679  1.0346 -0.0316  0.1852
 2875SOL    HW120258   2.169   0.423   5.690  0.9187 -0.2149 -0.0080
 2875SOL    HW220259   2.131   0.543   5.615  1.0234 -0.2964 -0.0759
 2876SOL     OW20260   1.886   1.894   6.910  0.2667  0.0848  0.1768
 2876SOL    HW120261   1.926   1.961   6.855  0.5353 -0.9044 -0.8409
 2876SOL    HW220262   1.807   1.933   6.947 -0.0214  1.4793 -1.8988
 2877SOL     OW20263   2.067   2.976   9.013 -0.1803  0.3211 -0.1111
 2877SOL    HW120264   2.085   3.048   9.074  1.5359 -2.6361  2.8706
 2877SOL    HW220265   2.158   2.953   8.994 -0.6094 -0.7950 -0.8145
 2878SOL     OW20266   1.088   4.405   7.288 -0.9109 -0.1400  0.4509
 2878SOL    HW120267   1.179   4.410   7.317 -1.0539 -3.2629  1.4666
 2878SOL    HW220268   1.094   4.448   7.203  1.6396  0.3118  0.8511
 2879SOL     OW20269   1.335   1.491   2.248 -0.1859  0.1773  0.6840
 2879SOL    HW120270   1.398   1.466   2.315 -0.5063 -0.9820  0.5466
 2879SOL    HW220271   1.291   1.561   2.297 -1.6019 -0.3798  0.2057
 2880SOL     OW20272   3.052   3.370  15.740  0.0630 -0.1546  0.6588
 2880SOL    HW120273   3.084   3.431  15.807  0.0503 -0.0279  0.5509
 2880SOL    HW220274   3.127   3.370  15.681 -2.1367  1.5239 -2.1452
 2881SOL     OW20275   1.375   4.149   9.114  0.3412  0.3567 -0.0895
 2881SOL    HW120276   1.348   4.237   9.090 -1.7370 -0.3062 -0.1846
 2881SOL    HW220277   1.451   4.138   9.057 -0.0895  0.5700 -0.7112
 2882SOL     OW20278   3.396   3.116  13.646 -0.0101 -0.0287 -0.3517
 2882SOL    HW120279   3.303   3.099  13.630 -0.1247 -0.3982  0.6696
 2882SOL    HW220280   3.418   3.040  13.700 -2.6859 -1.1253 -0.7960
 2883SOL     OW20281   2.490   2.669  12.106  0.0650  0.0819 -0.0666
 2883SOL    HW120282   2.496   2.681  12.201  1.6176 -1.5270  0.0450
 2883SOL    HW220283   2.492   2.760  12.077  0.8814  0.8365  2.2819
 2884SOL     OW20284   1.550   4.591   3.248 -0.2485  0.6193  0.3574
 2884SOL    HW120285   1.580   4.648   3.318  0.5991  0.7783 -0.1312
 2884SOL    HW220286   1.537   4.510   3.297 -1.9461  1.2129  0.8760
 2885SOL     OW20287   0.664   3.372  12.313  0.1630 -0.5961  0.1385
 2885SOL    HW120288   0.714   3.341  12.389 -0.1445  0.6203  0.8505
 2885SOL    HW220289   0.725   3.433  12.271  0.1593  0.7352  2.0529
 2886SOL     OW20290   3.022   3.958   2.270  0.0949 -0.4613  0.3809
 2886SOL    HW120291   3.072   4.039   2.258 -1.4131  0.1089 -2.0919
 2886SOL    HW220292   2.986   3.961   2.358 -0.1348 -1.2856  0.3175
 2887SOL     OW20293   0.566   3.553  10.149  0.1318  0.2545 -0.0277
 2887SOL    HW120294   0.517   3.550  10.231 -2.0591 -0.5952 -1.3470
 2887SOL    HW220295   0.499   3.593  10.092 -0.1474 -0.1116  0.0453
 2888SOL     OW20296   3.327   2.962   6.769  0.2285 -0.6410  0.4959
 2888SOL    HW120297   3.289   3.031   6.716  0.8951 -0.6117  0.0503
 2888SOL    HW220298   3.247   2.915   6.792  1.0930 -3.0909 -1.4773
 2889SOL     OW20299   0.726   0.494   2.375  0.1704  0.0024  0.5199
 2889SOL    HW120300   0.654   0.496   2.439  0.6285 -3.5166  1.1591
 2889SOL    HW220301   0.789   0.429   2.403 -0.7730 -0.7551  0.8947
 2890SOL     OW20302   4.708   0.701   2.613  0.2751 -0.0546  0.0754
 2890SOL    HW120303   4.713   0.753   2.693  0.1809 -2.0311  1.3742
 2890SOL    HW220304   4.663   0.621   2.640  0.1244 -0.5810 -1.7222
 2891SOL     OW20305   2.423   0.914   5.374  0.1122  0.2858  0.5974
 2891SOL    HW120306   2.446   0.963   5.294 -0.7077  0.1589  0.2847
 2891SOL    HW220307   2.424   0.821   5.351  2.6220 -0.0410  2.0738
 2892SOL     OW20308   2.426   2.049   0.323  0.3752 -0.0515 -0.3298
 2892SOL    HW120309   2.489   2.026   0.391  1.1992  0.9601 -0.7452
 2892SOL    HW220310   2.365   1.975   0.330  0.7963 -0.5004 -1.3104
 2893SOL     OW20311   4.118   0.842   2.480  0.0605 -0.7115 -0.1697
 2893SOL    HW120312   4.126   0.903   2.408  1.2214  0.3704  0.8865
 2893SOL    HW220313   4.044   0.878   2.530  1.0456  1.1516 -0.0537
 2894SOL     OW20314   4.144   2.830   3.773 -0.5869 -0.0243 -0.3063
 2894SOL    HW120315   4.097   2.754   3.807  0.3168 -0.5923 -0.3516
 2894SOL    HW220316   4.236   2.811   3.792 -0.1633  2.0261 -0.2339
 2895SOL     OW20317   0.540   4.101   4.840 -0.3674 -0.1227 -0.2941
 2895SOL    HW120318   0.522   4.013   4.809 -2.8846 -0.2042  1.3782
 2895SOL    HW220319   0.612   4.087   4.902 -0.7801 -3.0015 -0.4958
 2896SOL     OW20320   4.465   2.766   3.600  0.3535 -0.2061  0.2589
 2896SOL    HW120321   4.393   2.703   3.591 -1.4768  2.0343 -0.9230
 2896SOL    HW220322   4.428   2.828   3.536 -1.9686 -2.5770 -0.7191
 2897SOL     OW20323   1.991   1.136   5.772 -0.1543  0.2274 -0.1281
 2897SOL    HW120324   2.048   1.077   5.723  0.8739 -1.3930  2.9665
 2897SOL    HW220325   1.919   1.159   5.713 -0.1840  1.1433  0.2671
 2898SOL     OW20326   3.149   1.260  16.575 -0.2939 -0.6433  0.4475
 2898SOL    HW120327   3.220   1.294  16.630  0.7180 -1.7850 -0.1425
 2898SOL    HW220328   3.124   1.179  16.619 -0.2192 -0.7428  0.3055
 2899SOL     OW20329   3.136   0.560  12.799  0.4001 -0.0466  0.0690
 2899SOL    HW120330   3.136   0.518  12.712 -0.9830  2.5545 -1.1929
 2899SOL    HW220331   3.089   0.495  12.852 -0.1352 -1.2138 -1.8230
 2900SOL     OW20332   1.637   3.827   8.633 -0.2828 -0.2512  0.1525
 2900SOL    HW120333   1.573   3.856   8.567 -0.4257 -0.7776  0.0579
 2900SOL    HW220334   1.660   3.912   8.672  1.6574 -0.4196 -0.6285
 2901SOL     OW20335   2.861   2.245   6.609 -0.3571 -0.2462 -0.4348
 2901SOL    HW120336   2.926   2.199   6.556 -0.3023 -0.8136  0.1261
 2901SOL    HW220337   2.789   2.254   6.546 -0.9431  0.1660  0.2910
 2902SOL     OW20338   3.522   1.931  14.669 -0.2735  0.1203 -0.0659
 2902SOL    HW120339   3.599   1.975  14.632  0.1722 -1.2124 -0.7322
 2902SOL    HW220340   3.559   1.845  14.687 -0.7000 -0.1816 -0.6205
 2903SOL     OW20341   0.880   3.746  15.611 -0.0753  0.4023  0.2985
 2903SOL    HW120342   0.869   3.820  15.551  0.4596 -0.1761 -0.5159
 2903SOL    HW220343   0.932   3.791  15.678 -0.4288 -0.7547  1.3276
 2904SOL     OW20344   4.476   0.073   3.019  0.0639 -0.0303 -0.0299
 2904SOL    HW120345   4.493   0.003   3.082  0.4680  0.4576  0.3977
 2904SOL    HW220346   4.383   0.052   3.009  0.4081  0.1520 -3.9016
 2905SOL     OW20347   0.059   1.797   6.875  0.2282 -0.2642  0.5019
 2905SOL    HW120348   0.095   1.780   6.962  1.4732 -1.0773 -0.1713
 2905SOL    HW220349   4.700   1.798   6.887  0.3094 -3.9074  1.4285
 2906SOL     OW20350   1.657   1.092   6.326 -0.1213  0.0296  1.1553
 2906SOL    HW120351   1.569   1.069   6.297  0.8159 -0.2058 -1.4594
 2906SOL    HW220352   1.697   1.116   6.242  0.6561 -1.2310  1.1565
 2907SOL     OW20353   3.615   2.158   7.475 -0.2578  0.5320 -0.1348
 2907SOL    HW120354   3.532   2.165   7.521 -0.7942 -1.2539 -0.8124
 2907SOL    HW220355   3.649   2.089   7.532  0.3415  0.3110 -0.7582
 2908SOL     OW20356   2.135   1.864   8.363  0.1833 -0.1289  0.5599
 2908SOL    HW120357   2.180   1.936   8.408 -1.3201  0.0975  1.7435
 2908SOL    HW220358   2.044   1.891   8.378  0.4779 -0.1473  2.3451
 2909SOL     OW20359   0.524   0.278   2.818  0.1840  0.0525  0.5924
 2909SOL    HW120360   0.595   0.230   2.860 -3.0966 -3.3215  2.2474
 2909SOL    HW220361   0.539   0.371   2.835 -0.0808 -0.4735  3.7464
 2910SOL     OW20362   0.255   1.761   4.754 -0.3305 -0.2370 -0.3270
 2910SOL    HW120363   0.305   1.770   4.835  0.2662 -1.1748 -0.5896
 2910SOL    HW220364   0.233   1.853   4.743  1.5015  0.1647 -0.4962
 2911SOL     OW20365   2.138   2.775   8.195 -0.8628 -0.3385  0.0522
 2911SOL    HW120366   2.177   2.844   8.249 -0.4837  0.9693 -1.9051
 2911SOL    HW220367   2.211   2.721   8.166  0.8755  2.8361 -1.3866
 2912SOL     OW20368   2.162   0.807   2.964  0.4562  0.2470  0.3456
 2912SOL    HW120369   2.140   0.858   2.887 -1.0819 -1.4609 -0.3544
 2912SOL    HW220370   2.118   0.726   2.938  0.6523  0.3241 -0.2317
 2913SOL     OW20371   3.144   3.551   6.577 -0.0767  0.0928  0.2870
 2913SOL    HW120372   3.197   3.495   6.634  1.8486  0.5070 -1.0845
 2913SOL    HW220373   3.099   3.609   6.638 -2.2500 -0.9080 -0.3412
 2914SOL     OW20374   3.100   0.261   6.778 -0.2105  0.0006 -0.1029
 2914SOL    HW120375   3.177   0.271   6.723  1.1024 -1.5287  1.4441
 2914SOL    HW220376   3.130   0.252   6.869 -2.1519 -0.1890  0.5179
 2915SOL     OW20377   3.785   0.556  10.809  0.2861 -0.1917  0.3339
 2915SOL    HW120378   3.797   0.637  10.860  0.5550 -0.0649  0.0690
 2915SOL    HW220379   3.732   0.590  10.737 -1.4999 -1.5603  0.9870
 2916SOL     OW20380   4.183   4.722   1.512  0.1484  0.4793  0.7095
 2916SOL    HW120381   4.210   0.057   1.571 -0.3597  1.2534  0.0016
 2916SOL    HW220382   4.247   4.651   1.524  0.4223  0.6549  0.2720
 2917SOL     OW20383   0.769   4.147   7.814 -0.6133 -0.1428 -0.4678
 2917SOL    HW120384   0.688   4.114   7.851 -0.7573 -0.1099 -0.7553
 2917SOL    HW220385   0.776   4.081   7.745 -1.4422  0.0394 -0.7197
 2918SOL     OW20386   2.361   3.304  10.293  0.0098  0.3370 -0.2150
 2918SOL    HW120387   2.333   3.236  10.354  0.9744 -0.1209 -0.2794
 2918SOL    HW220388   2.273   3.333  10.269 -0.3585 -0.0883  0.6391
 2919SOL     OW20389   4.703   0.374  13.234 -0.4367 -0.4507 -0.0001
 2919SOL    HW120390   0.015   0.392  13.315 -0.1166 -0.2068 -0.2447
 2919SOL    HW220391   4.668   0.463  13.231  0.0976 -0.2336  0.1849
 2920SOL     OW20392   1.575   2.007   5.204 -0.0774  0.3738  0.3162
 2920SOL    HW120393   1.558   1.990   5.112 -1.0035  0.8934  0.3951
 2920SOL    HW220394   1.589   1.922   5.245 -1.9808  0.0408  0.2699
 2921SOL     OW20395   1.927   2.999  13.807 -0.0059 -0.1144 -0.3396
 2921SOL    HW120396   1.917   3.088  13.774 -2.4792 -0.4944 -0.5674
 2921SOL    HW220397   1.867   2.998  13.881 -0.6911  1.0537 -0.8743
 2922SOL     OW20398   0.017   0.170   8.806 -0.2334  0.4335  0.4407
 2922SOL    HW120399   4.688   0.129   8.864 -2.9913  1.8211 -1.6300
 2922SOL    HW220400   0.071   0.092   8.796  2.3457  2.1620  0.8972
 2923SOL     OW20401   2.601   4.190   4.493  0.5471 -0.2028  0.2620
 2923SOL    HW120402   2.550   4.223   4.567  2.4622  1.4401  0.8363
 2923SOL    HW220403   2.629   4.104   4.527  1.6125 -0.6609 -1.8006
 2924SOL     OW20404   2.339   4.657  11.994 -0.3374 -0.1318  0.3289
 2924SOL    HW120405   2.379   4.717  12.057  4.4550 -1.5559 -1.3340
 2924SOL    HW220406   2.290   4.721  11.943 -1.5807 -0.9931  0.4584
 2925SOL     OW20407   0.181   2.108   4.424 -0.5019  0.3355 -0.3022
 2925SOL    HW120408   0.212   2.087   4.512 -4.1736 -1.0543  0.6397
 2925SOL    HW220409   0.260   2.087   4.374 -0.7382  3.0175 -1.8241
 2926SOL     OW20410   3.450   0.136   7.440  0.3102 -0.1800 -0.3094
 2926SOL    HW120411   3.478   0.048   7.463 -1.1943 -0.6924 -0.4394
 2926SOL    HW220412   3.474   0.176   7.523  2.5987 -2.2163  0.0038
 2927SOL     OW20413   1.537   0.024   7.671 -0.1665  0.0533 -0.3339
 2927SOL    HW120414   1.510   4.734   7.583  1.2437  0.5148 -0.8985
 2927SOL    HW220415   1.513   0.116   7.665 -0.5815 -0.1282 -1.4112
 2928SOL     OW20416   4.126   3.835   6.118 -0.4000  0.4159  0.0336
 2928SOL    HW120417   4.182   3.797   6.051  0.5553 -2.4764  2.4685
 2928SOL    HW220418   4.185   3.886   6.173  0.7214  0.5236 -1.2624
 2929SOL     OW20419   2.826   1.669  10.828  0.4556 -1.4251  0.8830
 2929SOL    HW120420   2.762   1.603  10.854 -0.1044 -0.1281  2.7319
 2929SOL    HW220421   2.812   1.677  10.734  1.3597 -1.9036  0.7064
 2930SOL     OW20422   3.277   3.391  11.665 -0.4363 -0.3651  0.3471
 2930SOL    HW120423   3.281   3.437  11.581  1.2415  2.1268  1.7839
 2930SOL    HW220424   3.219   3.446  11.719 -1.3009  0.3395 -1.3189
 2931SOL     OW20425   3.226   4.532  16.756 -0.6435 -0.2603  0.1545
 2931SOL    HW120426   3.272   4.527  16.672 -0.0672 -3.5612  0.6766
 2931SOL    HW220427   3.155   4.589  16.728 -1.4187 -0.1572  2.3280
 2932SOL     OW20428   0.993   3.631   8.994 -0.4814  0.6478 -0.7336
 2932SOL    HW120429   0.971   3.549   8.951  1.4539 -0.4878  0.4540
 2932SOL    HW220430   1.021   3.604   9.081  0.4538  0.3980 -1.1128
 2933SOL     OW20431   1.260   3.564  13.119  0.1555 -0.0681 -0.0506
 2933SOL    HW120432   1.320   3.615  13.064  0.7620  0.6994  1.3288
 2933SOL    HW220433   1.284   3.471  13.114  0.3966  0.0489 -1.0385
 2934SOL     OW20434   1.571   3.103  14.700 -0.2475 -0.1129 -0.5324
 2934SOL    HW120435   1.536   3.064  14.780  1.2775  0.2748  0.3285
 2934SOL    HW220436   1.636   3.044  14.663  1.3957  1.1837  0.3074
 2935SOL     OW20437   4.130   2.813   4.711 -0.2386 -0.2690 -0.0380
 2935SOL    HW120438   4.061   2.878   4.703  0.1726 -0.1060 -2.2580
 2935SOL    HW220439   4.153   2.812   4.618 -0.4843 -1.6577 -0.0909
 2936SOL     OW20440   1.442   1.561  14.607 -0.1665  0.7956  0.1308
 2936SOL    HW120441   1.507   1.629  14.626  0.8775 -0.5892  1.5382
 2936SOL    HW220442   1.382   1.553  14.681  0.5897  0.1995  0.6667
 2937SOL     OW20443   4.314   3.682   5.698  0.2613  0.0395  0.2127
 2937SOL    HW120444   4.396   3.721   5.666 -0.4141  0.7612 -0.6377
 2937SOL    HW220445   4.300   3.609   5.638 -1.1785 -0.1901  0.8270
 2938SOL     OW20446   2.265   4.663  15.539 -0.0912 -0.1351  0.3047
 2938SOL    HW120447   2.239   0.017  15.559  0.9720  0.7025 -1.9981
 2938SOL    HW220448   2.213   4.651  15.459 -0.7617 -0.8255  0.8493
 2939SOL     OW20449   0.651   2.767  15.475 -0.7232  0.4048 -0.5951
 2939SOL    HW120450   0.674   2.684  15.434 -1.0900 -0.1030  0.2502
 2939SOL    HW220451   0.614   2.727  15.553  1.2372 -0.2264  0.0034
 2940SOL     OW20452   0.474   4.181  15.374  0.3239  0.0998 -0.4532
 2940SOL    HW120453   0.479   4.265  15.419  3.0822 -0.3658  0.1267
 2940SOL    HW220454   0.534   4.133  15.431  1.5003  0.4810 -1.3407
 2941SOL     OW20455   0.156   0.872   8.389 -0.4770  0.2395 -0.4216
 2941SOL    HW120456   0.229   0.883   8.329 -0.7160  3.2428 -0.1438
 2941SOL    HW220457   0.181   0.947   8.443 -0.8531 -1.0302  1.5447
 2942SOL     OW20458   1.811   2.619  13.737  0.0985 -0.1381  0.4387
 2942SOL    HW120459   1.720   2.628  13.709  0.0318  0.1622  0.7486
 2942SOL    HW220460   1.853   2.615  13.651 -0.0425  0.0790  0.3595
 2943SOL     OW20461   1.097   4.064   4.339  0.1326 -0.0228 -0.3502
 2943SOL    HW120462   1.070   3.977   4.369 -1.6028 -0.0263 -1.8895
 2943SOL    HW220463   1.019   4.105   4.302 -1.6191 -0.2788  2.9970
 2944SOL     OW20464   3.074   0.126  16.156 -0.5262 -0.0099 -0.2542
 2944SOL    HW120465   3.062   0.048  16.210 -0.2935  0.0285 -0.1476
 2944SOL    HW220466   3.059   0.098  16.066  4.1569  2.3490 -1.7768
 2945SOL     OW20467   4.585   2.674   5.975  0.4517  0.3883 -0.4981
 2945SOL    HW120468   4.585   2.712   6.063 -1.8209 -1.1004  0.1475
 2945SOL    HW220469   4.503   2.705   5.937 -0.1030  0.7898  1.0381
 2946SOL     OW20470   2.869   3.659   2.353 -0.0626  0.2336  0.1358
 2946SOL    HW120471   2.865   3.664   2.449 -2.0367  0.8570  0.0386
 2946SOL    HW220472   2.877   3.751   2.329  0.9535  0.0958 -0.0433
 2947SOL     OW20473   3.197   4.541   9.089  0.2512 -0.5496  0.1454
 2947SOL    HW120474   3.147   4.576   9.162  1.7233  2.6320 -0.3901
 2947SOL    HW220475   3.258   4.614   9.084 -0.7644  0.2134 -1.0202
 2948SOL     OW20476   0.079   1.105   6.157 -0.1367 -0.2260 -0.2117
 2948SOL    HW120477   0.102   1.167   6.226 -1.2279  0.9983 -0.9305
 2948SOL    HW220478   0.019   1.042   6.195  2.1259 -1.1786  1.7856
 2949SOL     OW20479   3.652   0.643  10.548  0.1094 -0.2002 -0.4305
 2949SOL    HW120480   3.649   0.657  10.453  0.6672  2.4255 -0.0731
 2949SOL    HW220481   3.624   0.552  10.545  1.0603 -0.4554 -1.5028
 2950SOL     OW20482   2.507   3.136   8.880 -0.1741 -0.1722  0.2967
 2950SOL    HW120483   2.528   3.046   8.905 -0.1352 -0.5736 -1.1802
 2950SOL    HW220484   2.478   3.120   8.790 -0.7023 -1.4320  0.7017
 2951SOL     OW20485   3.275   3.025  15.740  0.0140 -0.2097 -0.3229
 2951SOL    HW120486   3.306   3.092  15.800 -2.3688  0.7666 -0.1924
 2951SOL    HW220487   3.318   3.061  15.662  1.3900 -0.4999  0.3041
 2952SOL     OW20488   3.716   1.352   4.029  0.3588  0.4654 -0.0012
 2952SOL    HW120489   3.627   1.376   4.058 -0.1575  2.4003 -3.2578
 2952SOL    HW220490   3.761   1.435   4.044  0.7706  0.5749 -1.9647
 2953SOL     OW20491   1.799   1.214  15.238 -0.1098  0.1136  0.0194
 2953SOL    HW120492   1.865   1.147  15.258  0.2050 -0.4373 -2.8280
 2953SOL    HW220493   1.827   1.288  15.291 -3.6215  0.4181  1.4750
 2954SOL     OW20494   3.770   4.545  11.067 -0.5322  0.5355  0.0781
 2954SOL    HW120495   3.808   4.547  11.155  0.6840 -0.1209 -0.4318
 2954SOL    HW220496   3.766   4.637  11.041 -1.4095  0.4276 -0.1546
 2955SOL     OW20497   0.951   0.911   7.804  0.0137 -0.3893  0.6469
 2955SOL    HW120498   1.002   0.852   7.859 -1.9157 -1.7125  1.0088
 2955SOL    HW220499   0.879   0.933   7.863 -1.1549 -0.7751 -0.6168
 2956SOL     OW20500   1.197   2.815   1.442  0.3540  0.6211  0.2973
 2956SOL    HW120501   1.116   2.861   1.420 -1.7571 -1.2485  4.0011
 2956SOL    HW220502   1.164   2.761   1.514  0.4787  0.4298  0.2113
 2957SOL     OW20503   0.030   3.662   4.896  0.9104  0.2808  0.0590
 2957SOL    HW120504   4.702   3.673   4.825  0.4887  1.9124  0.6896
 2957SOL    HW220505   0.061   3.574   4.876  1.0056  0.1885  0.6172
 2958SOL     OW20506   0.738   1.016   3.259  0.1937 -0.5749  0.0347
 2958SOL    HW120507   0.691   1.041   3.338 -0.9511 -1.8618 -0.2386
 2958SOL    HW220508   0.759   0.924   3.275  1.1186 -0.1951  1.0361
 2959SOL     OW20509   2.225   4.692  11.277 -0.0703 -0.3501 -0.4795
 2959SOL    HW120510   2.184   4.610  11.248  0.1614  0.6820 -3.7451
 2959SOL    HW220511   2.235   4.665  11.368 -0.0349 -1.1419 -0.7158
 2960SOL     OW20512   3.193   1.919   5.271  0.0468 -0.4046 -0.1174
 2960SOL    HW120513   3.173   1.936   5.179 -0.5815  1.0610  0.2821
 2960SOL    HW220514   3.166   1.828   5.273  0.2270 -0.4264  2.3282
 2961SOL     OW20515   4.502   3.257  12.597  0.5297 -0.0230 -0.4462
 2961SOL    HW120516   4.414   3.223  12.611  1.3488 -1.6384  0.7284
 2961SOL    HW220517   4.546   3.186  12.550  0.0897 -0.9220  0.5032
 2962SOL     OW20518   3.476   4.180   9.948 -0.2397  0.3585 -0.4977
 2962SOL    HW120519   3.390   4.210   9.920 -0.4352 -1.3346 -1.6740
 2962SOL    HW220520   3.462   4.174  10.043  1.6142  0.0174 -0.2362
 2963SOL     OW20521   2.965   2.713   6.049  0.0559  0.4202  0.3291
 2963SOL    HW120522   2.936   2.750   6.133 -0.1938 -0.4119  0.6045
 2963SOL    HW220523   2.926   2.779   5.992  1.3213  0.4961 -0.4555
 2964SOL     OW20524   4.266   3.405   5.597 -0.3778 -0.2844  0.0753
 2964SOL    HW120525   4.174   3.418   5.573 -0.0405 -3.2323 -2.8283
 2964SOL    HW220526   4.256   3.312   5.614 -0.0532 -0.0764  1.3556
 2965SOL     OW20527   2.384   3.030  14.953  0.1114  0.0156  0.0250
 2965SOL    HW120528   2.400   3.087  15.028 -3.7105  0.4088  0.5476
 2965SOL    HW220529   2.288   3.031  14.958  0.1582  1.0937  0.5639
 2966SOL     OW20530   3.286   2.923   2.652  0.1550  0.4375  0.8117
 2966SOL    HW120531   3.191   2.924   2.649  0.1929  0.4458 -0.1608
 2966SOL    HW220532   3.303   2.881   2.737 -0.1744  2.5026  1.8934
 2967SOL     OW20533   0.427   3.421   2.272  0.4201 -0.0535  0.0810
 2967SOL    HW120534   0.496   3.459   2.218 -0.9543  0.5206 -1.2632
 2967SOL    HW220535   0.401   3.358   2.205 -0.1568 -0.7760  0.9835
 2968SOL     OW20536   2.807   0.372   7.463 -0.4423 -0.1931  0.2001
 2968SOL    HW120537   2.812   0.319   7.542 -0.4991  1.9039  1.6160
 2968SOL    HW220538   2.747   0.317   7.412  1.4315 -1.9571 -0.1321
 2969SOL     OW20539   3.871   0.123  11.390 -0.2511 -0.1301 -0.2347
 2969SOL    HW120540   3.906   0.042  11.353 -2.6286 -0.7870 -1.0206
 2969SOL    HW220541   3.928   0.197  11.369  1.3252 -1.2182  0.1939
 2970SOL     OW20542   4.168   2.260  15.827  0.4535  0.2675 -0.0955
 2970SOL    HW120543   4.212   2.178  15.805 -1.5225 -0.3585 -1.6852
 2970SOL    HW220544   4.214   2.272  15.910  0.0608 -2.2561  0.5065
 2971SOL     OW20545   4.360   1.657  11.036  0.0363  0.5498  0.2700
 2971SOL    HW120546   4.331   1.723  11.098 -0.2664  0.3359  0.3596
 2971SOL    HW220547   4.376   1.705  10.955  1.1964 -0.8187 -0.3211
 2972SOL     OW20548   3.219   2.460   5.069 -0.4008  0.1200  0.2020
 2972SOL    HW120549   3.287   2.490   5.008 -0.9638  0.4534 -0.2577
 2972SOL    HW220550   3.266   2.403   5.131  2.1802 -0.4235 -2.2494
 2973SOL     OW20551   3.548   1.837   2.151  0.2722  0.9604  0.3344
 2973SOL    HW120552   3.497   1.867   2.076 -1.3249 -1.4092  0.4778
 2973SOL    HW220553   3.635   1.827   2.111 -0.1733  0.7963 -0.5971
 2974SOL     OW20554   3.526   1.843   7.071  0.1603 -0.2098  0.2812
 2974SOL    HW120555   3.524   1.937   7.052 -0.5895 -0.6148 -1.7079
 2974SOL    HW220556   3.452   1.796   7.032  0.0125  2.2579 -2.4142
 2975SOL     OW20557   2.190   0.533  14.055 -0.0054  0.2102  0.0948
 2975SOL    HW120558   2.257   0.475  14.019 -2.8794 -1.1903 -2.9923
 2975SOL    HW220559   2.126   0.498  13.993  0.7554 -0.6299 -0.2048
 2976SOL     OW20560   1.825   2.674  14.775  0.0222 -0.2000  0.1580
 2976SOL    HW120561   1.886   2.625  14.720  0.1745  2.3099 -1.9109
 2976SOL    HW220562   1.742   2.646  14.737  0.5814  1.0602 -1.9751
 2977SOL     OW20563   0.058   3.509  14.637  0.2029 -0.4748  0.4376
 2977SOL    HW120564   0.046   3.476  14.548  1.4557  2.1949 -0.7071
 2977SOL    HW220565   0.150   3.533  14.648 -1.1627  4.1431  2.0451
 2978SOL     OW20566   4.179   3.397   1.169 -0.0209 -0.3779 -0.2470
 2978SOL    HW120567   4.101   3.363   1.125 -1.5520  1.5347  0.9918
 2978SOL    HW220568   4.231   3.431   1.096  0.2787  0.9675  0.6040
 2979SOL     OW20569   0.531   3.683  12.393 -0.0471  0.1062 -0.2341
 2979SOL    HW120570   0.554   3.632  12.470 -0.4191  0.7767  0.3220
 2979SOL    HW220571   0.458   3.635  12.355  2.1394 -1.9518 -1.8507
 2980SOL     OW20572   3.967   3.003   4.622 -0.7962 -0.4402  0.3838
 2980SOL    HW120573   3.886   3.034   4.581  0.8992  2.7376 -0.5130
 2980SOL    HW220574   3.972   3.065   4.695 -1.7438  0.3379 -0.2175
 2981SOL     OW20575   3.616   2.945  12.294 -0.0178  0.4168 -0.1101
 2981SOL    HW120576   3.571   3.014  12.246  2.4830  0.9762 -1.6545
 2981SOL    HW220577   3.704   2.958  12.259 -0.0034 -0.6554 -0.4621
 2982SOL     OW20578   0.932   3.937   7.956  0.4144  0.5889  0.1280
 2982SOL    HW120579   0.846   3.974   7.934  0.6411  0.2495 -1.2885
 2982SOL    HW220580   0.913   3.846   7.978  0.7209  0.2067 -1.1903
 2983SOL     OW20581   1.339   3.158   8.457  0.5592  0.2115 -0.0875
 2983SOL    HW120582   1.322   3.090   8.521 -0.6496  1.7895  1.2826
 2983SOL    HW220583   1.260   3.163   8.403 -0.5936 -3.9710  1.2270
 2984SOL     OW20584   0.532   4.042  10.758 -0.1024 -0.4270  0.3482
 2984SOL    HW120585   0.441   4.053  10.732  0.0884  0.0584 -0.1174
 2984SOL    HW220586   0.552   3.962  10.709  1.4196 -0.3744  0.8755
 2985SOL     OW20587   0.223   2.611   9.280 -0.2922 -0.2631  0.3763
 2985SOL    HW120588   0.265   2.658   9.353  0.0429  0.6736 -0.4165
 2985SOL    HW220589   0.154   2.562   9.325 -0.1332  0.5206  1.4757
 2986SOL     OW20590   1.849   1.296   7.979  0.0139 -0.4797 -0.3731
 2986SOL    HW120591   1.883   1.379   7.946  3.0063 -0.5883  2.4080
 2986SOL    HW220592   1.928   1.249   8.005  0.5882  0.0081 -1.2541
 2987SOL     OW20593   0.546   4.709  12.214  0.2379  0.4626 -0.0865
 2987SOL    HW120594   0.467   0.027  12.219  0.3172  0.6124 -0.4370
 2987SOL    HW220595   0.509   4.636  12.165 -0.0477 -0.5773  1.6834
 2988SOL     OW20596   2.012   4.212   3.233  0.2063  0.6206 -0.0088
 2988SOL    HW120597   1.954   4.149   3.276  1.5441 -1.0843 -0.7049
 2988SOL    HW220598   2.001   4.190   3.141 -1.1702 -0.8648  0.5241
 2989SOL     OW20599   3.530   1.927   8.551 -0.6585  0.2148 -0.4408
 2989SOL    HW120600   3.477   1.999   8.517  0.0933 -0.0541 -2.1809
 2989SOL    HW220601   3.483   1.855   8.509 -1.3238  0.5049 -0.2030
 2990SOL     OW20602   2.539   0.352   2.007  0.3396 -0.3987  0.0844
 2990SOL    HW120603   2.576   0.440   2.018 -0.7706 -0.0299  0.8492
 2990SOL    HW220604   2.500   0.356   1.919  1.7917 -0.6310 -0.5757
 2991SOL     OW20605   1.977   3.418   6.493 -0.0201  0.1507 -0.2264
 2991SOL    HW120606   2.054   3.365   6.476 -0.5253 -0.9060  0.7360
 2991SOL    HW220607   1.922   3.342   6.514  1.7671 -1.1690 -0.3068
 2992SOL     OW20608   2.144   0.706   5.944 -0.0535 -0.1814 -0.4945
 2992SOL    HW120609   2.059   0.662   5.935  0.2366 -1.4726  2.9407
 2992SOL    HW220610   2.197   0.652   5.886  0.4381 -1.4140  1.1106
 2993SOL     OW20611   1.995   1.719   3.357  0.0775  0.0310 -0.7526
 2993SOL    HW120612   1.917   1.725   3.303 -2.5098 -1.4943  2.8363
 2993SOL    HW220613   2.000   1.807   3.393  0.1665  0.2133 -1.2153
 2994SOL     OW20614   3.235   4.700   7.162 -0.4414  0.3280  0.2251
 2994SOL    HW120615   3.162   4.703   7.224 -0.0472  1.5424  0.6420
 2994SOL    HW220616   3.299   4.633   7.186 -1.6168 -0.0903  2.2437
 2995SOL     OW20617   2.355   0.983   7.574  0.4519  0.6788  0.1249
 2995SOL    HW120618   2.349   1.033   7.655 -1.2251 -0.1137  0.4818
 2995SOL    HW220619   2.379   1.055   7.514 -3.4087  0.6631 -1.4485
 2996SOL     OW20620   1.381   1.179  11.025 -0.0215  0.1733  0.2197
 2996SOL    HW120621   1.354   1.143  11.110 -1.3050 -0.4550 -0.4485
 2996SOL    HW220622   1.331   1.261  11.022 -2.3017 -1.2061  0.1523
 2997SOL     OW20623   2.266   2.736   4.717  0.3738 -0.3232 -0.3677
 2997SOL    HW120624   2.333   2.785   4.765 -1.1942  1.8911 -0.4691
 2997SOL    HW220625   2.310   2.719   4.634  1.3524 -1.5833  0.4057
 2998SOL     OW20626   4.403   3.779   1.547 -0.3230 -0.1286 -0.3687
 2998SOL    HW120627   4.310   3.755   1.544 -1.2158  3.6344 -3.4830
 2998SOL    HW220628   4.410   3.802   1.454  1.3583 -1.7285 -0.6277
 2999SOL     OW20629   2.872   0.261  15.336  0.4362  0.3505 -0.5038
 2999SOL    HW120630   2.804   0.323  15.310  0.8475  0.8452 -0.3795
 2999SOL    HW220631   2.935   0.263  15.264  1.4549 -0.5439  0.3457
 3000SOL     OW20632   1.155   2.472   3.132 -0.2518  0.4937  0.4252
 3000SOL    HW120633   1.136   2.521   3.052  2.1834 -0.1789 -0.5873
 3000SOL    HW220634   1.249   2.457   3.122 -0.3442  0.4652 -0.4329
 3001SOL     OW20635   1.174   3.964   3.283  0.1574 -0.6096  0.1909
 3001SOL    HW120636   1.195   4.000   3.197  0.5122 -0.0049  0.5302
 3001SOL    HW220637   1.081   3.979   3.299  0.6300  1.3905  1.0403
 3002SOL     OW20638   2.359   4.102   9.514  0.1521  0.5290 -0.4940
 3002SOL    HW120639   2.405   4.031   9.468 -1.9336 -1.2658  0.1902
 3002SOL    HW220640   2.398   4.091   9.601 -1.3524 -0.3041  0.0670
 3003SOL     OW20641   1.439   3.405   4.236  0.4467 -0.4517 -0.9565
 3003SOL    HW120642   1.356   3.380   4.276  0.6970 -0.8420 -0.6832
 3003SOL    HW220643   1.448   3.346   4.162  1.1423 -2.4123  0.7109
 3004SOL     OW20644   0.007   4.033   4.172  0.8983  0.7770  0.1934
 3004SOL    HW120645   0.029   4.109   4.226  0.5396 -0.1505  1.6625
 3004SOL    HW220646   0.074   4.037   4.105  0.6000  0.3363 -0.1341
 3005SOL     OW20647   3.998   1.535   2.832 -0.1066 -0.4130 -0.0005
 3005SOL    HW120648   4.010   1.622   2.871  1.3166 -0.6073  0.0009
 3005SOL    HW220649   3.992   1.562   2.740  1.3456 -1.1148 -0.3070
 3006SOL     OW20650   0.623   2.389   6.804  0.6423  0.0659  0.3569
 3006SOL    HW120651   0.702   2.337   6.788  1.4094  1.0245  1.0138
 3006SOL    HW220652   0.556   2.327   6.777  2.3342 -0.5668 -2.4007
 3007SOL     OW20653   2.180   2.232   2.370  0.2742 -0.2928 -0.4584
 3007SOL    HW120654   2.262   2.210   2.325  0.7715  1.5184 -0.4425
 3007SOL    HW220655   2.115   2.188   2.316 -1.9290  1.8556  0.4726
 3008SOL     OW20656   0.586   0.551   2.838 -0.2564 -0.1451 -0.0317
 3008SOL    HW120657   0.669   0.581   2.875  0.1417 -0.1451 -0.9013
 3008SOL    HW220658   0.531   0.577   2.912 -0.8058 -1.6646  0.1027
 3009SOL     OW20659   0.168   2.319  10.026 -0.4686  0.1154  0.0254
 3009SOL    HW120660   0.213   2.389  10.073  0.9382 -1.5869  1.1963
 3009SOL    HW220661   0.189   2.248  10.087 -0.7860 -0.4355 -0.4970
 3010SOL     OW20662   1.096   1.901   8.725 -0.4035 -0.0169 -0.0372
 3010SOL    HW120663   1.138   1.866   8.803 -1.7923 -0.2016  0.6418
 3010SOL    HW220664   1.074   1.821   8.677  2.8796 -0.4837 -0.7325
 3011SOL     OW20665   1.783   3.123  10.222  0.3303 -0.0175 -0.1977
 3011SOL    HW120666   1.774   3.211  10.259 -0.8251  0.5481 -1.8207
 3011SOL    HW220667   1.852   3.088  10.279  0.3167  0.5018  0.1378
 3012SOL     OW20668   4.161   4.252  17.149  0.8001  0.1214 -0.3873
 3012SOL    HW120669   4.144   4.273  17.057  0.8823  3.1926  0.3278
 3012SOL    HW220670   4.088   4.192  17.163 -0.4108  1.4868 -0.8897
 3013SOL     OW20671   3.517   2.797   0.746 -0.1526 -0.2935  0.4407
 3013SOL    HW120672   3.430   2.815   0.710  0.0185 -0.1428  0.1041
 3013SOL    HW220673   3.521   2.864   0.814 -0.9002 -0.8702  1.0668
 3014SOL     OW20674   1.195   2.082  15.391  0.1796  0.2804  0.3747
 3014SOL    HW120675   1.250   2.159  15.381 -0.5779  0.6012 -1.2820
 3014SOL    HW220676   1.254   2.008  15.409 -0.7143 -0.2040  1.2923
 3015SOL     OW20677   4.203   1.022  12.995 -0.0573 -0.1017 -0.1080
 3015SOL    HW120678   4.110   1.018  13.018  0.3846  0.9382  1.8926
 3015SOL    HW220679   4.245   1.029  13.081 -0.5203  1.3069  0.0047
 3016SOL     OW20680   0.251   2.463   7.681  0.1684  0.2847 -0.3093
 3016SOL    HW120681   0.249   2.466   7.585  2.3050  2.2924 -0.2832
 3016SOL    HW220682   0.197   2.384   7.691  1.0617 -0.1420  1.1729
 3017SOL     OW20683   2.631   2.986   6.648  0.1710  0.0587 -0.6316
 3017SOL    HW120684   2.698   2.941   6.699  0.2530  1.5755  0.6158
 3017SOL    HW220685   2.678   3.070   6.645  0.0158  0.1157 -1.4601
 3018SOL     OW20686   4.347   2.411  15.994 -0.3456 -0.5387 -0.0481
 3018SOL    HW120687   4.408   2.451  16.057 -0.3929  0.5984 -0.7197
 3018SOL    HW220688   4.364   2.465  15.917 -0.0774  0.6123  0.8135
 3019SOL     OW20689   3.784   2.408   1.619 -0.7269 -0.2410  0.3047
 3019SOL    HW120690   3.848   2.362   1.672 -0.9891  0.9267  1.6144
 3019SOL    HW220691   3.824   2.423   1.533  0.6682 -2.3903  0.5823
 3020SOL     OW20692   4.174   2.294  16.837  0.0594  0.5087  0.2058
 3020SOL    HW120693   4.239   2.365  16.841  0.6720 -0.0358 -0.1122
 3020SOL    HW220694   4.096   2.349  16.836  0.4612  1.0405 -1.4156
 3021SOL     OW20695   1.529   4.360  12.417  0.2211 -0.1055 -0.2029
 3021SOL    HW120696   1.592   4.337  12.349 -4.1139  0.6140 -4.4782
 3021SOL    HW220697   1.597   4.391  12.476 -1.0555  3.2112 -0.4670
 3022SOL     OW20698   1.576   2.731  13.898  0.1260  0.2122 -0.4393
 3022SOL    HW120699   1.655   2.767  13.939  1.3632 -0.0817 -2.6000
 3022SOL    HW220700   1.569   2.643  13.934  0.8706  0.1027 -0.5540
 3023SOL     OW20701   2.648   0.097   5.926  0.2348  0.3350  0.2165
 3023SOL    HW120702   2.666   0.084   5.833  1.2526  0.6653  0.3635
 3023SOL    HW220703   2.669   0.190   5.932 -0.8820  0.6178 -0.2440
 3024SOL     OW20704   3.510   2.102   6.916 -0.7144  0.2879  0.6948
 3024SOL    HW120705   3.481   2.109   6.825  0.5121 -0.0427  0.2681
 3024SOL    HW220706   3.605   2.095   6.908 -0.5637  1.7075  1.2085
 3025SOL     OW20707   4.109   2.683  17.164 -0.6893  0.4632 -0.2232
 3025SOL    HW120708   4.043   2.743  17.128 -1.5185 -0.5621 -0.4233
 3025SOL    HW220709   4.057   2.661  17.241 -0.1991  1.1628  0.3020
 3026SOL     OW20710   2.446   0.688   1.064  0.3646  0.0197 -0.3202
 3026SOL    HW120711   2.395   0.757   1.022 -0.3114 -0.4759 -0.3375
 3026SOL    HW220712   2.390   0.656   1.136  0.6350 -1.6518 -0.8531
 3027SOL     OW20713   0.635   3.013   1.644 -0.1319 -0.6517 -0.0911
 3027SOL    HW120714   0.542   3.030   1.659 -0.2181  0.8136 -2.2416
 3027SOL    HW220715   0.662   3.100   1.615 -0.3315 -1.9316 -4.0796
 3028SOL     OW20716   4.525   0.629  15.518 -0.2421 -0.1478  0.3039
 3028SOL    HW120717   4.612   0.609  15.483  0.2058 -0.0403  1.3728
 3028SOL    HW220718   4.510   0.563  15.586 -1.5429 -0.0063  0.1506
 3029SOL     OW20719   0.561   2.966   4.647  0.5265  0.6660 -0.2482
 3029SOL    HW120720   0.602   2.898   4.699 -2.0336 -1.3016 -0.8481
 3029SOL    HW220721   0.486   2.996   4.698 -0.5217  0.6491 -1.7725
 3030SOL     OW20722   1.288   0.977  14.725 -0.5140  0.6325 -0.0264
 3030SOL    HW120723   1.332   0.982  14.640 -0.0964 -3.0397 -0.0098
 3030SOL    HW220724   1.216   0.928  14.685  0.7927 -0.3924 -1.0923
 3031SOL     OW20725   0.949   1.654   1.057  0.2947 -0.0770  0.0550
 3031SOL    HW120726   0.943   1.725   1.120  1.2718 -1.7741  2.0827
 3031SOL    HW220727   1.043   1.650   1.037 -0.0051 -0.5949 -1.2772
 3032SOL     OW20728   3.325   2.409   8.497 -0.6148 -0.0980 -0.1106
 3032SOL    HW120729   3.362   2.495   8.477 -0.2345 -0.1292  0.4818
 3032SOL    HW220730   3.234   2.440   8.498 -1.4155 -2.4297 -2.1649
 3033SOL     OW20731   4.306   2.321   8.290 -0.1507 -0.3925  0.1568
 3033SOL    HW120732   4.330   2.411   8.309 -1.8178  0.7769 -3.1718
 3033SOL    HW220733   4.217   2.319   8.324 -0.1609 -0.7568  0.1176
 3034SOL     OW20734   1.315   0.954  11.512 -0.4242 -0.1840 -0.1860
 3034SOL    HW120735   1.245   0.960  11.577 -1.3622  1.6748 -1.3776
 3034SOL    HW220736   1.293   0.868  11.474 -2.3205 -0.2671  1.1206
 3035SOL     OW20737   3.037   0.532   9.666 -0.4356  0.5484  0.4566
 3035SOL    HW120738   3.050   0.584   9.745  1.4811  0.7551 -0.0001
 3035SOL    HW220739   3.099   0.463   9.687 -0.8567  0.3404  1.0103
 3036SOL     OW20740   1.564   0.887   8.645  0.3769  0.2685  0.1349
 3036SOL    HW120741   1.574   0.887   8.549  4.7507 -0.9436  0.5544
 3036SOL    HW220742   1.547   0.979   8.665  1.8259  0.3406  1.0651
 3037SOL     OW20743   4.378   2.097  12.220 -0.0698 -0.1998  0.5257
 3037SOL    HW120744   4.333   2.031  12.273 -3.6129 -0.9809 -3.5037
 3037SOL    HW220745   4.356   2.065  12.133 -0.3829  0.0742  0.5039
 3038SOL     OW20746   2.224   0.502   4.739 -0.7922  0.4946  0.2078
 3038SOL    HW120747   2.235   0.591   4.705 -2.2220  0.3922 -0.5158
 3038SOL    HW220748   2.309   0.462   4.721 -1.5448 -0.0542 -2.1353
 3039SOL     OW20749   3.289   0.908   1.880  0.3378 -0.2574  0.5964
 3039SOL    HW120750   3.274   0.904   1.975  0.7778 -1.1454  0.6282
 3039SOL    HW220751   3.253   0.992   1.851  1.1846  0.4420  1.5546
 3040SOL     OW20752   4.732   2.415   9.008  0.0970 -0.3807  0.9991
 3040SOL    HW120753   4.720   2.372   9.092  0.1239 -0.0380  1.1782
 3040SOL    HW220754   4.690   2.343   8.961 -2.1444 -0.0396  2.5135
 3041SOL     OW20755   2.762   4.431   2.579 -0.2347 -0.2898  0.1807
 3041SOL    HW120756   2.843   4.481   2.567 -0.0723 -1.0265 -1.7990
 3041SOL    HW220757   2.722   4.465   2.659  1.5004  0.3803  0.7676
 3042SOL     OW20758   2.899   4.084  11.832  0.3145 -0.1778  0.1383
 3042SOL    HW120759   2.828   4.119  11.885  1.1608  1.1712  0.3943
 3042SOL    HW220760   2.931   4.150  11.770  0.9076 -0.0311  0.6008
 3043SOL     OW20761   0.158   0.756  11.881  0.1527 -0.1192  0.0724
 3043SOL    HW120762   0.073   0.721  11.908  0.3305 -2.0725 -1.8878
 3043SOL    HW220763   0.137   0.849  11.872 -1.5772 -0.5201 -0.1002
 3044SOL     OW20764   0.783   3.289   1.557  0.0496  0.4167  0.3209
 3044SOL    HW120765   0.856   3.245   1.601  0.4186  0.4045 -0.3073
 3044SOL    HW220766   0.779   3.377   1.596  1.4994  1.2251 -1.3659
 3045SOL     OW20767   3.441   0.445  14.008 -0.1762  0.0064 -0.3037
 3045SOL    HW120768   3.486   0.523  13.975  1.6330 -0.0294  2.1508
 3045SOL    HW220769   3.452   0.446  14.103 -0.1814 -1.4307 -0.2897
 3046SOL     OW20770   3.298   1.601   5.250 -0.3318  0.5364  0.2825
 3046SOL    HW120771   3.208   1.570   5.264 -0.8997  0.8476 -2.5979
 3046SOL    HW220772   3.325   1.634   5.336  0.6385  1.0226 -0.2150
 3047SOL     OW20773   2.975   1.061  10.855 -0.4828  0.3379 -0.1333
 3047SOL    HW120774   2.989   1.141  10.905 -0.1735  1.6137 -2.2480
 3047SOL    HW220775   3.030   1.072  10.777 -0.9294  0.3568 -0.4506
 3048SOL     OW20776   1.725   0.926   2.589  0.4871  0.0850  0.0177
 3048SOL    HW120777   1.675   0.912   2.509  1.4106  0.0483 -0.5397
 3048SOL    HW220778   1.784   0.851   2.590 -1.5304 -1.4974  0.3012
 3049SOL     OW20779   0.321   0.423   7.512  0.0271  0.2872  0.1295
 3049SOL    HW120780   0.415   0.416   7.524 -0.0767  0.1470  0.8549
 3049SOL    HW220781   0.312   0.504   7.461  1.3078  0.6011  0.4170
 3050SOL     OW20782   1.140   2.487  16.266 -0.2079  0.3587 -0.0308
 3050SOL    HW120783   1.126   2.558  16.329  0.0962  0.4802 -0.1003
 3050SOL    HW220784   1.050   2.474  16.236  0.3753 -2.0789 -0.7227
 3051SOL     OW20785   3.866   3.083  17.097  0.6180  0.6086  0.7802
 3051SOL    HW120786   3.805   3.095  17.024 -0.3843 -0.3473  1.4545
 3051SOL    HW220787   3.879   2.988  17.100 -1.0838  0.3208 -0.6586
 3052SOL     OW20788   4.039   1.037   3.274 -0.1508 -0.1143 -0.0306
 3052SOL    HW120789   4.031   1.041   3.369 -2.3968  0.3656 -0.2439
 3052SOL    HW220790   4.106   0.968   3.275 -0.9435 -0.9297 -2.8918
 3053SOL     OW20791   1.811   0.470   3.233  0.2517 -0.2447  0.0062
 3053SOL    HW120792   1.732   0.506   3.273 -1.5798 -2.6128 -1.4652
 3053SOL    HW220793   1.872   0.542   3.248  1.5944 -1.1947 -0.9034
 3054SOL     OW20794   0.964   4.548   8.887  0.7059  0.1071  0.2654
 3054SOL    HW120795   0.980   4.635   8.851  3.2305  0.2810  1.8052
 3054SOL    HW220796   0.915   4.582   8.962 -0.9671  0.0072 -0.7888
 3055SOL     OW20797   0.906   4.666   5.806  0.0089 -0.4290 -0.7022
 3055SOL    HW120798   0.856   4.648   5.726  0.5663 -0.9198 -0.9400
 3055SOL    HW220799   0.849   4.727   5.852  2.8007  1.4685  0.2834
 3056SOL     OW20800   1.614   3.691   7.307  0.3288 -0.1650 -0.5090
 3056SOL    HW120801   1.568   3.689   7.390 -1.5781  1.0639 -1.5313
 3056SOL    HW220802   1.637   3.599   7.302  2.0353  0.1287  1.8983
 3057SOL     OW20803   2.910   1.968   4.197 -0.2201  0.0207  0.9893
 3057SOL    HW120804   2.846   1.986   4.127 -0.6150 -2.0140  0.8301
 3057SOL    HW220805   2.990   2.007   4.162 -1.3290  1.9057  0.5188
 3058SOL     OW20806   3.180   1.512   9.866  0.1410 -0.0079  0.3988
 3058SOL    HW120807   3.198   1.576   9.935  0.4293 -0.0903  0.3978
 3058SOL    HW220808   3.193   1.433   9.918 -2.4301 -1.1050 -0.6403
 3059SOL     OW20809   0.684   2.092  12.562 -0.3943 -0.0126  0.0399
 3059SOL    HW120810   0.705   2.085  12.468  1.6549 -1.2568  0.5903
 3059SOL    HW220811   0.691   2.000  12.586 -0.2409  0.0460  0.2160
 3060SOL     OW20812   3.938   1.573  16.501  0.2194  0.8819  0.4526
 3060SOL    HW120813   3.904   1.663  16.504 -2.5641 -0.1410  0.0386
 3060SOL    HW220814   3.936   1.557  16.407 -0.0596  1.4339  0.3662
 3061SOL     OW20815   3.065   3.336  15.208  0.0182 -0.0404  0.6058
 3061SOL    HW120816   3.044   3.272  15.275 -2.0604  0.9194  0.8489
 3061SOL    HW220817   3.161   3.335  15.214  0.2050  2.2086 -1.8664
 3062SOL     OW20818   1.890   2.794   8.027 -0.1424 -0.8669 -0.4971
 3062SOL    HW120819   1.982   2.806   8.050 -0.4766 -0.2417  0.5155
 3062SOL    HW220820   1.898   2.727   7.959  1.6556 -0.6355 -0.5063
 3063SOL     OW20821   2.698   2.250   6.333 -0.0127  0.2207 -0.4246
 3063SOL    HW120822   2.621   2.304   6.347  0.3462  0.2628  1.4103
 3063SOL    HW220823   2.659   2.166   6.311 -2.1732  0.8071  1.2291
 3064SOL     OW20824   0.724   2.874   1.378 -0.1487  0.3514  0.4840
 3064SOL    HW120825   0.815   2.894   1.399  0.2181 -0.5424 -0.2139
 3064SOL    HW220826   0.682   2.867   1.463  1.3429  0.0863  1.2052
 3065SOL     OW20827   2.492   0.613   4.670 -0.0362 -0.3488 -0.3363
 3065SOL    HW120828   2.567   0.610   4.611  1.2049  0.8770  1.1909
 3065SOL    HW220829   2.439   0.678   4.623  1.5454 -0.1475 -1.8593
 3066SOL     OW20830   2.843   1.540   5.540  0.3232  0.1361 -0.0804
 3066SOL    HW120831   2.858   1.627   5.504  3.6689  0.1577  1.3144
 3066SOL    HW220832   2.758   1.520   5.501 -0.5157  2.3291  0.6568
 3067SOL     OW20833   4.179   4.181   9.709  0.7116 -0.1210 -0.1988
 3067SOL    HW120834   4.213   4.219   9.628 -0.3267 -1.1165 -1.1028
 3067SOL    HW220835   4.218   4.239   9.775  2.3306 -0.7712 -0.5999
 3068SOL     OW20836   1.094   4.223   9.224  0.3429 -0.1220 -0.2674
 3068SOL    HW120837   1.148   4.167   9.169 -2.2404  0.6993 -3.6220
 3068SOL    HW220838   1.100   4.310   9.184  0.2854 -0.6957 -1.5070
 3069SOL     OW20839   2.500   1.280   1.743  0.1193 -0.2746 -0.0562
 3069SOL    HW120840   2.438   1.252   1.675 -1.5169 -1.3693  1.8840
 3069SOL    HW220841   2.442   1.285   1.819 -1.3414  0.3767 -1.2154
 3070SOL     OW20842   3.578   1.377   5.975 -0.1725  0.1985 -0.0429
 3070SOL    HW120843   3.668   1.376   5.941 -0.1288  1.1562  0.0528
 3070SOL    HW220844   3.578   1.343   6.064 -1.4016 -1.5191 -0.7008
 3071SOL     OW20845   4.404   3.844  17.670 -0.0145 -0.2081  0.8091
 3071SOL    HW120846   4.360   3.862  17.586 -1.0765 -0.2395  1.3615
 3071SOL    HW220847   4.483   3.898  17.667  0.4193 -0.6724  4.0186
 3072SOL     OW20848   0.944   3.769  16.503  0.3539 -0.0554  0.4500
 3072SOL    HW120849   0.962   3.729  16.418  1.5899  1.3382  0.0663
 3072SOL    HW220850   0.862   3.815  16.489  0.9616  0.7138 -0.5617
 3073SOL     OW20851   3.260   2.815   4.179 -0.5291 -0.2762 -0.5180
 3073SOL    HW120852   3.330   2.794   4.117  0.7898 -4.1934  2.2704
 3073SOL    HW220853   3.245   2.905   4.151 -2.7702 -0.3490  0.4618
 3074SOL     OW20854   3.947   3.372   6.466 -0.0564  0.0909  0.2394
 3074SOL    HW120855   3.905   3.411   6.543  0.1959 -1.9490  1.3972
 3074SOL    HW220856   3.878   3.377   6.400  1.1686 -1.4123 -1.1505
 3075SOL     OW20857   4.331   3.489   8.562  0.2847 -0.0179 -0.4973
 3075SOL    HW120858   4.380   3.570   8.574  0.6414 -0.3185  0.0641
 3075SOL    HW220859   4.267   3.495   8.633  1.3240 -0.2718  0.4591
 3076SOL     OW20860   3.504   4.572   8.171  0.2079 -0.2666 -0.1640
 3076SOL    HW120861   3.538   4.632   8.105  0.7036 -1.5242 -1.0718
 3076SOL    HW220862   3.471   4.635   8.235  1.9363 -0.9572  1.4223
 3077SOL     OW20863   0.548   0.082   1.954 -0.5353 -0.4049  0.3171
 3077SOL    HW120864   0.542   0.087   2.049  1.3298  0.2918  0.4011
 3077SOL    HW220865   0.522   0.174   1.945 -0.4901 -0.4809 -0.5909
 3078SOL     OW20866   1.157   3.216  15.225 -0.1821 -0.8054 -0.4791
 3078SOL    HW120867   1.205   3.236  15.145 -0.6318  3.0128  0.2311
 3078SOL    HW220868   1.208   3.146  15.266 -0.4734 -1.0531 -0.5345
 3079SOL     OW20869   1.454   2.015   4.727 -0.0124 -0.1501 -0.3310
 3079SOL    HW120870   1.399   2.088   4.757  1.6415  1.5409 -1.4331
 3079SOL    HW220871   1.483   1.983   4.813  1.0511  2.6053  0.3454
 3080SOL     OW20872   1.636   3.759   2.812 -0.3710  0.1021 -0.5167
 3080SOL    HW120873   1.630   3.854   2.808  0.3644  0.1324 -0.8177
 3080SOL    HW220874   1.597   3.736   2.728 -1.6489  1.1290 -0.2134
 3081SOL     OW20875   1.169   4.658   5.159  0.1060  0.9956  0.0252
 3081SOL    HW120876   1.183   4.698   5.244  0.9923  0.6681  0.0329
 3081SOL    HW220877   1.193   4.569   5.185  1.3239  1.2145 -0.3182
 3082SOL     OW20878   4.444   4.642   5.870  0.2041 -0.5052 -0.5315
 3082SOL    HW120879   4.535   4.614   5.882 -0.1442 -1.6278 -0.5330
 3082SOL    HW220880   4.447   4.721   5.816  1.1915 -2.1599 -2.8536
 3083SOL     OW20881   2.547   1.626   3.316  0.0494 -0.2412  0.3173
 3083SOL    HW120882   2.632   1.663   3.338  0.1277 -0.5644  0.5613
 3083SOL    HW220883   2.543   1.667   3.230 -0.5208  0.6005  0.7421
 3084SOL     OW20884   2.795   1.494  15.734 -0.2116  0.0784  0.3383
 3084SOL    HW120885   2.759   1.405  15.740 -1.1824  0.4002 -0.5994
 3084SOL    HW220886   2.886   1.472  15.752 -0.4857 -0.5391  0.9501
 3085SOL     OW20887   4.044   2.047  11.438  0.3937  0.4589  0.8250
 3085SOL    HW120888   4.035   2.139  11.411 -3.6307  0.5802  2.5944
 3085SOL    HW220889   3.974   2.021  11.379 -0.0780  2.2043  0.6008
 3086SOL     OW20890   2.455   2.567   6.047  0.1586 -0.2497 -0.1168
 3086SOL    HW120891   2.452   2.479   6.083  0.0646 -0.6916 -1.1949
 3086SOL    HW220892   2.367   2.604   6.058  0.0379 -0.7148  0.4351
 3087SOL     OW20893   1.638   1.466   1.853  0.1621  0.3451 -0.4012
 3087SOL    HW120894   1.550   1.466   1.890 -0.7975 -1.3368 -2.6590
 3087SOL    HW220895   1.607   1.452   1.763 -2.1787 -1.2602  0.6593
 3088SOL     OW20896   3.854   1.455  15.060  0.5751 -0.6136 -0.1753
 3088SOL    HW120897   3.809   1.464  15.144 -0.8753  0.7544 -1.1081
 3088SOL    HW220898   3.867   1.361  15.050  0.5792 -0.5984 -0.3106
 3089SOL     OW20899   3.761   1.759   3.882 -0.4272 -0.4430  0.4897
 3089SOL    HW120900   3.713   1.762   3.799 -1.0685 -3.2664  0.7838
 3089SOL    HW220901   3.816   1.837   3.872  1.6705 -1.6302  2.7876
 3090SOL     OW20902   3.256   1.902  15.176 -0.4513  0.0893 -0.0196
 3090SOL    HW120903   3.204   1.902  15.257 -2.3875 -2.5343 -1.2530
 3090SOL    HW220904   3.214   1.970  15.124 -0.7095 -0.9136 -1.1261
 3091SOL     OW20905   3.931   2.412  16.887 -0.5543 -0.5393  0.2507
 3091SOL    HW120906   3.932   2.457  16.972  0.9254 -1.7090  0.8379
 3091SOL    HW220907   3.889   2.326  16.891 -0.1426 -0.8044 -1.3397
 3092SOL     OW20908   3.478   0.708   6.218 -0.3471 -0.5203  0.0240
 3092SOL    HW120909   3.474   0.720   6.123 -1.7979 -0.8120  0.0340
 3092SOL    HW220910   3.563   0.742   6.244  1.5788 -2.8110 -3.2319
 3093SOL     OW20911   2.956   2.057   4.465  0.3210  0.1474  0.2872
 3093SOL    HW120912   2.960   2.150   4.445 -1.3545  0.0535 -0.4874
 3093SOL    HW220913   2.941   2.020   4.378 -1.1593  3.5137 -0.8536
 3094SOL     OW20914   1.050   2.719   6.440  0.3163 -1.0038  0.0217
 3094SOL    HW120915   1.016   2.741   6.526  0.4363 -0.0383 -0.1790
 3094SOL    HW220916   0.981   2.665   6.401  0.5400 -1.1435 -0.1823
 3095SOL     OW20917   2.743   3.843   7.149 -0.2482  0.5647 -0.1209
 3095SOL    HW120918   2.677   3.911   7.137 -1.3001 -0.6433 -1.2742
 3095SOL    HW220919   2.717   3.781   7.080  1.1957  0.6556 -0.7370
 3096SOL     OW20920   0.387   4.509  14.313 -0.0371 -0.2261  0.4725
 3096SOL    HW120921   0.351   4.580  14.259 -0.3665 -1.9034 -1.4951
 3096SOL    HW220922   0.410   4.551  14.396  1.7444  0.4323 -0.3386
 3097SOL     OW20923   0.484   3.088   5.495 -0.0090 -0.4659  0.0390
 3097SOL    HW120924   0.502   3.098   5.589 -2.5846  0.8265  0.3914
 3097SOL    HW220925   0.550   3.147   5.458  0.0239 -0.3482  0.2833
 3098SOL     OW20926   2.133   3.596   1.918 -0.3393 -0.1010  0.1127
 3098SOL    HW120927   2.132   3.577   1.825 -2.1745 -2.0268  0.5400
 3098SOL    HW220928   2.052   3.645   1.918 -0.8987 -1.0255 -0.1076
 3099SOL     OW20929   3.198   1.515   2.390 -0.3999 -0.0806  0.6351
 3099SOL    HW120930   3.171   1.559   2.309  2.3454 -1.2513 -0.9219
 3099SOL    HW220931   3.151   1.433   2.376 -2.7544  1.4028 -0.1502
 3100SOL     OW20932   1.786   4.008   6.131  0.0712 -0.3538  0.0571
 3100SOL    HW120933   1.875   3.980   6.149 -0.2238  0.6201  2.9064
 3100SOL    HW220934   1.785   3.986   6.037 -0.8220  0.2068 -0.0670
 3101SOL     OW20935   3.564   4.625   3.439  0.2134  0.1604 -0.0818
 3101SOL    HW120936   3.654   4.602   3.418 -0.1451 -0.2902 -1.1164
 3101SOL    HW220937   3.540   4.587   3.524 -0.7200 -0.3250 -0.5550
 3102SOL     OW20938   3.282   1.539   7.702 -0.1685 -0.2265 -0.2536
 3102SOL    HW120939   3.236   1.505   7.625 -0.8732  0.6266 -0.2071
 3102SOL    HW220940   3.370   1.541   7.665 -0.0662 -0.1787 -0.0062
 3103SOL     OW20941   3.847   0.151   5.798  0.4227  0.4466  0.3506
 3103SOL    HW120942   3.754   0.150   5.777  0.7640  0.8657 -1.2022
 3103SOL    HW220943   3.848   0.087   5.870  1.1012 -0.0636 -0.1135
 3104SOL     OW20944   0.567   0.847   7.705  0.1392 -0.0321  0.1701
 3104SOL    HW120945   0.625   0.912   7.744 -0.8475  0.7985  0.2681
 3104SOL    HW220946   0.543   0.895   7.626 -0.6415  1.0365  1.0691
 3105SOL     OW20947   4.160   1.857   0.379  0.1234 -0.0608  0.1964
 3105SOL    HW120948   4.193   1.915   0.311  2.8911  0.5304  2.0515
 3105SOL    HW220949   4.184   1.776   0.333 -0.2840 -0.0978  0.0489
 3106SOL     OW20950   2.825   0.727  15.426  0.9956  0.4855  0.2972
 3106SOL    HW120951   2.828   0.779  15.346 -1.3981 -0.4349 -0.3982
 3106SOL    HW220952   2.882   0.651  15.414 -2.3891 -2.0786  0.6187
 3107SOL     OW20953   3.356   1.702   3.394 -0.1184  0.4246 -0.4660
 3107SOL    HW120954   3.313   1.771   3.445  1.6962  0.0832  1.5347
 3107SOL    HW220955   3.425   1.754   3.355  0.5096 -0.4419 -0.5187
 3108SOL     OW20956   1.983   0.193   0.562 -0.6491  0.6488 -0.1305
 3108SOL    HW120957   2.053   0.204   0.626 -1.9714 -0.6465  1.5146
 3108SOL    HW220958   2.016   0.246   0.490 -0.0743  0.2429 -0.1697
 3109SOL     OW20959   3.416   4.449   2.787 -0.5457 -0.0209 -0.1216
 3109SOL    HW120960   3.474   4.525   2.781  0.6606 -0.8733  0.7369
 3109SOL    HW220961   3.401   4.447   2.881 -3.8933  0.9050 -0.6286
 3110SOL     OW20962   3.255   3.625   9.480 -0.1289 -0.5455  0.1399
 3110SOL    HW120963   3.222   3.703   9.525 -2.2667 -1.0244 -0.6001
 3110SOL    HW220964   3.328   3.591   9.531 -0.0369  2.3406  1.9243
 3111SOL     OW20965   4.356   0.812   5.332 -0.5277 -0.0451  0.1453
 3111SOL    HW120966   4.421   0.765   5.384  0.0482 -0.7502 -1.1839
 3111SOL    HW220967   4.310   0.842   5.410 -2.8509 -3.2920 -0.0090
 3112SOL     OW20968   0.812   4.561   8.470  0.9469  0.4593 -0.1728
 3112SOL    HW120969   0.804   4.470   8.444  2.1930  0.2149  0.2830
 3112SOL    HW220970   0.782   4.546   8.560 -0.8758  1.2259 -0.6502
 3113SOL     OW20971   1.331   4.048   5.563  0.3603 -0.1215 -0.1330
 3113SOL    HW120972   1.327   3.967   5.613  0.2434  0.1983  0.3786
 3113SOL    HW220973   1.366   4.104   5.632 -1.7505  1.0973 -0.0484
 3114SOL     OW20974   0.910   3.533  10.832  0.1156 -0.0082  0.0890
 3114SOL    HW120975   0.885   3.561  10.920  1.8702 -0.4234  0.7115
 3114SOL    HW220976   0.869   3.606  10.787  0.5078  0.0433 -0.1805
 3115SOL     OW20977   2.544   0.441  17.379  0.6778 -0.2095  0.1676
 3115SOL    HW120978   2.591   0.428  17.297 -0.1378  2.3392 -0.7045
 3115SOL    HW220979   2.458   0.455  17.340  0.9545 -0.8605 -0.6715
 3116SOL     OW20980   1.825   1.229   3.675  0.5995 -0.2301 -0.1570
 3116SOL    HW120981   1.780   1.294   3.622 -2.2087 -1.2370  1.0019
 3116SOL    HW220982   1.758   1.170   3.709 -0.5144  0.1835 -1.6597
 3117SOL     OW20983   4.339   3.024   5.135  0.6269 -0.4061 -0.5468
 3117SOL    HW120984   4.429   3.011   5.103  1.2297  0.4234  0.8333
 3117SOL    HW220985   4.309   3.077   5.061  0.7918 -0.5678 -0.7293
 3118SOL     OW20986   4.016   2.513  14.232 -0.2025 -0.3798 -0.0486
 3118SOL    HW120987   4.110   2.529  14.223  0.0053 -1.1401  0.8013
 3118SOL    HW220988   4.013   2.422  14.261  0.1203 -1.0013 -1.9487
 3119SOL     OW20989   0.815   2.780  10.276  0.5245  0.4254  0.9128
 3119SOL    HW120990   0.892   2.732  10.305  0.2037  0.3717  1.6608
 3119SOL    HW220991   0.798   2.745  10.188  1.8591 -1.8785  1.5913
 3120SOL     OW20992   1.430   0.967   3.550  0.0708  0.1643 -0.1840
 3120SOL    HW120993   1.484   0.935   3.478 -0.5876  0.3315 -0.7491
 3120SOL    HW220994   1.344   0.958   3.510 -0.1865  0.6560  0.2599
 3121SOL     OW20995   0.880   3.982   1.273  0.7493  0.2653 -0.4407
 3121SOL    HW120996   0.927   3.905   1.241 -0.8497 -0.5290 -0.9212
 3121SOL    HW220997   0.954   4.042   1.268  0.0475  0.9281 -2.8362
 3122SOL     OW20998   0.240   3.290   3.624 -0.0354  0.5288  0.2945
 3122SOL    HW120999   0.221   3.377   3.659 -1.3242  0.0413  0.8157
 3122SOL    HW221000   0.314   3.266   3.680  0.7729  0.7615 -0.6641
 3123SOL     OW21001   2.447   3.723   5.061  0.1256 -0.1066 -0.6100
 3123SOL    HW121002   2.540   3.710   5.077  0.2640  0.2521 -1.1490
 3123SOL    HW221003   2.432   3.642   5.011 -2.1792  0.8369 -1.4615
 3124SOL     OW21004   4.075   0.833   6.423 -0.3362  0.0572  0.3034
 3124SOL    HW121005   4.134   0.769   6.462  0.1549  0.1257 -0.3371
 3124SOL    HW221006   4.066   0.882   6.505 -0.2094 -1.8626  1.4598
 3125SOL     OW21007   1.929   1.623   8.766 -0.2631  0.3475 -0.1131
 3125SOL    HW121008   1.838   1.613   8.795  0.1540 -1.5203  0.5177
 3125SOL    HW221009   1.955   1.694   8.825  1.3682  0.9125 -1.4921
 3126SOL     OW21010   4.658   0.118   1.971  0.0947 -0.1411  0.1777
 3126SOL    HW121011   4.721   0.165   2.025  2.8426 -1.2879 -1.9868
 3126SOL    HW221012   4.577   0.148   2.011 -0.1900 -0.2127 -0.3459
 3127SOL     OW21013   0.428   3.054   3.202  0.1262 -0.2872  0.4357
 3127SOL    HW121014   0.393   2.983   3.256  0.4024 -0.1295  0.8142
 3127SOL    HW221015   0.521   3.033   3.207  0.4070  0.5754 -1.1819
 3128SOL     OW21016   0.317   1.318   3.980  0.5710 -0.1333  0.2473
 3128SOL    HW121017   0.326   1.314   4.075 -2.1592  1.8318  0.6082
 3128SOL    HW221018   0.400   1.278   3.955  0.3613  0.8434 -2.0387
 3129SOL     OW21019   4.439   2.508   8.839  0.1567  0.3051  0.0125
 3129SOL    HW121020   4.481   2.535   8.757 -0.2196  0.9019  0.0172
 3129SOL    HW221021   4.400   2.422   8.821 -1.4745  1.0798 -0.1613
 3130SOL     OW21022   1.964   1.628  11.451  0.4654 -0.2289 -0.0638
 3130SOL    HW121023   1.933   1.568  11.519  0.7183 -0.4108 -0.1072
 3130SOL    HW221024   1.934   1.586  11.370  0.9861 -3.6830  1.5410
 3131SOL     OW21025   1.507   4.350   6.452 -0.0963 -0.2989 -0.3965
 3131SOL    HW121026   1.566   4.422   6.473 -0.7513  0.2621 -0.4908
 3131SOL    HW221027   1.459   4.380   6.375 -1.6001 -0.0257  0.6340
 3132SOL     OW21028   2.606   4.725   5.668  0.0810 -0.2050 -0.1989
 3132SOL    HW121029   2.677   4.704   5.607 -0.5588  0.1360 -1.0526
 3132SOL    HW221030   2.568   4.637   5.676 -1.1590  0.2593 -1.1713
 3133SOL     OW21031   0.633   0.871   4.376  0.1794  0.2344  0.3660
 3133SOL    HW121032   0.630   0.928   4.453  0.6689  0.4732  0.2069
 3133SOL    HW221033   0.572   0.799   4.396  1.0172 -0.9876 -1.5175
 3134SOL     OW21034   1.820   0.616   8.187  0.4991 -0.2935 -0.4888
 3134SOL    HW121035   1.837   0.649   8.275 -0.2225 -2.6583  0.5435
 3134SOL    HW221036   1.887   0.661   8.136 -0.5241 -1.3952 -2.7995
 3135SOL     OW21037   0.187   2.608   4.628  0.5673  0.4333 -0.3414
 3135SOL    HW121038   0.251   2.568   4.686  0.3235  0.6555  0.0854
 3135SOL    HW221039   0.244   2.668   4.579 -0.2807 -0.0961 -1.9676
 3136SOL     OW21040   4.169   2.452  15.621 -0.3085  0.1174 -0.3943
 3136SOL    HW121041   4.214   2.397  15.557 -1.2655  0.7018 -1.5537
 3136SOL    HW221042   4.166   2.386  15.690 -1.6526  0.2869 -0.2893
 3137SOL     OW21043   3.074   0.241   7.355  0.2084 -0.8136  0.1881
 3137SOL    HW121044   3.051   0.153   7.323  1.3248 -0.7435 -0.8157
 3137SOL    HW221045   3.005   0.261   7.419  0.9893 -0.5249  0.9310
 3138SOL     OW21046   1.199   0.909   1.528  0.2976  0.1202  0.4194
 3138SOL    HW121047   1.294   0.907   1.542  0.0295  1.0061  2.2364
 3138SOL    HW221048   1.191   0.949   1.441 -3.2947 -2.3736 -0.4292
 3139SOL     OW21049   3.563   4.704   6.542 -0.2254 -0.2516  0.5599
 3139SOL    HW121050   3.568   4.620   6.588  0.2540 -0.3905  0.2511
 3139SOL    HW221051   3.657   4.720   6.538 -0.4085  0.7381  0.3372
 3140SOL     OW21052   3.214   3.079   8.159 -0.2372 -0.3662 -0.0184
 3140SOL    HW121053   3.303   3.108   8.142 -0.2613  0.6701  1.6047
 3140SOL    HW221054   3.224   3.036   8.244  2.2007 -1.7801 -1.0222
 3141SOL     OW21055   0.711   2.439  10.420 -0.5123  0.4951  0.0718
 3141SOL    HW121056   0.631   2.417  10.467 -0.5570 -0.5540 -0.5111
 3141SOL    HW221057   0.761   2.359  10.435  2.3434  1.7743 -2.5217
 3142SOL     OW21058   1.641   2.628  11.484 -0.3710 -0.4125 -0.0496
 3142SOL    HW121059   1.658   2.701  11.424 -0.2961 -0.6377 -0.3052
 3142SOL    HW221060   1.545   2.623  11.491 -0.5114  2.0477 -0.1644
 3143SOL     OW21061   3.556   4.249   3.352 -0.1933 -0.0742  0.0935
 3143SOL    HW121062   3.641   4.291   3.344  0.9193 -2.2294  0.5499
 3143SOL    HW221063   3.588   4.159   3.355 -0.2522 -0.1044 -0.1851
 3144SOL     OW21064   3.629   2.494   5.372 -0.1547 -0.0774 -0.7018
 3144SOL    HW121065   3.675   2.433   5.314  0.2929 -0.2788 -0.1315
 3144SOL    HW221066   3.538   2.468   5.358 -0.2898  0.2756 -0.4887
 3145SOL     OW21067   0.372   2.439   9.095  0.7294  0.1696 -0.2371
 3145SOL    HW121068   0.315   2.491   9.151  1.1240  1.6207 -1.1932
 3145SOL    HW221069   0.438   2.507   9.082  1.9792 -1.2655 -1.4259
 3146SOL     OW21070   3.558   2.321   8.627 -0.2859 -0.2123 -0.0717
 3146SOL    HW121071   3.480   2.345   8.577  0.2258  0.6731 -0.4395
 3146SOL    HW221072   3.555   2.397   8.685 -1.1162 -0.8479  0.7324
 3147SOL     OW21073   0.867   3.923  15.408  0.2576  0.6312 -0.1705
 3147SOL    HW121074   0.878   3.912  15.314 -2.4638 -0.6980 -0.3398
 3147SOL    HW221075   0.935   3.986  15.432 -0.6577  1.6600 -0.3143
 3148SOL     OW21076   2.240   4.700   4.599  0.1562 -0.5282  0.0054
 3148SOL    HW121077   2.229   4.637   4.527  0.1865 -1.1952  0.5840
 3148SOL    HW221078   2.255   0.047   4.553 -0.0378 -1.0172 -0.9336
 3149SOL     OW21079   2.573   4.463   2.370 -0.1110  0.3433 -0.1611
 3149SOL    HW121080   2.600   4.448   2.280  0.8938  0.0808  0.1804
 3149SOL    HW221081   2.652   4.462   2.424 -0.1818 -0.7947 -0.0701
 3150SOL     OW21082   0.278   4.621  16.566  0.3716 -0.7534  0.1520
 3150SOL    HW121083   0.196   4.596  16.522  0.5713  0.0260 -0.6635
 3150SOL    HW221084   0.331   4.543  16.551  0.6999 -0.9698  2.5200
 3151SOL     OW21085   4.250   0.075  13.148 -0.3011 -0.6851 -0.1604
 3151SOL    HW121086   4.276   0.041  13.062 -0.0535 -1.6968  0.3194
 3151SOL    HW221087   4.328   0.107  13.194 -0.8497 -1.1748  1.1094
 3152SOL     OW21088   0.743   0.841  10.955  0.1991 -0.0969  0.3815
 3152SOL    HW121089   0.669   0.787  10.981  2.2577 -3.8639 -1.5389
 3152SOL    HW221090   0.810   0.831  11.023 -0.1495  1.4833  0.9694
 3153SOL     OW21091   4.417   3.888   2.952 -0.2683  0.4706  0.0755
 3153SOL    HW121092   4.337   3.929   2.982 -0.4969  0.5802 -0.6822
 3153SOL    HW221093   4.467   3.954   2.905 -0.8848  0.6548 -0.3124
 3154SOL     OW21094   0.599   3.007  17.703 -0.0062 -0.0325 -0.7533
 3154SOL    HW121095   0.558   3.081  17.660 -0.6174 -0.9127 -1.6838
 3154SOL    HW221096   0.691   3.020  17.677  0.7092 -0.3679  1.6181
 3155SOL     OW21097   1.018   3.357   4.632 -0.3058 -0.3192 -0.6623
 3155SOL    HW121098   0.939   3.326   4.587 -0.6987 -0.3870  0.0804
 3155SOL    HW221099   1.077   3.362   4.557  1.7614 -2.6201  0.8238
 3156SOL     OW21100   1.152   1.550  12.313  0.1058 -0.3131  0.2378
 3156SOL    HW121101   1.144   1.565  12.407 -0.5550  0.2356  0.1005
 3156SOL    HW221102   1.246   1.534  12.321 -0.0280 -0.9379  0.5677
 3157SOL     OW21103   2.445   4.458   3.719 -0.4199  0.2143  0.4820
 3157SOL    HW121104   2.498   4.533   3.695  0.8206 -0.7451  0.2218
 3157SOL    HW221105   2.417   4.435   3.630 -0.5188  0.4836  0.4440
 3158SOL     OW21106   3.326   0.280   2.744  0.5745  0.4686  0.1949
 3158SOL    HW121107   3.256   0.241   2.797  0.4731  0.6864  0.2245
 3158SOL    HW221108   3.314   0.375   2.754 -3.5078 -0.2565  2.1946
 3159SOL     OW21109   1.944   0.933   7.424 -0.7548  0.0322  0.2283
 3159SOL    HW121110   1.861   0.887   7.416 -0.7315  0.2024 -0.8815
 3159SOL    HW221111   1.998   0.875   7.477 -0.3427  0.3065  0.1113
 3160SOL     OW21112   1.863   1.083   1.863  0.1945 -0.6246 -0.1020
 3160SOL    HW121113   1.828   1.002   1.901 -0.2074  0.1655  1.2065
 3160SOL    HW221114   1.870   1.139   1.940 -0.9226 -0.3267 -0.2140
 3161SOL     OW21115   1.174   1.608   9.000 -0.2662  0.4111 -0.2404
 3161SOL    HW121116   1.249   1.660   9.029  0.4001 -1.6528  1.8286
 3161SOL    HW221117   1.109   1.677   9.000 -0.6056  0.0889 -0.2409
 3162SOL     OW21118   2.701   1.177  13.142 -0.0308  0.2378 -0.0660
 3162SOL    HW121119   2.704   1.198  13.048 -1.6491  1.6555  0.1855
 3162SOL    HW221120   2.612   1.205  13.165 -1.0201 -1.5617 -1.7036
 3163SOL     OW21121   3.624   2.202   2.058  0.1057 -0.5834 -0.2800
 3163SOL    HW121122   3.627   2.146   2.135 -1.1063 -0.5173 -0.1868
 3163SOL    HW221123   3.652   2.140   1.990  0.3938 -0.8588  0.0922
 3164SOL     OW21124   3.956   2.279   1.775  0.2951 -0.3341 -0.0976
 3164SOL    HW121125   3.974   2.218   1.705 -2.5041 -0.6585 -0.5547
 3164SOL    HW221126   4.040   2.308   1.810 -0.2641 -2.4672  3.0436
 3165SOL     OW21127   3.606   2.966   6.877  0.5044  0.3359  0.8523
 3165SOL    HW121128   3.636   2.930   6.793  0.8097  1.0610  0.6558
 3165SOL    HW221129   3.511   2.974   6.870  0.5896  1.0182  0.4379
 3166SOL     OW21130   1.142   3.613   6.604 -0.1413  0.2487 -0.0655
 3166SOL    HW121131   1.080   3.579   6.669 -0.0299  0.5040  0.1728
 3166SOL    HW221132   1.198   3.667   6.659  2.3105 -2.6078  0.3015
 3167SOL     OW21133   1.640   1.556   1.083  0.1938 -0.2805 -0.7274
 3167SOL    HW121134   1.640   1.481   1.024  0.1471 -2.9412  2.6622
 3167SOL    HW221135   1.714   1.600   1.040  0.2628  1.7495  1.4854
 3168SOL     OW21136   2.279   2.999   3.935  0.7630 -0.3687 -0.2479
 3168SOL    HW121137   2.337   2.956   3.871 -1.2522 -2.7606 -0.5079
 3168SOL    HW221138   2.349   3.048   3.978 -1.3412  1.4507  1.0690
 3169SOL     OW21139   0.751   0.381  17.238 -0.1765 -0.3648 -0.0864
 3169SOL    HW121140   0.659   0.378  17.264  0.2144  2.4136  1.6041
 3169SOL    HW221141   0.790   0.456  17.283 -2.4945  1.3521 -0.9646
 3170SOL     OW21142   0.890   2.042   6.058  0.4086  0.3541 -0.0912
 3170SOL    HW121143   0.967   2.100   6.060  1.5625 -1.1245 -1.7460
 3170SOL    HW221144   0.920   1.977   5.994  1.9603  2.8793 -1.9218
 3171SOL     OW21145   0.241   4.715   0.652 -0.8909 -0.4632  0.5547
 3171SOL    HW121146   0.162   0.016   0.613  0.8412  2.8719  0.2113
 3171SOL    HW221147   0.289   4.685   0.575 -0.2532 -1.1605  1.2198
 3172SOL     OW21148   2.762   4.386   1.710  0.2308 -0.0120  0.4222
 3172SOL    HW121149   2.782   4.292   1.712 -0.7980 -0.2363  0.2646
 3172SOL    HW221150   2.668   4.389   1.728 -0.0362 -0.2961 -0.9075
 3173SOL     OW21151   0.319   4.683   3.158  0.3164 -0.1671 -0.1451
 3173SOL    HW121152   0.234   4.671   3.117  0.7858 -0.0491 -1.1789
 3173SOL    HW221153   0.352   4.597   3.133 -0.2437 -0.5150  0.3221
 3174SOL     OW21154   0.383   1.903   9.320 -0.0385  0.2342 -0.0718
 3174SOL    HW121155   0.330   1.977   9.289 -0.9708 -1.6880 -3.0486
 3174SOL    HW221156   0.339   1.834   9.271  0.7804 -1.4303  1.5571
 3175SOL     OW21157   0.867   0.172  10.128  0.3368 -0.2470 -0.1146
 3175SOL    HW121158   0.863   0.206  10.218  0.2093 -0.6300  0.0233
 3175SOL    HW221159   0.781   0.132  10.120  0.7164 -1.1016  0.0676
 3176SOL     OW21160   1.423   3.418   8.712 -0.0713 -0.0640 -0.0236
 3176SOL    HW121161   1.370   3.371   8.648  0.0827 -1.7875  1.1170
 3176SOL    HW221162   1.509   3.421   8.671 -0.5186  1.2996 -0.8823
 3177SOL     OW21163   4.302   2.453  17.096 -0.4349  0.3385 -0.1832
 3177SOL    HW121164   4.225   2.397  17.098 -0.2912  0.1431 -0.0718
 3177SOL    HW221165   4.278   2.516  17.164 -2.1347  0.9938 -1.4165
 3178SOL     OW21166   0.354   3.062  13.589 -0.1861  0.4079 -0.0337
 3178SOL    HW121167   0.366   3.157  13.592 -1.6087  0.5765  0.6560
 3178SOL    HW221168   0.432   3.033  13.542 -1.0168  0.1547 -1.2570
 3179SOL     OW21169   2.764   0.777   4.675 -0.0324 -0.3674 -0.3103
 3179SOL    HW121170   2.749   0.707   4.610  1.2173 -1.9279  1.0825
 3179SOL    HW221171   2.804   0.720   4.741  0.3442  0.1376 -0.1078
 3180SOL     OW21172   0.022   1.020  14.587 -0.2408 -0.2276 -0.1159
 3180SOL    HW121173   0.102   1.000  14.539 -0.2566  0.4817 -0.4460
 3180SOL    HW221174   0.006   0.933  14.622  2.2235 -0.3557  0.7059
 3181SOL     OW21175   0.040   1.967   2.811  0.2369  0.1738  0.0226
 3181SOL    HW121176   4.697   1.921   2.837 -0.0259  0.0833 -0.9150
 3181SOL    HW221177   0.108   1.938   2.872  0.3196 -0.2910 -0.2803
 3182SOL     OW21178   4.375   4.442  13.257  0.4919  0.2963 -0.2509
 3182SOL    HW121179   4.383   4.427  13.351 -0.1241  1.3519 -0.0208
 3182SOL    HW221180   4.421   4.527  13.256 -0.5618  0.9006  2.2654
 3183SOL     OW21181   2.106   3.700   5.637  0.4869 -0.2020  0.5531
 3183SOL    HW121182   2.177   3.691   5.573 -0.0605 -1.6400  0.1550
 3183SOL    HW221183   2.126   3.617   5.680 -1.2248 -0.6359  0.4949
 3184SOL     OW21184   3.188   2.287  11.012 -0.3016  0.5535  0.2715
 3184SOL    HW121185   3.278   2.263  10.993 -0.6238 -0.4873  0.0852
 3184SOL    HW221186   3.157   2.302  10.922  3.2454  1.0800 -0.8719
 3185SOL     OW21187   2.840   0.116  14.993 -0.2281  0.1330 -0.4008
 3185SOL    HW121188   2.912   0.053  14.987 -1.0928 -0.9682  0.6948
 3185SOL    HW221189   2.893   0.188  14.958 -1.4713  0.9072 -0.6682
 3186SOL     OW21190   2.683   2.970  12.316 -0.1365  0.3872  0.3430
 3186SOL    HW121191   2.671   2.960  12.410  1.1613 -1.6511  0.3024
 3186SOL    HW221192   2.615   3.037  12.309  0.5492  1.0213 -0.3630
 3187SOL     OW21193   0.555   2.983  13.269  0.0821  0.4938  0.5351
 3187SOL    HW121194   0.575   2.974  13.362  2.6378 -2.0718 -0.2876
 3187SOL    HW221195   0.635   3.005  13.221  1.3078 -1.0337  1.8896
 3188SOL     OW21196   0.556   4.500   4.515  1.0729 -0.9937  0.0901
 3188SOL    HW121197   0.510   4.451   4.447  0.9572  0.5514 -0.9354
 3188SOL    HW221198   0.555   4.434   4.584  0.9778  0.3213  1.3636
 3189SOL     OW21199   1.487   1.130   6.577 -0.5881 -0.2073  0.5531
 3189SOL    HW121200   1.431   1.082   6.638  1.2072 -3.7892 -0.6118
 3189SOL    HW221201   1.464   1.080   6.498 -0.3333  0.1217  0.2708
 3190SOL     OW21202   0.221   4.174   7.757 -0.1541  0.5008  0.1460
 3190SOL    HW121203   0.252   4.155   7.846  1.1312 -2.8329 -1.0122
 3190SOL    HW221204   0.299   4.157   7.705 -0.3792  0.9045 -0.3275
 3191SOL     OW21205   4.497   4.263   1.823  0.6061 -0.2174 -0.0136
 3191SOL    HW121206   4.402   4.261   1.835  0.8594  0.1645  2.0578
 3191SOL    HW221207   4.522   4.352   1.847 -2.4971  0.8095 -0.5747
 3192SOL     OW21208   2.583   3.646   3.120  0.0208  0.4075  0.2511
 3192SOL    HW121209   2.524   3.707   3.165  0.3243  1.3154 -0.5616
 3192SOL    HW221210   2.530   3.617   3.045 -0.0027  0.2049  0.3478
 3193SOL     OW21211   2.038   2.444   3.455  0.6462 -0.2151 -0.4430
 3193SOL    HW121212   2.097   2.401   3.516  1.5455  0.8458 -0.5607
 3193SOL    HW221213   1.990   2.503   3.514 -0.6877 -0.5468 -1.2018
 3194SOL     OW21214   1.220   2.407  12.024  0.1967 -0.6564  0.2482
 3194SOL    HW121215   1.179   2.326  11.995  1.9507 -2.0588  1.6462
 3194SOL    HW221216   1.282   2.380  12.092  0.6869 -0.4084 -0.1074
 3195SOL     OW21217   4.523   2.221   3.195 -0.4932  0.1312 -0.6444
 3195SOL    HW121218   4.582   2.286   3.157  0.2090  0.2846  0.6967
 3195SOL    HW221219   4.520   2.261   3.282  0.2723 -3.5219  1.0558
 3196SOL     OW21220   0.928   2.576   4.280  0.0944 -0.6518  0.1039
 3196SOL    HW121221   0.869   2.610   4.348 -0.0662  2.3564 -1.5364
 3196SOL    HW221222   1.008   2.570   4.333  0.1179  0.8365  0.2290
 3197SOL     OW21223   3.285   3.337   9.751 -0.5380 -0.3347  0.0649
 3197SOL    HW121224   3.281   3.262   9.810  2.2417 -1.4020 -1.1129
 3197SOL    HW221225   3.228   3.397   9.798  0.7020  1.6074 -0.8755
 3198SOL     OW21226   1.899   0.669  16.076  0.6697 -0.2274 -0.6181
 3198SOL    HW121227   1.933   0.715  16.152 -1.7762 -0.8899  0.8638
 3198SOL    HW221228   1.860   0.595  16.123 -0.5739  0.6296 -0.3244
 3199SOL     OW21229   0.334   1.658  16.013 -0.1442 -1.1174 -0.0923
 3199SOL    HW121230   0.279   1.651  16.090  1.4734 -1.6165  1.0117
 3199SOL    HW221231   0.403   1.711  16.054 -0.5681 -2.0370  1.7695
 3200SOL     OW21232   1.745   0.116   1.099 -0.5843  0.1847  0.4469
 3200SOL    HW121233   1.819   0.138   1.042 -1.5777  2.4638  0.0362
 3200SOL    HW221234   1.686   0.075   1.036  0.1607  1.4182 -1.0581
 3201SOL     OW21235   2.908   2.598   7.512  0.4574  0.1823 -0.3476
 3201SOL    HW121236   2.930   2.531   7.575  1.8443  0.9595 -0.0114
 3201SOL    HW221237   2.915   2.669   7.577 -0.1042 -1.5356  1.5755
 3202SOL     OW21238   1.761   0.243   4.550 -0.2332 -0.2856  0.4543
 3202SOL    HW121239   1.773   0.153   4.580 -0.3441 -0.8238 -1.1447
 3202SOL    HW221240   1.838   0.275   4.598  0.7346  2.5563 -2.9606
 3203SOL     OW21241   3.071   3.952  14.412 -0.0083  0.0507  0.5147
 3203SOL    HW121242   3.053   3.871  14.458 -0.6037  1.1614  2.2339
 3203SOL    HW221243   2.991   3.962  14.361 -0.4827 -1.7952  0.9208
 3204SOL     OW21244   2.776   1.130   7.104  0.5376 -0.1767 -0.3462
 3204SOL    HW121245   2.871   1.117   7.098  0.5109 -1.7159  2.3054
 3204SOL    HW221246   2.768   1.218   7.139 -0.0038 -0.5002  0.3452
 3205SOL     OW21247   4.295   2.948   6.124 -0.1375  0.1021 -0.0630
 3205SOL    HW121248   4.303   2.865   6.171  0.1890  0.5345  0.6443
 3205SOL    HW221249   4.305   3.011   6.194 -0.1010  1.5465 -1.3693
 3206SOL     OW21250   3.119   0.985  16.690  0.0441  0.2628  0.3331
 3206SOL    HW121251   3.170   0.914  16.651 -0.3105 -1.5793  3.2677
 3206SOL    HW221252   3.083   0.934  16.762  2.7815  0.1978  1.6476
 3207SOL     OW21253   4.443   0.615   6.278  0.1163  0.5254 -0.6473
 3207SOL    HW121254   4.393   0.613   6.359  0.3955 -0.2460 -0.4880
 3207SOL    HW221255   4.505   0.543   6.294 -1.2240 -0.7234 -1.0866
 3208SOL     OW21256   4.002   2.729  12.822  0.6253  0.3502 -0.4159
 3208SOL    HW121257   4.022   2.804  12.878  1.1871  0.0023 -0.1492
 3208SOL    HW221258   4.088   2.707  12.786 -0.7819 -0.5530 -3.1911
 3209SOL     OW21259   2.955   4.469  13.203 -0.4814  0.5324  0.2024
 3209SOL    HW121260   2.938   4.392  13.148 -0.2059 -0.9177  2.1497
 3209SOL    HW221261   2.877   4.458  13.258  1.3410  1.8347  3.0213
 3210SOL     OW21262   0.319   1.687   9.166 -0.3272 -0.6891 -0.5781
 3210SOL    HW121263   0.322   1.599   9.204  0.6095 -1.3666 -2.1906
 3210SOL    HW221264   0.351   1.658   9.080  0.5964 -1.0994 -0.0982
 3211SOL     OW21265   4.270   2.747   8.661  0.2807  0.0392  0.0453
 3211SOL    HW121266   4.311   2.799   8.729 -0.1759 -0.9769  1.0862
 3211SOL    HW221267   4.236   2.673   8.711  1.8411  1.2050  2.7901
 3212SOL     OW21268   0.426   2.962   0.370  0.4077  0.3796 -0.0280
 3212SOL    HW121269   0.500   2.909   0.340  0.8130 -0.9821  3.2876
 3212SOL    HW221270   0.471   3.019   0.434 -0.1329  0.5811  0.1749
 3213SOL     OW21271   2.950   0.346   4.280  0.5907  0.0343 -0.2842
 3213SOL    HW121272   2.910   0.260   4.265  1.1726 -0.4192  0.7176
 3213SOL    HW221273   2.903   0.387   4.208  0.3226  0.2846  0.0332
 3214SOL     OW21274   3.024   3.784   6.737  0.1859 -0.2102 -0.1445
 3214SOL    HW121275   2.973   3.856   6.774  1.7243 -0.1775  1.8943
 3214SOL    HW221276   3.111   3.803   6.772  1.4631 -2.2126 -2.2534
 3215SOL     OW21277   2.006   2.760   5.803 -0.1870 -0.3384  0.9375
 3215SOL    HW121278   2.046   2.818   5.868 -1.5375  0.4140  1.0980
 3215SOL    HW221279   2.067   2.686   5.796 -1.1468 -0.9389 -0.9455
 3216SOL     OW21280   1.848   1.447   6.787 -0.4633 -0.6899 -0.0894
 3216SOL    HW121281   1.849   1.470   6.694  0.4748  0.9371  0.3153
 3216SOL    HW221282   1.765   1.399   6.791  0.5536 -2.4458 -0.0463
 3217SOL     OW21283   3.738   2.024  13.283 -0.2733 -0.2293 -0.0011
 3217SOL    HW121284   3.696   1.987  13.361  1.5595  0.6289  1.4092
 3217SOL    HW221285   3.686   2.103  13.272 -1.9168 -0.9748  2.3642
 3218SOL     OW21286   1.250   1.995  15.089  0.0302  0.1620  0.3921
 3218SOL    HW121287   1.325   2.024  15.038 -0.9035  1.2334 -0.3605
 3218SOL    HW221288   1.222   2.084  15.111 -0.5216  0.5738 -1.9983
 3219SOL     OW21289   4.267   2.382   2.808 -0.2714 -0.3262  0.2170
 3219SOL    HW121290   4.190   2.352   2.856 -0.0379  0.2139  0.9143
 3219SOL    HW221291   4.313   2.432   2.875 -0.0999 -0.0024 -0.1439
 3220SOL     OW21292   4.688   3.173   6.774 -0.2156 -0.4258  0.4211
 3220SOL    HW121293   4.602   3.158   6.812 -1.4892 -1.4572 -2.8343
 3220SOL    HW221294   4.658   3.180   6.683  0.0812  0.7607  0.4241
 3221SOL     OW21295   1.869   0.208   1.763  0.0706  0.2672 -0.2732
 3221SOL    HW121296   1.797   0.267   1.780 -1.8791 -2.7480  1.9014
 3221SOL    HW221297   1.820   0.150   1.704 -0.9394  0.0210  0.8255
 3222SOL     OW21298   1.869   3.712   4.760  0.4037 -0.0437  0.3489
 3222SOL    HW121299   1.939   3.719   4.825  1.9547 -0.3937 -1.2953
 3222SOL    HW221300   1.911   3.762   4.690 -1.2189  1.3334  0.3420
 3223SOL     OW21301   1.160   4.418   6.249 -0.0523 -0.9373  0.0379
 3223SOL    HW121302   1.129   4.464   6.327 -0.4529 -3.1934  1.2058
 3223SOL    HW221303   1.181   4.329   6.277 -2.0501 -1.3303  0.3248
 3224SOL     OW21304   0.772   4.679   4.569  0.1227  0.5374  0.2766
 3224SOL    HW121305   0.731   0.025   4.540  1.3920  1.0440 -0.0811
 3224SOL    HW221306   0.698   4.619   4.566  1.7062 -1.4931  1.9895
 3225SOL     OW21307   1.377   0.009   3.085  0.2095  0.7597 -0.4276
 3225SOL    HW121308   1.444   4.710   3.143  0.1693  3.6825  1.3578
 3225SOL    HW221309   1.345   4.677   3.026 -0.0440 -1.9191  2.8338
 3226SOL     OW21310   3.344   4.490   8.506 -0.4304 -0.2011  0.1597
 3226SOL    HW121311   3.425   4.445   8.528 -0.7972 -0.1950  1.5677
 3226SOL    HW221312   3.352   4.548   8.430  2.6980  0.2323  0.8247
 3227SOL     OW21313   0.752   0.349   7.077  0.3454 -0.1416 -0.3018
 3227SOL    HW121314   0.790   0.316   6.996 -1.0947  2.9725 -2.2490
 3227SOL    HW221315   0.816   0.318   7.142  1.6241  0.7152 -1.1617
 3228SOL     OW21316   3.435   4.004   4.501  0.5537  0.4725  0.4254
 3228SOL    HW121317   3.491   3.986   4.425 -1.1524 -0.7493 -0.5530
 3228SOL    HW221318   3.498   4.030   4.568 -2.2031  0.2854  3.1119
 3229SOL     OW21319   2.957   2.840   4.892 -0.0239  0.4226 -0.6737
 3229SOL    HW121320   3.001   2.801   4.967  1.6490  0.2297 -1.7441
 3229SOL    HW221321   2.943   2.757   4.846  0.0128 -0.0568  0.1786
 3230SOL     OW21322   0.911   4.661   2.508 -0.3201 -0.0757 -0.0400
 3230SOL    HW121323   0.907   4.679   2.414 -2.9766  0.2963  0.1431
 3230SOL    HW221324   0.843   4.720   2.539 -0.1487  0.7646 -1.2833
 3231SOL     OW21325   3.878   0.311   7.334  0.5065  0.0629  0.5723
 3231SOL    HW121326   3.838   0.224   7.346 -1.0402  0.7295  0.2848
 3231SOL    HW221327   3.890   0.317   7.239  0.1452  0.2357  0.5361
 3232SOL     OW21328   3.438   3.241   8.060 -0.0428  0.1370 -0.3336
 3232SOL    HW121329   3.517   3.246   8.006 -0.3386  1.8757 -0.6098
 3232SOL    HW221330   3.395   3.325   8.045 -0.3910 -0.3634 -2.1437
 3233SOL     OW21331   4.192   4.299   6.565  0.1619  0.0372 -0.7285
 3233SOL    HW121332   4.172   4.269   6.476 -0.1773 -0.5741 -0.4467
 3233SOL    HW221333   4.277   4.254   6.565  0.5789  0.8253  0.3168
 3234SOL     OW21334   3.822   1.433   5.851 -0.1657  0.6491 -0.5537
 3234SOL    HW121335   3.876   1.438   5.773 -0.6074 -1.2015 -0.9703
 3234SOL    HW221336   3.853   1.349   5.887 -2.5071  0.0981  0.1907
 3235SOL     OW21337   4.293   3.364   7.841 -0.4224 -0.3011  0.4567
 3235SOL    HW121338   4.312   3.457   7.827  1.6979 -0.9111 -0.7144
 3235SOL    HW221339   4.199   3.370   7.862 -0.4544 -1.0611  0.5262
 3236SOL     OW21340   1.863   1.794   1.015 -0.0490  0.0654 -0.2574
 3236SOL    HW121341   1.801   1.796   0.941  0.6680  0.3813 -0.8516
 3236SOL    HW221342   1.829   1.861   1.075  2.1835  0.1606  0.8950
 3237SOL     OW21343   4.164   2.502   7.900  0.0608 -0.8470  0.2168
 3237SOL    HW121344   4.197   2.412   7.903  0.1620 -0.8445 -0.8808
 3237SOL    HW221345   4.194   2.526   7.812  0.1886  1.7598  0.9842
 3238SOL     OW21346   2.196   0.359   1.440  0.3455 -0.2329  0.4925
 3238SOL    HW121347   2.147   0.394   1.514  0.5196 -0.3711  0.6744
 3238SOL    HW221348   2.252   0.291   1.479  0.9982  0.6800  1.1665
 3239SOL     OW21349   4.086   1.788   8.360 -0.2513  0.1394  0.2911
 3239SOL    HW121350   4.050   1.856   8.304 -2.6265 -1.4328 -0.1057
 3239SOL    HW221351   4.176   1.787   8.326 -0.3954 -1.4695 -0.0728
 3240SOL     OW21352   3.512   3.745  12.746 -0.0551  0.2279 -0.0426
 3240SOL    HW121353   3.496   3.835  12.777 -3.0516 -0.2564 -0.1854
 3240SOL    HW221354   3.591   3.729  12.798  0.4450 -0.3686 -1.0063
 3241SOL     OW21355   4.704   4.251  14.927 -0.3510 -0.1314  0.2549
 3241SOL    HW121356   4.617   4.223  14.954 -0.6919 -0.4968 -1.2168
 3241SOL    HW221357   0.004   4.169  14.894  0.5290  0.1081  0.6049
 3242SOL     OW21358   3.406   1.187   7.361  0.2822 -1.1436 -0.1793
 3242SOL    HW121359   3.342   1.250   7.328  1.5090 -0.1637 -0.6690
 3242SOL    HW221360   3.483   1.243   7.366 -1.1028  0.7171  0.2474
 3243SOL     OW21361   1.684   1.853  10.248  0.3387 -0.2017 -0.6257
 3243SOL    HW121362   1.619   1.837  10.317  0.3256  1.7508 -0.1814
 3243SOL    HW221363   1.659   1.780  10.192  0.0792 -0.6397  0.0599
 3244SOL     OW21364   3.961   1.020   7.698  0.0698 -0.3135 -0.0600
 3244SOL    HW121365   3.965   1.108   7.736  1.4885 -0.8371  1.0101
 3244SOL    HW221366   3.899   0.987   7.764  1.5088 -2.0763  0.4150
 3245SOL     OW21367   1.213   3.336   7.372 -0.0041 -0.2797  0.5462
 3245SOL    HW121368   1.258   3.339   7.457 -1.3240  0.7840  1.2063
 3245SOL    HW221369   1.225   3.420   7.327 -1.8650 -0.8008 -0.8890
 3246SOL     OW21370   0.597   1.221   4.104 -0.1072  0.2261 -0.2745
 3246SOL    HW121371   0.650   1.268   4.039  0.3074  1.7381  1.1449
 3246SOL    HW221372   0.585   1.296   4.163 -3.4321 -0.0074 -0.6439
 3247SOL     OW21373   2.263   4.367  12.346 -0.2675 -0.6889  0.0922
 3247SOL    HW121374   2.227   4.456  12.345 -0.6577 -0.8594 -0.8490
 3247SOL    HW221375   2.345   4.389  12.391  0.4441  0.3020 -1.7179
 3248SOL     OW21376   4.290   2.912   3.433 -0.4015  0.0508  0.3590
 3248SOL    HW121377   4.198   2.892   3.452 -0.6121  0.3311 -0.3642
 3248SOL    HW221378   4.287   3.003   3.462 -1.9046  0.1933 -0.2342
 3249SOL     OW21379   1.431   2.979   4.209 -0.4140 -0.3717 -0.5289
 3249SOL    HW121380   1.361   2.920   4.236 -1.1075  1.4752  1.6881
 3249SOL    HW221381   1.452   2.992   4.301  0.5368  0.2720 -0.8479
 3250SOL     OW21382   3.702   3.460   9.655 -0.4183  0.2230 -0.2826
 3250SOL    HW121383   3.746   3.477   9.572 -2.1240 -1.1535 -1.4859
 3250SOL    HW221384   3.674   3.543   9.694  2.0698  2.2025 -2.7690
 3251SOL     OW21385   0.649   4.129   3.318 -0.2532  0.2025 -0.4942
 3251SOL    HW121386   0.574   4.158   3.267 -0.4276 -0.6565 -0.7376
 3251SOL    HW221387   0.684   4.056   3.266 -1.8299 -0.7034 -0.3174
 3252SOL     OW21388   3.518   1.590  15.761 -0.3299  0.7978 -0.1214
 3252SOL    HW121389   3.448   1.526  15.772  0.0037  0.2411 -1.1701
 3252SOL    HW221390   3.553   1.608  15.848  1.5378 -1.6268 -0.3677
 3253SOL     OW21391   0.049   3.402  14.389  0.1480 -0.3284 -0.1478
 3253SOL    HW121392   0.091   3.377  14.306 -0.4781 -0.9250 -0.2837
 3253SOL    HW221393   4.716   3.462  14.360  0.6618  1.4287  2.3174
 3254SOL     OW21394   4.154   3.239  13.925 -0.3247  0.2080  0.1201
 3254SOL    HW121395   4.061   3.216  13.925 -0.1784 -0.3650  0.8761
 3254SOL    HW221396   4.174   3.218  13.834  1.2709 -1.3565  0.8378
 3255SOL     OW21397   1.086   0.398   0.999 -0.0338  0.0837  0.6858
 3255SOL    HW121398   1.142   0.430   1.069 -0.3714 -0.1950  1.0818
 3255SOL    HW221399   1.128   0.318   0.969 -1.0806 -0.4828  0.7483
 3256SOL     OW21400   4.509   1.769   6.907 -0.1289  0.0846  0.0674
 3256SOL    HW121401   4.462   1.832   6.961 -0.2476 -0.2893  0.4024
 3256SOL    HW221402   4.438   1.706   6.895 -0.0659 -0.3619  2.0718
 3257SOL     OW21403   0.444   0.955   2.161  0.4433  0.3985  0.1567
 3257SOL    HW121404   0.530   0.915   2.151  0.3994  0.8270 -1.9187
 3257SOL    HW221405   0.424   0.988   2.073  1.5085  1.4812  0.3177
 3258SOL     OW21406   3.148   0.232  10.730 -0.3633 -0.5756 -0.0629
 3258SOL    HW121407   3.060   0.197  10.717 -0.8389  1.6951 -2.7898
 3258SOL    HW221408   3.162   0.188  10.814 -2.8570  2.3042  1.8570
 3259SOL     OW21409   3.155   2.900   6.456 -0.7525 -0.0311  0.0880
 3259SOL    HW121410   3.209   2.946   6.391 -1.6257  2.4513  1.0980
 3259SOL    HW221411   3.220   2.836   6.484 -0.0549  0.6955  0.1218
 3260SOL     OW21412   2.623   1.872  17.442  0.1311 -0.3052 -0.2967
 3260SOL    HW121413   2.542   1.905  17.481 -0.3344 -0.6801 -0.9453
 3260SOL    HW221414   2.615   1.935  17.371  1.1411 -1.9912 -1.9024
 3261SOL     OW21415   2.266   2.837   6.375  0.4323  0.1865 -0.3394
 3261SOL    HW121416   2.316   2.835   6.456  1.4662  1.1037 -0.9529
 3261SOL    HW221417   2.188   2.893   6.386  1.2274  1.5542 -1.6510
 3262SOL     OW21418   1.737   3.008   4.760  0.1822  0.1874 -0.3613
 3262SOL    HW121419   1.666   3.045   4.812  0.0120  0.0862 -0.5236
 3262SOL    HW221420   1.758   3.083   4.705 -2.4457  0.7743 -0.5498
 3263SOL     OW21421   1.256   2.996   3.355 -0.1810 -0.1427 -0.1536
 3263SOL    HW121422   1.329   3.043   3.396  0.0098 -0.8317  0.2854
 3263SOL    HW221423   1.193   3.006   3.427  0.6757 -0.8497  0.6979
 3264SOL     OW21424   1.139   3.681  16.701 -0.1766 -0.0290 -0.2450
 3264SOL    HW121425   1.093   3.634  16.770  2.5147 -0.3073  1.3825
 3264SOL    HW221426   1.075   3.689  16.631  0.2136  0.7335 -0.5194
 3265SOL     OW21427   0.640   0.069  12.440 -0.4262 -0.5663  0.1507
 3265SOL    HW121428   0.618   0.023  12.359 -0.8006 -0.4521  0.1884
 3265SOL    HW221429   0.593   0.015  12.504  1.6636 -1.2303  1.1279
 3266SOL     OW21430   2.066   1.263   6.841  0.2118  0.5342 -0.0635
 3266SOL    HW121431   1.976   1.295   6.836  0.3268  0.9037  0.2389
 3266SOL    HW221432   2.070   1.239   6.933  0.9731  0.5419 -0.0952
 3267SOL     OW21433   1.626   0.678  14.553  0.4988  0.3297 -0.6064
 3267SOL    HW121434   1.555   0.737  14.527 -0.0375 -0.1060 -0.1360
 3267SOL    HW221435   1.670   0.724  14.624 -1.0245  0.7381  0.0634
 3268SOL     OW21436   4.356   3.957   3.800 -0.4517  0.6677 -0.2401
 3268SOL    HW121437   4.313   3.872   3.790  2.6313 -0.8528 -0.5519
 3268SOL    HW221438   4.419   3.944   3.870  0.5431 -2.4200 -1.7029
 3269SOL     OW21439   2.118   1.366   6.151 -0.4377 -0.3082  0.3748
 3269SOL    HW121440   2.192   1.306   6.156 -0.0099  0.0593 -1.6633
 3269SOL    HW221441   2.157   1.447   6.184  0.7757  0.0895 -2.0215
 3270SOL     OW21442   1.425   1.579  12.354  0.2331  0.0296  0.0458
 3270SOL    HW121443   1.517   1.593  12.330  0.4978 -2.7251 -0.5805
 3270SOL    HW221444   1.405   1.671  12.366  1.2269  0.2233  0.2472
 3271SOL     OW21445   3.169   4.235   6.946  0.2274  0.3330  0.3491
 3271SOL    HW121446   3.223   4.161   6.975  1.6446  1.3700  0.3700
 3271SOL    HW221447   3.130   4.204   6.864  0.6040 -0.1350  0.3463
 3272SOL     OW21448   2.955   3.733   0.512  0.2626  0.7832  0.2274
 3272SOL    HW121449   2.973   3.772   0.427 -0.3330 -0.2333 -0.3584
 3272SOL    HW221450   2.868   3.760   0.540  0.2377  0.7897  0.1411
 3273SOL     OW21451   1.887   0.841  17.034  0.0916  0.2544  0.0770
 3273SOL    HW121452   1.831   0.919  17.035 -0.3456 -0.0796  2.0165
 3273SOL    HW221453   1.821   0.774  17.016 -0.3965  0.8016 -0.1608
 3274SOL     OW21454   3.000   1.406   4.730  0.1951  0.1242  0.4884
 3274SOL    HW121455   3.071   1.470   4.740 -0.6759  0.8761  1.8652
 3274SOL    HW221456   3.034   1.356   4.656  0.3719 -1.5139  1.6897
 3275SOL     OW21457   4.402   1.762   0.033 -0.2836  0.0375 -0.6911
 3275SOL    HW121458   4.417   1.700  17.704  1.6694 -1.5344  1.0972
 3275SOL    HW221459   4.478   1.820   0.024  0.3870 -0.5806  0.9844
 3276SOL     OW21460   1.937   4.394  15.354 -0.4246 -0.7420  0.6837
 3276SOL    HW121461   1.943   4.376  15.447  0.6788 -0.8181  0.5931
 3276SOL    HW221462   1.845   4.421  15.355 -0.1150  0.3588 -0.4926
 3277SOL     OW21463   2.868   3.411   7.456  0.2716  0.0944 -0.8636
 3277SOL    HW121464   2.884   3.375   7.368 -0.5768  2.6854 -2.0764
 3277SOL    HW221465   2.873   3.505   7.439  0.7532  0.0446 -1.0195
 3278SOL     OW21466   2.959   4.475  11.747 -0.1029 -0.3090  0.3754
 3278SOL    HW121467   3.022   4.478  11.819 -0.8569  1.2928  0.9756
 3278SOL    HW221468   3.016   4.456  11.673  0.5433 -1.1488  1.0847
 3279SOL     OW21469   2.666   0.077  15.630 -0.1402 -0.6948  0.0315
 3279SOL    HW121470   2.630   0.013  15.691 -1.2072  0.1394  0.2877
 3279SOL    HW221471   2.636   0.036  15.548 -0.0824  0.0429 -0.3616
 3280SOL     OW21472   4.455   3.782   2.103 -0.3398  0.0016 -0.1760
 3280SOL    HW121473   4.445   3.763   2.010 -2.0106  0.9299 -0.1889
 3280SOL    HW221474   4.505   3.863   2.108  2.0211 -1.4859 -0.0504
 3281SOL     OW21475   1.092   1.382   8.906 -0.0568 -0.0952 -0.4144
 3281SOL    HW121476   1.000   1.407   8.907  0.4800  1.9212 -0.0423
 3281SOL    HW221477   1.120   1.459   8.956  1.2345 -1.1010  0.3936
 3282SOL     OW21478   1.883   0.538   1.455  0.3311  0.6298 -0.3924
 3282SOL    HW121479   1.941   0.490   1.514 -0.4526  1.2424  0.8678
 3282SOL    HW221480   1.856   0.464   1.401 -3.1927  2.3548 -1.0465
 3283SOL     OW21481   1.124   0.898  14.183 -0.6959  0.0118  0.0301
 3283SOL    HW121482   1.165   0.867  14.264 -1.2173 -0.4872  0.0982
 3283SOL    HW221483   1.082   0.977  14.218 -0.8039  0.5093 -1.2196
 3284SOL     OW21484   1.140   3.518   6.357  0.1659  0.2199 -0.3304
 3284SOL    HW121485   1.147   3.547   6.449 -2.1302 -0.6462  0.1106
 3284SOL    HW221486   1.200   3.444   6.366 -1.4696 -0.9142  1.2148
 3285SOL     OW21487   3.198   0.050   4.198  0.1662  0.5046 -0.0191
 3285SOL    HW121488   3.129   0.041   4.263  0.8480  0.8257  0.7375
 3285SOL    HW221489   3.217   4.695   4.173 -0.3037  0.3277  0.2591
 3286SOL     OW21490   2.710   2.734   6.363  0.0148 -0.1589  0.0035
 3286SOL    HW121491   2.685   2.747   6.272 -1.3034 -1.9646  0.1025
 3286SOL    HW221492   2.626   2.739   6.409 -0.9256  1.5794 -1.8920
 3287SOL     OW21493   4.584   0.015   7.073  0.4285 -0.5080 -0.4458
 3287SOL    HW121494   4.630   0.088   7.115 -1.9110  0.8091 -0.2090
 3287SOL    HW221495   4.505   0.002   7.125  0.2821  1.0880 -0.2792
 3288SOL     OW21496   0.507   0.544   3.114 -0.6362  0.1211 -0.4159
 3288SOL    HW121497   0.556   0.467   3.144 -1.0874 -0.2330 -0.5898
 3288SOL    HW221498   0.418   0.512   3.096 -0.5010  0.5804 -1.9640
 3289SOL     OW21499   0.893   2.084   8.203 -0.6110  0.0558  0.0108
 3289SOL    HW121500   0.851   1.999   8.215 -0.8865  0.2739  0.6121
 3289SOL    HW221501   0.831   2.135   8.256 -3.1016 -1.4011 -1.5405
 3290SOL     OW21502   1.192   3.824  15.627 -0.0608 -0.3072  0.1868
 3290SOL    HW121503   1.145   3.851  15.706  0.3665 -0.6166  0.5445
 3290SOL    HW221504   1.125   3.798  15.563 -0.2731 -1.0889  0.7319
 3291SOL     OW21505   4.679   2.808   7.398 -0.8965  0.4461 -0.0442
 3291SOL    HW121506   4.726   2.889   7.420 -1.4357  0.9709 -0.8136
 3291SOL    HW221507   4.729   2.787   7.319 -0.5799  2.0582 -0.2655
 3292SOL     OW21508   2.899   1.252  15.876 -0.0651 -0.0292 -0.6583
 3292SOL    HW121509   2.891   1.222  15.967  0.6831  0.7664 -0.3282
 3292SOL    HW221510   2.989   1.284  15.885  0.1662 -0.7278 -0.4212
 3293SOL     OW21511   4.091   2.794   5.814 -0.4252  0.1106 -0.1020
 3293SOL    HW121512   4.051   2.726   5.760 -0.3285 -0.8496  1.0460
 3293SOL    HW221513   4.108   2.866   5.754  2.4377 -0.8683 -0.4317
 3294SOL     OW21514   2.935   4.034   6.498 -0.2154 -0.0550  0.1012
 3294SOL    HW121515   3.010   4.031   6.439 -1.1584 -3.4352 -0.9542
 3294SOL    HW221516   2.976   4.078   6.571  0.9193  0.8927 -1.1175
 3295SOL     OW21517   1.446   1.454   7.611 -0.0367  0.2590  0.1339
 3295SOL    HW121518   1.453   1.364   7.643  1.1784  1.8340  4.3314
 3295SOL    HW221519   1.530   1.469   7.567 -0.5854  3.1344  0.0502
 3296SOL     OW21520   0.745   2.179   0.988 -0.1752  0.3243 -0.8534
 3296SOL    HW121521   0.732   2.271   0.968  1.6615  1.3720  2.8049
 3296SOL    HW221522   0.829   2.174   1.033  0.2001  0.8863 -1.5068
 3297SOL     OW21523   1.925   0.198  10.902  0.4463  0.1292 -0.0703
 3297SOL    HW121524   1.985   0.147  10.956 -1.3478 -0.9742  0.8659
 3297SOL    HW221525   1.986   0.236  10.839 -0.1017 -1.3816 -1.5249
 3298SOL     OW21526   2.757   3.199   5.189  0.1895  0.5271 -0.2920
 3298SOL    HW121527   2.753   3.261   5.116 -0.6289 -0.6871 -1.2600
 3298SOL    HW221528   2.721   3.257   5.257 -0.7679  0.4331 -0.7224
 3299SOL     OW21529   0.108   3.425   4.741  0.3010 -0.0725  0.3878
 3299SOL    HW121530   0.176   3.374   4.786  1.4147 -0.2758 -1.5410
 3299SOL    HW221531   0.161   3.493   4.698  0.2544 -0.1288  0.2424
 3300SOL     OW21532   2.464   4.445   0.125 -0.1269 -0.0739  0.1900
 3300SOL    HW121533   2.401   4.417   0.058  1.3640 -0.3426 -1.1010
 3300SOL    HW221534   2.534   4.490   0.077 -0.1801  0.8583  0.9715
 3301SOL     OW21535   0.843   0.588   2.915  0.3908 -0.8748  0.1407
 3301SOL    HW121536   0.860   0.610   3.007  2.7279  2.2727 -1.0420
 3301SOL    HW221537   0.876   0.500   2.895  1.9018 -0.4489  0.6864
 3302SOL     OW21538   3.406   4.345   2.217 -0.2788  0.1013  0.4219
 3302SOL    HW121539   3.453   4.276   2.264  1.6511 -0.8129 -2.8365
 3302SOL    HW221540   3.320   4.327   2.256 -1.0549  3.3442  0.2538
 3303SOL     OW21541   2.541   2.312   3.059  0.3045 -0.4575 -0.1349
 3303SOL    HW121542   2.583   2.226   3.072 -2.0270 -2.2785 -4.5571
 3303SOL    HW221543   2.449   2.286   3.050  0.7101 -1.3894 -1.5416
 3304SOL     OW21544   3.118   4.316  10.477 -0.0920 -0.1325  0.0261
 3304SOL    HW121545   3.041   4.305  10.532 -0.7294  1.4599 -0.5497
 3304SOL    HW221546   3.140   4.405  10.507  3.6108 -0.9590 -0.2703
 3305SOL     OW21547   1.120   0.675   7.539 -0.1626 -0.2284  0.2587
 3305SOL    HW121548   1.125   0.689   7.445 -0.4935 -0.1795  0.2493
 3305SOL    HW221549   1.043   0.724   7.566  0.2034  2.6349 -3.9438
 3306SOL     OW21550   0.303   1.558  16.577  0.5384 -0.2715 -0.2656
 3306SOL    HW121551   0.216   1.525  16.555  0.6110 -1.8006  1.7054
 3306SOL    HW221552   0.351   1.537  16.496  2.3807  2.7223  0.0759
 3307SOL     OW21553   2.863   0.045   4.751 -0.2812 -0.0264 -0.1056
 3307SOL    HW121554   2.837   4.710   4.691 -1.6841  0.2499  0.1709
 3307SOL    HW221555   2.902   0.122   4.710  0.1698  0.8435  1.9662
 3308SOL     OW21556   1.450   2.290  13.845 -0.1586  0.5322 -0.1539
 3308SOL    HW121557   1.516   2.341  13.798  0.1361  0.1397 -0.1627
 3308SOL    HW221558   1.483   2.283  13.934  1.0195 -3.5321 -0.9088
 3309SOL     OW21559   0.271   0.523   5.545  0.9281 -0.1099 -0.3865
 3309SOL    HW121560   0.272   0.441   5.496 -0.5501 -0.8602  0.8608
 3309SOL    HW221561   0.275   0.502   5.638  1.2780 -2.7761 -1.0195
 3310SOL     OW21562   0.843   1.405  17.247  0.0188  0.2191  0.1715
 3310SOL    HW121563   0.897   1.453  17.310  0.5821 -0.0359 -0.1212
 3310SOL    HW221564   0.753   1.406  17.281  0.2565 -0.0408  0.8221
 3311SOL     OW21565   3.661   0.396   3.339  0.8709  0.0927  0.0551
 3311SOL    HW121566   3.683   0.370   3.429  1.3281 -1.0337 -0.3840
 3311SOL    HW221567   3.611   0.472   3.367 -0.0403 -0.2573 -0.6554
 3312SOL     OW21568   0.922   1.976   5.763 -0.6992  0.8161  0.0458
 3312SOL    HW121569   0.912   1.888   5.724 -2.2804  1.5153 -1.1362
 3312SOL    HW221570   0.838   1.998   5.804  0.7866  1.7320  2.5828
 3313SOL     OW21571   3.496   0.842  16.487  0.2179  0.4125 -0.0659
 3313SOL    HW121572   3.499   0.798  16.403 -0.3980 -0.5738  0.4234
 3313SOL    HW221573   3.585   0.831  16.522 -0.3178 -0.3684  1.0485
 3314SOL     OW21574   3.222   0.886   3.373 -0.1586  0.2342  0.0621
 3314SOL    HW121575   3.181   0.842   3.298 -0.0073  2.3806 -1.2889
 3314SOL    HW221576   3.150   0.913   3.429 -0.0643  1.0487 -0.2104
 3315SOL     OW21577   1.329   0.672   5.848 -0.1300 -0.5418  0.1234
 3315SOL    HW121578   1.266   0.723   5.797  0.9405  1.0872  0.4199
 3315SOL    HW221579   1.276   0.593   5.855  1.2380 -1.5554 -0.8579
 3316SOL     OW21580   4.000   1.223   2.541 -0.2802 -0.6419 -0.2547
 3316SOL    HW121581   3.919   1.183   2.509 -1.7504  2.3563 -0.2782
 3316SOL    HW221582   3.968   1.310   2.565  1.2232 -0.0438 -0.4120
 3317SOL     OW21583   2.171   0.916   9.154  0.3151 -0.1212 -0.4107
 3317SOL    HW121584   2.137   1.000   9.184 -0.4409 -0.6785  0.3032
 3317SOL    HW221585   2.111   0.846   9.180 -1.8131  2.0249  0.3807
 3318SOL     OW21586   4.394   2.998   8.077  0.4144  0.6625  0.9434
 3318SOL    HW121587   4.445   3.076   8.054  0.1797  0.7998  0.8860
 3318SOL    HW221588   4.462   2.953   8.127 -0.4036  0.6165  2.0001
 3319SOL     OW21589   1.296   0.885  11.952 -0.1773 -0.4495 -0.1487
 3319SOL    HW121590   1.245   0.938  12.012 -0.8467  2.9536 -3.6769
 3319SOL    HW221591   1.377   0.935  11.941 -0.7783  0.5032 -0.2111
 3320SOL     OW21592   3.108   2.274   4.050 -0.3332 -0.2262 -0.9827
 3320SOL    HW121593   3.036   2.324   4.012 -0.4351  2.6951  3.0148
 3320SOL    HW221594   3.167   2.347   4.070  0.2201 -1.0578  0.4316
 3321SOL     OW21595   0.417   3.881  10.945  0.0046  0.1374 -0.2649
 3321SOL    HW121596   0.342   3.855  10.891  1.1367  1.1800 -2.3373
 3321SOL    HW221597   0.482   3.912  10.882 -0.6290  0.2890 -0.8469
 3322SOL     OW21598   2.258   1.639   5.699 -0.2184 -0.3392 -0.3417
 3322SOL    HW121599   2.201   1.692   5.754  0.2754 -0.6068  0.4270
 3322SOL    HW221600   2.305   1.594   5.770 -1.0595 -1.1179 -0.2769
 3323SOL     OW21601   0.502   3.964  12.502 -0.1041 -0.3879  0.3969
 3323SOL    HW121602   0.457   4.018  12.437  0.2290 -1.7520 -0.9889
 3323SOL    HW221603   0.485   3.873  12.477 -0.6690 -0.5014  1.2041
 3324SOL     OW21604   1.448   3.840   6.988 -0.0643 -0.2185  0.2918
 3324SOL    HW121605   1.513   3.876   7.048  0.1070 -0.9343  0.5351
 3324SOL    HW221606   1.360   3.838   7.028 -0.0102  0.8990  0.4660
 3325SOL     OW21607   3.840   2.632  15.246 -0.4921  0.3400 -0.3456
 3325SOL    HW121608   3.848   2.615  15.152  0.6849  0.3785 -0.2455
 3325SOL    HW221609   3.906   2.570  15.279 -0.1611 -0.2997 -2.1889
 3326SOL     OW21610   2.943   3.149   3.014 -0.0214 -0.7471 -0.0174
 3326SOL    HW121611   2.876   3.185   2.956  1.4775 -0.1403 -1.3719
 3326SOL    HW221612   3.002   3.224   3.021 -1.1310  0.1998 -0.7166
 3327SOL     OW21613   0.743   0.597   6.884 -0.3256  0.0739  0.5739
 3327SOL    HW121614   0.826   0.549   6.881 -0.8787 -0.9021  0.7335
 3327SOL    HW221615   0.681   0.524   6.889  0.1973 -0.2844  1.8121
 3328SOL     OW21616   2.626   1.943  12.430 -0.3561 -0.1314 -0.1223
 3328SOL    HW121617   2.618   1.847  12.432 -1.5980  0.0047  1.9106
 3328SOL    HW221618   2.535   1.972  12.419  0.6147  3.0839  0.6225
 3329SOL     OW21619   3.835   4.476   3.969  0.2963  0.2960 -0.2010
 3329SOL    HW121620   3.797   4.516   3.891 -0.2272 -1.3057 -0.7645
 3329SOL    HW221621   3.758   4.422   3.984  0.2604  0.6230  0.8194
 3330SOL     OW21622   4.180   1.530   8.954  0.5335 -0.0561  0.1054
 3330SOL    HW121623   4.204   1.438   8.945  1.7945 -0.1120  4.0628
 3330SOL    HW221624   4.087   1.523   8.929  1.1986 -0.7556 -2.1592
 3331SOL     OW21625   3.131   4.330   2.896 -0.0973 -0.2023  0.2171
 3331SOL    HW121626   3.193   4.368   2.958 -1.6038  2.1509  0.2910
 3331SOL    HW221627   3.129   4.403   2.835 -1.1556 -0.7436 -0.3996
 3332SOL     OW21628   1.355   3.208   8.063 -0.6320 -0.2382  0.0165
 3332SOL    HW121629   1.419   3.279   8.073 -0.8392  0.1298 -1.1600
 3332SOL    HW221630   1.280   3.249   8.106 -0.1758  2.0835 -1.3366
 3333SOL     OW21631   1.791   2.234   7.843 -0.0338 -0.1027 -0.1520
 3333SOL    HW121632   1.736   2.164   7.808 -1.8114  1.1497  0.1041
 3333SOL    HW221633   1.841   2.187   7.910  1.1553 -1.5154 -2.0344
 3334SOL     OW21634   2.080   1.801  15.939  0.0995  0.5139 -0.3268
 3334SOL    HW121635   2.165   1.766  15.913 -0.8868 -2.5357  0.6041
 3334SOL    HW221636   2.097   1.819  16.032 -0.0317  1.5594 -0.5088
 3335SOL     OW21637   1.263   2.088   2.509 -0.2536 -0.2472 -0.2988
 3335SOL    HW121638   1.298   2.077   2.421  0.5676  3.1667 -0.4249
 3335SOL    HW221639   1.183   2.135   2.487 -0.6202  0.0265  1.5629
 3336SOL     OW21640   1.256   3.386  12.634  0.1652  0.1963 -0.1536
 3336SOL    HW121641   1.177   3.338  12.610  1.1090 -0.5595 -1.7197
 3336SOL    HW221642   1.237   3.371  12.726 -1.3491  0.3537 -0.4494
 3337SOL     OW21643   3.633   1.937  13.545  0.3599 -0.5242  0.1390
 3337SOL    HW121644   3.575   1.861  13.540  0.9232 -1.0186  1.1762
 3337SOL    HW221645   3.631   1.940  13.641  1.8420  0.4180  0.1421
 3338SOL     OW21646   2.112   0.386  17.038  0.7247 -0.4552 -0.6762
 3338SOL    HW121647   2.044   0.443  17.073 -0.4039 -0.3999 -2.9147
 3338SOL    HW221648   2.093   0.405  16.946  1.4667  0.2654 -0.6786
 3339SOL     OW21649   0.111   3.044   3.185 -0.6604 -0.0642  0.0124
 3339SOL    HW121650   0.168   2.968   3.201  0.3655  0.1735 -2.5558
 3339SOL    HW221651   0.120   3.078   3.274 -2.2653  1.3985 -0.3830
 3340SOL     OW21652   3.689   0.346  11.998  0.2529  0.3945 -0.0451
 3340SOL    HW121653   3.764   0.363  11.942 -0.0709  1.1814 -0.2435
 3340SOL    HW221654   3.681   0.251  12.011  0.9912  0.4346  0.6610
 3341SOL     OW21655   3.183   1.934  10.172 -0.1160  0.2102 -0.6189
 3341SOL    HW121656   3.273   1.914  10.199  0.4019  1.9391 -1.0827
 3341SOL    HW221657   3.203   1.948  10.079 -1.1272  1.7079 -0.6202
 3342SOL     OW21658   2.746   1.566   0.946  0.6828  0.2632  0.2488
 3342SOL    HW121659   2.825   1.568   1.000  0.8386 -0.5807  0.0553
 3342SOL    HW221660   2.756   1.490   0.889  0.9289  2.3255 -2.4547
 3343SOL     OW21661   4.058   0.318  11.390  0.0107  0.1986 -0.0441
 3343SOL    HW121662   4.144   0.304  11.430  0.1194  1.0497  0.0211
 3343SOL    HW221663   4.083   0.395  11.338 -0.3835 -1.0602 -2.0916
 3344SOL     OW21664   3.560   3.762   4.911  0.1006 -0.1785  0.4326
 3344SOL    HW121665   3.558   3.847   4.865  1.4316 -0.6858 -0.5627
 3344SOL    HW221666   3.645   3.760   4.955  0.0048  0.9484  0.6657
 3345SOL     OW21667   1.996   3.282   1.470  0.0739  0.2658 -0.2371
 3345SOL    HW121668   1.957   3.277   1.558 -2.6187  1.5156 -1.3306
 3345SOL    HW221669   2.066   3.223   1.496 -0.1483  0.6536  1.3075
 3346SOL     OW21670   1.556   1.366  14.921  0.8502 -0.2002  0.0972
 3346SOL    HW121671   1.522   1.442  14.874  1.3055  0.8984  1.5398
 3346SOL    HW221672   1.503   1.289  14.904 -1.3049  1.0308  1.2584
 3347SOL     OW21673   1.100   4.612   8.555  0.5452 -0.0217 -0.3037
 3347SOL    HW121674   1.076   4.701   8.528  0.5640  0.0517 -0.0780
 3347SOL    HW221675   1.019   4.569   8.527 -0.2909  1.2196  0.2268
 3348SOL     OW21676   2.090   3.944  15.449  0.2398  0.0797 -0.6252
 3348SOL    HW121677   2.043   3.940  15.366  1.0211  0.2119 -1.0702
 3348SOL    HW221678   2.143   4.023  15.434 -0.3917  1.1897  2.7771
 3349SOL     OW21679   4.672   2.704   2.988  0.8552 -0.6045  0.4897
 3349SOL    HW121680   4.669   2.668   3.077  1.6237 -1.3503  0.2167
 3349SOL    HW221681   4.723   2.637   2.943  0.3267 -0.2408 -0.6353
 3350SOL     OW21682   4.302   2.314   6.637  0.4670 -0.1668 -0.1458
 3350SOL    HW121683   4.330   2.298   6.727 -0.0925  0.1909  0.0967
 3350SOL    HW221684   4.212   2.281   6.636  0.9493 -1.5453  2.2194
 3351SOL     OW21685   2.661   3.646   7.762 -0.4606 -0.3326  0.1520
 3351SOL    HW121686   2.607   3.674   7.836 -0.0371  0.7173  0.0540
 3351SOL    HW221687   2.688   3.559   7.793  1.2494  0.0338 -0.3295
 3352SOL     OW21688   0.581   2.509   7.617 -0.9936  0.1102 -0.1400
 3352SOL    HW121689   0.580   2.415   7.604 -2.3003 -0.1388  1.7968
 3352SOL    HW221690   0.571   2.500   7.712  0.6465 -0.0511  0.0151
 3353SOL     OW21691   3.396   2.678   6.770  0.3311 -0.2484 -0.5185
 3353SOL    HW121692   3.436   2.651   6.687 -0.2050  0.2756 -0.9427
 3353SOL    HW221693   3.416   2.770   6.785  0.8948 -0.2815 -1.0635
 3354SOL     OW21694   2.976   1.243   8.565 -0.3923  0.2529  0.3323
 3354SOL    HW121695   3.013   1.299   8.496 -0.3518 -2.1756 -1.6336
 3354SOL    HW221696   3.052   1.191   8.590 -1.3533 -1.4613 -0.2701
 3355SOL     OW21697   0.399   0.803   5.555 -0.3597  0.5466  0.5552
 3355SOL    HW121698   0.371   0.779   5.467 -0.4307 -0.1980  0.7764
 3355SOL    HW221699   0.371   0.724   5.602 -3.4711  0.6735 -1.1170
 3356SOL     OW21700   3.491   2.216   4.651  0.0421  0.2834 -0.3732
 3356SOL    HW121701   3.461   2.198   4.739  1.0177 -1.4042 -0.3824
 3356SOL    HW221702   3.580   2.181   4.648 -0.5220 -1.2201  0.3387
 3357SOL     OW21703   0.502   0.307   8.066  0.4527 -0.5183 -0.5713
 3357SOL    HW121704   0.412   0.336   8.053  0.8587  0.5854 -0.8773
 3357SOL    HW221705   0.545   0.383   8.027  0.2182 -0.1052 -0.0223
 3358SOL     OW21706   0.486   1.903  11.099 -0.0811  0.2590  0.7674
 3358SOL    HW121707   0.507   1.993  11.073 -0.8250 -0.0209 -0.8455
 3358SOL    HW221708   0.394   1.923  11.113  0.0359 -0.7444  2.9416
 3359SOL     OW21709   2.636   1.128   5.385 -0.0249  0.0057  0.1888
 3359SOL    HW121710   2.584   1.114   5.306  1.3843 -0.2853 -0.6910
 3359SOL    HW221711   2.715   1.080   5.360 -0.1570  0.8114 -1.8202
 3360SOL     OW21712   3.727   2.994   4.467  0.5284 -0.1622  0.5276
 3360SOL    HW121713   3.689   3.067   4.419 -0.7482 -1.9370 -1.1473
 3360SOL    HW221714   3.703   3.020   4.556 -0.7315  0.2713  0.0651
 3361SOL     OW21715   3.290   0.560  15.908 -0.1433  0.0986  0.3003
 3361SOL    HW121716   3.229   0.543  15.980 -1.0533  3.0745  0.2588
 3361SOL    HW221717   3.368   0.534  15.956 -0.7732  0.0273  1.2989
 3362SOL     OW21718   4.336   1.362   4.361 -0.4129 -0.4399  0.9159
 3362SOL    HW121719   4.246   1.387   4.340  0.3899  0.0104 -2.0283
 3362SOL    HW221720   4.378   1.405   4.287 -0.9093  1.6085  1.8168
 3363SOL     OW21721   2.339   2.124  16.797  0.4154  0.3129 -0.5251
 3363SOL    HW121722   2.313   2.201  16.747 -1.9678 -0.4390 -0.4549
 3363SOL    HW221723   2.408   2.084  16.744  0.5985 -2.0609  1.4653
 3364SOL     OW21724   0.493   0.580  17.259 -0.2466 -0.3904 -0.2329
 3364SOL    HW121725   0.398   0.581  17.250 -0.3400  0.0311  0.8093
 3364SOL    HW221726   0.509   0.500  17.309  1.5330  0.6056  0.7926
 3365SOL     OW21727   1.905   1.626   7.431 -0.2990 -0.0727 -0.4950
 3365SOL    HW121728   1.929   1.569   7.357  1.3725 -0.8180  0.6224
 3365SOL    HW221729   1.855   1.692   7.383 -2.2853 -1.8298 -0.8420
 3366SOL     OW21730   3.223   3.027   5.216  0.8483  0.2220  0.3666
 3366SOL    HW121731   3.147   3.069   5.174  1.2001  2.0198  1.5127
 3366SOL    HW221732   3.228   3.060   5.306 -3.4418  0.6151  0.4737
 3367SOL     OW21733   3.344   2.638   2.520  0.7295  0.3000 -0.0248
 3367SOL    HW121734   3.255   2.611   2.496  0.6005  0.3477  0.4053
 3367SOL    HW221735   3.322   2.712   2.576  0.6312  2.3751 -2.7633
 3368SOL     OW21736   0.141   0.610   6.152 -0.3000  0.1282  0.4240
 3368SOL    HW121737   0.185   0.655   6.080 -0.9840  0.3194  0.1318
 3368SOL    HW221738   0.050   0.637   6.147 -0.3072 -0.0779 -0.5577
 3369SOL     OW21739   1.968   4.469   3.300 -0.2701 -0.0412  0.0700
 3369SOL    HW121740   1.951   4.381   3.265 -2.1334  0.0151  0.8323
 3369SOL    HW221741   2.063   4.470   3.313  0.0158 -0.3352 -1.9264
 3370SOL     OW21742   0.648   3.060   2.130 -0.0974  0.1443  0.4272
 3370SOL    HW121743   0.591   3.126   2.091  0.8392  0.0868 -1.0212
 3370SOL    HW221744   0.707   3.051   2.055 -0.9613 -0.0249 -0.2299
 3371SOL     OW21745   2.224   2.358   1.548 -0.1815  0.2372  0.2927
 3371SOL    HW121746   2.150   2.325   1.600  0.9034 -1.5843  0.6896
 3371SOL    HW221747   2.172   2.420   1.497 -0.6971  0.0614  0.5959
 3372SOL     OW21748   2.786   0.444   8.067 -0.6819 -0.1980  0.2279
 3372SOL    HW121749   2.799   0.478   7.979 -0.0825 -1.8455 -0.3090
 3372SOL    HW221750   2.876   0.435   8.100 -0.5345 -0.8344 -0.3671
 3373SOL     OW21751   2.215   1.588   4.127  0.3445  0.4010 -0.6056
 3373SOL    HW121752   2.189   1.572   4.036 -1.4606  2.4331 -0.4511
 3373SOL    HW221753   2.175   1.509   4.163 -2.6934  0.9328 -2.8005
 3374SOL     OW21754   1.698   2.919   5.287 -0.4433 -0.2985 -1.0695
 3374SOL    HW121755   1.686   2.907   5.381 -0.4116 -1.4641 -1.2149
 3374SOL    HW221756   1.786   2.888   5.266  0.1852  1.1469 -0.5824
 3375SOL     OW21757   3.521   1.690   4.024 -0.0221  0.9133 -0.4317
 3375SOL    HW121758   3.605   1.730   4.000 -1.1092  3.6186  0.2435
 3375SOL    HW221759   3.467   1.708   3.947 -0.6400  1.0117  0.0243
 3376SOL     OW21760   2.379   1.059  13.016  0.5815  0.6470  0.2314
 3376SOL    HW121761   2.362   1.047  12.923  0.2532  0.3374  0.3281
 3376SOL    HW221762   2.372   0.967  13.042  1.9764  0.0547 -1.5209
 3377SOL     OW21763   1.113   4.009   8.569 -0.7112 -0.3416 -0.3264
 3377SOL    HW121764   1.143   4.002   8.660  0.1688  3.2204 -0.3282
 3377SOL    HW221765   1.191   4.049   8.531  1.2741 -1.4153  2.6542
 3378SOL     OW21766   1.233   4.163  14.530 -0.1888  0.1897  0.3595
 3378SOL    HW121767   1.179   4.228  14.576  0.2508  2.0404 -1.7414
 3378SOL    HW221768   1.191   4.132  14.450 -0.6385 -0.0553  0.6933
 3379SOL     OW21769   0.304   2.139  17.320  0.0273  0.3502  0.4132
 3379SOL    HW121770   0.384   2.182  17.352  0.3158  0.1196 -0.0033
 3379SOL    HW221771   0.236   2.204  17.339  0.1750  1.1194 -1.6748
 3380SOL     OW21772   3.276   2.840   0.577  0.2948  0.0569  0.0623
 3380SOL    HW121773   3.289   2.776   0.507  1.8510 -1.5916  1.8630
 3380SOL    HW221774   3.181   2.846   0.577  0.2047 -1.2931  0.5441
 3381SOL     OW21775   3.195   2.547   0.734 -0.5420 -0.3250 -0.0436
 3381SOL    HW121776   3.104   2.549   0.704 -0.5896  1.1462  0.2014
 3381SOL    HW221777   3.211   2.629   0.780 -0.8562 -0.7660  0.8530
 3382SOL     OW21778   0.042   2.549  13.804  0.0909 -0.1570  0.0999
 3382SOL    HW121779   0.023   2.536  13.897 -0.2288  0.0379  0.0643
 3382SOL    HW221780   4.715   2.616  13.777  1.3389 -0.4069 -3.3764
 3383SOL     OW21781   1.444   4.076   2.600 -0.3252  0.5217 -0.2300
 3383SOL    HW121782   1.529   4.063   2.558 -0.7111 -0.7551 -0.6049
 3383SOL    HW221783   1.442   4.000   2.658 -1.7374 -0.3949 -1.5032
 3384SOL     OW21784   4.364   0.815   5.776 -0.5306  0.3716  0.2090
 3384SOL    HW121785   4.401   0.759   5.845 -1.1389  0.4891  0.6262
 3384SOL    HW221786   4.282   0.830   5.824 -0.7297 -0.8769  0.2664
 3385SOL     OW21787   3.028   2.935   7.913 -0.1944  0.1716  0.0117
 3385SOL    HW121788   3.059   2.877   7.844  2.8818  1.4232  0.3888
 3385SOL    HW221789   3.099   2.937   7.977  1.1729  3.5502 -1.6140
 3386SOL     OW21790   1.511   3.790  14.617  0.6875 -0.1908  0.3624
 3386SOL    HW121791   1.517   3.886  14.622 -2.1971 -0.1720  3.5720
 3386SOL    HW221792   1.417   3.775  14.612  0.9966 -1.4085 -1.5314
 3387SOL     OW21793   3.441   4.151   1.237 -0.1343 -0.4742 -0.2078
 3387SOL    HW121794   3.512   4.197   1.282  0.1412 -0.7123 -0.3993
 3387SOL    HW221795   3.484   4.099   1.170 -1.4068 -0.0819 -1.3272
 3388SOL     OW21796   2.244   0.264   5.134 -0.0345 -0.0841  0.0281
 3388SOL    HW121797   2.210   0.329   5.196 -0.6177 -1.0340  0.6975
 3388SOL    HW221798   2.159   0.222   5.126 -0.5694  1.0264 -0.1589
 3389SOL     OW21799   1.310   0.980   0.618  0.4508 -0.3890  0.0842
 3389SOL    HW121800   1.230   0.998   0.568 -0.3354  0.7599  1.7691
 3389SOL    HW221801   1.377   0.962   0.552  2.3085 -1.2780  2.2101
 3390SOL     OW21802   0.711   0.914   2.092  0.2634 -0.0625 -0.6722
 3390SOL    HW121803   0.723   0.820   2.100  1.0117  0.1311  0.6363
 3390SOL    HW221804   0.784   0.929   2.032  1.2275 -0.5048  0.3901
 3391SOL     OW21805   4.340   1.822   1.983  0.3635 -0.4100 -0.0080
 3391SOL    HW121806   4.384   1.902   1.957  0.7580 -0.2407  1.1538
 3391SOL    HW221807   4.393   1.798   2.059  1.1317 -2.0780 -1.0671
 3392SOL     OW21808   0.155   4.364   8.542 -0.2324  0.0574  0.3579
 3392SOL    HW121809   0.198   4.283   8.515  0.2210  0.0409  1.1037
 3392SOL    HW221810   0.232   4.410   8.576  0.3220  0.3194 -1.2485
 3393SOL     OW21811   2.584   0.491  16.889 -0.1643 -0.3694  0.3715
 3393SOL    HW121812   2.498   0.494  16.846 -0.9516 -0.9977  1.9198
 3393SOL    HW221813   2.638   0.480  16.811  0.5744  1.5269  0.6299
 3394SOL     OW21814   0.997   0.262   5.437 -0.1974 -0.3276 -0.2290
 3394SOL    HW121815   0.948   0.307   5.368 -1.2472 -0.9093  0.1381
 3394SOL    HW221816   0.929   0.225   5.493  0.6118 -1.2586  0.1265
 3395SOL     OW21817   3.155   1.703   4.004  0.2769  0.4516  0.3039
 3395SOL    HW121818   3.174   1.777   4.062 -0.2865 -0.1652  1.2607
 3395SOL    HW221819   3.070   1.734   3.972  0.3659 -1.2171 -1.5068
 3396SOL     OW21820   4.224   4.502  15.007 -0.0786 -0.2799  0.0153
 3396SOL    HW121821   4.159   4.534  15.071  2.4945  1.9501  1.5073
 3396SOL    HW221822   4.169   4.495  14.929  0.5631  0.5113 -0.5027
 3397SOL     OW21823   4.214   4.446   7.605  0.0850 -0.3027 -0.0504
 3397SOL    HW121824   4.120   4.432   7.594 -0.0597  1.2761 -0.7613
 3397SOL    HW221825   4.209   4.536   7.574  1.7127 -1.0192 -2.3918
 3398SOL     OW21826   4.079   3.193   8.016  0.3611 -0.4464 -0.1804
 3398SOL    HW121827   4.108   3.109   8.053 -0.3514 -0.3709  0.5627
 3398SOL    HW221828   3.983   3.191   8.018  0.3476  0.7961  0.2175
 3399SOL     OW21829   3.066   1.196   5.677 -0.7581  0.1618  0.8861
 3399SOL    HW121830   3.037   1.224   5.763  0.0258 -0.5105  1.3701
 3399SOL    HW221831   3.074   1.100   5.684 -0.9732  0.1063  0.3591
 3400SOL     OW21832   2.160   4.076   4.204  0.2188  0.0321 -1.0900
 3400SOL    HW121833   2.177   4.102   4.294  0.0108 -0.8606 -0.7932
 3400SOL    HW221834   2.082   4.129   4.185 -0.7473 -1.7400 -2.1069
 3401SOL     OW21835   3.168   2.951  14.639 -0.1149 -0.3883  0.1395
 3401SOL    HW121836   3.075   2.928  14.647 -0.1550 -0.3400 -0.1829
 3401SOL    HW221837   3.175   2.962  14.544 -0.3360 -0.4298  0.1187
 3402SOL     OW21838   3.648   3.158   7.726  0.0032  0.0909 -0.7064
 3402SOL    HW121839   3.725   3.201   7.690  1.0979 -1.0317  0.3368
 3402SOL    HW221840   3.579   3.225   7.725 -2.0396 -1.9785  2.2030
 3403SOL     OW21841   4.630   1.710   8.641  0.3778  0.2404 -0.0787
 3403SOL    HW121842   4.619   1.633   8.585 -0.6717  0.2549  0.1015
 3403SOL    HW221843   4.544   1.719   8.681  0.4419 -0.9440  0.3284
 3404SOL     OW21844   0.076   2.309   9.257  0.2809  0.2565  0.1261
 3404SOL    HW121845   0.019   2.383   9.279 -2.1851 -1.3650 -0.8933
 3404SOL    HW221846   0.102   2.285   9.345  0.5263  0.1772  0.0330
 3405SOL     OW21847   1.744   0.807   3.894  0.8205 -0.3749 -0.1525
 3405SOL    HW121848   1.733   0.844   3.981 -1.0980 -1.2602  0.0000
 3405SOL    HW221849   1.655   0.819   3.862 -0.3827 -0.8305  2.9915
 3406SOL     OW21850   1.123   3.178  17.340  0.1436  0.0437  0.6141
 3406SOL    HW121851   1.190   3.167  17.272 -1.6288 -1.5699 -0.8790
 3406SOL    HW221852   1.140   3.269  17.363  2.7640  0.4389 -2.7749
 3407SOL     OW21853   3.379   0.258   3.093 -0.3261  0.1924  0.7355
 3407SOL    HW121854   3.421   0.237   3.177 -1.0548 -0.8620  0.8427
 3407SOL    HW221855   3.451   0.273   3.033  1.9561  1.3489  3.7510
 3408SOL     OW21856   0.231   1.015   4.110  0.6166 -0.3320  0.1718
 3408SOL    HW121857   0.227   1.098   4.157 -1.9315 -0.2078 -0.2964
 3408SOL    HW221858   0.322   0.992   4.131  0.7856  0.4027  0.2498
 3409SOL     OW21859   4.471   2.434   4.116  0.2152  0.2987 -0.1037
 3409SOL    HW121860   4.458   2.392   4.201  2.5221  0.2434  0.2257
 3409SOL    HW221861   4.389   2.480   4.096 -1.4980 -2.7252  0.0675
 3410SOL     OW21862   3.588   1.847   1.664  0.7047  0.0955 -0.1289
 3410SOL    HW121863   3.625   1.786   1.599  3.5456  0.5259  1.1104
 3410SOL    HW221864   3.591   1.932   1.621 -2.1423  0.4949  0.4999
 3411SOL     OW21865   3.064   0.450   4.709  0.8843 -0.1499 -0.6256
 3411SOL    HW121866   3.123   0.517   4.676 -1.3220  2.3300  0.4985
 3411SOL    HW221867   3.087   0.447   4.801 -4.0404 -0.5562  0.5872
 3412SOL     OW21868   3.577   4.502   2.065  0.1818  0.3961  0.0223
 3412SOL    HW121869   3.653   4.460   2.104 -0.7167 -0.5807  0.7448
 3412SOL    HW221870   3.510   4.443   2.101  0.8191  0.4321  1.2614
 3413SOL     OW21871   3.181   0.069   4.560  0.3736 -0.7738 -0.1765
 3413SOL    HW121872   3.190   0.120   4.640 -0.8692 -1.5710  0.4858
 3413SOL    HW221873   3.094   0.100   4.533  0.8520  0.3341 -0.4197
 3414SOL     OW21874   3.704   1.098   4.517  0.6010 -0.1301  0.0281
 3414SOL    HW121875   3.733   1.183   4.483  1.2053 -0.2501  0.2310
 3414SOL    HW221876   3.722   1.041   4.443 -0.5476  0.3237 -0.5913
 3415SOL     OW21877   3.106   0.561  15.357 -0.5226 -0.4314  0.2022
 3415SOL    HW121878   3.151   0.524  15.432 -1.4074  2.4072  2.1297
 3415SOL    HW221879   3.096   0.477  15.310 -1.9194 -0.9598  1.4328
 3416SOL     OW21880   1.084   1.417   7.158  0.1736  0.0551 -0.0859
 3416SOL    HW121881   1.001   1.371   7.153  0.3018  0.0254 -2.0192
 3416SOL    HW221882   1.136   1.366   7.220 -1.1019 -0.4892  0.5482
 3417SOL     OW21883   0.225   3.134  14.660 -0.1841 -0.2280  0.0582
 3417SOL    HW121884   0.240   3.051  14.616  0.5027 -0.2359  0.3166
 3417SOL    HW221885   0.145   3.151  14.609 -0.4342  1.0312  0.8469
 3418SOL     OW21886   3.453   3.778  10.027 -0.4738  0.1015  0.6938
 3418SOL    HW121887   3.434   3.754  10.118 -0.4718 -0.6280  0.5087
 3418SOL    HW221888   3.543   3.802  10.048  0.0741 -1.0632 -0.3062
 3419SOL     OW21889   0.902   0.614   1.958  0.1470 -0.1621  0.1505
 3419SOL    HW121890   0.910   0.672   1.883  0.3495  0.0741  0.3550
 3419SOL    HW221891   0.996   0.592   1.960  0.6582  2.0354  0.2586
 3420SOL     OW21892   0.266   3.273   1.071  0.4118 -0.3606  0.2610
 3420SOL    HW121893   0.283   3.183   1.096 -0.3334  0.1260  2.5899
 3420SOL    HW221894   0.212   3.298   1.146  0.0125  0.8445 -0.4281
 3421SOL     OW21895   3.395   3.548   5.751  0.3496 -0.6012 -0.5240
 3421SOL    HW121896   3.457   3.594   5.808  1.0633 -1.1212 -0.8806
 3421SOL    HW221897   3.315   3.541   5.804 -0.4098 -1.9284 -1.8679
 3422SOL     OW21898   1.458   2.933   7.197  0.2239 -0.5633 -0.5449
 3422SOL    HW121899   1.446   2.895   7.110 -0.7958  1.2491 -1.1793
 3422SOL    HW221900   1.406   2.871   7.248  0.2755 -0.9469 -0.9605
 3423SOL     OW21901   3.165   3.926   3.607 -0.2714 -0.2407  0.1673
 3423SOL    HW121902   3.137   4.013   3.577 -0.4770  0.0163  1.1189
 3423SOL    HW221903   3.200   3.886   3.527 -0.6248 -1.3826  0.5847
 3424SOL     OW21904   3.006   3.278   4.104  0.1178  0.0827 -0.4298
 3424SOL    HW121905   2.986   3.352   4.162 -1.5802  0.0344 -0.9671
 3424SOL    HW221906   3.034   3.302   4.016 -0.1747  2.1053  0.0260
 3425SOL     OW21907   1.879   4.179  14.832  0.0039  0.0314  0.0548
 3425SOL    HW121908   1.898   4.171  14.926 -3.4200 -1.1795  0.6275
 3425SOL    HW221909   1.801   4.125  14.821  0.1892 -0.8052  2.7182
 3426SOL     OW21910   4.326   1.180  13.455 -0.3241 -0.0635  0.1619
 3426SOL    HW121911   4.289   1.191  13.542  0.8628  1.1323  0.5169
 3426SOL    HW221912   4.417   1.155  13.473 -0.6460 -4.2134 -3.9333
 3427SOL     OW21913   0.645   4.604   8.945 -0.3921  0.3042  0.0709
 3427SOL    HW121914   0.607   4.530   8.991  1.9822 -1.6275 -1.0680
 3427SOL    HW221915   0.656   4.661   9.021 -0.5834  0.4850 -0.0368
 3428SOL     OW21916   2.734   2.050  11.555  0.3016 -0.4964 -0.1347
 3428SOL    HW121917   2.816   2.016  11.518 -0.6012 -1.0113 -1.6743
 3428SOL    HW221918   2.688   1.969  11.578 -1.1784  0.7216  1.2349
 3429SOL     OW21919   3.047   0.998   2.535  0.5284 -0.0075 -0.8826
 3429SOL    HW121920   3.015   0.968   2.620 -0.2806 -0.2982 -1.2884
 3429SOL    HW221921   3.075   0.920   2.486 -0.3679 -0.8359 -0.0616
 3430SOL     OW21922   3.663   1.474   7.378 -0.7783 -0.5003 -0.3100
 3430SOL    HW121923   3.716   1.403   7.341  1.1720  0.4074  0.7360
 3430SOL    HW221924   3.622   1.497   7.295 -0.6771  0.4543 -0.0972
 3431SOL     OW21925   0.081   2.181   2.106 -0.1199  0.0264  0.1204
 3431SOL    HW121926   4.735   2.174   2.155 -1.3183 -1.5822 -2.1406
 3431SOL    HW221927   0.089   2.276   2.098 -0.1807  0.2762  2.8827
 3432SOL     OW21928   2.986   2.264   9.943  0.5181  0.2989  0.1241
 3432SOL    HW121929   3.001   2.358   9.949  0.1232  0.3779 -0.1073
 3432SOL    HW221930   3.072   2.223   9.949  0.6560  0.8977  2.0213
 3433SOL     OW21931   0.208   2.316   8.495 -1.0412 -0.9242  0.0358
 3433SOL    HW121932   0.171   2.273   8.418  0.7853 -3.5409  0.6198
 3433SOL    HW221933   0.298   2.285   8.503  0.3337  3.0718  0.2176
 3434SOL     OW21934   3.177   2.535   4.473  0.0817  0.1735 -0.0287
 3434SOL    HW121935   3.266   2.530   4.505 -1.0344  2.4843  3.4524
 3434SOL    HW221936   3.129   2.496   4.546  1.6428 -0.4272  0.6645
 3435SOL     OW21937   2.638   4.626   7.141  0.3540 -0.4901 -0.7313
 3435SOL    HW121938   2.657   4.670   7.058 -1.6551 -1.6009 -1.7623
 3435SOL    HW221939   2.648   4.701   7.200  0.3165 -0.2119 -1.0808
 3436SOL     OW21940   1.769   0.225   2.858 -0.4827  0.0061  0.2047
 3436SOL    HW121941   1.754   0.150   2.801 -2.1824  0.4064  0.1252
 3436SOL    HW221942   1.706   0.206   2.928 -1.7447 -0.1855 -0.9870
 3437SOL     OW21943   3.927   0.901   1.399  0.1301  0.3960  0.3179
 3437SOL    HW121944   3.907   0.929   1.488  2.3159 -0.9015  1.2243
 3437SOL    HW221945   3.984   0.972   1.370 -2.2960  1.8444 -0.9033
 3438SOL     OW21946   3.775   2.086  17.282 -0.0191  0.2220  0.5506
 3438SOL    HW121947   3.860   2.122  17.308  1.8360 -0.9244 -3.8788
 3438SOL    HW221948   3.739   2.048  17.362  1.2779  0.6728  1.3320
 3439SOL     OW21949   4.186   0.565   3.781  0.1136  0.2804  0.2269
 3439SOL    HW121950   4.151   0.564   3.870 -4.4625  0.6835 -1.5566
 3439SOL    HW221951   4.155   0.654   3.765 -1.1164 -0.0971  0.5005
 3440SOL     OW21952   4.024   1.543   6.504 -0.2562 -0.1298  0.0764
 3440SOL    HW121953   4.001   1.538   6.597 -3.0473  0.8945 -0.5647
 3440SOL    HW221954   4.012   1.634   6.478  0.0555  0.1202  0.8023
 3441SOL     OW21955   1.226   1.417   3.558 -0.6464 -0.1804 -0.0824
 3441SOL    HW121956   1.209   1.452   3.470  0.0843  1.8194  0.5668
 3441SOL    HW221957   1.157   1.351   3.562 -0.4911 -0.5846 -3.4175
 3442SOL     OW21958   1.797   0.915   7.684 -0.4424  0.1308 -0.0874
 3442SOL    HW121959   1.757   0.832   7.656  0.8452 -0.2018 -0.9479
 3442SOL    HW221960   1.884   0.879   7.703 -0.9087 -1.0584 -0.1935
 3443SOL     OW21961   3.791   3.427  17.666  0.1379  0.4597 -0.0209
 3443SOL    HW121962   3.821   3.354  17.720 -0.8644  0.3559  0.4071
 3443SOL    HW221963   3.794   3.385  17.580  0.6223 -1.9254  1.1492
 3444SOL     OW21964   1.117   1.503   3.324  0.1655  0.0017 -0.0103
 3444SOL    HW121965   1.113   1.521   3.230  0.3431  0.9828  0.1675
 3444SOL    HW221966   1.023   1.504   3.341 -0.1075 -0.2433 -1.5598
 3445SOL     OW21967   0.427   3.209   1.705  0.1776  0.6246 -0.1071
 3445SOL    HW121968   0.340   3.209   1.744  0.5658  1.2876  0.7868
 3445SOL    HW221969   0.417   3.299   1.675 -2.6077  0.7514  1.2001
 3446SOL     OW21970   1.520   4.513   6.197 -0.1885  0.2297  0.3621
 3446SOL    HW121971   1.528   4.587   6.258  0.0550 -0.8286  1.6176
 3446SOL    HW221972   1.592   4.528   6.136  0.4566 -0.7020  0.8983
 3447SOL     OW21973   2.757   4.698  16.605  0.0253 -0.0189 -0.0923
 3447SOL    HW121974   2.707   4.629  16.563 -0.3546 -0.7618  1.5900
 3447SOL    HW221975   2.697   0.036  16.591  1.8090  1.0588 -2.0994
 3448SOL     OW21976   4.288   2.253   5.815 -0.3319 -0.0615  0.8866
 3448SOL    HW121977   4.202   2.225   5.845 -0.3799 -0.1626  0.6610
 3448SOL    HW221978   4.309   2.305   5.892  0.2205  1.0140 -0.0056
 3449SOL     OW21979   2.884   1.830   6.512 -0.1708  0.2607 -0.2266
 3449SOL    HW121980   2.790   1.836   6.531 -0.3455  0.5379 -1.1615
 3449SOL    HW221981   2.931   1.886   6.573  0.8925 -0.0149 -0.7984
 3450SOL     OW21982   3.599   3.176  15.256  0.1448 -0.6312 -0.5262
 3450SOL    HW121983   3.565   3.101  15.207 -0.2849 -1.5678  1.2307
 3450SOL    HW221984   3.540   3.178  15.331 -0.5516  0.7581 -1.1145
 3451SOL     OW21985   1.842   3.596  15.245  0.2654 -0.1355 -0.3110
 3451SOL    HW121986   1.764   3.546  15.268  1.1393 -1.0769  0.6145
 3451SOL    HW221987   1.870   3.543  15.171  0.2286 -2.9422  1.6899
 3452SOL     OW21988   0.779   4.035   7.185 -0.0961  0.0927  0.0766
 3452SOL    HW121989   0.724   4.106   7.219  0.7892  0.9362 -0.2694
 3452SOL    HW221990   0.795   4.072   7.098 -0.1828 -0.4320 -0.1699
 3453SOL     OW21991   3.222   3.859   5.919 -0.3824 -0.4493  0.2578
 3453SOL    HW121992   3.147   3.894   5.967 -0.8954  0.2599 -1.0395
 3453SOL    HW221993   3.280   3.834   5.991  1.0907  3.0779  0.3095
 3454SOL     OW21994   0.396   2.823  12.734 -0.7382  0.3319  0.1651
 3454SOL    HW121995   0.426   2.837  12.824  0.7919 -0.6698 -0.2078
 3454SOL    HW221996   0.343   2.903  12.724  3.0696  2.7414 -0.6963
 3455SOL     OW21997   3.941   3.558  12.028 -0.2348 -0.2934  0.5132
 3455SOL    HW121998   3.862   3.588  12.072 -0.1442 -2.3003  2.0355
 3455SOL    HW221999   4.004   3.620  12.065  0.2944  0.4268 -1.5545
 3456SOL     OW22000   3.746   4.432   5.916  0.0988 -0.2198  0.0834
 3456SOL    HW122001   3.662   4.388   5.907 -0.2801  0.4413  0.4554
 3456SOL    HW222002   3.790   4.400   5.837 -0.2878  2.0322 -1.0492
 3457SOL     OW22003   2.883   2.900  14.692  0.3120  0.2040  0.4619
 3457SOL    HW122004   2.819   2.930  14.757 -0.9884  0.6080 -1.0112
 3457SOL    HW222005   2.824   2.845  14.640 -0.5659  0.0427  1.6168
 3458SOL     OW22006   0.829   2.597   1.084 -0.1513  0.5878  0.0002
 3458SOL    HW122007   0.819   2.559   0.997 -1.2955 -0.5107  0.6127
 3458SOL    HW222008   0.924   2.593   1.100  0.0218 -0.6261 -1.2548
 3459SOL     OW22009   1.986   4.236   0.803 -0.6282 -0.1298 -0.1102
 3459SOL    HW122010   1.957   4.273   0.886 -0.1010  0.4514 -0.1824
 3459SOL    HW222011   2.082   4.236   0.813 -0.4138  1.3760 -2.4063
 3460SOL     OW22012   4.079   0.891  14.181  0.4861  0.1461  0.1553
 3460SOL    HW122013   4.101   0.980  14.206 -1.8651  0.4109  1.3230
 3460SOL    HW222014   4.156   0.849  14.218  1.1891  2.1933  0.9768
 3461SOL     OW22015   4.397   0.160   3.841 -0.4407 -0.0324 -0.0607
 3461SOL    HW122016   4.376   0.132   3.930 -0.0115  1.4836  0.5191
 3461SOL    HW222017   4.326   0.221   3.825 -1.2171 -0.7446  0.6800
 3462SOL     OW22018   1.164   2.914  17.382 -0.4756 -0.0007  0.1529
 3462SOL    HW122019   1.145   3.006  17.364 -2.8610 -0.6486 -0.6764
 3462SOL    HW222020   1.118   2.904  17.465  1.5080 -0.2660  1.1990
 3463SOL     OW22021   2.936   3.601   4.226 -0.0852 -0.2449 -0.2159
 3463SOL    HW122022   2.898   3.520   4.260  0.3087 -0.0479  0.7047
 3463SOL    HW222023   2.889   3.670   4.274 -0.3199  0.4075 -1.3813
 3464SOL     OW22024   4.380   4.308   2.461 -0.1267  0.3150  0.8429
 3464SOL    HW122025   4.327   4.315   2.381 -0.1782  0.4310  0.8883
 3464SOL    HW222026   4.412   4.396   2.479 -2.3066  1.5450 -1.2897
 3465SOL     OW22027   4.725   2.639   5.624  0.0567  0.5758  0.0865
 3465SOL    HW122028   4.643   2.683   5.641  0.4307  0.7693  1.4312
 3465SOL    HW222029   0.034   2.634   5.709 -1.5594  2.6330  1.0325
 3466SOL     OW22030   1.282   4.671   6.499 -0.4869  0.0086  0.3552
 3466SOL    HW122031   1.227   4.597   6.525 -2.2689  0.9288 -0.8864
 3466SOL    HW222032   1.204   4.718   6.471 -1.3554 -2.0337 -0.6617
 3467SOL     OW22033   0.348   3.006   2.219  0.0312  0.2588  0.2100
 3467SOL    HW122034   0.322   3.054   2.298 -0.9266 -0.9749  0.6451
 3467SOL    HW222035   0.310   3.061   2.151  1.5386 -3.0931 -3.3097
 3468SOL     OW22036   3.724   1.409   3.729 -0.2741  0.4840 -0.1675
 3468SOL    HW122037   3.630   1.393   3.721  0.0502 -0.9070 -1.1196
 3468SOL    HW222038   3.737   1.387   3.821 -0.8580 -0.0365 -0.2085
 3469SOL     OW22039   3.114   0.272   8.654 -0.2905 -0.3229 -0.0129
 3469SOL    HW122040   3.057   0.204   8.617 -0.3043 -2.1219  3.2906
 3469SOL    HW222041   3.121   0.233   8.741  1.0454  1.8160  0.8315
 3470SOL     OW22042   2.778   2.694   3.342  0.1430  0.5021 -0.0391
 3470SOL    HW122043   2.735   2.749   3.277 -0.1051 -0.4668 -0.7076
 3470SOL    HW222044   2.729   2.616   3.314 -0.5738  1.2181 -0.7785
 3471SOL     OW22045   4.379   1.309   8.522 -0.5420 -0.2123 -0.1261
 3471SOL    HW122046   4.324   1.282   8.449  0.9947 -1.4081 -0.8508
 3471SOL    HW222047   4.437   1.234   8.538  0.2079  1.3228  4.4066
 3472SOL     OW22048   3.728   1.381  15.745  0.1448  0.2959  0.2452
 3472SOL    HW122049   3.674   1.313  15.704  0.3813  0.4931 -0.4031
 3472SOL    HW222050   3.684   1.461  15.714 -0.6814 -1.9570 -4.4477
 3473SOL     OW22051   3.885   3.863   9.512  0.2150 -0.0592  0.3489
 3473SOL    HW122052   3.972   3.895   9.486  0.6166 -0.7913  0.7742
 3473SOL    HW222053   3.831   3.891   9.438 -2.5231 -2.1547  1.5764
 3474SOL     OW22054   2.527   2.872   8.821  0.1970 -0.8391 -0.1894
 3474SOL    HW122055   2.525   2.777   8.810 -0.8591 -0.9278  0.7856
 3474SOL    HW222056   2.464   2.894   8.753  2.3051 -1.0388 -2.1772
 3475SOL     OW22057   3.326   3.723  13.986 -0.2964  0.2055  0.3644
 3475SOL    HW122058   3.350   3.755  14.072 -3.7551 -0.2361  1.5133
 3475SOL    HW222059   3.230   3.723  13.990 -0.3364 -0.7275 -0.4639
 3476SOL     OW22060   0.624   2.489  10.148 -0.3551 -0.2701  0.0682
 3476SOL    HW122061   0.653   2.508  10.237  0.9463  0.7300 -0.5886
 3476SOL    HW222062   0.698   2.430  10.134 -0.8628 -0.4144 -1.9947
 3477SOL     OW22063   4.308   1.299   4.051  0.2763  0.3093  0.0431
 3477SOL    HW122064   4.229   1.257   4.018  0.6173  0.1014 -0.5009
 3477SOL    HW222065   4.269   1.383   4.075 -0.0094  0.5674 -1.3405
 3478SOL     OW22066   1.608   1.401   3.342  0.3424 -0.0633  0.5931
 3478SOL    HW122067   1.579   1.336   3.406  0.4096 -1.1435 -0.4684
 3478SOL    HW222068   1.643   1.470   3.398  0.1321 -0.0614  0.7206
 3479SOL     OW22069   0.172   2.384   6.307 -0.4828  0.0184 -0.3310
 3479SOL    HW122070   0.218   2.304   6.282  0.1141  0.1923  0.1960
 3479SOL    HW222071   0.126   2.400   6.225  0.4937 -0.7996 -1.0438
 3480SOL     OW22072   1.605   4.714  10.930  0.2701 -0.4549 -0.4456
 3480SOL    HW122073   1.597   0.043  11.001  2.7638 -1.2560  0.5814
 3480SOL    HW222074   1.599   0.044  10.861  1.5264  0.7007  0.5589
 3481SOL     OW22075   0.232   0.014   4.820 -0.4240  0.3356 -0.3515
 3481SOL    HW122076   0.284   0.055   4.889 -0.8099  0.9831 -0.4508
 3481SOL    HW222077   0.276   0.043   4.740 -0.0621 -0.3980 -0.4253
 3482SOL     OW22078   4.630   1.442   2.370  0.0820 -0.6013  0.0336
 3482SOL    HW122079   4.661   1.506   2.434 -0.9611 -1.7834  1.7027
 3482SOL    HW222080   4.716   1.415   2.337 -0.1417 -0.6560 -0.5162
 3483SOL     OW22081   0.433   2.114  16.980 -0.2463 -0.3382  0.1246
 3483SOL    HW122082   0.381   2.085  17.055  1.3952  0.4868  1.5762
 3483SOL    HW222083   0.381   2.189  16.949 -1.1659 -0.2739  1.8036
 3484SOL     OW22084   2.045   2.831  17.262 -0.2283  0.7059  1.0106
 3484SOL    HW122085   2.135   2.805  17.284  0.7711  3.7442  0.5661
 3484SOL    HW222086   2.067   2.909  17.211  0.7782  0.1887  0.6614
 3485SOL     OW22087   4.615   1.387   8.677 -0.3542 -0.0204 -0.6119
 3485SOL    HW122088   4.704   1.402   8.706 -1.0518  1.0858  0.9565
 3485SOL    HW222089   4.562   1.404   8.754 -0.0149 -1.5319 -0.0653
 3486SOL     OW22090   1.107   4.452   6.567  0.7220  0.2098  0.0435
 3486SOL    HW122091   1.178   4.387   6.569  1.1309  0.6853  1.2170
 3486SOL    HW222092   1.037   4.396   6.534  1.3516 -0.5514 -0.0142
 3487SOL     OW22093   1.895   1.307  12.400  0.1070  0.2940  0.1954
 3487SOL    HW122094   1.816   1.286  12.351  0.0660  0.7560  0.0589
 3487SOL    HW222095   1.927   1.387  12.358  1.3061  0.2144  0.9600
 3488SOL     OW22096   3.069   1.805   0.990 -0.1029 -0.1008 -0.2158
 3488SOL    HW122097   3.037   1.715   0.998  2.5688 -1.1648 -1.4339
 3488SOL    HW222098   3.135   1.811   1.059  0.4750  0.1380 -0.7839
 3489SOL     OW22099   1.820   0.693   2.652  0.0133 -0.6192  0.4776
 3489SOL    HW122100   1.858   0.653   2.573 -0.6534 -1.1995  0.4502
 3489SOL    HW222101   1.765   0.622   2.684  2.1744 -0.3539  4.7900
 3490SOL     OW22102   3.237   3.099   2.004  1.0538  0.2712  0.0875
 3490SOL    HW122103   3.266   3.180   1.962 -1.3712  2.0113  1.7977
 3490SOL    HW222104   3.288   3.031   1.960  3.8604  1.3295  1.6794
 3491SOL     OW22105   3.815   3.006  16.683 -0.0447 -0.3471  0.2626
 3491SOL    HW122106   3.737   2.987  16.630 -0.6353  0.9781  0.6410
 3491SOL    HW222107   3.869   3.055  16.622 -2.4645 -0.2542 -1.8145
 3492SOL     OW22108   1.662   0.264   5.769  0.5006  0.1749  0.0634
 3492SOL    HW122109   1.724   0.203   5.811  0.9497  0.1376 -0.6598
 3492SOL    HW222110   1.706   0.308   5.697  1.3929 -2.4506 -1.0023
 3493SOL     OW22111   0.586   3.440   8.940  0.0006  0.3715  0.2819
 3493SOL    HW122112   0.585   3.524   8.894 -2.1316  0.3763  0.3547
 3493SOL    HW222113   0.506   3.395   8.913 -1.0731  1.7903  1.0997
 3494SOL     OW22114   1.859   4.543   2.070  0.0096 -0.3923  0.8541
 3494SOL    HW122115   1.911   4.613   2.110  2.2683 -0.5546 -1.8645
 3494SOL    HW222116   1.892   4.533   1.981 -2.8768  0.8192 -0.3581
 3495SOL     OW22117   4.360   4.501   8.516 -0.3677  0.7624 -0.1592
 3495SOL    HW122118   4.452   4.477   8.527 -0.6726 -0.7806 -0.9991
 3495SOL    HW222119   4.361   4.593   8.489 -1.3846  0.8834  0.2161
 3496SOL     OW22120   3.906   4.650   2.894  0.0787 -0.3595  0.3341
 3496SOL    HW122121   3.824   4.700   2.895 -0.1412 -0.8304  3.9555
 3496SOL    HW222122   3.880   4.563   2.923  2.1730 -0.4938  1.7686
 3497SOL     OW22123   0.971   0.383  11.503  0.7058 -0.1504  0.1558
 3497SOL    HW122124   1.003   0.473  11.505 -2.2215  0.8544  0.4964
 3497SOL    HW222125   1.052   0.332  11.493  1.2874  0.3475  2.2193
 3498SOL     OW22126   3.775   0.830   6.836 -0.0791 -0.2553  0.2441
 3498SOL    HW122127   3.722   0.906   6.812  1.0023 -0.6122 -3.2133
 3498SOL    HW222128   3.721   0.792   6.905  0.6439 -1.1028  0.3510
 3499SOL     OW22129   1.321   2.622   1.324  0.4218 -0.0723  0.2910
 3499SOL    HW122130   1.308   2.705   1.371 -1.4540  0.1289 -0.5981
 3499SOL    HW222131   1.360   2.657   1.244 -2.0793  2.0426 -0.0223
 3500SOL     OW22132   0.827   2.759   3.310 -0.0259 -0.2953  0.6548
 3500SOL    HW122133   0.896   2.711   3.355 -0.7389 -3.6230 -1.7977
 3500SOL    HW222134   0.829   2.707   3.230 -0.4137 -0.7258  0.9264
 3501SOL     OW22135   4.418   0.591  11.438  0.1563  0.4253 -0.0694
 3501SOL    HW122136   4.405   0.655  11.368 -0.7306  2.1581  1.6921
 3501SOL    HW222137   4.435   0.510  11.390  0.2781  1.0778 -1.1304
 3502SOL     OW22138   3.318   1.467   3.479  0.3706 -0.0879  1.0162
 3502SOL    HW122139   3.348   1.552   3.446 -1.1863  0.5388  1.2230
 3502SOL    HW222140   3.223   1.468   3.465  0.4322  1.3496  0.7081
 3503SOL     OW22141   3.645   1.573   6.787 -0.3470  0.1448 -0.0515
 3503SOL    HW122142   3.645   1.585   6.881  2.3544 -2.4397  0.2809
 3503SOL    HW222143   3.689   1.650   6.752 -1.7404  1.6398  1.5597
 3504SOL     OW22144   3.129   2.870   9.123 -0.0865  0.4519  0.0875
 3504SOL    HW122145   3.200   2.919   9.081 -0.6224  0.7207 -0.5006
 3504SOL    HW222146   3.155   2.895   9.212  0.4509  0.3526 -0.0405
 3505SOL     OW22147   2.120   1.481   4.773 -0.3028 -0.2277  0.3070
 3505SOL    HW122148   2.046   1.495   4.831 -1.2919  1.5107 -1.3778
 3505SOL    HW222149   2.185   1.447   4.835 -0.4898 -1.1057  0.0339
 3506SOL     OW22150   1.887   3.420   5.934 -0.1375 -0.0514  0.0876
 3506SOL    HW122151   1.888   3.504   5.980  0.4778  0.5958 -1.1255
 3506SOL    HW222152   1.932   3.445   5.853 -1.7376  0.3417 -0.6761
 3507SOL     OW22153   3.756   0.917   8.288 -0.5060 -0.2272 -0.0234
 3507SOL    HW122154   3.686   0.900   8.351 -2.2859  1.9083 -1.4463
 3507SOL    HW222155   3.834   0.868   8.315 -0.5540  0.1411  0.7855
 3508SOL     OW22156   1.318   4.158   8.449 -0.5721  0.3780 -0.2752
 3508SOL    HW122157   1.309   4.222   8.378 -1.4598  1.1848  0.5649
 3508SOL    HW222158   1.338   4.216   8.522 -0.4494  0.3897 -0.3182
 3509SOL     OW22159   0.555   1.334   8.741 -0.2742  0.3724 -0.4094
 3509SOL    HW122160   0.496   1.268   8.704 -0.5332  0.6231 -0.4402
 3509SOL    HW222161   0.626   1.288   8.786  0.0092  1.3880  0.1686
 3510SOL     OW22162   3.220   0.523  14.992  0.3676  0.2938  0.3446
 3510SOL    HW122163   3.277   0.484  14.925 -2.2912  0.4743 -2.0228
 3510SOL    HW222164   3.287   0.536  15.060  2.6086 -0.0867 -1.7633
 3511SOL     OW22165   3.704   0.168   9.497  0.3607 -0.2672 -0.1998
 3511SOL    HW122166   3.790   0.206   9.516  1.1732 -2.1347 -0.1647
 3511SOL    HW222167   3.719   0.092   9.553 -0.0573 -0.2997 -0.1342
 3512SOL     OW22168   3.050   2.164   4.849  0.1589 -0.7753 -0.3998
 3512SOL    HW122169   2.981   2.109   4.885 -1.0643  1.5494  0.8359
 3512SOL    HW222170   3.060   2.224   4.923  0.7117 -0.3883 -0.7809
 3513SOL     OW22171   2.108   0.998   8.710 -0.1027 -0.0826  0.3238
 3513SOL    HW122172   2.044   1.022   8.643 -1.6271 -1.6856  1.1917
 3513SOL    HW222173   2.090   1.056   8.783  2.6250  1.3935 -0.1970
 3514SOL     OW22174   0.514   1.044   3.872 -1.0561 -0.2607  0.5169
 3514SOL    HW122175   0.443   0.986   3.901 -0.3744 -1.1127  0.4683
 3514SOL    HW222176   0.580   1.034   3.940 -0.7661 -0.1762  0.2479
 3515SOL     OW22177   0.270   0.885   7.615 -0.0285  0.4662 -0.2106
 3515SOL    HW122178   0.247   0.968   7.658 -2.2028  0.3259 -1.0990
 3515SOL    HW222179   0.276   0.840   7.699 -0.7447 -0.2703 -0.5592
 3516SOL     OW22180   2.853   2.109   7.280  0.3719  0.0132 -0.9102
 3516SOL    HW122181   2.937   2.152   7.296  0.7182 -0.6523 -0.9299
 3516SOL    HW222182   2.812   2.119   7.366 -0.6008  0.0876 -1.3885
 3517SOL     OW22183   4.073   1.883   7.151  0.2619 -0.0495 -0.1672
 3517SOL    HW122184   4.074   1.873   7.055  0.2269  0.2788 -0.1994
 3517SOL    HW222185   4.063   1.976   7.167  2.9179  0.4504 -1.3503
 3518SOL     OW22186   1.665   4.547   3.845 -0.2770  0.0687  0.4292
 3518SOL    HW122187   1.626   4.549   3.757  1.5676 -0.4856 -0.4190
 3518SOL    HW222188   1.726   4.473   3.839  0.0953  0.4277 -0.2495
 3519SOL     OW22189   0.176   2.865   1.475  0.4577  0.1377 -0.0482
 3519SOL    HW122190   0.232   2.935   1.442  1.4209 -0.4187  0.3734
 3519SOL    HW222191   0.107   2.866   1.409  0.9820  0.4154 -0.5899
 3520SOL     OW22192   3.976   2.099   5.483  0.7003  0.3645 -0.2438
 3520SOL    HW122193   3.997   2.046   5.560  2.2269  0.0489 -0.8835
 3520SOL    HW222194   3.880   2.106   5.477  0.8531  2.2092 -0.4419
 3521SOL     OW22195   4.019   4.128   2.526  0.3402  0.4436 -0.5216
 3521SOL    HW122196   4.053   4.050   2.571 -0.6012  0.1560 -0.3124
 3521SOL    HW222197   3.978   4.174   2.599  1.0272  2.3238 -1.3223
 3522SOL     OW22198   3.387   2.650   3.468 -0.0344  1.0495  0.0717
 3522SOL    HW122199   3.435   2.583   3.420 -1.5366  0.0036  0.0213
 3522SOL    HW222200   3.396   2.725   3.409 -1.1750  0.8273 -0.3760
 3523SOL     OW22201   3.154   1.039  14.040  0.2723 -0.3239 -0.1177
 3523SOL    HW122202   3.062   1.047  14.016 -0.0029  0.2890  1.1480
 3523SOL    HW222203   3.144   1.067  14.131  2.3345 -0.5300  0.1619
 3524SOL     OW22204   4.334   2.084  16.938  0.5104 -0.2851 -0.2115
 3524SOL    HW122205   4.325   2.116  17.027  0.2564  0.0150 -0.3452
 3524SOL    HW222206   4.281   2.145  16.886  2.4197  1.6871  0.1393
 3525SOL     OW22207   2.912   0.639   0.562  0.3723  0.0885 -0.1280
 3525SOL    HW122208   2.951   0.714   0.606 -0.1988 -0.0627  0.6426
 3525SOL    HW222209   2.940   0.562   0.611  1.6387  0.4421 -0.3140
 3526SOL     OW22210   2.013   1.633  12.986  0.6615 -0.3525  0.0482
 3526SOL    HW122211   1.918   1.624  12.998  0.4643  1.7855  0.0870
 3526SOL    HW222212   2.048   1.634  13.075  0.8296 -0.9478 -0.0183
 3527SOL     OW22213   2.148   4.225  11.186 -0.1903  0.2150 -0.1721
 3527SOL    HW122214   2.138   4.198  11.277  1.4225 -1.4113 -0.4978
 3527SOL    HW222215   2.243   4.223  11.190 -0.3033 -4.1156  0.0144
 3528SOL     OW22216   4.719   0.285   2.189 -0.1956 -0.1585 -0.2895
 3528SOL    HW122217   0.065   0.268   2.236  0.4337  1.0750 -0.9304
 3528SOL    HW222218   4.661   0.217   2.223 -1.2816  1.2291  0.6759
 3529SOL     OW22219   4.717   0.916   5.625 -0.3239  0.4536 -0.1390
 3529SOL    HW122220   4.680   0.829   5.642  0.9595 -0.0173  0.2445
 3529SOL    HW222221   0.068   0.915   5.663  0.6608 -1.3006 -2.4154
 3530SOL     OW22222   3.288   3.666   6.375 -0.4065  0.2849 -0.3903
 3530SOL    HW122223   3.371   3.635   6.413 -0.7645  1.3115  1.2296
 3530SOL    HW222224   3.223   3.647   6.442 -0.8020  1.3461 -0.4812
 3531SOL     OW22225   3.111   0.495   5.235 -0.2867 -0.0188 -0.1125
 3531SOL    HW122226   3.141   0.581   5.206  0.9265 -0.5454 -0.4030
 3531SOL    HW222227   3.016   0.499   5.241 -0.4020 -0.7493 -1.6300
 3532SOL     OW22228   3.992   1.775   4.221 -0.1413 -0.2564  0.5211
 3532SOL    HW122229   3.954   1.788   4.308 -3.2378  2.7145 -1.2953
 3532SOL    HW222230   4.081   1.751   4.247 -0.4462 -0.2709  1.5420
 3533SOL     OW22231   2.577   4.319  17.465 -0.4432  0.2874 -0.2840
 3533SOL    HW122232   2.534   4.325  17.380 -0.7019 -0.5777 -0.2194
 3533SOL    HW222233   2.605   4.408  17.486 -0.7509  0.5063 -0.7956
 3534SOL     OW22234   3.109   0.169   1.836  0.3849 -0.3782  0.5030
 3534SOL    HW122235   3.200   0.199   1.841 -0.1473  1.0799  1.3831
 3534SOL    HW222236   3.081   0.236   1.898  0.2929 -0.4926  0.5841
 3535SOL     OW22237   0.407   2.702   7.446 -0.2342 -0.6975 -0.8347
 3535SOL    HW122238   0.432   2.667   7.532  4.1695  1.2820 -1.3296
 3535SOL    HW222239   0.465   2.654   7.387  1.0007  0.7162 -0.7611
 3536SOL     OW22240   0.139   4.146   4.809 -0.3051 -0.0760  0.4934
 3536SOL    HW122241   0.206   4.158   4.877  0.5954 -0.7996 -0.2814
 3536SOL    HW222242   0.190   4.185   4.738 -0.2755  0.2646  0.7005
 3537SOL     OW22243   3.996   1.898  16.427 -0.0766  0.1347  0.1579
 3537SOL    HW122244   4.077   1.848  16.424 -0.0389  0.2832 -1.6066
 3537SOL    HW222245   4.001   1.950  16.507  3.8514  1.1114 -0.6920
 3538SOL     OW22246   2.642   3.789   1.470 -0.2760 -0.1079  0.3356
 3538SOL    HW122247   2.722   3.841   1.471  0.8136 -1.7661 -0.3884
 3538SOL    HW222248   2.575   3.857   1.473 -0.2632 -0.0447 -0.7758
 3539SOL     OW22249   2.350   2.255   6.116 -0.0336  0.6911 -0.1137
 3539SOL    HW122250   2.262   2.232   6.087  0.7523  0.2292 -2.1039
 3539SOL    HW222251   2.402   2.226   6.041  0.9090  1.7362  0.1311
 3540SOL     OW22252   4.563   3.473   3.785 -0.9999  0.3775  0.7717
 3540SOL    HW122253   4.476   3.441   3.810 -0.3346 -1.3426  0.8592
 3540SOL    HW222254   4.601   3.505   3.867 -0.9071  0.7023  0.6016
 3541SOL     OW22255   4.357   1.493   7.034 -0.1099  0.1627 -0.1403
 3541SOL    HW122256   4.286   1.548   7.000 -1.1128 -0.7066  0.5455
 3541SOL    HW222257   4.327   1.407   7.003 -1.0943  0.6416 -0.5114
 3542SOL     OW22258   3.860   0.735  11.293  0.6286  0.3838 -0.0678
 3542SOL    HW122259   3.908   0.809  11.331  0.4086 -0.0948  1.1540
 3542SOL    HW222260   3.914   0.720  11.215 -1.6010  0.8428 -1.7057
 3543SOL     OW22261   2.417   0.156   9.385  0.0532  0.1625 -0.1800
 3543SOL    HW122262   2.423   0.085   9.449  2.2880  1.1716  0.7301
 3543SOL    HW222263   2.333   0.197   9.405  0.2279  1.6102 -2.4332
 3544SOL     OW22264   0.284   2.695   4.237  0.1151  0.4626  0.1119
 3544SOL    HW122265   0.314   2.604   4.234  0.0558  0.4380  0.2625
 3544SOL    HW222266   0.310   2.722   4.325 -0.4579  1.8457 -0.1425
 3545SOL     OW22267   3.461   1.543   2.785  0.2992 -0.0509 -0.5999
 3545SOL    HW122268   3.495   1.461   2.751  0.8670 -0.4662  0.9468
 3545SOL    HW222269   3.498   1.530   2.872 -1.4488  0.8630  0.2911
 3546SOL     OW22270   2.367   3.402   3.619  0.4445 -0.0517 -0.3517
 3546SOL    HW122271   2.457   3.416   3.649  0.7430 -0.9494 -0.7909
 3546SOL    HW222272   2.381   3.432   3.529 -0.9154  0.2394 -0.4580
 3547SOL     OW22273   2.644   4.463  11.795 -0.6309 -0.2180  0.1680
 3547SOL    HW122274   2.738   4.466  11.775 -0.7457 -2.4978 -0.7704
 3547SOL    HW222275   2.601   4.451  11.710  2.4300 -1.6219 -1.1937
 3548SOL     OW22276   2.177   1.018   4.846 -0.2006 -0.1657  0.0067
 3548SOL    HW122277   2.167   0.941   4.902 -0.1545 -0.1846 -0.0105
 3548SOL    HW222278   2.240   0.985   4.782 -0.1308  0.8503 -0.4490
 3549SOL     OW22279   3.799   2.064   1.437 -0.0643 -0.7643  0.2903
 3549SOL    HW122280   3.801   2.073   1.342 -0.6667  0.8639  0.4266
 3549SOL    HW222281   3.711   2.099   1.453  0.3801  0.0304  0.9971
 3550SOL     OW22282   0.492   4.396   3.396 -0.1487  0.4894 -0.4883
 3550SOL    HW122283   0.446   4.409   3.314 -2.4026 -1.6025  0.4488
 3550SOL    HW222284   0.487   4.487   3.423 -0.4103 -0.0674  1.3972
 3551SOL     OW22285   0.630   4.723   5.046  0.0538 -0.1746  0.0821
 3551SOL    HW122286   0.717   0.025   5.037 -0.6574  1.6157  0.8421
 3551SOL    HW222287   0.627   4.688   4.957 -0.1597  3.0721 -1.1689
 3552SOL     OW22288   3.738   0.996   9.008 -0.2773  0.3403 -0.5800
 3552SOL    HW122289   3.668   1.059   8.994  0.6492  1.5585  0.2130
 3552SOL    HW222290   3.688   0.925   9.048  2.2569 -1.7698 -1.1405
 3553SOL     OW22291   3.272   0.565   2.739 -0.1206  0.2496  0.8417
 3553SOL    HW122292   3.326   0.592   2.813  2.3750 -1.0324 -0.5263
 3553SOL    HW222293   3.312   0.610   2.665 -0.9550  0.8128  0.7434
 3554SOL     OW22294   2.114   3.251  14.422  0.0618  0.8316 -0.3259
 3554SOL    HW122295   2.152   3.258  14.335  0.4997 -1.3365 -0.3185
 3554SOL    HW222296   2.029   3.288  14.398 -0.3818 -0.5308 -0.8871
 3555SOL     OW22297   1.615   0.937  11.142  0.7039  0.3733  0.4701
 3555SOL    HW122298   1.521   0.955  11.133  0.5638 -0.0311  1.1025
 3555SOL    HW222299   1.616   0.850  11.182 -1.0634 -0.1730 -0.6745
 3556SOL     OW22300   1.364   2.524   7.741 -0.3145 -0.0171  0.8800
 3556SOL    HW122301   1.366   2.460   7.670 -2.9005  1.1980 -0.2752
 3556SOL    HW222302   1.415   2.472   7.803  0.4593  2.1130  2.0307
 3557SOL     OW22303   4.502   2.296  14.905  0.1613  0.0347  0.3802
 3557SOL    HW122304   4.537   2.287  14.817 -0.4907  1.0540  0.0152
 3557SOL    HW222305   4.585   2.298  14.953 -1.0684  0.3082  2.5039
 3558SOL     OW22306   0.595   4.299   2.275  0.2169  0.7942 -0.2114
 3558SOL    HW122307   0.587   4.385   2.315  1.2103  1.6591 -1.8899
 3558SOL    HW222308   0.606   4.240   2.349 -1.3570 -0.2368 -0.7924
 3559SOL     OW22309   0.828   0.796   7.104 -0.0637  0.1311 -0.1953
 3559SOL    HW122310   0.883   0.873   7.088 -0.8755  0.2824 -2.3071
 3559SOL    HW222311   0.789   0.778   7.018  3.3889 -3.1923 -1.0759
 3560SOL     OW22312   4.583   0.378   6.325  0.0401  0.0212 -0.4145
 3560SOL    HW122313   4.571   0.299   6.377  0.1255 -1.3317 -2.4789
 3560SOL    HW222314   4.532   0.361   6.246 -2.8745  4.4845  0.4725
 3561SOL     OW22315   4.321   0.577  13.478  0.0317  0.5340  0.3365
 3561SOL    HW122316   4.234   0.616  13.480 -0.4977 -0.5015 -1.8570
 3561SOL    HW222317   4.335   0.570  13.572  0.8051 -0.1626  0.1768
 3562SOL     OW22318   0.096   1.236   2.497  0.1105 -0.0361  1.0546
 3562SOL    HW122319   0.009   1.246   2.536  1.0170 -0.8637  3.3139
 3562SOL    HW222320   0.151   1.214   2.572  0.7721 -0.0078  0.5836
 3563SOL     OW22321   4.464   0.249  17.570 -0.0020  0.0555  0.5643
 3563SOL    HW122322   4.466   0.322  17.631  1.3324  1.0656 -0.7068
 3563SOL    HW222323   4.381   0.271  17.527  0.8674 -1.9747 -2.1492
 3564SOL     OW22324   3.569   0.174   7.701 -0.3216  0.3137  0.5616
 3564SOL    HW122325   3.618   0.095   7.681 -1.1043  0.0843 -0.4150
 3564SOL    HW222326   3.639   0.234   7.730 -0.9555  0.6459  1.3976
 3565SOL     OW22327   2.053   4.299   9.100  0.5667 -0.2146  0.4802
 3565SOL    HW122328   2.075   4.235   9.168 -0.2666 -1.1551 -0.1435
 3565SOL    HW222329   2.091   4.259   9.022  0.1441 -0.1529  0.2449
 3566SOL     OW22330   0.932   3.434   3.594 -0.1486 -0.3997 -0.4712
 3566SOL    HW122331   0.965   3.508   3.646  0.2626 -1.1157  0.2872
 3566SOL    HW222332   0.842   3.464   3.583 -0.0113 -0.0272 -0.5885
 3567SOL     OW22333   2.157   3.052   6.703  0.4602  0.0720  0.1230
 3567SOL    HW122334   2.141   3.011   6.788 -3.1735 -0.5485 -0.8450
 3567SOL    HW222335   2.252   3.055   6.696  0.4074  1.6202  0.0657
 3568SOL     OW22336   3.235   3.521  13.703 -0.0561  0.7778  0.3002
 3568SOL    HW122337   3.146   3.509  13.668 -0.7463  1.1105  1.9345
 3568SOL    HW222338   3.216   3.615  13.700  0.3446  0.8161 -1.1406
 3569SOL     OW22339   1.200   1.003   2.393 -0.3312  0.0236 -0.2389
 3569SOL    HW122340   1.272   0.968   2.339  1.0147  2.1007  0.2015
 3569SOL    HW222341   1.147   0.923   2.400 -1.3792  0.9793  2.2904
 3570SOL     OW22342   4.555   4.625   3.533 -0.1978  0.1505 -0.0881
 3570SOL    HW122343   4.461   4.640   3.544 -0.3563 -0.2382 -0.9090
 3570SOL    HW222344   4.574   4.575   3.612 -0.0636  0.5433  0.1272
 3571SOL     OW22345   1.628   3.574  16.614 -0.6051 -0.4376 -0.5436
 3571SOL    HW122346   1.650   3.537  16.700  2.7427  2.8903  0.0728
 3571SOL    HW222347   1.538   3.604  16.622  0.1082  1.8157 -1.1057
 3572SOL     OW22348   3.616   3.038   2.164 -0.2249 -0.9630  0.4521
 3572SOL    HW122349   3.709   3.061   2.172 -0.7004  0.3354  2.1133
 3572SOL    HW222350   3.619   2.969   2.097 -0.2387  0.3532 -0.9033
 3573SOL     OW22351   3.968   1.113   2.831  0.3228 -0.3530  0.0044
 3573SOL    HW122352   4.049   1.127   2.880 -0.2045  2.3614  0.1084
 3573SOL    HW222353   4.007   1.110   2.743  1.0343  2.4445  0.2404
 3574SOL     OW22354   3.774   4.445  10.097 -0.2078  0.0846 -0.5595
 3574SOL    HW122355   3.728   4.382  10.152  3.1067 -1.4383  0.4614
 3574SOL    HW222356   3.786   4.404  10.011  0.2854  0.0015 -0.4516
 3575SOL     OW22357   3.957   3.121   6.542 -0.0415 -0.8529  0.1575
 3575SOL    HW122358   3.950   3.081   6.455 -2.2157  1.1915 -0.6120
 3575SOL    HW222359   3.974   3.212   6.519 -0.0668 -1.6111 -2.9143
 3576SOL     OW22360   1.649   1.845   0.853 -0.1276 -0.0852  0.7429
 3576SOL    HW122361   1.581   1.778   0.863  0.0830 -0.3224  0.5765
 3576SOL    HW222362   1.635   1.864   0.760  0.8397  1.9024  1.0115
 3577SOL     OW22363   0.724   2.769   6.721  0.0995  0.4159  0.6898
 3577SOL    HW122364   0.719   2.837   6.654  1.0497 -0.3464 -0.1511
 3577SOL    HW222365   0.637   2.774   6.761  0.9072 -0.4501  2.5312
 3578SOL     OW22366   2.773   2.344   4.990 -0.2149  0.5403 -0.2481
 3578SOL    HW122367   2.691   2.378   4.953 -1.1520 -2.2811 -0.7789
 3578SOL    HW222368   2.787   2.271   4.930 -1.9949  0.6082 -0.7414
 3579SOL     OW22369   4.678   1.848  15.261 -0.2367  0.2676 -0.3976
 3579SOL    HW122370   0.023   1.894  15.283  1.6120 -2.3373 -1.8133
 3579SOL    HW222371   4.623   1.927  15.260  1.2215  1.2625 -2.0960
 3580SOL     OW22372   3.862   2.677   5.215  0.0537 -0.0711  0.0328
 3580SOL    HW122373   3.866   2.718   5.301  0.5137 -1.1343  0.5278
 3580SOL    HW222374   3.800   2.735   5.172 -0.4926  0.9896  2.2336
 3581SOL     OW22375   2.249   0.637   6.191  0.5989 -0.1322 -1.1128
 3581SOL    HW122376   2.332   0.681   6.209  0.3098  1.4622 -3.7051
 3581SOL    HW222377   2.226   0.657   6.100 -2.2042 -0.2354 -0.4159
 3582SOL     OW22378   2.345   0.782  13.030 -0.1239 -0.0404  0.3033
 3582SOL    HW122379   2.426   0.769  13.079 -0.5304 -0.8160  0.7703
 3582SOL    HW222380   2.346   0.702  12.978  1.8673 -0.9773  1.7728
 3583SOL     OW22381   1.460   2.070   7.071  0.2461 -0.1774  0.6163
 3583SOL    HW122382   1.435   2.162   7.072  0.4289 -0.1323  1.3269
 3583SOL    HW222383   1.386   2.038   7.124 -0.0491 -1.0058 -0.2957
 3584SOL     OW22384   4.586   0.364   8.212 -0.3307  0.1234 -0.3282
 3584SOL    HW122385   4.598   0.303   8.140  0.2416  0.0156 -0.1402
 3584SOL    HW222386   4.680   0.376   8.229 -0.3221 -0.0571 -0.2493
 3585SOL     OW22387   0.544   4.251   3.859  0.0389 -0.5030 -0.3702
 3585SOL    HW122388   0.575   4.254   3.769  1.4862  0.4391  0.1650
 3585SOL    HW222389   0.450   4.252   3.839 -0.1201  2.0581  0.5323
 3586SOL     OW22390   3.262   1.762  14.698 -0.2987  0.4664 -0.1003
 3586SOL    HW122391   3.303   1.771  14.784  0.5183 -2.6619 -0.1473
 3586SOL    HW222392   3.328   1.796  14.638 -0.5161  1.0550 -0.0002
 3587SOL     OW22393   1.013   4.371   0.500 -0.3551 -0.2954 -0.6357
 3587SOL    HW122394   0.930   4.405   0.533 -0.7402 -1.4722 -0.4061
 3587SOL    HW222395   1.013   4.280   0.528  1.8934  0.0497  0.4454
 3588SOL     OW22396   0.155   3.814   2.282 -0.0335  0.1791 -0.9918
 3588SOL    HW122397   0.121   3.727   2.260  3.0025 -0.8531 -1.6059
 3588SOL    HW222398   0.224   3.799   2.346 -1.1759 -0.0680  0.2041
 3589SOL     OW22399   1.994   0.464  13.893 -0.0137  0.0560 -0.7956
 3589SOL    HW122400   1.927   0.402  13.865 -0.4992  0.5408 -0.7008
 3589SOL    HW222401   1.996   0.527  13.821  1.6610  0.7397 -0.1524
 3590SOL     OW22402   0.683   1.954   8.461  0.4772 -0.7906  0.1294
 3590SOL    HW122403   0.694   2.044   8.428  1.6451 -1.0635 -0.2120
 3590SOL    HW222404   0.738   1.948   8.540 -2.3550  3.5503  2.4569
 3591SOL     OW22405   2.011   2.540   5.456  0.0593  0.4600  0.4334
 3591SOL    HW122406   1.925   2.581   5.468 -0.3096  0.2058 -1.4368
 3591SOL    HW222407   2.019   2.550   5.361 -2.8215  0.4985  0.2029
 3592SOL     OW22408   3.086   0.479   8.406  0.0522  0.4745  0.4577
 3592SOL    HW122409   3.013   0.521   8.452 -1.5529 -1.0495 -0.7039
 3592SOL    HW222410   3.096   0.398   8.456  3.2647 -1.1919 -2.8813
 3593SOL     OW22411   4.160   1.804   2.979  0.1726 -0.1852  0.8058
 3593SOL    HW122412   4.173   1.898   2.988  0.3778 -0.2119  0.7682
 3593SOL    HW222413   4.244   1.764   2.999  0.4284 -0.3337 -0.5893
 3594SOL     OW22414   2.897   4.042   4.723 -0.1367 -0.4986 -0.0962
 3594SOL    HW122415   2.871   3.990   4.648 -0.6900 -2.1702  1.2630
 3594SOL    HW222416   2.988   4.055   4.696  0.3760  0.3361  1.9990
 3595SOL     OW22417   4.122   0.566  11.262  0.0235  0.2240  0.2457
 3595SOL    HW122418   4.061   0.604  11.199 -0.4024  0.3212  0.7140
 3595SOL    HW222419   4.199   0.607  11.222  0.0787 -0.4278 -0.3102
 3596SOL     OW22420   0.003   3.936   3.786  0.9952  0.0886  0.5942
 3596SOL    HW122421   0.036   3.862   3.736 -0.0175 -0.2992  0.5088
 3596SOL    HW222422   0.006   4.014   3.730 -1.6082 -0.6544 -0.5857
 3597SOL     OW22423   2.273   0.475   7.262  0.1592 -0.6100 -0.3469
 3597SOL    HW122424   2.342   0.482   7.196  0.2085  3.1622  0.1238
 3597SOL    HW222425   2.326   0.460   7.340  0.0895  1.7354  0.1646
 3598SOL     OW22426   1.484   4.498   5.606 -0.4120  0.4793  0.6864
 3598SOL    HW122427   1.541   4.429   5.571 -0.0851  0.0705  2.0340
 3598SOL    HW222428   1.396   4.468   5.583 -1.1327  4.1697 -1.4183
 3599SOL     OW22429   3.738   1.482   6.221  0.2873  0.6479  0.5221
 3599SOL    HW122430   3.696   1.397   6.207  0.7672  0.4657  0.1912
 3599SOL    HW222431   3.829   1.456   6.212  0.1453 -0.0272  1.0696
 3600SOL     OW22432   4.517   4.301  13.716 -0.7513  0.2801  0.0185
 3600SOL    HW122433   4.551   4.241  13.650 -0.4502 -0.6678  1.0422
 3600SOL    HW222434   4.460   4.354  13.659  1.0509  2.4162  0.2147
 3601SOL     OW22435   0.886   0.766   4.343 -0.7146  0.0412  0.0573
 3601SOL    HW122436   0.896   0.701   4.412 -0.1860  0.4308  0.3507
 3601SOL    HW222437   0.796   0.798   4.353 -1.4978 -3.3799  3.6109
 3602SOL     OW22438   0.357   1.895   8.874  0.1318  0.3191 -0.6181
 3602SOL    HW122439   0.453   1.892   8.867  0.2800 -2.1861  2.2664
 3602SOL    HW222440   0.345   1.949   8.953 -2.7517 -0.6812 -0.3867
 3603SOL     OW22441   4.553   4.327   6.286  0.0468  0.1791  0.3396
 3603SOL    HW122442   4.581   4.253   6.340  0.2351  0.5705  0.7769
 3603SOL    HW222443   4.500   4.288   6.217  0.8307  1.0120 -0.7250
 3604SOL     OW22444   2.684   1.757  16.459 -0.4425  0.1138  0.1818
 3604SOL    HW122445   2.712   1.846  16.482  1.5649  0.2475 -2.7093
 3604SOL    HW222446   2.733   1.700  16.518 -0.6436  1.9518  2.1350
 3605SOL     OW22447   0.802   4.201   6.970  0.3050 -0.2362 -0.2568
 3605SOL    HW122448   0.710   4.226   6.971  0.9223  1.9753 -0.2094
 3605SOL    HW222449   0.826   4.253   6.894 -0.3057 -0.4227 -0.5785
 3606SOL     OW22450   0.319   1.535   2.016  0.1264 -0.1482 -0.1325
 3606SOL    HW122451   0.345   1.589   2.090  0.8132 -0.7554  0.0671
 3606SOL    HW222452   0.358   1.449   2.033  0.9617  0.0017 -1.2744
 3607SOL     OW22453   0.443   4.327   9.366  0.4823  0.1284  0.2118
 3607SOL    HW122454   0.426   4.415   9.401  1.3434 -0.4724  2.1509
 3607SOL    HW222455   0.498   4.291   9.435 -0.2293  1.0334  1.2622
 3608SOL     OW22456   2.166   0.417   2.132 -0.3487  0.0221  0.1112
 3608SOL    HW122457   2.240   0.356   2.133 -0.3879 -0.0511 -1.4811
 3608SOL    HW222458   2.116   0.369   2.198 -1.0691 -0.3212 -0.6738
 3609SOL     OW22459   1.101   0.660   8.840 -0.0064  0.0458  0.4933
 3609SOL    HW122460   1.111   0.716   8.763  0.7792  1.7230  1.8404
 3609SOL    HW222461   1.193   0.634   8.844 -0.4841 -1.6702  0.2868
 3610SOL     OW22462   2.027   1.183   9.216  0.7879 -0.4751  0.1905
 3610SOL    HW122463   2.102   1.211   9.269 -0.0177 -0.5045  1.3368
 3610SOL    HW222464   1.973   1.262   9.216  0.6218 -0.6080  3.2761
 3611SOL     OW22465   2.199   2.026   6.725 -0.8846  0.1994 -0.1407
 3611SOL    HW122466   2.117   2.044   6.771 -1.1177 -0.9815 -0.0851
 3611SOL    HW222467   2.220   2.117   6.706  0.0361  0.4770  2.2445
 3612SOL     OW22468   0.361   3.421   2.809 -0.6854 -0.0002 -0.3537
 3612SOL    HW122469   0.430   3.381   2.862 -1.5420  0.8108  1.3641
 3612SOL    HW222470   0.383   3.392   2.720  2.4889  1.6239 -0.0837
 3613SOL     OW22471   3.665   2.163   8.905 -0.0461 -0.6155  0.3428
 3613SOL    HW122472   3.710   2.213   8.837  0.1700  2.6171  2.8944
 3613SOL    HW222473   3.691   2.078   8.869 -0.2173 -0.9947  1.1037
 3614SOL     OW22474   4.271   0.163   4.527  0.4662  0.4691 -0.0099
 3614SOL    HW122475   4.332   0.090   4.521 -1.6960 -1.3888  0.5298
 3614SOL    HW222476   4.283   0.203   4.441  2.4288 -1.9862 -0.8802
 3615SOL     OW22477   3.516   3.051   1.717  0.6412 -0.4117 -0.0458
 3615SOL    HW122478   3.426   3.050   1.684  0.3591 -0.3105  0.7189
 3615SOL    HW222479   3.537   2.958   1.708 -0.1629 -0.2125 -3.7417
 3616SOL     OW22480   2.014   4.086  17.389  0.5046 -0.1972  0.2777
 3616SOL    HW122481   1.925   4.119  17.396  0.8037  0.3498  1.4584
 3616SOL    HW222482   2.017   4.032  17.468  0.3349  0.1173  0.4980
 3617SOL     OW22483   2.301   0.477   3.978 -0.2683  0.1167 -0.0581
 3617SOL    HW122484   2.302   0.386   3.947 -2.5083  0.0992 -0.0466
 3617SOL    HW222485   2.376   0.480   4.037 -1.7122  0.8201  1.7101
 3618SOL     OW22486   0.163   2.690   9.717 -0.1344 -0.3163 -0.0061
 3618SOL    HW122487   0.082   2.692   9.665 -0.0279 -0.9097 -0.1896
 3618SOL    HW222488   0.222   2.646   9.657 -0.4764 -1.6727  0.6680
 3619SOL     OW22489   3.361   3.237   6.975 -0.4587 -0.3181  0.2965
 3619SOL    HW122490   3.314   3.159   6.946  1.7422 -1.9352  1.0474
 3619SOL    HW222491   3.359   3.238   7.071  0.1188 -2.2583  0.3235
 3620SOL     OW22492   0.013   1.350   8.401  0.5175 -0.0729 -0.5595
 3620SOL    HW122493   4.725   1.278   8.343 -3.0139  0.7672 -0.1562
 3620SOL    HW222494   4.665   1.393   8.415  2.1787  2.1226  2.5625
 3621SOL     OW22495   2.448   3.383  14.007 -0.1622 -0.1366  0.2181
 3621SOL    HW122496   2.498   3.425  13.936  0.5606 -1.7208 -0.2054
 3621SOL    HW222497   2.384   3.338  13.952  0.4740  1.3886 -1.7836
 3622SOL     OW22498   2.285   0.356   6.178  0.0865 -0.0719  0.0461
 3622SOL    HW122499   2.240   0.438   6.200  0.7603  0.2470  0.2593
 3622SOL    HW222500   2.283   0.360   6.082 -1.5010  1.1613  0.1332
 3623SOL     OW22501   3.502   1.548   5.078 -0.3742 -0.0551 -0.2623
 3623SOL    HW122502   3.514   1.640   5.101 -0.1236 -0.4373  1.1302
 3623SOL    HW222503   3.431   1.537   5.141 -1.5333  1.3131 -1.3394
 3624SOL     OW22504   2.877   4.486   1.960  0.4119  0.7800  0.0258
 3624SOL    HW122505   2.963   4.446   1.947 -1.0369 -1.6989 -1.9838
 3624SOL    HW222506   2.847   4.492   1.869  0.8335  1.9102 -0.0331
 3625SOL     OW22507   1.384   3.753   2.180 -0.0071  0.2139 -0.7575
 3625SOL    HW122508   1.296   3.788   2.165 -1.0780 -2.0437  0.1657
 3625SOL    HW222509   1.440   3.830   2.174  0.4254 -0.1048 -0.7837
 3626SOL     OW22510   0.044   0.550   5.028 -0.5504  0.2461 -0.3725
 3626SOL    HW122511   0.111   0.548   4.959  1.5482  2.2620  1.6149
 3626SOL    HW222512   4.698   0.567   4.982  0.9614  0.8813 -2.8527
 3627SOL     OW22513   0.117   2.985  12.308 -0.3439  0.1545  0.4067
 3627SOL    HW122514   0.063   2.910  12.282 -0.3884  1.1507 -2.3048
 3627SOL    HW222515   0.194   2.976  12.252 -1.6523 -0.7567 -1.2434
 3628SOL     OW22516   3.369   1.600   2.098 -0.2980 -0.6391 -0.3588
 3628SOL    HW122517   3.403   1.659   2.031  2.4841 -0.8197  0.9010
 3628SOL    HW222518   3.313   1.545   2.044 -0.3156 -1.0647  0.0905
 3629SOL     OW22519   0.773   4.305   0.663 -0.0003 -0.1566  0.3275
 3629SOL    HW122520   0.700   4.346   0.616 -1.4491 -0.9322  1.9075
 3629SOL    HW222521   0.724   4.270   0.737 -0.7842  1.5303  0.6169
 3630SOL     OW22522   3.633   3.683   9.817  0.0659  0.5217  0.8893
 3630SOL    HW122523   3.554   3.684   9.872 -0.0553  0.0851  0.7262
 3630SOL    HW222524   3.708   3.722   9.862  0.1273 -2.5409  3.4964
 3631SOL     OW22525   2.383   2.609   8.378  0.2756 -0.4296  0.0289
 3631SOL    HW122526   2.379   2.651   8.292 -2.0207  1.9037  1.2492
 3631SOL    HW222527   2.459   2.551   8.381  0.9784  0.3367 -2.8585
 3632SOL     OW22528   2.355   3.884   9.073 -0.3057 -0.3635 -0.1734
 3632SOL    HW122529   2.436   3.935   9.069  0.5912 -1.7602  0.3455
 3632SOL    HW222530   2.379   3.800   9.032 -2.3804 -1.8538  1.7273
 3633SOL     OW22531   4.578   3.487   7.622 -0.2550 -0.1355 -0.0846
 3633SOL    HW122532   4.590   3.536   7.704  0.2901 -1.1042  0.4190
 3633SOL    HW222533   4.488   3.507   7.596 -0.1334  1.5939  0.8381
 3634SOL     OW22534   3.789   4.317   6.842 -0.5197  0.8993  0.2812
 3634SOL    HW122535   3.873   4.296   6.801 -0.9139 -1.2286  0.5589
 3634SOL    HW222536   3.826   4.367   6.915 -0.4662 -0.1831  1.0060
 3635SOL     OW22537   2.668   4.083   5.559  0.3632 -0.0958 -0.2745
 3635SOL    HW122538   2.608   4.017   5.522  0.7179 -0.3427 -0.4126
 3635SOL    HW222539   2.665   4.161   5.504  1.4899 -0.6343 -1.1026
 3636SOL     OW22540   4.701   4.136   8.020  0.4098  0.6122 -0.5696
 3636SOL    HW122541   4.628   4.196   8.008 -1.9812 -2.0246  0.8849
 3636SOL    HW222542   4.708   4.100   7.931  1.0376 -2.3103  0.6590
 3637SOL     OW22543   3.649   1.245  12.966  0.2491  0.4343 -0.1232
 3637SOL    HW122544   3.721   1.287  12.920 -1.9935  0.9626 -3.2172
 3637SOL    HW222545   3.673   1.248  13.058  0.6709  2.4827 -0.2834
 3638SOL     OW22546   3.410   2.363   2.225  0.0514  0.2623 -1.0874
 3638SOL    HW122547   3.463   2.437   2.253  0.3798 -0.8017  1.0517
 3638SOL    HW222548   3.469   2.296   2.188  0.8755 -0.5327  1.6587
 3639SOL     OW22549   0.862   1.235   4.900  0.0710  0.1151  0.1772
 3639SOL    HW122550   0.876   1.237   4.995  1.0204 -0.6957  0.0502
 3639SOL    HW222551   0.953   1.259   4.882  0.5015 -0.7392  1.1929
 3640SOL     OW22552   2.347   1.701   7.622 -0.2889  0.4154 -0.1265
 3640SOL    HW122553   2.254   1.714   7.638 -0.0199  0.9455  1.0197
 3640SOL    HW222554   2.353   1.668   7.532  0.6431 -1.7683  0.7177
 3641SOL     OW22555   2.227   3.281   2.113 -0.4805 -0.0174  0.6129
 3641SOL    HW122556   2.307   3.287   2.061 -0.5324  0.1249  0.5498
 3641SOL    HW222557   2.256   3.238   2.193 -1.2684 -0.8145  0.4743
 3642SOL     OW22558   1.379   2.782   6.971 -0.1323  0.0778 -0.3463
 3642SOL    HW122559   1.330   2.703   6.946  0.4080 -0.3610 -0.0417
 3642SOL    HW222560   1.318   2.851   6.945 -0.8506 -1.2295 -2.1449
 3643SOL     OW22561   2.852   1.318  16.736  0.3658  0.2029 -0.2982
 3643SOL    HW122562   2.809   1.383  16.791  0.7185  1.0481 -1.0106
 3643SOL    HW222563   2.903   1.371  16.675  1.3350 -0.8542 -0.4085
 3644SOL     OW22564   0.911   1.167  11.783 -0.1500 -0.1732 -0.6609
 3644SOL    HW122565   0.818   1.166  11.757  0.2398  1.3059 -2.0981
 3644SOL    HW222566   0.903   1.225  11.859 -1.8393  0.4436 -1.3000
 3645SOL     OW22567   0.056   2.460   2.921  0.0393  0.0338 -0.1723
 3645SOL    HW122568   0.053   2.421   3.008  1.3379  2.2929  0.8864
 3645SOL    HW222569   0.034   2.382   2.870  1.9357  0.7390 -2.0855
 3646SOL     OW22570   0.238   3.395   3.960  0.2005 -0.1344  0.3513
 3646SOL    HW122571   0.324   3.427   3.930 -1.3817  0.7935 -3.2692
 3646SOL    HW222572   0.258   3.314   4.007  0.2193 -1.1557 -1.4193
 3647SOL     OW22573   2.050   3.819  11.973  0.3161  0.0675 -0.3482
 3647SOL    HW122574   1.992   3.826  11.898 -1.8223  1.3140  1.4330
 3647SOL    HW222575   2.035   3.902  12.018  2.3941 -0.7759  1.9552
 3648SOL     OW22576   2.272   2.650   5.763 -0.5412 -0.3611  0.0915
 3648SOL    HW122577   2.321   2.692   5.833  1.2369 -1.0776 -0.7430
 3648SOL    HW222578   2.339   2.630   5.698 -0.8863  0.0354 -0.3938
 3649SOL     OW22579   3.240   0.700   5.105 -0.4907  0.4310  0.8553
 3649SOL    HW122580   3.178   0.712   5.033  1.8191 -1.6601 -1.5058
 3649SOL    HW222581   3.227   0.787   5.143 -1.2033  0.6069  0.2082
 3650SOL     OW22582   1.044   2.524   5.408 -0.1661 -0.2680  0.2268
 3650SOL    HW122583   1.105   2.487   5.472  0.0288  0.1555  0.2881
 3650SOL    HW222584   1.081   2.530   5.320  0.3875  0.7978  0.5397
 3651SOL     OW22585   1.389   1.306   3.748 -0.3091 -0.0114  0.0984
 3651SOL    HW122586   1.340   1.300   3.829  0.9395 -3.4985  0.6210
 3651SOL    HW222587   1.326   1.331   3.681  1.2417  1.0959 -0.9542
 3652SOL     OW22588   0.571   0.646   6.646  0.5235  0.6342 -0.4814
 3652SOL    HW122589   0.574   0.573   6.708  1.1909 -0.2102 -1.5291
 3652SOL    HW222590   0.572   0.604   6.560  1.0644  0.4811 -0.3975
 3653SOL     OW22591   0.341   3.876   6.180 -0.2035  0.2359 -0.4270
 3653SOL    HW122592   0.287   3.952   6.204  0.7047  0.0319  2.2732
 3653SOL    HW222593   0.304   3.810   6.239  0.6070 -0.8024 -1.0716
 3654SOL     OW22594   0.369   4.577   9.444 -0.2130  0.3267 -0.5757
 3654SOL    HW122595   0.404   4.602   9.530  1.8401  0.2625 -1.3985
 3654SOL    HW222596   0.277   4.561   9.462  0.1414  1.5828  2.4090
 3655SOL     OW22597   3.463   3.713   8.072 -0.7082 -0.3175 -0.0364
 3655SOL    HW122598   3.501   3.635   8.115 -0.1557 -1.0546 -1.8657
 3655SOL    HW222599   3.383   3.677   8.034  0.2710  0.0538 -2.4318
 3656SOL     OW22600   4.616   3.655   5.838  0.2848 -0.3646 -0.4914
 3656SOL    HW122601   4.557   3.588   5.803  0.4842 -1.3978  1.1377
 3656SOL    HW222602   4.700   3.611   5.830  0.4065 -0.2550  0.1875
 3657SOL     OW22603   0.059   2.320   5.833  0.0584  0.1863  0.0107
 3657SOL    HW122604   4.729   2.318   5.764 -0.2609  2.2669  0.2596
 3657SOL    HW222605   0.090   2.229   5.826  1.5282  0.6628  0.4894
 3658SOL     OW22606   0.578   3.440   3.231 -0.0393 -0.0029  0.4786
 3658SOL    HW122607   0.503   3.382   3.243  0.1168 -0.5904 -1.4854
 3658SOL    HW222608   0.576   3.441   3.136 -0.9137 -0.9469  0.4843
 3659SOL     OW22609   4.212   4.298   6.283  0.5333  0.2231  0.3076
 3659SOL    HW122610   4.296   4.270   6.246  0.8339  0.4008  0.8485
 3659SOL    HW222611   4.198   4.376   6.229 -2.2279  0.2617  1.0483
 3660SOL     OW22612   4.506   3.059   1.406  0.3704  0.3890 -0.1853
 3660SOL    HW122613   4.467   3.056   1.493  1.5909  1.5351  0.4040
 3660SOL    HW222614   4.484   3.151   1.388 -0.2172  0.6547  1.9589
 3661SOL     OW22615   1.904   3.588   3.083 -0.4799 -0.2120  0.0188
 3661SOL    HW122616   1.917   3.612   2.992  0.4053 -0.8464 -0.0161
 3661SOL    HW222617   1.980   3.629   3.124  0.8145 -1.5530 -1.0613
 3662SOL     OW22618   0.022   3.970  15.157  0.3197 -0.0640  0.4662
 3662SOL    HW122619   0.104   4.011  15.187 -0.0783  0.6217  0.6235
 3662SOL    HW222620   4.700   4.043  15.179  0.2137 -0.1041  0.3146
 3663SOL     OW22621   0.257   2.033   4.663 -0.7166 -0.1847 -0.2187
 3663SOL    HW122622   0.198   2.055   4.735 -0.1126 -0.4450  0.3573
 3663SOL    HW222623   0.346   2.054   4.691 -1.0163 -1.2533  1.5280
 3664SOL     OW22624   1.330   0.522   9.135  0.0678 -0.1980 -0.5765
 3664SOL    HW122625   1.318   0.428   9.147  1.0588 -0.0046  2.0862
 3664SOL    HW222626   1.303   0.549   9.223 -1.3454 -1.4454 -0.6317
 3665SOL     OW22627   1.430   0.927   8.387  0.1702  0.5496 -0.2745
 3665SOL    HW122628   1.337   0.940   8.405  0.3769 -1.5138  2.1398
 3665SOL    HW222629   1.432   0.832   8.390 -1.2318  0.5947  1.8741
 3666SOL     OW22630   1.408   1.472   1.964  0.5643  0.0194  0.3733
 3666SOL    HW122631   1.380   1.477   2.056 -3.0701 -0.6796 -0.7069
 3666SOL    HW222632   1.377   1.385   1.941  1.1781 -0.5643  1.6968
 3667SOL     OW22633   0.095   3.804   7.326 -0.3318  0.2042 -0.5423
 3667SOL    HW122634   0.181   3.768   7.302  0.8018  1.4560  1.6689
 3667SOL    HW222635   0.116   3.831   7.415 -0.2516  0.6141 -0.6849
 3668SOL     OW22636   3.524   1.303  15.973 -0.3602  0.1015  0.2812
 3668SOL    HW122637   3.518   1.240  15.901  4.3941  2.6869 -2.4021
 3668SOL    HW222638   3.616   1.329  15.976 -0.2254 -0.6004  2.2787
 3669SOL     OW22639   2.942   2.312   1.729  0.8150  0.1677  0.0048
 3669SOL    HW122640   3.013   2.364   1.767  0.1018 -0.0474  1.6316
 3669SOL    HW222641   2.915   2.375   1.663  1.9265  1.3890  0.7037
 3670SOL     OW22642   0.986   3.819   4.055 -0.1019  0.1287  0.3378
 3670SOL    HW122643   0.992   3.884   3.986 -2.1264  1.4135  1.3798
 3670SOL    HW222644   0.994   3.737   4.005  1.9094  0.7921 -0.4419
 3671SOL     OW22645   2.539   0.176  16.633  0.2230 -0.5421  0.3049
 3671SOL    HW122646   2.574   0.262  16.655 -0.0043 -0.6400  1.0421
 3671SOL    HW222647   2.539   0.197  16.539  0.2474 -0.5443  0.3044
 3672SOL     OW22648   0.597   3.533  11.996 -0.6376  0.5288  1.0323
 3672SOL    HW122649   0.532   3.535  11.926  0.1922  0.5412  0.2700
 3672SOL    HW222650   0.638   3.619  11.989 -1.8990  1.1197  0.8291
 3673SOL     OW22651   1.088   0.643  11.149 -0.4122  0.4492 -0.0283
 3673SOL    HW122652   1.131   0.577  11.095 -1.8424 -2.0605  1.9276
 3673SOL    HW222653   0.998   0.612  11.159  0.2311 -2.4764 -3.2783
 3674SOL     OW22654   4.413   1.847  15.626 -0.0640  0.1561 -0.3717
 3674SOL    HW122655   4.436   1.769  15.676 -0.7360  0.4105  0.3255
 3674SOL    HW222656   4.398   1.804  15.541 -1.0717 -0.2589  0.0152
 3675SOL     OW22657   0.266   2.496   5.513 -0.0300  0.3601 -0.8482
 3675SOL    HW122658   0.199   2.560   5.537 -1.6770 -1.6174 -0.2060
 3675SOL    HW222659   0.326   2.489   5.587 -1.4432  1.5712  0.3996
 3676SOL     OW22660   1.423   4.226   5.794 -0.5084 -0.2623  0.1069
 3676SOL    HW122661   1.402   4.255   5.882  0.6097  0.7770  0.0282
 3676SOL    HW222662   1.432   4.305   5.740 -0.2299 -0.7414 -0.5405
 3677SOL     OW22663   4.246   0.464   6.039 -0.1635 -0.7008 -0.1817
 3677SOL    HW122664   4.309   0.419   6.096 -2.0038 -0.6535  1.8891
 3677SOL    HW222665   4.257   0.418   5.955 -1.9558 -0.8684 -0.3369
 3678SOL     OW22666   3.256   1.922   6.341 -0.2220  0.0327  0.1775
 3678SOL    HW122667   3.288   1.853   6.283  0.2224  1.3494 -1.1295
 3678SOL    HW222668   3.240   1.875   6.423  0.3504  1.7970  1.2987
 3679SOL     OW22669   1.047   2.793   7.634  0.4423  0.3404 -0.8192
 3679SOL    HW122670   1.071   2.757   7.549  0.1478 -0.8040 -0.4246
 3679SOL    HW222671   0.959   2.829   7.619  0.5876  1.5306  1.0599
 3680SOL     OW22672   3.201   0.965   5.187 -1.1062 -1.0492  0.4442
 3680SOL    HW122673   3.228   1.056   5.172  0.0847 -1.3925  0.4475
 3680SOL    HW222674   3.116   0.978   5.145 -1.7975 -0.1992  2.1339
 3681SOL     OW22675   2.668   1.003  15.096 -0.7504  0.0156 -0.0800
 3681SOL    HW122676   2.713   0.990  15.012  1.5145  1.3747  0.9388
 3681SOL    HW222677   2.704   0.925  15.138  0.7105 -0.7235 -2.7131
 3682SOL     OW22678   1.952   4.033   3.469 -0.2423 -0.6000  0.3255
 3682SOL    HW122679   1.926   3.951   3.511  0.2386 -0.9467 -0.0597
 3682SOL    HW222680   2.047   4.021   3.465 -0.3462 -2.3838  3.1468
 3683SOL     OW22681   1.657   2.045   8.484  0.0433  0.1758 -0.0844
 3683SOL    HW122682   1.622   2.115   8.429  0.0916 -0.0965 -0.4594
 3683SOL    HW222683   1.683   1.987   8.412  0.5453  0.3303 -0.0259
 3684SOL     OW22684   2.047   2.141   8.050 -0.1277 -0.1709 -0.0627
 3684SOL    HW122685   2.143   2.142   8.041 -0.1110  2.9601  0.3670
 3684SOL    HW222686   2.040   2.233   8.077 -0.4168 -0.0907 -0.4220
 3685SOL     OW22687   0.595   3.849   8.175  0.1357  0.3674  1.0098
 3685SOL    HW122688   0.650   3.783   8.132  0.4330  0.2991  1.4969
 3685SOL    HW222689   0.616   3.831   8.267 -0.1658  0.1730  1.0413
 3686SOL     OW22690   0.167   2.132  10.220  0.8413 -0.6362  0.2439
 3686SOL    HW122691   0.147   2.187  10.297 -1.2642 -0.9623 -0.0767
 3686SOL    HW222692   0.242   2.079  10.247  1.6152  1.1259  1.6527
 3687SOL     OW22693   1.089   0.083   3.547 -0.3663 -0.5903 -0.1250
 3687SOL    HW122694   1.165   0.130   3.510  0.3797 -0.3642  1.7052
 3687SOL    HW222695   1.123   4.730   3.533  1.3462 -0.3123  2.2770
 3688SOL     OW22696   2.693   3.053   6.404 -0.5169  0.2528 -0.6715
 3688SOL    HW122697   2.685   3.141   6.441  1.7306  0.0176  0.3895
 3688SOL    HW222698   2.679   2.990   6.475  0.0723  2.0672  1.0522
 3689SOL     OW22699   0.803   1.827   8.223  0.0515  0.0197  0.2846
 3689SOL    HW122700   0.732   1.844   8.285  1.7240  1.0366  1.9500
 3689SOL    HW222701   0.830   1.742   8.257 -1.4617 -1.2964 -1.8500
 3690SOL     OW22702   3.322   2.992  11.887  0.2102  0.6711 -0.0951
 3690SOL    HW122703   3.292   2.984  11.978  5.7237 -1.1774  1.5815
 3690SOL    HW222704   3.254   3.051  11.857  0.1073 -1.0847 -3.2662
 3691SOL     OW22705   4.150   3.963   1.637  0.4566  0.1253  0.0542
 3691SOL    HW122706   4.089   3.968   1.710  2.2025 -1.5447  1.6407
 3691SOL    HW222707   4.229   3.999   1.678  0.3507 -0.1659  0.5077
 3692SOL     OW22708   2.898   0.078   0.996  0.6114 -0.1009 -0.0232
 3692SOL    HW122709   2.905   4.724   1.030 -1.1895 -0.8476 -1.6472
 3692SOL    HW222710   2.806   0.072   0.973  0.5693  1.2232 -0.1941
 3693SOL     OW22711   2.674   0.443   5.377  0.6309  0.0126 -0.9341
 3693SOL    HW122712   2.731   0.403   5.443 -2.8910 -1.2018  1.3631
 3693SOL    HW222713   2.631   0.368   5.336 -0.4995  0.8189 -1.2319
 3694SOL     OW22714   3.157   3.858   8.033  0.1929 -0.3382 -0.8822
 3694SOL    HW122715   3.210   3.911   8.093  0.7610 -1.8122 -0.0785
 3694SOL    HW222716   3.174   3.771   8.069  0.5441  1.0489  2.3389
 3695SOL     OW22717   1.900   0.436   3.982 -0.1634  0.1493  0.1757
 3695SOL    HW122718   1.952   0.455   3.905 -0.5013 -1.7534 -0.4994
 3695SOL    HW222719   1.812   0.467   3.959  0.5702  1.0251 -1.3793
 3696SOL     OW22720   4.484   2.644   4.407  0.0894 -0.2727 -0.0013
 3696SOL    HW122721   4.402   2.685   4.380  0.2057 -1.6567 -2.4204
 3696SOL    HW222722   4.520   2.715   4.461  0.7367 -0.1393 -0.6154
 3697SOL     OW22723   3.573   2.490  15.709 -0.1565  0.4964 -0.0789
 3697SOL    HW122724   3.632   2.426  15.750  1.6404  0.8426 -2.1264
 3697SOL    HW222725   3.522   2.520  15.784  1.4849  2.0396  0.4256
 3698SOL     OW22726   3.500   3.835   3.507 -0.1457  0.3644  0.3218
 3698SOL    HW122727   3.503   3.739   3.499  1.0134  0.4125  0.2419
 3698SOL    HW222728   3.508   3.860   3.415 -0.2918  0.4190  0.3235
 3699SOL     OW22729   3.191   4.063  14.642  0.2044 -0.0258 -0.0982
 3699SOL    HW122730   3.269   4.013  14.618  1.2868  2.0537 -0.9291
 3699SOL    HW222731   3.137   4.056  14.564  2.5742  0.8810 -1.8458
 3700SOL     OW22732   1.499   4.378   3.430  0.5745 -0.4957 -0.0502
 3700SOL    HW122733   1.565   4.309   3.423 -0.4070 -1.6722  2.1365
 3700SOL    HW222734   1.529   4.436   3.500  1.5201 -1.4889  0.3667
 3701SOL     OW22735   3.126   1.968   4.664  0.3560  0.0488 -0.5188
 3701SOL    HW122736   3.081   2.025   4.602 -0.4399 -0.0165  0.0017
 3701SOL    HW222737   3.113   2.028   4.737 -1.0976  2.2122 -2.5355
 3702SOL     OW22738   3.388   2.969   3.857  0.8705 -0.1146 -0.2150
 3702SOL    HW122739   3.413   2.982   3.948  0.4415 -0.0337 -0.1077
 3702SOL    HW222740   3.293   2.974   3.868  1.0784 -0.8147  1.8390
 3703SOL     OW22741   1.165   2.364   3.414 -0.3177  0.1146  0.2039
 3703SOL    HW122742   1.206   2.425   3.353 -0.8081  1.1844  0.9442
 3703SOL    HW222743   1.132   2.297   3.355  0.2381  0.2519 -0.2623
 3704SOL     OW22744   4.620   4.060  11.064 -0.0872  0.1869  0.0153
 3704SOL    HW122745   4.708   4.048  11.100 -0.5898  1.5778  1.6999
 3704SOL    HW222746   4.603   4.153  11.073  0.8854  0.3936 -0.3366
 3705SOL     OW22747   2.222   0.638   8.150  0.0040  0.0558  0.0923
 3705SOL    HW122748   2.310   0.618   8.118  0.0891 -1.0157  0.9762
 3705SOL    HW222749   2.168   0.602   8.079  0.4366  1.4529 -0.9474
 3706SOL     OW22750   2.788   2.651   2.666 -0.1501  0.5086  0.2305
 3706SOL    HW122751   2.694   2.649   2.682 -0.1685 -0.7333 -0.0617
 3706SOL    HW222752   2.790   2.650   2.570  1.7968 -0.3812  0.2699
 3707SOL     OW22753   3.338   0.845   5.407 -0.5235 -0.4140 -0.2990
 3707SOL    HW122754   3.258   0.794   5.421  0.4278 -2.0545 -0.8687
 3707SOL    HW222755   3.305   0.912   5.347 -0.4434 -0.1246 -0.0180
 3708SOL     OW22756   1.426   3.497   4.585  0.2620 -0.7707  0.4496
 3708SOL    HW122757   1.491   3.484   4.654  1.1717  0.1066 -0.2351
 3708SOL    HW222758   1.432   3.592   4.587 -0.7096 -0.7530  2.0318
 3709SOL     OW22759   1.897   3.762   8.505 -0.0112 -0.3411 -0.6783
 3709SOL    HW122760   1.826   3.757   8.569 -0.6675  1.2645 -1.2644
 3709SOL    HW222761   1.852   3.803   8.431 -1.6758 -1.6674 -0.4116
 3710SOL     OW22762   0.051   2.475   6.070 -0.3002  0.0161 -0.0384
 3710SOL    HW122763   0.036   2.454   5.978  0.7533  2.0153 -0.6713
 3710SOL    HW222764   0.017   2.565   6.070 -0.3041  0.0157  0.0845
 3711SOL     OW22765   0.970   4.434   6.851 -0.2974 -0.1532  0.3748
 3711SOL    HW122766   0.993   4.448   6.943 -1.8519 -1.5611  0.9854
 3711SOL    HW222767   1.060   4.442   6.819  0.1103 -1.7231  1.1330
 3712SOL     OW22768   0.853   3.738   5.023 -0.5594  0.0624 -0.6877
 3712SOL    HW122769   0.945   3.714   5.032 -0.5024  0.8461  0.9503
 3712SOL    HW222770   0.831   3.731   4.930 -1.2664 -0.8126 -0.4465
 3713SOL     OW22771   2.220   2.710   7.217  0.2456 -0.2259  0.0446
 3713SOL    HW122772   2.154   2.726   7.150  1.4595  1.6525 -0.7061
 3713SOL    HW222773   2.194   2.619   7.230 -2.2506  0.7051  1.7185
 3714SOL     OW22774   3.511   1.147   9.012  0.2169 -0.0833 -0.2372
 3714SOL    HW122775   3.463   1.212   9.063 -1.5096 -1.2476 -0.3908
 3714SOL    HW222776   3.574   1.208   8.973  1.0665 -0.5918  0.3409
 3715SOL     OW22777   1.711   4.153   3.304  0.1241 -0.3553  0.2201
 3715SOL    HW122778   1.703   4.073   3.356 -1.1527 -1.3115 -1.4497
 3715SOL    HW222779   1.623   4.152   3.265  1.3946  2.1783 -2.6913
 3716SOL     OW22780   0.233   4.700  14.170 -0.0665  0.6386  0.0699
 3716SOL    HW122781   0.195   0.020  14.237 -0.8303  0.3667 -0.1313
 3716SOL    HW222782   0.252   0.037  14.111 -1.7250 -0.7825 -2.2063
 3717SOL     OW22783   4.583   1.149   7.613 -0.1397  0.0315  0.2537
 3717SOL    HW122784   4.490   1.133   7.628  0.0049 -0.3283  0.7981
 3717SOL    HW222785   4.628   1.064   7.616 -0.6751 -0.2435  0.6149
 3718SOL     OW22786   0.504   4.666   3.390  0.0737  0.0679  0.1053
 3718SOL    HW122787   0.557   4.722   3.333  0.0399  1.2154  1.2072
 3718SOL    HW222788   0.414   4.690   3.370 -0.1079  0.5820  1.5153
 3719SOL     OW22789   4.644   1.077  12.848  0.5958  0.4943  0.9513
 3719SOL    HW122790   4.598   1.007  12.893  0.1420  1.0776  1.3847
 3719SOL    HW222791   4.610   1.155  12.891  0.6264  0.2362  1.4356
 3720SOL     OW22792   1.408   4.074   9.358 -0.0698  0.0279 -0.0012
 3720SOL    HW122793   1.490   4.048   9.316  0.9260  3.6903 -0.3925
 3720SOL    HW222794   1.369   4.098   9.273  1.1760 -0.0497 -0.5997
 3721SOL     OW22795   0.892   2.897   9.323  0.3180 -0.0485 -0.3220
 3721SOL    HW122796   0.821   2.933   9.268  0.1888 -3.1235 -2.1706
 3721SOL    HW222797   0.887   2.803   9.309 -0.8879  0.0029 -0.2301
 3722SOL     OW22798   1.623   1.151   1.194  0.0866 -0.1844 -0.0944
 3722SOL    HW122799   1.718   1.167   1.203  0.2188 -0.0432 -1.8067
 3722SOL    HW222800   1.615   1.182   1.104 -0.8643  0.7199  0.3037
 3723SOL     OW22801   1.185   1.721  15.373  0.3056 -0.0144 -0.4367
 3723SOL    HW122802   1.207   1.776  15.449 -0.9757  1.4096 -1.1109
 3723SOL    HW222803   1.101   1.681  15.397  0.6195 -0.3367  0.1406
 3724SOL     OW22804   1.496   4.300  12.081 -0.6274  0.0985 -0.0526
 3724SOL    HW122805   1.561   4.295  12.152 -0.9474 -1.1014  0.1451
 3724SOL    HW222806   1.470   4.209  12.070 -0.8544  0.0550  0.8303
 3725SOL     OW22807   2.826   2.875  17.244 -0.7759 -0.0059  0.8802
 3725SOL    HW122808   2.734   2.877  17.270 -0.6006  3.5965  1.1833
 3725SOL    HW222809   2.834   2.804  17.180 -1.3280  2.2404 -1.7056
 3726SOL     OW22810   2.244   0.962   1.280  0.1231 -0.3044 -0.3343
 3726SOL    HW122811   2.162   1.001   1.310  0.3047  0.6899 -1.1620
 3726SOL    HW222812   2.238   0.868   1.300 -1.4082 -0.5026 -1.7789
 3727SOL     OW22813   0.626   0.935  13.002 -0.3138  0.3650  0.3387
 3727SOL    HW122814   0.625   0.846  13.036 -0.1419 -0.5629 -2.0993
 3727SOL    HW222815   0.717   0.956  12.980  0.5503 -1.6395  2.0362
 3728SOL     OW22816   4.623   0.961   9.043 -0.6320 -0.5270  0.2739
 3728SOL    HW122817   4.531   0.979   9.064 -0.4785 -0.7864  1.1697
 3728SOL    HW222818   4.640   1.048   9.005 -1.3967 -0.3180  0.3961
 3729SOL     OW22819   0.732   2.960   3.843  0.0170 -0.3097  0.6584
 3729SOL    HW122820   0.821   2.992   3.835  0.8247 -1.6505  4.2080
 3729SOL    HW222821   0.749   2.866   3.836 -3.0480 -0.8583  0.4529
 3730SOL     OW22822   2.614   0.733   7.564  0.5165  0.4561 -0.6120
 3730SOL    HW122823   2.618   0.825   7.590 -1.4065  0.3345  0.0759
 3730SOL    HW222824   2.641   0.686   7.643 -1.4641  1.4652  0.6609
 3731SOL     OW22825   1.172   4.545   1.807  0.3770 -0.0770 -0.5734
 3731SOL    HW122826   1.150   4.469   1.752  0.0871  0.3693 -1.0761
 3731SOL    HW222827   1.154   4.617   1.746 -2.6702  0.3065  0.7954
 3732SOL     OW22828   1.751   2.312   5.742 -0.0186  0.1804 -0.6357
 3732SOL    HW122829   1.830   2.356   5.773  1.4046 -1.2212 -2.2724
 3732SOL    HW222830   1.770   2.305   5.648 -0.5138 -0.6829 -0.6668
 3733SOL     OW22831   4.064   3.586   4.473 -0.7843  0.4194 -0.2213
 3733SOL    HW122832   4.106   3.505   4.445 -0.1851  1.4425 -2.2950
 3733SOL    HW222833   4.086   3.576   4.565  0.5783 -0.9109 -0.6933
 3734SOL     OW22834   3.859   1.059   8.746  0.0196 -0.1254 -0.0321
 3734SOL    HW122835   3.839   1.051   8.839  0.0607  1.2864  0.1067
 3734SOL    HW222836   3.823   1.144   8.719  1.4593  0.7581  0.7818
 3735SOL     OW22837   0.806   4.623  14.401  0.4747 -0.1146 -0.0316
 3735SOL    HW122838   0.770   4.711  14.395  0.1364 -0.3589 -1.6333
 3735SOL    HW222839   0.735   4.588  14.455 -2.0050  0.6891 -2.7692
 3736SOL     OW22840   1.608   4.483   1.435 -0.0179  0.1854  0.1932
 3736SOL    HW122841   1.583   4.562   1.388 -1.5506 -0.5054 -0.1406
 3736SOL    HW222842   1.700   4.501   1.457  0.5031 -2.9069  0.4837
 3737SOL     OW22843   1.533   3.236   6.047  0.2909  0.0437  0.2286
 3737SOL    HW122844   1.617   3.206   6.011 -0.7862 -1.1160 -1.3238
 3737SOL    HW222845   1.536   3.323   6.008 -1.7928 -0.5656 -1.3189
 3738SOL     OW22846   3.473   1.476   4.519 -0.9387  0.5755  0.5981
 3738SOL    HW122847   3.523   1.502   4.596  1.0098  1.9804 -1.1193
 3738SOL    HW222848   3.536   1.515   4.458 -1.4117  2.1740  1.1135
 3739SOL     OW22849   0.230   4.385   5.180 -0.4530 -0.4242  0.4844
 3739SOL    HW122850   0.255   4.350   5.094 -2.1553  1.8919 -0.9333
 3739SOL    HW222851   0.239   4.478   5.162 -2.4688  0.4816  4.2193
 3740SOL     OW22852   0.678   1.466   2.228  0.6067 -0.1560  0.6532
 3740SOL    HW122853   0.679   1.373   2.205  1.9391  0.2510 -0.9608
 3740SOL    HW222854   0.765   1.477   2.267  0.6261 -0.5289  0.7172
 3741SOL     OW22855   1.275   3.310   5.549  0.2637  0.2309  0.2313
 3741SOL    HW122856   1.287   3.398   5.586 -0.2522  0.8155 -0.9801
 3741SOL    HW222857   1.363   3.278   5.533  0.1158  0.3315 -0.8199
 3742SOL     OW22858   3.416   3.603   4.106  0.1671  0.7101 -0.3853
 3742SOL    HW122859   3.372   3.688   4.097  0.4812  0.8964 -0.1357
 3742SOL    HW222860   3.504   3.639   4.115  0.3575  0.4595 -1.2766
 3743SOL     OW22861   4.166   3.460  11.638  0.6368 -0.7445  0.0235
 3743SOL    HW122862   4.105   3.387  11.630 -1.2303  0.8070  0.0240
 3743SOL    HW222863   4.210   3.455  11.553 -0.8209 -1.2058 -0.7103
 3744SOL     OW22864   0.740   3.455   1.995  0.1810  0.6616  0.1535
 3744SOL    HW122865   0.791   3.437   2.074 -1.3731  3.6240  1.8232
 3744SOL    HW222866   0.663   3.505   2.021  0.3784  1.2996 -0.4887
 3745SOL     OW22867   1.968   0.215   4.119 -0.1213 -0.9009  0.4190
 3745SOL    HW122868   2.062   0.223   4.130 -0.4685  0.9018  2.1352
 3745SOL    HW222869   1.951   0.284   4.055  1.5996 -2.3604 -1.6078
 3746SOL     OW22870   1.199   3.666  14.051 -0.0944 -0.7265  0.0341
 3746SOL    HW122871   1.120   3.636  14.006 -0.3737  0.6199 -0.3485
 3746SOL    HW222872   1.251   3.587  14.034 -1.3824 -1.2876 -1.2450
 3747SOL     OW22873   2.739   3.027   5.546  0.2611  0.0904 -0.3360
 3747SOL    HW122874   2.648   3.045   5.566  0.2027 -0.6481  0.0794
 3747SOL    HW222875   2.785   3.093   5.598 -1.5500  0.6388  0.5487
 3748SOL     OW22876   0.738   1.418   6.983 -0.1011 -0.0666  0.4762
 3748SOL    HW122877   0.792   1.356   7.033  0.7796 -0.3764 -0.8875
 3748SOL    HW222878   0.802   1.440   6.916  0.5067 -1.1724  0.6847
 3749SOL     OW22879   0.180   4.299   6.764  0.0355 -0.3392  0.0290
 3749SOL    HW122880   0.261   4.293   6.714 -0.5548 -0.3682 -0.9272
 3749SOL    HW222881   0.129   4.330   6.689  1.3422 -1.7683 -1.4687
 3750SOL     OW22882   1.534   4.629   6.470 -0.1556 -0.1612 -0.3342
 3750SOL    HW122883   1.440   4.649   6.471 -0.2410 -0.6798  1.8131
 3750SOL    HW222884   1.560   4.721   6.475 -0.7636 -0.0038 -0.0668
 3751SOL     OW22885   2.705   3.369   4.968  1.0256  0.2429 -0.8895
 3751SOL    HW122886   2.654   3.359   4.888  0.3167 -1.5012 -0.2168
 3751SOL    HW222887   2.781   3.416   4.932  0.9927  0.9410 -0.0399
 3752SOL     OW22888   3.897   0.936   7.282 -0.3169  0.2253 -0.1816
 3752SOL    HW122889   3.838   0.875   7.238 -0.6300  1.0862 -0.9610
 3752SOL    HW222890   3.935   0.978   7.204 -1.1219  1.1797 -0.0500
 3753SOL     OW22891   1.252   3.713   7.376 -0.1070 -0.0683 -0.3283
 3753SOL    HW122892   1.329   3.739   7.426 -2.2210  0.4861  2.5806
 3753SOL    HW222893   1.243   3.790   7.320  0.2982 -0.0666 -0.3894
 3754SOL     OW22894   0.840   0.459   1.335 -0.0306 -0.1311 -0.0314
 3754SOL    HW122895   0.809   0.369   1.331  1.0199 -0.4420 -1.1144
 3754SOL    HW222896   0.797   0.486   1.254 -1.9097  0.7015  1.2480
 3755SOL     OW22897   4.484   2.111  15.575  0.0787  0.4128 -0.3796
 3755SOL    HW122898   4.517   2.105  15.485 -0.8255 -0.2405 -0.6767
 3755SOL    HW222899   4.440   2.027  15.587 -1.8300  1.1642 -1.9740
 3756SOL     OW22900   1.871   3.053   8.126  0.2456 -0.1538  0.3278
 3756SOL    HW122901   1.879   2.964   8.091 -2.6392  0.0847 -0.8660
 3756SOL    HW222902   1.794   3.050   8.182  0.2240  0.0089  0.3068
 3757SOL     OW22903   4.054   1.631   0.044 -0.6757  0.2683  0.1063
 3757SOL    HW122904   4.008   1.710   0.015  0.5663  0.4620 -1.3365
 3757SOL    HW222905   4.111   1.619  17.710 -0.1294  0.6914  0.4454
 3758SOL     OW22906   0.750   3.014   6.609  0.2589 -0.6287 -0.1045
 3758SOL    HW122907   0.674   3.061   6.643 -0.1508 -0.6908 -0.9312
 3758SOL    HW222908   0.818   3.081   6.617 -0.7801  0.5051 -0.8066
 3759SOL     OW22909   4.668   0.673   6.785  0.1016 -0.4132 -0.3800
 3759SOL    HW122910   0.013   0.632   6.753  0.8153  0.5371  0.1939
 3759SOL    HW222911   4.627   0.698   6.702 -1.4252 -0.2245  0.4437
 3760SOL     OW22912   1.671   2.854   0.719 -0.0379  0.0651  0.2811
 3760SOL    HW122913   1.731   2.907   0.666  0.3160 -1.3923 -0.7791
 3760SOL    HW222914   1.676   2.889   0.808 -1.7455 -1.9226  1.1559
 3761SOL     OW22915   1.535   0.405   8.771 -0.6209 -0.3912 -0.4090
 3761SOL    HW122916   1.560   0.497   8.767  1.0430 -0.8189 -0.0500
 3761SOL    HW222917   1.529   0.383   8.678 -1.9005 -0.1371 -0.3888
 3762SOL     OW22918   0.367   2.533   4.836  0.1588 -0.3581  0.1993
 3762SOL    HW122919   0.363   2.452   4.887  0.2192  0.5494  1.6554
 3762SOL    HW222920   0.463   2.540   4.834  0.1276  0.5400  1.7707
 3763SOL     OW22921   3.247   3.070   1.685  0.5187 -0.5596 -0.5417
 3763SOL    HW122922   3.154   3.064   1.661  0.3612  1.4904 -0.4741
 3763SOL    HW222923   3.236   3.149   1.738  1.7063 -0.4796 -0.4247
 3764SOL     OW22924   4.463   1.145   6.090  0.5009 -0.2029  0.1149
 3764SOL    HW122925   4.526   1.085   6.050  0.1889 -1.0381  0.8868
 3764SOL    HW222926   4.457   1.111   6.179  0.1185  2.2781  1.0308
 3765SOL     OW22927   1.724   1.955  10.707  0.3090  0.2774  1.2356
 3765SOL    HW122928   1.768   1.921  10.629  1.1762  0.9844  1.4224
 3765SOL    HW222929   1.662   1.883  10.720 -1.1682  1.7933  2.5180
 3766SOL     OW22930   0.937   0.240   7.229 -0.3004 -0.4947 -0.0962
 3766SOL    HW122931   0.900   0.159   7.265  2.0730 -0.9854  1.2414
 3766SOL    HW222932   1.030   0.226   7.244 -0.2561  1.3141  1.4217
 3767SOL     OW22933   4.313   3.807   4.703 -0.2430 -0.2296  0.4754
 3767SOL    HW122934   4.231   3.820   4.655  0.4538  0.0596 -0.6408
 3767SOL    HW222935   4.323   3.894   4.741 -0.8352 -0.1203  0.3749
 3768SOL     OW22936   3.818   0.125   0.887  0.2539 -0.3234 -0.0681
 3768SOL    HW122937   3.896   0.180   0.887 -0.1694  0.2799 -1.9631
 3768SOL    HW222938   3.806   0.104   0.980 -0.5424  0.2092 -0.0508
 3769SOL     OW22939   4.022   1.842   7.643  0.1413  0.6070  0.0022
 3769SOL    HW122940   3.997   1.796   7.563 -1.6867 -0.8533  1.4202
 3769SOL    HW222941   4.067   1.922   7.616 -0.0580  0.2517 -1.4124
 3770SOL     OW22942   3.541   2.558   6.353 -0.7673  0.0866  0.2863
 3770SOL    HW122943   3.528   2.473   6.312 -0.3207 -1.2906  2.9917
 3770SOL    HW222944   3.533   2.531   6.444 -0.3086 -1.5813 -0.1728
 3771SOL     OW22945   2.476   4.011   3.036  0.0414  0.1206 -0.1303
 3771SOL    HW122946   2.446   4.057   3.114  0.5030  2.3149 -1.2299
 3771SOL    HW222947   2.559   4.056   3.019  1.3262 -1.2431  2.6480
 3772SOL     OW22948   1.839   0.355  12.124 -0.0809  0.1532 -0.2171
 3772SOL    HW122949   1.895   0.277  12.131  0.7424  0.7683  0.1250
 3772SOL    HW222950   1.874   0.413  12.192  0.1260  1.0748 -1.0975
 3773SOL     OW22951   0.599   0.029  16.466 -0.3803  0.1018  0.3108
 3773SOL    HW122952   0.504   0.040  16.472 -0.1948  1.0575  1.6480
 3773SOL    HW222953   0.614   4.724  16.381 -1.5406 -1.8147  1.0344
 3774SOL     OW22954   4.443   2.211  12.739 -0.0165 -0.3490  0.2482
 3774SOL    HW122955   4.505   2.275  12.703  0.3242 -2.1200 -2.3160
 3774SOL    HW222956   4.420   2.149  12.670 -2.3291  0.6002  0.1616
 3775SOL     OW22957   2.909   4.501  16.785  0.4861 -0.0723 -0.3415
 3775SOL    HW122958   2.830   4.538  16.746  0.0380  1.6438  2.1961
 3775SOL    HW222959   2.969   4.570  16.813 -1.3230  1.6696 -0.7497
 3776SOL     OW22960   3.930   1.747   8.776 -0.4078  0.0130  0.1733
 3776SOL    HW122961   3.921   1.663   8.822  2.7618 -0.4635 -0.1289
 3776SOL    HW222962   4.017   1.743   8.737 -0.8791 -1.5380 -0.7442
 3777SOL     OW22963   1.756   2.593   5.515  0.0627  0.0633 -0.4369
 3777SOL    HW122964   1.670   2.635   5.514 -0.5689 -1.2605 -1.1012
 3777SOL    HW222965   1.768   2.602   5.610  2.2059  0.4004 -0.7269
 3778SOL     OW22966   0.005   4.043   5.252  0.1457 -0.5850 -0.1541
 3778SOL    HW122967   4.716   3.956   5.282  1.4975 -1.2085 -0.8109
 3778SOL    HW222968   0.093   4.031   5.215 -0.7707  0.5065 -2.7231
 3779SOL     OW22969   1.429   0.433  16.572  0.0978 -0.1065  0.3499
 3779SOL    HW122970   1.436   0.528  16.583  1.6584  0.2127 -3.4912
 3779SOL    HW222971   1.336   0.430  16.547 -0.3195  3.7177  1.4320
 3780SOL     OW22972   0.399   1.855   5.350  0.3385 -0.1823  0.3299
 3780SOL    HW122973   0.399   1.763   5.379  0.7174 -0.5191 -0.7544
 3780SOL    HW222974   0.381   1.905   5.430 -1.6133  1.1394 -0.9518
 3781SOL     OW22975   1.763   4.001   4.683  0.0262 -0.0151  0.1381
 3781SOL    HW122976   1.839   3.988   4.626 -0.2343  0.6363 -0.3648
 3781SOL    HW222977   1.699   3.948   4.636  1.0224  0.1251 -1.4009
 3782SOL     OW22978   0.938   2.325  16.978 -0.6432  0.1489 -0.1269
 3782SOL    HW122979   0.853   2.356  17.009 -0.5521  2.4014 -2.1125
 3782SOL    HW222980   0.971   2.406  16.939  0.8751  0.0453  0.9558
 3783SOL     OW22981   1.621   3.290   1.404 -0.4628 -0.5596  0.0714
 3783SOL    HW122982   1.668   3.344   1.341  0.7376  0.0360  1.4694
 3783SOL    HW222983   1.669   3.208   1.398  0.1428 -0.2092  0.0567
 3784SOL     OW22984   3.581   1.969   0.690  0.0146  0.2650 -0.3423
 3784SOL    HW122985   3.667   2.010   0.676 -0.9571  2.5051  0.3038
 3784SOL    HW222986   3.555   2.015   0.770 -1.9269 -0.7182 -0.4060
 3785SOL     OW22987   4.000   1.769  17.206  0.8075 -0.2257  0.1332
 3785SOL    HW122988   3.938   1.718  17.257  0.9517 -2.0374 -1.4737
 3785SOL    HW222989   4.047   1.698  17.162 -0.8165 -0.7131 -0.8112
 3786SOL     OW22990   0.657   0.187   8.506 -0.4334 -0.0890 -0.1667
 3786SOL    HW122991   0.697   0.136   8.576  0.9578  0.2862 -0.6890
 3786SOL    HW222992   0.720   0.184   8.435 -0.5214 -1.4731 -0.1758
 3787SOL     OW22993   0.771   3.885   9.945 -0.1797  0.1467  0.0647
 3787SOL    HW122994   0.866   3.880   9.956 -0.1159 -2.5954 -1.9113
 3787SOL    HW222995   0.762   3.974   9.911  1.1613 -0.4245 -1.7714
 3788SOL     OW22996   3.518   2.304   6.271 -0.1974 -0.1574  0.0279
 3788SOL    HW122997   3.427   2.277   6.279 -0.2856  0.0845 -0.1608
 3788SOL    HW222998   3.527   2.326   6.178  0.5256 -1.2129 -0.1534
 3789SOL     OW22999   3.396   3.897   3.731 -0.0369 -0.4541  0.1859
 3789SOL    HW123000   3.445   3.877   3.651  1.3362  1.7398  0.4712
 3789SOL    HW223001   3.308   3.911   3.698  1.2895  3.8017 -1.5249
 3790SOL     OW23002   2.420   4.306   6.897 -0.5455  0.3956  0.1887
 3790SOL    HW123003   2.339   4.348   6.925 -0.4985 -0.3406  1.4301
 3790SOL    HW223004   2.380   4.254   6.828 -1.3880  1.7579 -0.3485
 3791SOL     OW23005   1.108   1.058   6.395  0.8748 -0.1070  0.3708
 3791SOL    HW123006   1.091   1.108   6.475  1.7488 -1.0185  1.1201
 3791SOL    HW223007   1.114   1.123   6.324 -0.4367 -1.6002 -1.1061
 3792SOL     OW23008   1.784   1.917  14.737  0.4895  0.0817  0.6050
 3792SOL    HW123009   1.738   1.869  14.805 -1.9777  1.4570 -0.0817
 3792SOL    HW223010   1.725   1.990  14.720  1.7313  1.3678  1.7529
 3793SOL     OW23011   0.351   1.042   6.857 -0.6296 -0.1937  0.5769
 3793SOL    HW123012   0.440   1.013   6.837 -0.7827 -0.7098  0.6297
 3793SOL    HW223013   0.296   0.975   6.817 -1.5239  1.0904 -0.3299
 3794SOL     OW23014   1.836   0.696  13.041  0.1090  0.8114  0.2439
 3794SOL    HW123015   1.830   0.637  12.966 -0.8216 -0.1293  1.0476
 3794SOL    HW223016   1.901   0.764  13.027  1.3182 -0.1600  1.1545
 3795SOL     OW23017   1.015   0.047   6.689 -0.1773 -0.4058 -0.2746
 3795SOL    HW123018   0.948   4.715   6.690  0.4989 -1.0707  0.1123
 3795SOL    HW223019   1.027   0.054   6.594  0.5126 -0.3350 -0.1799
 3796SOL     OW23020   2.197   1.471   1.425  0.3678 -0.3079 -0.5976
 3796SOL    HW123021   2.131   1.534   1.454 -1.5841 -0.2868 -5.0280
 3796SOL    HW223022   2.276   1.525   1.430 -0.6394  1.0636  0.4683
 3797SOL     OW23023   2.172   2.056   1.513  0.0057  0.0953  0.0551
 3797SOL    HW123024   2.192   2.004   1.590  1.2789 -0.8784 -0.9392
 3797SOL    HW223025   2.113   2.121   1.552  0.3213  1.3523 -1.5880
 3798SOL     OW23026   1.288   4.538   2.534 -0.3163 -0.4588  0.3895
 3798SOL    HW123027   1.371   4.561   2.578 -0.4755  0.8595 -0.0000
 3798SOL    HW223028   1.305   4.448   2.507  0.8081 -0.0686 -0.2353
 3799SOL     OW23029   2.895   1.281   4.947 -0.3472 -0.5540 -0.0504
 3799SOL    HW123030   2.931   1.341   4.881  1.5843  1.4480  2.8079
 3799SOL    HW223031   2.852   1.332   5.015 -2.0799 -0.0522 -1.5276
 3800SOL     OW23032   0.854   3.857   5.607  0.6353  0.0428  0.1417
 3800SOL    HW123033   0.775   3.858   5.552  0.0495 -2.6435  0.9111
 3800SOL    HW223034   0.897   3.939   5.581  0.7079 -0.9005 -2.7343
 3801SOL     OW23035   2.709   0.617   2.184  0.1341 -0.1472 -0.3870
 3801SOL    HW123036   2.674   0.644   2.099 -1.0743  3.5911  1.3133
 3801SOL    HW223037   2.693   0.687   2.248 -2.2808 -0.4718 -0.6624
 3802SOL     OW23038   2.308   2.247  16.480 -0.1320  0.1257  0.7615
 3802SOL    HW123039   2.325   2.190  16.405 -3.4300 -1.6138  1.3086
 3802SOL    HW223040   2.388   2.298  16.492 -0.1144  0.3383 -0.2364
 3803SOL     OW23041   1.749   4.325   9.903  0.0845  0.3479 -0.1649
 3803SOL    HW123042   1.716   4.324   9.813 -0.7526 -5.6414  0.1900
 3803SOL    HW223043   1.709   4.246   9.940  0.3140  0.4240  0.2464
 3804SOL     OW23044   4.714   0.967   3.166 -0.2594  0.3606  0.2652
 3804SOL    HW123045   0.032   0.926   3.098  0.2526 -0.3780  1.1207
 3804SOL    HW223046   4.632   0.918   3.165  1.5481 -2.6437 -0.3684
 3805SOL     OW23047   4.553   4.390   1.309 -0.4751  0.1719  0.1512
 3805SOL    HW123048   4.639   4.427   1.329  0.2076 -0.4021 -1.6929
 3805SOL    HW223049   4.545   4.343   1.392  0.9212 -0.0177  0.1886
 3806SOL     OW23050   3.107   2.502   1.804  0.2357 -0.0055  0.1019
 3806SOL    HW123051   3.134   2.490   1.895 -0.2088 -0.3464  0.1875
 3806SOL    HW223052   3.110   2.598   1.809  2.8416  0.0453 -2.0001
 3807SOL     OW23053   3.224   3.007   8.418 -0.2288 -0.2084  0.4655
 3807SOL    HW123054   3.173   2.926   8.428 -0.7654  0.1271  0.4456
 3807SOL    HW223055   3.213   3.053   8.501 -0.4850  0.5814 -0.0098
 3808SOL     OW23056   2.624   4.414   3.446 -0.3446 -0.3202 -0.5579
 3808SOL    HW123057   2.704   4.462   3.468 -2.6706  2.6732  1.3532
 3808SOL    HW223058   2.579   4.473   3.386 -3.3271 -2.2587 -0.2687
 3809SOL     OW23059   4.272   2.551  14.201 -0.2888 -0.1532  0.0461
 3809SOL    HW123060   4.348   2.494  14.207 -1.2220 -1.3202  0.7898
 3809SOL    HW223061   4.314   2.631  14.171 -0.8359  0.6462  1.4452
 3810SOL     OW23062   1.291   2.094   6.233  0.3332  0.1840  0.5630
 3810SOL    HW123063   1.252   2.050   6.309  1.8501 -2.6413 -0.2953
 3810SOL    HW223064   1.361   2.145   6.274  1.0393  0.9943 -1.6570
 3811SOL     OW23065   3.050   3.765   4.038  0.1908 -0.1650 -0.1944
 3811SOL    HW123066   3.009   3.710   4.105 -1.9235 -1.1227 -2.2379
 3811SOL    HW223067   2.983   3.826   4.006  0.6511 -0.6593 -2.1464
 3812SOL     OW23068   4.642   2.020   8.534 -0.0821  0.1667 -0.0714
 3812SOL    HW123069   4.648   1.925   8.531 -3.1254 -0.0678  1.2323
 3812SOL    HW223070   4.690   2.054   8.609  2.1840 -1.3420 -0.8550
 3813SOL     OW23071   0.282   4.133   8.445  0.3177 -0.2214  0.4177
 3813SOL    HW123072   0.247   4.109   8.360 -0.2751  0.4851  0.4557
 3813SOL    HW223073   0.315   4.045   8.460  1.6497 -0.0276 -1.4383
 3814SOL     OW23074   3.212   1.869   8.747  0.2267  0.1503  0.1738
 3814SOL    HW123075   3.276   1.938   8.764  0.6789 -0.1193 -0.4502
 3814SOL    HW223076   3.246   1.805   8.809 -2.7238 -1.3583  0.2635
 3815SOL     OW23077   4.088   4.215   7.158 -0.6208  0.2859  0.1965
 3815SOL    HW123078   4.034   4.158   7.213  1.6193 -1.8308  0.1983
 3815SOL    HW223079   4.027   4.285   7.133 -0.6126  0.2813  0.1629
 3816SOL     OW23080   2.443   0.062   1.695  0.3810 -0.0532  0.4699
 3816SOL    HW123081   2.374   4.735   1.674  0.7067 -1.3120  3.1244
 3816SOL    HW223082   2.448   0.056   1.791 -0.8435  1.0931  0.6066
 3817SOL     OW23083   2.649   1.783   2.152  0.2876 -0.2035  0.1339
 3817SOL    HW123084   2.686   1.734   2.225 -1.1546  0.1511  1.1059
 3817SOL    HW223085   2.562   1.744   2.138 -1.1325  3.3162 -0.7330
 3818SOL     OW23086   4.121   4.410   4.009  0.1098  0.2623 -0.0283
 3818SOL    HW123087   4.026   4.423   4.006 -0.0711 -1.0231  0.3811
 3818SOL    HW223088   4.131   4.340   4.073  0.9484 -1.2402 -1.8066
 3819SOL     OW23089   0.710   0.672   1.525  0.1439 -0.0459  0.1868
 3819SOL    HW123090   0.715   0.611   1.599  1.2105  2.2123  1.9861
 3819SOL    HW223091   0.751   0.610   1.465  0.4930  1.8103 -1.5205
 3820SOL     OW23092   0.407   3.139   9.351  0.1716  0.0909 -0.4571
 3820SOL    HW123093   0.467   3.117   9.422  0.3013  1.6138 -0.0755
 3820SOL    HW223094   0.398   3.233   9.370 -1.2233 -0.0189 -0.5325
 3821SOL     OW23095   2.450   0.058   0.625  0.2980 -0.2479 -0.3892
 3821SOL    HW123096   2.542   0.038   0.639  0.4370 -1.3331 -2.9372
 3821SOL    HW223097   2.445   0.147   0.661 -0.0364 -1.2592  2.0703
 3822SOL     OW23098   2.256   3.852   6.653  0.2491 -0.3812 -0.0125
 3822SOL    HW123099   2.340   3.835   6.610  0.9479 -0.5170  1.4124
 3822SOL    HW223100   2.209   3.770   6.637 -1.0154  0.2391  0.5702
 3823SOL     OW23101   2.447   2.841   8.526 -0.0179 -0.1793  0.4000
 3823SOL    HW123102   2.529   2.884   8.500  0.9853 -2.0445  0.5197
 3823SOL    HW223103   2.462   2.749   8.505  0.8401  0.4506 -1.7167
 3824SOL     OW23104   2.849   4.408   0.154 -0.2720 -0.2954  0.2421
 3824SOL    HW123105   2.777   4.347   0.143 -1.9159  1.8096 -0.7214
 3824SOL    HW223106   2.904   4.351   0.208 -0.2144 -0.5607 -0.1032
 3825SOL     OW23107   0.580   4.537   6.134  0.0092  0.3509 -0.0119
 3825SOL    HW123108   0.512   4.480   6.170  0.4797 -1.4031 -1.9575
 3825SOL    HW223109   0.640   4.543   6.208 -0.2051  1.1677  0.0989
 3826SOL     OW23110   4.483   4.258   7.916 -0.3336 -0.1472 -0.1967
 3826SOL    HW123111   4.388   4.265   7.907 -0.3451 -0.8193 -0.5849
 3826SOL    HW223112   4.516   4.342   7.885 -1.5561 -0.3116 -1.9067
 3827SOL     OW23113   1.065   1.640   2.635  0.6152 -0.4877  0.7621
 3827SOL    HW123114   1.103   1.581   2.700  2.6038 -1.2853 -1.1548
 3827SOL    HW223115   1.127   1.620   2.565 -0.0329  0.4590 -0.0872
 3828SOL     OW23116   0.314   4.158  14.922 -0.3399  0.3729 -0.2783
 3828SOL    HW123117   0.221   4.136  14.927 -0.2734  0.4162  1.3527
 3828SOL    HW223118   0.344   4.133  14.835 -1.1692  2.0624 -1.0409
 3829SOL     OW23119   1.722   1.593   2.695 -0.1939  0.4476 -0.2502
 3829SOL    HW123120   1.765   1.656   2.636 -0.7245 -0.6970 -1.8596
 3829SOL    HW223121   1.757   1.508   2.667  0.9430  0.5505  0.8523
 3830SOL     OW23122   1.451   4.511   7.095  0.3910 -0.2131  0.0601
 3830SOL    HW123123   1.440   4.421   7.064  1.1551 -0.2866  0.0114
 3830SOL    HW223124   1.541   4.504   7.125  0.2086 -0.3919  0.5763
 3831SOL     OW23125   2.134   0.423   0.912 -0.2851  0.3824  0.4743
 3831SOL    HW123126   2.158   0.514   0.895  3.3356 -0.2390  2.2100
 3831SOL    HW223127   2.126   0.423   1.007 -2.7539 -1.7155  0.2753
 3832SOL     OW23128   4.222   2.511   7.578 -0.2476  0.5416  0.3877
 3832SOL    HW123129   4.278   2.578   7.541 -0.6689  1.8498  2.1410
 3832SOL    HW223130   4.283   2.437   7.574 -2.3210 -1.1421 -0.1686
 3833SOL     OW23131   1.925   3.697  14.816  0.1868  0.3245 -0.3009
 3833SOL    HW123132   1.931   3.679  14.722  0.6715  3.4966 -0.9019
 3833SOL    HW223133   1.987   3.769  14.827 -0.4197  0.7233  0.5217
 3834SOL     OW23134   2.516   3.797   6.497  0.0552  0.4288  0.4881
 3834SOL    HW123135   2.602   3.781   6.535  0.6151 -1.5268 -1.6128
 3834SOL    HW223136   2.533   3.863   6.430 -3.8934  0.1418 -0.8257
 3835SOL     OW23137   4.732   2.513   9.955  0.0576 -0.3659  0.0390
 3835SOL    HW123138   0.033   2.528   9.868  0.1182  0.2672  0.1704
 3835SOL    HW223139   0.062   2.449   9.982  1.0635  0.5737 -0.1561
 3836SOL     OW23140   1.768   4.408  16.428 -0.4248  1.1746 -0.1296
 3836SOL    HW123141   1.770   4.412  16.332 -1.8552 -0.6766 -0.2478
 3836SOL    HW223142   1.848   4.362  16.453 -1.4577 -0.6382 -0.1062
 3837SOL     OW23143   4.690   3.699  10.098 -0.0823  0.3099 -0.1409
 3837SOL    HW123144   4.663   3.756  10.170 -3.0691 -0.0464 -0.9569
 3837SOL    HW223145   4.728   3.624  10.143 -0.5299  0.0576 -0.1734
 3838SOL     OW23146   3.974   2.031   9.258  0.0805  0.7285 -0.1302
 3838SOL    HW123147   3.881   2.027   9.281 -0.0993  0.7553 -0.8553
 3838SOL    HW223148   3.999   2.112   9.303  1.5949 -0.5967  1.3948
 3839SOL     OW23149   1.504   1.792  10.443  0.6811 -0.0699 -0.2361
 3839SOL    HW123150   1.506   1.799  10.538  0.2053  1.3147 -0.3256
 3839SOL    HW223151   1.476   1.701  10.432 -0.0820  0.0853  0.4582
 3840SOL     OW23152   0.523   3.090   3.716 -0.1305 -0.1589  0.5850
 3840SOL    HW123153   0.543   3.046   3.633 -0.3107 -0.4643  0.7062
 3840SOL    HW223154   0.587   3.050   3.773 -0.9736 -1.3736  0.6704
 3841SOL     OW23155   0.355   3.526   1.978 -0.2386  0.9544 -0.0796
 3841SOL    HW123156   0.334   3.587   1.907 -0.2559  1.9980  0.8218
 3841SOL    HW223157   0.419   3.585   2.018 -0.5351 -0.2400  2.1339
 3842SOL     OW23158   0.738   1.339   4.453  0.2281  0.5768  0.0878
 3842SOL    HW123159   0.773   1.354   4.541  0.2688  2.1367 -0.1859
 3842SOL    HW223160   0.788   1.262   4.429 -0.2789  0.9452 -2.1313
 3843SOL     OW23161   2.707   4.724   0.396 -0.6980 -0.1329 -0.4247
 3843SOL    HW123162   2.728   4.729   0.489  0.1437 -3.1351 -0.4622
 3843SOL    HW223163   2.684   0.081   0.388 -1.4633 -0.4433 -1.7140
 3844SOL     OW23164   3.119   2.139   3.059 -0.0296  0.4153  0.1059
 3844SOL    HW123165   3.032   2.179   3.051 -1.8707 -3.3337  1.5438
 3844SOL    HW223166   3.101   2.056   3.014  0.2224  0.4784 -0.1127
 3845SOL     OW23167   1.667   3.623   8.190  0.5046 -0.2750  0.0489
 3845SOL    HW123168   1.721   3.548   8.162 -2.7806 -2.6863  0.1227
 3845SOL    HW223169   1.621   3.589   8.267 -2.4521 -0.6689 -1.8619
 3846SOL     OW23170   1.599   0.283   7.383 -0.2865 -0.1139  0.3852
 3846SOL    HW123171   1.618   0.255   7.293 -0.0936 -2.9491  1.3073
 3846SOL    HW223172   1.519   0.332   7.363 -1.7374 -2.0491  1.4379
 3847SOL     OW23173   4.466   4.713   4.591 -0.2343  0.0546 -0.1536
 3847SOL    HW123174   4.441   4.725   4.683  1.5925 -0.4460  0.4162
 3847SOL    HW223175   4.490   4.620   4.588  0.6240  0.3744 -2.6226
 3848SOL     OW23176   2.964   1.048   3.470 -0.9631 -0.3512  0.0466
 3848SOL    HW123177   2.890   1.026   3.526  0.7526  0.8099  2.7742
 3848SOL    HW223178   2.931   1.130   3.435 -1.5218 -0.9218 -0.7873
 3849SOL     OW23179   2.363   0.923   9.344 -0.5725  0.3178  0.5132
 3849SOL    HW123180   2.299   0.930   9.273  0.7859 -3.5774 -1.0839
 3849SOL    HW223181   2.412   0.847   9.311  2.2027  2.6837 -0.8741
 3850SOL     OW23182   0.709   4.140  12.551  0.4618 -0.0023  0.1531
 3850SOL    HW123183   0.624   4.098  12.559 -0.3110  1.6431  0.4461
 3850SOL    HW223184   0.758   4.071  12.505  0.1409 -1.1692  1.5830
 3851SOL     OW23185   2.734   1.467   4.738  0.0307  0.3291 -0.0411
 3851SOL    HW123186   2.729   1.560   4.762  1.7422  1.0548 -2.4810
 3851SOL    HW223187   2.829   1.455   4.735 -0.1740 -1.2857  0.4143
 3852SOL     OW23188   3.267   2.991   3.354  0.1176 -0.4455 -0.2000
 3852SOL    HW123189   3.211   2.914   3.364 -0.8727  0.4896  1.4242
 3852SOL    HW223190   3.333   2.979   3.422 -1.5463 -1.7270  1.1817
 3853SOL     OW23191   0.350   4.131   1.701  0.6177 -0.3968  0.1412
 3853SOL    HW123192   0.435   4.174   1.692  0.0608  1.1754  2.4021
 3853SOL    HW223193   0.360   4.105   1.793  3.0294 -0.4663 -0.1280
 3854SOL     OW23194   2.952   3.450   6.362  0.3244  0.2410  0.0630
 3854SOL    HW123195   2.986   3.508   6.430 -1.9644 -0.2516  1.6209
 3854SOL    HW223196   3.016   3.478   6.296 -0.2574 -1.9749 -1.4536
 3855SOL     OW23197   0.875   0.876   7.538 -0.1370  0.2428  0.4588
 3855SOL    HW123198   0.871   0.959   7.492 -1.4097  0.7301  1.4470
 3855SOL    HW223199   0.896   0.905   7.627  1.4528 -1.5128  0.6693
 3856SOL     OW23200   3.705   3.822   6.143 -0.0692  0.0675 -0.3579
 3856SOL    HW123201   3.773   3.869   6.095  1.9929  0.4537  2.8776
 3856SOL    HW223202   3.637   3.882   6.173 -0.0214 -0.4320  0.7615
 3857SOL     OW23203   0.252   2.770   2.567 -0.2276 -0.0418  0.1604
 3857SOL    HW123204   0.264   2.713   2.642  1.4317 -2.6475 -2.0800
 3857SOL    HW223205   0.288   2.848   2.609 -0.7690  1.5272 -2.2308
 3858SOL     OW23206   0.888   3.870   0.685 -0.2131  0.0042 -0.0810
 3858SOL    HW123207   0.809   3.876   0.631 -1.0200  1.9873  1.3275
 3858SOL    HW223208   0.870   3.792   0.737 -0.2663 -0.3898 -0.6810
 3859SOL     OW23209   2.096   1.461  10.664  0.0002 -0.3474  0.3321
 3859SOL    HW123210   2.027   1.421  10.717 -1.0427  0.9540 -0.0188
 3859SOL    HW223211   2.089   1.554  10.686 -0.0351 -0.9544  2.9000
 3860SOL     OW23212   1.902   0.802   6.531  0.1124  0.4884  0.0547
 3860SOL    HW123213   1.891   0.758   6.447  3.1107 -1.4772  0.6844
 3860SOL    HW223214   1.988   0.765   6.549 -1.1228 -3.2955 -1.9067
 3861SOL     OW23215   2.278   0.339   8.047 -0.2718 -0.4102 -0.1152
 3861SOL    HW123216   2.309   0.252   8.023  2.8021  0.9959 -1.1997
 3861SOL    HW223217   2.215   0.318   8.116  0.4562  0.4777  0.8157
 3862SOL     OW23218   0.354   0.495   4.082 -0.0609 -0.1240  0.2378
 3862SOL    HW123219   0.280   0.522   4.028  0.4031 -0.8222 -0.7425
 3862SOL    HW223220   0.313   0.515   4.166 -0.6180  0.0184 -0.0624
 3863SOL     OW23221   2.640   0.143   6.252 -0.1426 -0.0607 -0.2769
 3863SOL    HW123222   2.648   0.230   6.293 -0.4229  0.2062 -0.7808
 3863SOL    HW223223   2.728   0.126   6.217 -0.3405 -1.8895  0.1249
 3864SOL     OW23224   2.020   2.374   4.263  0.0766  0.2378  0.4381
 3864SOL    HW123225   1.955   2.308   4.286 -0.7016  0.4151 -1.1863
 3864SOL    HW223226   1.970   2.453   4.284 -0.4605 -0.1478  0.5979
 3865SOL     OW23227   0.489   2.246   7.819 -0.7052 -0.6065 -0.1897
 3865SOL    HW123228   0.452   2.322   7.863  0.5564 -0.1415  0.0864
 3865SOL    HW223229   0.487   2.257   7.724  0.9930 -0.6758 -0.2400
 3866SOL     OW23230   2.934   3.701   9.068  0.3228 -0.0528  0.2697
 3866SOL    HW123231   2.948   3.754   9.147  1.6718  1.2672 -0.8591
 3866SOL    HW223232   3.013   3.712   9.015 -0.6827 -2.2396 -1.6866
 3867SOL     OW23233   1.232   4.341   3.326 -0.3543 -0.4562  0.3496
 3867SOL    HW123234   1.166   4.337   3.396 -0.1997  1.5106  0.5928
 3867SOL    HW223235   1.308   4.341   3.384  0.9276  0.9526 -1.3272
 3868SOL     OW23236   4.300   3.074   3.848  0.0933  0.0256  0.0830
 3868SOL    HW123237   4.235   3.046   3.783 -1.2258  0.8187  1.0504
 3868SOL    HW223238   4.362   3.002   3.856  0.6807  0.4652 -0.5443
 3869SOL     OW23239   4.101   3.828  17.263  0.4343  0.1102  0.3879
 3869SOL    HW123240   4.084   3.751  17.209 -0.7527  1.6479 -1.4251
 3869SOL    HW223241   4.107   3.900  17.201  1.5224  0.2927  0.7068
 3870SOL     OW23242   1.923   3.447   5.602 -0.5036 -0.2673  0.1584
 3870SOL    HW123243   2.008   3.458   5.644  0.0835 -0.8167 -0.8726
 3870SOL    HW223244   1.946   3.387   5.531 -0.1591 -0.5719  0.5248
 3871SOL     OW23245   4.601   0.979   7.908  0.0119 -0.2430  1.3466
 3871SOL    HW123246   4.640   0.994   7.822 -0.2899 -0.4466  1.1731
 3871SOL    HW223247   4.554   1.059   7.928 -0.1044  0.0358 -0.0558
 3872SOL     OW23248   1.939   2.791   7.109 -0.1329 -0.0197 -0.5054
 3872SOL    HW123249   1.862   2.847   7.123 -0.7140 -0.9164 -0.1637
 3872SOL    HW223250   1.939   2.736   7.187  0.7805 -0.9376 -1.1584
 3873SOL     OW23251   0.283   4.383  16.314 -0.0493 -0.0366 -0.0744
 3873SOL    HW123252   0.361   4.377  16.259 -0.3833  0.9647 -0.6582
 3873SOL    HW223253   0.316   4.356  16.400 -2.0054  0.1835  0.7563
 3874SOL     OW23254   1.247   1.427   8.691 -0.1757  0.1119 -0.3041
 3874SOL    HW123255   1.173   1.415   8.751  1.3876  2.5663  2.0898
 3874SOL    HW223256   1.292   1.500   8.733  0.5864  0.1753 -1.2148
 3875SOL     OW23257   2.821   2.602   0.205  0.5285 -0.2045  0.1086
 3875SOL    HW123258   2.890   2.537   0.219  0.2613 -0.2498  1.2069
 3875SOL    HW223259   2.750   2.572   0.262 -0.3632 -2.0921 -1.9819
 3876SOL     OW23260   3.739   0.021   8.617  0.1106 -0.1416 -0.1534
 3876SOL    HW123261   3.788   0.096   8.651  0.5277 -0.6868  0.4484
 3876SOL    HW223262   3.757   0.033   8.524  2.3885 -0.6585  0.2182
 3877SOL     OW23263   1.409   3.950  12.288 -0.5478 -0.2637  0.2022
 3877SOL    HW123264   1.503   3.962  12.282 -0.5572 -1.4618 -2.3519
 3877SOL    HW223265   1.381   4.014  12.222 -1.6366  0.6852  1.5856
 3878SOL     OW23266   1.034   3.214   1.628 -0.2393 -0.2465 -0.3447
 3878SOL    HW123267   1.054   3.299   1.591 -0.9519  1.3851  3.0388
 3878SOL    HW223268   1.116   3.193   1.673  1.1353  1.7645 -1.8900
 3879SOL     OW23269   0.991   0.654   7.275 -0.8753  0.1188 -0.4740
 3879SOL    HW123270   0.913   0.697   7.241 -1.5141 -0.9764 -0.3694
 3879SOL    HW223271   1.052   0.634   7.204  0.2757 -0.4064  0.6549
 3880SOL     OW23272   3.206   2.343  16.427 -0.8109  0.2663  0.1160
 3880SOL    HW123273   3.224   2.339  16.333 -1.1393  0.5726  0.0362
 3880SOL    HW223274   3.262   2.269  16.449 -1.3902 -0.3764 -0.5893
 3881SOL     OW23275   4.374   1.441   7.756  0.6846  0.2260  0.4883
 3881SOL    HW123276   4.365   1.526   7.712  0.7416  0.7072  1.4102
 3881SOL    HW223277   4.429   1.458   7.832 -2.1219  3.3255  1.8297
 3882SOL     OW23278   3.464   4.117   7.362  0.3855  0.3508  0.0121
 3882SOL    HW123279   3.491   4.036   7.405  0.6457  1.1945  1.4155
 3882SOL    HW223280   3.368   4.112   7.364  0.3279  1.8881  1.3416
 3883SOL     OW23281   3.123   2.503  11.199  0.2807 -0.6911  0.2196
 3883SOL    HW123282   3.036   2.504  11.240  0.1946 -2.2935  0.0750
 3883SOL    HW223283   3.116   2.427  11.142  0.1489 -0.7502  0.3151
 3884SOL     OW23284   4.343   4.221   8.199  1.0148  0.0790 -0.6807
 3884SOL    HW123285   4.375   4.170   8.274  1.8984  1.8469  0.1368
 3884SOL    HW223286   4.408   4.290   8.194  2.1395 -0.8356  1.3949
 3885SOL     OW23287   1.012   2.928   7.193 -0.0602 -0.9694 -0.0603
 3885SOL    HW123288   1.050   2.850   7.234  0.3942 -0.4840  0.4487
 3885SOL    HW223289   1.033   2.989   7.264 -0.0481 -0.6850 -0.3132
 3886SOL     OW23290   3.161   1.687  10.345 -0.3945 -0.0556 -0.2188
 3886SOL    HW123291   3.204   1.660  10.426 -0.2550 -0.6194 -0.4792
 3886SOL    HW223292   3.101   1.749  10.386  1.5337  2.0922 -0.6475
 3887SOL     OW23293   0.284   2.442   7.389  0.5252  0.1453 -0.1845
 3887SOL    HW123294   0.353   2.502   7.362 -1.6861  3.0136  0.5007
 3887SOL    HW223295   0.209   2.478   7.341 -0.6461 -0.5465  1.1390
 3888SOL     OW23296   1.386   0.514   6.185 -0.2267 -0.6792  0.1248
 3888SOL    HW123297   1.375   0.435   6.132  1.7389 -2.5790  2.5770
 3888SOL    HW223298   1.415   0.581   6.123  1.9832 -2.1111 -0.3767
 3889SOL     OW23299   4.200   1.249   5.095 -0.2004  0.0704  0.5386
 3889SOL    HW123300   4.165   1.162   5.075 -1.7025  1.2246 -1.7613
 3889SOL    HW223301   4.272   1.216   5.149 -2.2649 -1.7004  2.2317
 3890SOL     OW23302   1.081   1.110  12.634  0.0455 -0.0283 -0.1687
 3890SOL    HW123303   1.162   1.125  12.683 -0.0440 -1.2989  0.3629
 3890SOL    HW223304   1.098   1.034  12.579 -1.3577  0.5749 -1.4569
 3891SOL     OW23305   2.240   4.134   3.945  0.3598 -0.4370  0.1116
 3891SOL    HW123306   2.178   4.101   3.879 -1.1685  0.6123  1.0219
 3891SOL    HW223307   2.204   4.101   4.028 -0.3118 -0.0650 -0.0298
 3892SOL     OW23308   2.687   2.438   3.658 -0.4147 -0.3382 -0.1313
 3892SOL    HW123309   2.673   2.378   3.730  0.0036 -0.3632 -0.0675
 3892SOL    HW223310   2.676   2.516   3.712  1.0191  0.7843 -1.4475
 3893SOL     OW23311   3.065   3.189   3.374 -0.2098 -0.0938  0.2531
 3893SOL    HW123312   3.042   3.182   3.467  2.8566  1.7902  1.1828
 3893SOL    HW223313   3.129   3.118   3.370 -0.5221 -0.4143  0.9708
 3894SOL     OW23314   0.680   2.771  10.542 -0.0252 -0.0175  0.3041
 3894SOL    HW123315   0.698   2.768  10.448 -1.2676  1.8934  0.0115
 3894SOL    HW223316   0.688   2.866  10.545 -0.6102  0.0292  0.2824
 3895SOL     OW23317   1.687   2.743   8.201  0.0080 -0.0109  0.1625
 3895SOL    HW123318   1.609   2.786   8.166  0.8291  2.1773  1.0096
 3895SOL    HW223319   1.759   2.780   8.149  0.1035 -0.6370 -0.1534
 3896SOL     OW23320   2.563   0.333   0.959  0.2401  0.3979 -0.1845
 3896SOL    HW123321   2.479   0.319   1.004  0.0305 -2.2274 -1.3845
 3896SOL    HW223322   2.614   0.254   0.977 -4.1597 -2.7482 -1.4589
 3897SOL     OW23323   2.607   1.276   2.162 -0.2514 -0.1248  0.6757
 3897SOL    HW123324   2.518   1.272   2.199 -0.5503  2.5888  0.2565
 3897SOL    HW223325   2.596   1.359   2.115 -0.6300 -0.8873 -0.5991
 3898SOL     OW23326   3.851   1.973  10.834 -0.2112  0.0893 -0.0489
 3898SOL    HW123327   3.814   1.914  10.900 -1.6889 -0.6252 -1.5351
 3898SOL    HW223328   3.881   2.045  10.890  1.2036 -1.0132  0.6266
 3899SOL     OW23329   0.760   0.478   5.607  0.2062 -0.3767  0.3704
 3899SOL    HW123330   0.718   0.489   5.692  0.1870  2.5083 -0.0055
 3899SOL    HW223331   0.747   0.384   5.592 -0.0727 -0.5068  1.4744
 3900SOL     OW23332   4.481   2.222   9.152  0.2465  0.3499 -0.0263
 3900SOL    HW123333   4.387   2.226   9.135  0.8504  0.5838 -3.2333
 3900SOL    HW223334   4.513   2.248   9.066 -0.4261 -1.2986 -0.7775
 3901SOL     OW23335   3.599   4.031   7.039 -0.3473 -0.1694  0.3041
 3901SOL    HW123336   3.652   3.956   7.067 -0.0559 -0.9029 -2.1406
 3901SOL    HW223337   3.626   4.050   6.949  1.2398 -0.2308  0.7681
 3902SOL     OW23338   3.510   4.022   5.096 -0.5274  0.3085  0.4271
 3902SOL    HW123339   3.524   3.939   5.143  0.9863 -0.2080 -0.9392
 3902SOL    HW223340   3.597   4.046   5.065 -0.5772  0.4822  0.4262
 3903SOL     OW23341   3.344   3.220   4.680  0.6521 -0.5835 -0.0451
 3903SOL    HW123342   3.413   3.273   4.719 -1.5506  2.4081 -0.2803
 3903SOL    HW223343   3.302   3.186   4.759 -0.7773 -1.5602 -1.2174
 3904SOL     OW23344   2.233   0.949   7.208  0.7509 -0.0626  0.0226
 3904SOL    HW123345   2.173   0.874   7.208 -0.6060  1.0334 -0.3392
 3904SOL    HW223346   2.270   0.951   7.297  1.2712 -1.1819 -0.1683
 3905SOL     OW23347   4.633   1.180   5.529 -0.7505  0.0192  0.3062
 3905SOL    HW123348   4.610   1.093   5.562  0.0944 -0.4315 -0.3023
 3905SOL    HW223349   4.636   1.159   5.435  3.1432 -2.1499  0.8963
 3906SOL     OW23350   0.413   2.069  12.507  0.0714 -0.0306 -0.0628
 3906SOL    HW123351   0.495   2.113  12.528 -0.7159  0.7194  1.4502
 3906SOL    HW223352   0.409   2.055  12.412  1.0902 -1.4296  0.1006
 3907SOL     OW23353   1.023   4.373  17.188 -0.1338 -0.5323  0.1595
 3907SOL    HW123354   1.119   4.374  17.189 -0.1466  1.4797 -0.6563
 3907SOL    HW223355   1.014   4.324  17.106 -1.0007 -1.6171  0.8988
 3908SOL     OW23356   2.984   3.806   9.322  0.2308 -0.2864  0.1664
 3908SOL    HW123357   3.017   3.832   9.408 -0.9209  0.5226  0.3658
 3908SOL    HW223358   3.056   3.845   9.272  0.6219 -2.3535 -0.8466
 3909SOL     OW23359   0.879   3.711   7.016  0.5154  0.2563 -0.0625
 3909SOL    HW123360   0.874   3.683   7.108 -1.2667 -0.7831 -0.4633
 3909SOL    HW223361   0.794   3.755   7.007 -0.5332 -1.0577  3.1040
 3910SOL     OW23362   3.039   0.980   7.330 -0.1977 -0.5304  0.3386
 3910SOL    HW123363   3.043   1.016   7.241 -0.3438 -1.8197 -0.1897
 3910SOL    HW223364   2.958   1.016   7.366 -0.0387 -0.6082  0.7753
 3911SOL     OW23365   2.948   0.937   3.200  0.2176  0.0680  0.9351
 3911SOL    HW123366   2.963   0.990   3.278  0.0859  1.7569 -0.1805
 3911SOL    HW223367   2.897   0.989   3.138 -0.0063 -1.8289 -0.4836
 3912SOL     OW23368   2.328   3.157   7.613 -0.5734  0.5013  0.0269
 3912SOL    HW123369   2.282   3.138   7.694  2.2239  1.1964  1.7964
 3912SOL    HW223370   2.286   3.085   7.565 -1.6376  0.4722  1.0219
 3913SOL     OW23371   0.321   4.257   2.646  0.1515 -0.2652  0.4090
 3913SOL    HW123372   0.337   4.348   2.672  1.0378 -0.9037  2.1286
 3913SOL    HW223373   0.269   4.268   2.567 -0.4727 -0.1515  0.8387
 3914SOL     OW23374   1.028   2.820   4.100  0.0068  0.2170 -0.2214
 3914SOL    HW123375   0.934   2.824   4.087 -0.1165  0.8594  0.8811
 3914SOL    HW223376   1.044   2.730   4.070  0.6135  0.7435 -1.4493
 3915SOL     OW23377   2.394   3.533   0.784  0.6404 -0.5177  0.0414
 3915SOL    HW123378   2.479   3.565   0.814  0.8989 -1.9800  0.8745
 3915SOL    HW223379   2.430   3.501   0.702 -1.1040 -0.6008 -0.6772
 3916SOL     OW23380   2.797   2.881  12.095  0.2854  0.1958 -0.4875
 3916SOL    HW123381   2.736   2.903  12.024 -1.6858 -0.1037  1.1238
 3916SOL    HW223382   2.745   2.918  12.166 -0.0294 -2.1991  0.5521
 3917SOL     OW23383   1.141   2.442   8.681 -0.0870 -0.1404  0.2141
 3917SOL    HW123384   1.191   2.502   8.625  0.1515 -0.7007 -0.1745
 3917SOL    HW223385   1.212   2.422   8.742  1.4394 -1.2336 -1.9403
 3918SOL     OW23386   1.628   4.248   5.491 -0.1848  0.2864  0.0428
 3918SOL    HW123387   1.630   4.265   5.397 -0.8402  2.1524  0.3663
 3918SOL    HW223388   1.684   4.171   5.497 -0.9366 -0.2333  0.4059
 3919SOL     OW23389   2.361   3.391  15.043  0.0915  0.1814 -0.0803
 3919SOL    HW123390   2.343   3.305  15.079  3.3433 -0.3147  0.3551
 3919SOL    HW223391   2.283   3.415  14.994  2.0158  2.9215 -1.8204
 3920SOL     OW23392   2.798   3.369   3.841 -0.7930  0.2102 -0.3843
 3920SOL    HW123393   2.892   3.363   3.858 -0.3956  0.6215 -2.3682
 3920SOL    HW223394   2.772   3.278   3.826  1.0993 -0.4315  0.1635
 3921SOL     OW23395   2.666   2.482   1.935  0.3328 -0.2673 -0.4391
 3921SOL    HW123396   2.632   2.469   2.023 -0.7633 -1.4384 -1.0314
 3921SOL    HW223397   2.734   2.414   1.936  0.9682  0.3910  0.2357
 3922SOL     OW23398   3.809   4.465   3.343 -0.0558  0.0808 -1.0459
 3922SOL    HW123399   3.874   4.395   3.342  0.1897  0.3188 -1.7375
 3922SOL    HW223400   3.855   4.544   3.372 -0.2072 -0.3685  0.4041
 3923SOL     OW23401   1.102   3.451  17.277 -0.6709 -0.0466 -0.2178
 3923SOL    HW123402   1.165   3.506  17.324  1.1376 -1.5457 -0.8764
 3923SOL    HW223403   1.015   3.472  17.312 -0.1373 -0.7080  1.5095
 3924SOL     OW23404   0.679   3.960   7.604  0.4558 -0.1601  0.1693
 3924SOL    HW123405   0.679   3.873   7.645 -4.1168 -0.4212 -0.3966
 3924SOL    HW223406   0.730   3.936   7.527  0.3687  0.6742 -0.1459
 3925SOL     OW23407   1.670   1.799   5.393  0.2502  0.3761 -0.2990
 3925SOL    HW123408   1.648   1.713   5.427 -0.3952  0.5485 -0.2797
 3925SOL    HW223409   1.672   1.852   5.473  2.3298 -0.5626  0.2611
 3926SOL     OW23410   2.102   2.371  13.894 -0.3410  0.5442 -0.3136
 3926SOL    HW123411   2.011   2.401  13.900 -0.9985 -1.5993  0.2595
 3926SOL    HW223412   2.108   2.333  13.806 -1.0012 -0.0811 -0.0827
 3927SOL     OW23413   3.578   3.346   6.339  0.6206 -0.3301 -0.0479
 3927SOL    HW123414   3.664   3.341   6.297  0.8472  4.2656 -0.1020
 3927SOL    HW223415   3.576   3.422   6.397  0.9008  1.5818 -2.5181
 3928SOL     OW23416   0.686   2.655  14.698  0.3414 -0.8915  0.2365
 3928SOL    HW123417   0.626   2.619  14.763  1.5757 -2.2966  0.5750
 3928SOL    HW223418   0.708   2.584  14.637  0.7493  0.8532 -1.6740
 3929SOL     OW23419   2.831   4.024  13.154  0.1380  0.2792  0.0849
 3929SOL    HW123420   2.926   4.022  13.168  0.3039  1.1023 -0.8764
 3929SOL    HW223421   2.829   4.104  13.102  1.7278  1.3042  1.6084
 3930SOL     OW23422   0.182   4.074   2.187  0.2741 -0.2515  0.4902
 3930SOL    HW123423   0.178   3.984   2.217  0.4122  0.2381  1.9727
 3930SOL    HW223424   0.104   4.110   2.229 -0.4923 -0.0983 -1.0873
 3931SOL     OW23425   0.776   1.863  16.623  0.4511 -0.4368 -0.0019
 3931SOL    HW123426   0.786   1.958  16.625  2.2239 -0.6284  0.2876
 3931SOL    HW223427   0.702   1.857  16.683  0.1704  1.0953 -0.1988
 3932SOL     OW23428   1.325   4.432   7.380 -0.0074 -0.1278 -0.0263
 3932SOL    HW123429   1.369   4.370   7.438  0.2860  1.1686  1.1363
 3932SOL    HW223430   1.389   4.503   7.382 -1.5908  1.2583  0.4232
 3933SOL     OW23431   1.576   0.601   5.531 -0.1195 -0.0306 -0.3851
 3933SOL    HW123432   1.641   0.563   5.471  0.1037  1.4162 -1.0721
 3933SOL    HW223433   1.608   0.568   5.615 -2.0491 -2.1968 -0.5051
 3934SOL     OW23434   1.862   4.228   1.891 -0.2750  0.2593  0.1747
 3934SOL    HW123435   1.926   4.232   1.820  1.6819 -0.5628  1.8625
 3934SOL    HW223436   1.897   4.273   1.968  0.5231 -0.9866  0.5509
 3935SOL     OW23437   3.103   4.734   0.387 -0.2204  0.4193  0.1971
 3935SOL    HW123438   3.189   4.698   0.408 -1.5707 -0.8929  3.4184
 3935SOL    HW223439   3.086   4.694   0.302 -0.9061 -0.6915  0.8643
 3936SOL     OW23440   3.185   2.833   2.305 -0.1214 -0.3019 -0.0122
 3936SOL    HW123441   3.279   2.822   2.297 -0.1660  0.3446 -1.3630
 3936SOL    HW223442   3.159   2.846   2.214  2.3358  1.0198 -0.5279
 3937SOL     OW23443   2.980   0.381  12.927 -0.3494 -0.8215 -0.2031
 3937SOL    HW123444   2.903   0.408  12.977 -0.7238  2.0023 -2.3457
 3937SOL    HW223445   2.987   0.291  12.959  1.0375 -0.0458  1.7182
 3938SOL     OW23446   4.579   2.085  15.243  0.1928 -0.5321  0.5038
 3938SOL    HW123447   4.598   2.162  15.189 -0.4111 -0.1607  0.8186
 3938SOL    HW223448   4.484   2.080  15.249  0.1846  1.0214  1.6387
 3939SOL     OW23449   2.080   3.207   4.010 -0.1717 -0.1524  0.2598
 3939SOL    HW123450   2.063   3.193   3.917  1.1497 -3.0504  0.4489
 3939SOL    HW223451   2.146   3.141   4.032  0.5809  0.9613  1.2900
 3940SOL     OW23452   0.012   2.335  16.494  0.0477 -0.2338 -0.4409
 3940SOL    HW123453   4.687   2.396  16.453  0.5777  2.2757  2.4694
 3940SOL    HW223454   4.689   2.313  16.566 -0.0247  1.4402  0.0120
 3941SOL     OW23455   1.645   4.110   8.651 -0.2230 -0.2789 -0.0489
 3941SOL    HW123456   1.551   4.117   8.638 -0.7749 -2.6752  2.5624
 3941SOL    HW223457   1.664   4.198   8.683 -1.0183 -0.8873  2.1245
 3942SOL     OW23458   1.817   1.998   8.711  0.3699 -0.0608  0.2019
 3942SOL    HW123459   1.851   1.938   8.644  1.2197  2.0178 -1.2389
 3942SOL    HW223460   1.767   2.061   8.659 -0.3289 -0.6011  0.2155
 3943SOL     OW23461   4.393   1.384  13.052  0.1715  0.0063  0.5056
 3943SOL    HW123462   4.319   1.382  13.112  0.3389 -0.9690  0.6778
 3943SOL    HW223463   4.423   1.471  13.079  0.1183  0.1144  0.2229
 3944SOL     OW23464   2.803   1.444   5.161  0.1627 -0.5150 -0.3234
 3944SOL    HW123465   2.788   1.538   5.157 -0.3102 -0.3857  4.3431
 3944SOL    HW223466   2.732   1.420   5.222  0.7301  1.5066  1.1323
 3945SOL     OW23467   0.753   1.795   6.087  0.5081 -0.1756  0.0025
 3945SOL    HW123468   0.686   1.859   6.111  1.0142  0.3944 -0.1046
 3945SOL    HW223469   0.839   1.824   6.119  0.3738 -1.0618  1.1545
 3946SOL     OW23470   0.425   2.056  11.398  0.5448  0.0785 -0.2495
 3946SOL    HW123471   0.468   2.135  11.431 -0.0740  0.3147  0.0028
 3946SOL    HW223472   0.358   2.104  11.349 -0.1024 -0.4511  0.1093
 3947SOL     OW23473   2.007   0.155   5.099 -0.3584 -0.1619  0.5814
 3947SOL    HW123474   2.020   0.063   5.124 -2.0259 -0.9607 -1.4754
 3947SOL    HW223475   1.980   0.151   5.007  1.2686  1.0912  0.0468
 3948SOL     OW23476   2.435   3.520   6.964  0.0493 -0.1278  0.3479
 3948SOL    HW123477   2.371   3.581   7.001  0.4122  0.1474  0.5239
 3948SOL    HW223478   2.382   3.440   6.966  0.6906 -0.5332  1.4649
 3949SOL     OW23479   0.142   2.600   6.790 -0.3735 -0.2170  0.1029
 3949SOL    HW123480   0.138   2.600   6.886  0.0737 -1.3429  0.1232
 3949SOL    HW223481   0.186   2.517   6.775  0.9440  0.6791 -0.9487
 3950SOL     OW23482   2.740   2.993  11.350 -0.4352 -0.2096 -0.2790
 3950SOL    HW123483   2.656   2.971  11.390 -0.4769  1.3666  0.4732
 3950SOL    HW223484   2.762   3.081  11.380  0.7911 -0.6208  0.0312
 3951SOL     OW23485   3.330   2.412   5.623 -0.1365  0.0350  0.2092
 3951SOL    HW123486   3.286   2.328   5.612  0.2977 -0.6178  3.5419
 3951SOL    HW223487   3.415   2.372   5.640 -0.2502  0.1842  1.0918
 3952SOL     OW23488   4.567   4.380   3.724 -0.2629 -0.1171 -0.3620
 3952SOL    HW123489   4.565   4.462   3.774  0.1332 -1.0131  1.0932
 3952SOL    HW223490   4.492   4.330   3.753 -0.6686 -0.1031 -1.3802
 3953SOL     OW23491   1.365   4.311   6.063 -0.0859 -0.9978 -0.1317
 3953SOL    HW123492   1.433   4.352   6.115  1.0367 -2.7095 -0.2188
 3953SOL    HW223493   1.282   4.344   6.096  0.2527 -0.2088 -0.0793
 3954SOL     OW23494   4.452   1.674   6.609 -0.5072 -0.3478  0.4719
 3954SOL    HW123495   4.436   1.755   6.659  3.2498  0.9602 -0.4275
 3954SOL    HW223496   4.411   1.690   6.524  0.4606  2.0580  0.4524
 3955SOL     OW23497   2.042   3.113  14.073  0.2848 -0.5647 -0.0138
 3955SOL    HW123498   2.021   3.076  14.159  1.6661  0.7614  0.8914
 3955SOL    HW223499   1.966   3.084  14.023 -0.4893  1.6484 -0.1328
 3956SOL     OW23500   1.905   3.870   6.550 -0.8367  0.5546  0.0667
 3956SOL    HW123501   1.811   3.880   6.570 -0.7956  1.1647 -0.0424
 3956SOL    HW223502   1.897   3.796   6.490  0.9522 -1.1935  1.9961
 3957SOL     OW23503   4.300   4.723  12.366  0.1637  0.0267 -0.5414
 3957SOL    HW123504   4.335   4.636  12.385  1.2123  1.1420  2.7639
 3957SOL    HW223505   4.284   0.013  12.457 -3.6590 -4.3467  0.0067
 3958SOL     OW23506   2.740   3.912   8.175  0.3294 -0.2566  0.1668
 3958SOL    HW123507   2.833   3.908   8.153  1.0058  1.1376  2.7960
 3958SOL    HW223508   2.723   3.981   8.110 -0.2235  1.7521  2.4530
 3959SOL     OW23509   4.647   2.593  14.829 -0.0520  0.2338  0.6390
 3959SOL    HW123510   4.722   2.566  14.776  0.0272  0.4451  0.6446
 3959SOL    HW223511   4.589   2.620  14.758 -1.1075 -3.2655  0.1894
 3960SOL     OW23512   2.184   1.651  13.231  0.0874 -0.1065  0.2868
 3960SOL    HW123513   2.145   1.725  13.277  3.5334  0.7305  1.8916
 3960SOL    HW223514   2.177   1.582  13.297  0.7251  1.1277  1.6510
 3961SOL     OW23515   3.657   4.663   5.005  0.0500  0.0815  0.1008
 3961SOL    HW123516   3.718   4.693   5.072 -0.2228  0.7238  0.0582
 3961SOL    HW223517   3.580   4.678   5.060  0.6400 -0.1354  0.9852
 3962SOL     OW23518   2.642   3.213  15.794  0.0963 -0.7625  0.0485
 3962SOL    HW123519   2.594   3.265  15.730 -0.8496 -1.0317  0.5311
 3962SOL    HW223520   2.574   3.148  15.811  1.8466 -2.4048  0.8185
 3963SOL     OW23521   0.260   1.121   7.724  0.0541 -0.0652  0.4842
 3963SOL    HW123522   0.278   1.185   7.656  1.0070 -1.4971 -0.6097
 3963SOL    HW223523   0.186   1.158   7.772 -0.8470 -0.3431 -0.6827
 3964SOL     OW23524   4.481   2.505   5.123 -0.5009 -0.0703  0.4033
 3964SOL    HW123525   4.575   2.491   5.117 -0.5848  0.1011 -1.1952
 3964SOL    HW223526   4.473   2.580   5.064  4.0063 -0.3711 -0.5975
 3965SOL     OW23527   1.343   0.522  14.928 -0.6440  0.7467  0.0434
 3965SOL    HW123528   1.353   0.558  14.840  1.7630 -2.0271 -0.8026
 3965SOL    HW223529   1.272   0.568  14.974 -0.4498 -0.1068  1.1910
 3966SOL     OW23530   1.070   1.877   4.079 -0.0915  0.1132 -0.0492
 3966SOL    HW123531   1.148   1.827   4.054 -0.2622 -0.3765  0.3753
 3966SOL    HW223532   1.080   1.870   4.174  0.0408  1.0032  0.0025
 3967SOL     OW23533   4.350   4.464   8.798 -0.0818 -0.6132  0.0510
 3967SOL    HW123534   4.335   4.447   8.705  2.7154  1.1019 -0.6964
 3967SOL    HW223535   4.342   4.559   8.802 -2.2705 -0.8139  0.6291
 3968SOL     OW23536   2.320   1.362   6.516 -0.5604  0.0699  0.1554
 3968SOL    HW123537   2.341   1.383   6.607  0.3282 -0.0559 -0.0219
 3968SOL    HW223538   2.310   1.267   6.524  3.0727 -0.2424  0.8220
 3969SOL     OW23539   3.367   4.525  16.032  0.1692  0.0769 -0.6876
 3969SOL    HW123540   3.417   4.604  16.054 -0.2868 -0.8046  3.4285
 3969SOL    HW223541   3.418   4.503  15.954  0.7907  0.5734 -0.4216
 3970SOL     OW23542   0.316   1.851   6.428  0.3073 -0.1393  0.2422
 3970SOL    HW123543   0.235   1.901   6.418  0.4207 -0.3467 -1.7038
 3970SOL    HW223544   0.288   1.790   6.496 -0.3538 -2.3579 -2.0418
 3971SOL     OW23545   1.761   2.986   7.180  0.2078 -0.3374  0.1178
 3971SOL    HW123546   1.688   2.964   7.239  0.1272 -0.3752  0.0035
 3971SOL    HW223547   1.733   3.073   7.154 -0.1679 -0.2601  0.7680
 3972SOL     OW23548   3.847   0.394   9.787  0.6780  0.5838 -0.0609
 3972SOL    HW123549   3.891   0.396   9.702 -2.2113  1.0741 -1.5376
 3972SOL    HW223550   3.872   0.305   9.813 -0.2631  0.3888  0.1720
 3973SOL     OW23551   3.572   2.289   1.380  0.9178 -0.1092 -0.4853
 3973SOL    HW123552   3.515   2.365   1.386 -0.5337 -1.2054 -0.1997
 3973SOL    HW223553   3.633   2.314   1.311 -0.7070  2.0924 -1.1227
 3974SOL     OW23554   4.280   1.162   5.394  0.0597 -0.5683 -0.2801
 3974SOL    HW123555   4.339   1.107   5.445  3.2104  0.1003 -3.2173
 3974SOL    HW223556   4.212   1.097   5.376  0.5129 -1.0226 -0.3440
 3975SOL     OW23557   0.280   2.763   4.985  0.1113  0.3207 -0.6170
 3975SOL    HW123558   0.313   2.751   5.074  1.4520 -0.8770 -1.2791
 3975SOL    HW223559   0.305   2.681   4.943 -1.3981 -1.5289  2.1410
 3976SOL     OW23560   1.711   1.359   3.899 -0.2223  0.2076 -0.0812
 3976SOL    HW123561   1.760   1.373   3.818  2.2549  0.1363  1.3764
 3976SOL    HW223562   1.639   1.420   3.891  0.7114  1.1873 -0.9751
 3977SOL     OW23563   4.353   0.905   6.961 -0.5538 -0.0488 -0.4536
 3977SOL    HW123564   4.273   0.864   6.929 -0.5665 -0.2147 -0.2082
 3977SOL    HW223565   4.395   0.896   6.875  0.1203 -1.5369  0.0395
 3978SOL     OW23566   4.546   3.985   5.932 -0.5005  0.5132 -0.2255
 3978SOL    HW123567   4.552   3.944   5.846  0.6538  0.3997 -0.0944
 3978SOL    HW223568   4.567   3.905   5.982 -1.6166  0.3753  0.0288
 3979SOL     OW23569   2.705   1.014   1.856  0.7741 -0.0653 -0.2273
 3979SOL    HW123570   2.793   1.050   1.849  0.4517  0.5797 -0.9066
 3979SOL    HW223571   2.679   1.033   1.946  1.5014 -2.4957  0.5053
 3980SOL     OW23572   0.357   0.770   4.290  0.8173  0.9192 -0.3350
 3980SOL    HW123573   0.303   0.751   4.213  2.0665 -1.6600 -0.5949
 3980SOL    HW223574   0.404   0.851   4.273 -0.2150  1.7079  0.6057
 3981SOL     OW23575   3.937   1.860   9.659 -0.5953 -0.7787 -0.2310
 3981SOL    HW123576   3.911   1.865   9.751 -0.3498  1.0210 -0.2539
 3981SOL    HW223577   4.010   1.923   9.661 -0.9551 -0.3600 -0.4231
 3982SOL     OW23578   4.592   3.960  13.209 -0.2316 -0.2968 -0.5830
 3982SOL    HW123579   4.676   3.957  13.254  0.3077  2.0235 -1.4515
 3982SOL    HW223580   4.536   3.991  13.281  0.1449  0.6760 -0.7155
 3983SOL     OW23581   0.856   1.255   7.163  0.0513 -0.1678  0.1268
 3983SOL    HW123582   0.795   1.256   7.236 -0.8769  0.4350 -0.6475
 3983SOL    HW223583   0.846   1.166   7.129  2.3694 -0.9111  1.3947
 3984SOL     OW23584   2.066   4.378   4.211  0.2847 -0.4291 -0.0623
 3984SOL    HW123585   1.989   4.347   4.164 -1.2786  2.5845  0.5559
 3984SOL    HW223586   2.086   4.436   4.138  1.5238 -1.4608 -0.5509
 3985SOL     OW23587   1.167   2.454   5.666 -0.5068  0.0117  0.5797
 3985SOL    HW123588   1.196   2.545   5.673  0.7640 -0.3134 -0.4976
 3985SOL    HW223589   1.227   2.407   5.724 -0.1780  0.4137  0.5654
 3986SOL     OW23590   4.348   2.492   5.676 -0.5264 -0.2275 -0.1217
 3986SOL    HW123591   4.300   2.418   5.714 -2.1345  0.6787 -0.3631
 3986SOL    HW223592   4.423   2.445   5.639  0.1515  1.6649 -1.1802
 3987SOL     OW23593   2.477   4.414   1.777 -0.0219  0.5247  0.2982
 3987SOL    HW123594   2.450   4.365   1.855  0.5499  0.7281  0.6294
 3987SOL    HW223595   2.489   4.499   1.821 -0.4345  0.6756  0.1125
 3988SOL     OW23596   1.740   2.251   8.976  0.2812  0.6647  0.3226
 3988SOL    HW123597   1.706   2.214   8.894  2.2670  2.3388 -1.2521
 3988SOL    HW223598   1.658   2.290   9.007  0.3008 -0.7607  2.1480
 3989SOL     OW23599   0.791   0.127  17.166  0.3346 -0.3183  0.0104
 3989SOL    HW123600   0.865   0.093  17.217  0.1364 -0.3854  0.2566
 3989SOL    HW223601   0.784   0.217  17.198  0.6290 -0.3880  0.2683
 3990SOL     OW23602   2.556   3.336   5.535 -0.4150 -0.3445  0.6351
 3990SOL    HW123603   2.524   3.408   5.589 -0.6060  0.4326 -0.5118
 3990SOL    HW223604   2.516   3.259   5.574 -0.2607 -0.7410  0.0247
 3991SOL     OW23605   1.670   4.726   4.828 -0.2750  0.2704 -0.6424
 3991SOL    HW123606   1.596   4.691   4.778 -1.2111  0.3394  0.7017
 3991SOL    HW223607   1.731   4.659   4.860 -0.9896 -0.7355 -1.3798
 3992SOL     OW23608   4.118   2.935  12.940 -0.2126 -0.1847  0.3324
 3992SOL    HW123609   4.190   2.874  12.923  0.1135  0.7923 -1.8130
 3992SOL    HW223610   4.155   3.021  12.921 -1.9616  0.2535 -1.1310
 3993SOL     OW23611   4.497   2.726   6.229 -0.2486  0.2086 -0.3955
 3993SOL    HW123612   4.543   2.809   6.239 -1.0383  0.4067  1.6025
 3993SOL    HW223613   4.470   2.703   6.318  1.6554  1.4068  0.4791
 3994SOL     OW23614   0.179   2.639   7.060  0.1559 -0.7527 -0.0210
 3994SOL    HW123615   0.274   2.650   7.061  0.1637 -1.0520  1.6145
 3994SOL    HW223616   0.156   2.715   7.113  0.4429  0.8710 -2.2220
 3995SOL     OW23617   3.677   2.586  13.455 -0.0936  0.4514 -0.2755
 3995SOL    HW123618   3.652   2.542  13.536  0.2362  0.2817 -0.2661
 3995SOL    HW223619   3.768   2.557  13.447 -0.7947 -1.7096 -0.4527
 3996SOL     OW23620   4.355   3.618   9.115  0.2129  0.4208  0.3369
 3996SOL    HW123621   4.349   3.628   9.210 -1.1044 -1.1424  0.4378
 3996SOL    HW223622   4.281   3.559   9.100  1.2157 -0.4379 -1.1992
 3997SOL     OW23623   0.337   3.868   6.548  0.3273  0.0101 -0.2027
 3997SOL    HW123624   0.393   3.822   6.611 -1.3585 -0.0824  1.2476
 3997SOL    HW223625   0.343   3.816   6.469  3.0286 -1.4332  0.9529
 3998SOL     OW23626   0.616   1.482   4.244  0.3985 -0.0485 -0.1384
 3998SOL    HW123627   0.685   1.547   4.232 -1.5721  2.2323  0.6110
 3998SOL    HW223628   0.648   1.449   4.328 -1.0458 -1.1743 -0.0212
 3999SOL     OW23629   0.749   2.441   3.452 -0.1355 -0.5621  0.3776
 3999SOL    HW123630   0.756   2.465   3.360  0.8125  0.2273  0.6473
 3999SOL    HW223631   0.824   2.491   3.486  0.1889 -1.3920  0.8830
 4000SOL     OW23632   2.154   0.240   3.107  0.4118  0.2598 -0.0660
 4000SOL    HW123633   2.078   0.259   3.161  0.7475 -0.9460  0.8325
 4000SOL    HW223634   2.115   0.233   3.020 -0.5849  1.1530  0.3052
 4001SOL     OW23635   1.187   1.758   2.016  0.7186  0.5135  0.2486
 4001SOL    HW123636   1.149   1.675   1.986 -0.6703  0.7963  1.1866
 4001SOL    HW223637   1.115   1.815   2.045  1.1709  0.1600  2.0826
 4002SOL     OW23638   0.687   4.568   3.583 -0.3180 -0.3285  0.5289
 4002SOL    HW123639   0.646   4.650   3.610 -2.8372 -2.3768  2.8484
 4002SOL    HW223640   0.687   4.575   3.488  1.1304 -0.9166  0.4947
 4003SOL     OW23641   3.001   0.122   3.478 -0.8754  0.1808  0.8243
 4003SOL    HW123642   3.081   0.164   3.512  1.2698 -2.8407 -0.4746
 4003SOL    HW223643   3.005   0.151   3.386 -1.9140  0.7955  0.9804
 4004SOL     OW23644   3.684   4.150   2.546  0.1540 -0.0067  0.4423
 4004SOL    HW123645   3.651   4.119   2.630 -2.3910  0.1444 -0.5157
 4004SOL    HW223646   3.730   4.071   2.518 -0.6300  0.2381 -1.5294
 4005SOL     OW23647   0.205   1.874  17.325  0.0768  0.2340 -0.0423
 4005SOL    HW123648   0.216   1.854  17.418 -1.6917 -0.0968  0.0957
 4005SOL    HW223649   0.258   1.953  17.321  2.0773 -1.0951 -0.1173
 4006SOL     OW23650   1.300   2.457   2.615 -0.1742  0.4090 -0.2967
 4006SOL    HW123651   1.234   2.473   2.547 -0.9736 -1.8929 -0.0630
 4006SOL    HW223652   1.309   2.541   2.659 -0.0510  0.5830 -0.6531
 4007SOL     OW23653   4.609   0.618  12.000  0.0139  0.3032  0.7524
 4007SOL    HW123654   4.602   0.643  12.092 -0.3938  0.8456  0.5763
 4007SOL    HW223655   4.583   0.697  11.953  0.5866 -0.1710 -0.3605
 4008SOL     OW23656   0.465   0.588   8.628 -0.5668 -0.4727 -0.8111
 4008SOL    HW123657   0.490   0.600   8.536  0.2506 -1.7037 -0.7531
 4008SOL    HW223658   0.381   0.634   8.625 -0.3534 -0.0818 -0.8760
 4009SOL     OW23659   2.900   2.618   4.758 -0.4408 -0.0308 -0.0248
 4009SOL    HW123660   2.816   2.587   4.726 -0.1488 -1.6214  0.7767
 4009SOL    HW223661   2.963   2.570   4.704 -1.6854  0.7556 -2.1763
 4010SOL     OW23662   2.792   2.274  16.470  0.3263  0.4629  0.1232
 4010SOL    HW123663   2.764   2.312  16.386 -2.5618 -2.2385 -0.1591
 4010SOL    HW223664   2.837   2.344  16.516  2.1930 -0.6768  0.0433
 4011SOL     OW23665   3.064   1.668   2.192 -0.5242 -0.0917 -0.4590
 4011SOL    HW123666   3.016   1.646   2.112  0.6944 -1.9016 -0.6754
 4011SOL    HW223667   3.110   1.746   2.161 -0.4204 -0.5987 -1.5764
 4012SOL     OW23668   3.000   3.636   7.631  0.4585  0.0235 -0.8562
 4012SOL    HW123669   3.030   3.548   7.609  1.4153  0.0699  0.2559
 4012SOL    HW223670   2.931   3.643   7.564  1.0731  2.3192 -1.2424
 4013SOL     OW23671   1.437   2.926  14.917 -0.0450  0.5188 -0.4339
 4013SOL    HW123672   1.407   2.839  14.892 -0.7201  0.5443  0.2965
 4013SOL    HW223673   1.526   2.902  14.944 -0.4622  1.1729  1.4893
 4014SOL     OW23674   0.943   3.159   3.559 -0.2973  0.5469  0.2750
 4014SOL    HW123675   0.848   3.165   3.572 -0.3469 -1.4179  0.8365
 4014SOL    HW223676   0.957   3.253   3.546  2.3990 -0.1784 -1.8231
 4015SOL     OW23677   1.863   1.632   2.261 -0.4786 -0.9070  0.2475
 4015SOL    HW123678   1.831   1.627   2.171  2.1107 -1.2033 -0.6586
 4015SOL    HW223679   1.788   1.668   2.309 -0.3759 -1.9922  1.2028
 4016SOL     OW23680   4.668   2.526  14.042  0.6814 -0.2967 -0.0058
 4016SOL    HW123681   4.600   2.458  14.050 -0.5066  0.6265 -2.2790
 4016SOL    HW223682   4.683   2.558  14.131  0.0535  1.4548 -0.5414
 4017SOL     OW23683   0.254   3.836  10.142 -0.0555 -0.0065  0.6247
 4017SOL    HW123684   0.329   3.826  10.084 -1.1750  1.6450 -1.0999
 4017SOL    HW223685   0.216   3.749  10.132  1.3285 -0.5973  0.4842
 4018SOL     OW23686   3.268   4.371   7.402 -0.0154  0.3182 -0.2042
 4018SOL    HW123687   3.342   4.374   7.464  0.6458  1.7393 -1.0694
 4018SOL    HW223688   3.197   4.337   7.456 -0.7075  1.5635 -0.3288
 4019SOL     OW23689   0.338   0.683   5.333 -0.1202 -0.1215 -0.3098
 4019SOL    HW123690   0.269   0.709   5.272 -0.1051  1.0298  0.1604
 4019SOL    HW223691   0.303   0.608   5.380  0.2590 -0.1665 -0.0952
 4020SOL     OW23692   2.143   4.226   1.722 -0.1355  0.2790 -0.3016
 4020SOL    HW123693   2.158   4.131   1.715 -2.1871 -0.2201  2.0333
 4020SOL    HW223694   2.146   4.226   1.817 -1.5067 -1.6895 -0.2542
 4021SOL     OW23695   3.207   3.286  17.305 -0.4110  0.3216 -0.0192
 4021SOL    HW123696   3.154   3.258  17.230 -1.3871 -0.8683  1.1331
 4021SOL    HW223697   3.179   3.229  17.376  1.9307 -0.9804 -0.1370
 4022SOL     OW23698   1.984   2.725   3.854 -0.2940  0.0444 -0.0339
 4022SOL    HW123699   2.067   2.727   3.807 -1.2491  1.5857 -1.6338
 4022SOL    HW223700   2.024   2.678   3.927  0.0236 -0.5727 -0.6062
 4023SOL     OW23701   1.294   2.992   2.881  0.2445 -0.2221  0.6946
 4023SOL    HW123702   1.223   2.989   2.945 -0.4674 -0.0742 -0.0783
 4023SOL    HW223703   1.292   2.905   2.840  0.3868 -1.2219  2.8347
 4024SOL     OW23704   2.449   2.434   5.011 -0.5121 -0.0410  0.4212
 4024SOL    HW123705   2.429   2.369   5.078 -1.6759 -1.7981 -1.6282
 4024SOL    HW223706   2.378   2.495   5.028 -0.4714 -0.4361  1.9441
 4025SOL     OW23707   1.709   3.606  14.456 -0.1960  0.4298 -0.3558
 4025SOL    HW123708   1.649   3.671  14.492 -1.2854 -0.6101 -0.3294
 4025SOL    HW223709   1.660   3.549  14.398  2.0542 -1.4749 -0.3929
 4026SOL     OW23710   0.144   2.751  14.921  0.5062  0.3789  0.0913
 4026SOL    HW123711   0.191   2.689  14.865 -1.8181 -0.3841 -1.0430
 4026SOL    HW223712   0.181   2.734  15.008  0.0562  0.5554  0.3223
 4027SOL     OW23713   1.747   2.628  16.926  0.0124 -0.0464  0.6563
 4027SOL    HW123714   1.829   2.581  16.910  0.4609  0.3513  1.8081
 4027SOL    HW223715   1.755   2.689  16.853 -1.1962 -0.9470 -0.2261
 4028SOL     OW23716   3.908   4.500   6.429  0.3001  0.5021  0.0360
 4028SOL    HW123717   3.915   4.491   6.334  0.3913 -2.4229  0.3265
 4028SOL    HW223718   3.909   4.408   6.456 -2.2811  0.6203  0.5539
 4029SOL     OW23719   3.152   0.834   3.765  0.3728 -0.0126  0.1207
 4029SOL    HW123720   3.143   0.742   3.738  1.1318  0.7193 -2.5711
 4029SOL    HW223721   3.179   0.824   3.857 -1.5384  0.3857  0.7403
 4030SOL     OW23722   2.441   4.250   8.972 -0.0991 -0.4023  0.8322
 4030SOL    HW123723   2.363   4.196   8.968 -0.0145 -0.2857 -2.2484
 4030SOL    HW223724   2.496   4.196   9.029  0.3210  0.2352  1.0338
 4031SOL     OW23725   3.792   3.277   7.339  0.1224  0.0402 -0.4052
 4031SOL    HW123726   3.747   3.274   7.255  1.5556  0.1646 -1.1782
 4031SOL    HW223727   3.880   3.250   7.310  0.0718 -1.7742  1.1672
 4032SOL     OW23728   1.150   0.809   5.673 -0.7423  0.8257 -0.6141
 4032SOL    HW123729   1.233   0.834   5.633 -0.3542 -1.1825 -1.0530
 4032SOL    HW223730   1.089   0.834   5.603 -1.8508 -0.6115 -0.1576
 4033SOL     OW23731   0.194   2.494  16.723 -0.5897 -0.3635  0.0839
 4033SOL    HW123732   0.211   2.588  16.722 -0.9672 -0.2785  1.0944
 4033SOL    HW223733   0.155   2.479  16.637 -2.0736 -2.2380  1.0693
 4034SOL     OW23734   2.560   2.432   4.301 -0.9053  0.0559 -0.3252
 4034SOL    HW123735   2.620   2.365   4.333 -1.6796 -0.8929 -0.8567
 4034SOL    HW223736   2.483   2.376   4.292 -2.2168  1.9493 -1.0276
 4035SOL     OW23737   3.168   2.962   4.683  0.6945 -0.0227 -0.4035
 4035SOL    HW123738   3.154   2.871   4.709  0.6093 -0.1520 -0.8939
 4035SOL    HW223739   3.209   2.962   4.596  0.4432  0.3224 -0.5232
 4036SOL     OW23740   0.478   0.524   7.893  0.1890 -0.8043  0.1457
 4036SOL    HW123741   0.516   0.500   7.808 -0.6267 -1.0772 -0.1456
 4036SOL    HW223742   0.393   0.566   7.878  1.3262  2.4294  2.5622
 4037SOL     OW23743   3.549   3.886   7.481  0.2113 -0.0580 -0.4992
 4037SOL    HW123744   3.513   3.882   7.570 -0.8593  0.5224 -0.9075
 4037SOL    HW223745   3.521   3.802   7.445 -4.9896  1.6482 -0.4450
 4038SOL     OW23746   4.680   1.301  11.775 -0.9216  0.0293 -0.7399
 4038SOL    HW123747   4.611   1.325  11.836  1.2054  3.9859  0.1396
 4038SOL    HW223748   4.728   1.383  11.762 -0.8229  0.2236  0.8361
 4039SOL     OW23749   0.525   3.872   5.657 -0.5774 -0.0877 -0.2665
 4039SOL    HW123750   0.433   3.861   5.631 -0.0647 -1.5212 -1.5340
 4039SOL    HW223751   0.562   3.813   5.591 -0.3690  0.1362 -0.3480
 4040SOL     OW23752   3.478   1.166   9.584  0.4659 -0.4332  0.5862
 4040SOL    HW123753   3.405   1.215   9.621 -0.7788 -2.1622  0.4310
 4040SOL    HW223754   3.459   1.145   9.492  0.0826  1.5680  0.2203
 4041SOL     OW23755   3.806   0.367  16.276 -0.2356  0.4431  0.0493
 4041SOL    HW123756   3.803   0.322  16.361 -0.9554  0.4009  0.0065
 4041SOL    HW223757   3.882   0.425  16.282  0.9707 -1.0822 -0.6017
 4042SOL     OW23758   1.528   0.110   3.454  0.8970  0.4480  0.0167
 4042SOL    HW123759   1.588   0.151   3.393  3.1770  1.1379  2.7057
 4042SOL    HW223760   1.442   0.141   3.424  0.6205  2.1972  2.5614
 4043SOL     OW23761   2.660   2.670   3.807  0.1068  0.3788  0.1554
 4043SOL    HW123762   2.727   2.730   3.839 -0.8470  0.8875  1.2024
 4043SOL    HW223763   2.638   2.626   3.889 -2.2624  1.8660  0.3350
 4044SOL     OW23764   3.392   0.761   3.535  0.1245 -0.1007  0.3410
 4044SOL    HW123765   3.362   0.835   3.481 -0.5864  0.0175  0.9063
 4044SOL    HW223766   3.305   0.731   3.559 -0.3503  0.3330 -0.7986
 4045SOL     OW23767   2.030   0.793   7.713  0.2607  0.2222 -0.1889
 4045SOL    HW123768   2.052   0.743   7.635  1.1615  0.3817 -0.0287
 4045SOL    HW223769   2.113   0.811   7.757 -0.3834  2.1526  0.2338
 4046SOL     OW23770   2.143   2.963  10.665 -0.1511  0.2224 -0.0513
 4046SOL    HW123771   2.110   2.877  10.694  2.1608 -0.8160 -0.4970
 4046SOL    HW223772   2.170   2.987  10.754  1.5416 -0.7321 -0.3063
 4047SOL     OW23773   3.738   3.659  16.630  0.5537  0.0181 -0.1199
 4047SOL    HW123774   3.814   3.618  16.672  0.1634  2.2487  2.7622
 4047SOL    HW223775   3.782   3.723  16.575 -0.8348  0.8965 -0.2199
 4048SOL     OW23776   2.167   4.531   2.170  0.2698 -0.0254  0.2695
 4048SOL    HW123777   2.080   4.549   2.207  0.5556  1.4838  0.2011
 4048SOL    HW223778   2.195   4.618   2.142 -1.1042  0.2990 -0.1434
 4049SOL     OW23779   3.070   4.257   5.492 -0.1914 -0.6292 -0.5717
 4049SOL    HW123780   3.149   4.297   5.455 -0.2210  0.5314  0.6263
 4049SOL    HW223781   3.099   4.208   5.569  1.3332 -1.1242 -1.4686
 4050SOL     OW23782   1.542   0.932   3.054  0.0727  0.2442 -0.1049
 4050SOL    HW123783   1.592   0.894   2.982  1.3678 -1.2206  1.5417
 4050SOL    HW223784   1.617   0.981   3.088  0.2796 -0.1300 -0.0251
 4051SOL     OW23785   2.834   0.622   4.906 -0.1386 -0.0876  0.0701
 4051SOL    HW123786   2.835   0.527   4.904  1.2454 -0.0778  0.1531
 4051SOL    HW223787   2.802   0.641   4.994  1.9035 -2.0628  1.2297
 4052SOL     OW23788   3.618   2.602   4.299  0.1656  0.3378 -0.4588
 4052SOL    HW123789   3.542   2.549   4.274 -0.1537  0.9433 -0.7961
 4052SOL    HW223790   3.665   2.542   4.356 -0.6999 -0.1673 -0.2713
 4053SOL     OW23791   0.277   1.768   2.324 -0.4420  0.0153 -0.0339
 4053SOL    HW123792   0.340   1.757   2.253  0.6074  0.1615  0.8688
 4053SOL    HW223793   0.324   1.838   2.370 -1.2395  0.1578  0.5594
 4054SOL     OW23794   2.708   2.327   1.458  0.4092  0.1800 -0.2709
 4054SOL    HW123795   2.700   2.396   1.392 -0.8625 -0.0217 -0.3242
 4054SOL    HW223796   2.616   2.300   1.458  0.3056  0.5179  1.4286
 4055SOL     OW23797   3.799   1.693  14.911  0.3875  0.0300  0.0949
 4055SOL    HW123798   3.800   1.603  14.942 -1.4810 -0.7202 -1.9795
 4055SOL    HW223799   3.894   1.689  14.904  0.2558 -0.0233 -1.5619
 4056SOL     OW23800   1.864   3.849   7.999  0.6092  0.2658 -0.1184
 4056SOL    HW123801   1.892   3.761   7.972  2.2423  0.8926 -0.4522
 4056SOL    HW223802   1.795   3.872   7.936  2.4665  0.1309 -2.1962
 4057SOL     OW23803   4.309   1.359   0.957 -0.2689  0.2918  0.0447
 4057SOL    HW123804   4.313   1.277   1.007 -1.0179  0.5543  0.5472
 4057SOL    HW223805   4.292   1.420   1.029  0.5161 -1.2265  1.5345
 4058SOL     OW23806   3.631   0.552   7.204  0.0396 -0.0778 -0.1264
 4058SOL    HW123807   3.554   0.511   7.244 -0.7323  1.1338 -0.3675
 4058SOL    HW223808   3.636   0.632   7.255  0.9317  0.3315 -0.8639
 4059SOL     OW23809   1.284   1.681   3.714  0.6627 -0.2448 -0.0601
 4059SOL    HW123810   1.291   1.599   3.663 -1.5254 -0.4156 -0.1043
 4059SOL    HW223811   1.271   1.745   3.644  0.7962 -1.0177 -0.7929
 4060SOL     OW23812   3.536   4.632   7.560  0.2679 -0.6608 -0.0172
 4060SOL    HW123813   3.520   4.540   7.579 -1.4405 -0.6977 -1.6771
 4060SOL    HW223814   3.625   4.627   7.525  0.2435  1.2775 -0.3851
 4061SOL     OW23815   4.157   3.660   3.371  0.2237  0.0988  0.1375
 4061SOL    HW123816   4.106   3.640   3.292  2.6086 -0.4170 -1.2774
 4061SOL    HW223817   4.157   3.755   3.367 -0.0075  0.1833  2.0110
 4062SOL     OW23818   3.433   2.140   3.947 -0.2821  0.2573  0.1548
 4062SOL    HW123819   3.406   2.227   3.915  2.0092  0.5168 -1.1094
 4062SOL    HW223820   3.433   2.090   3.865  2.1560  1.3068 -0.5044
 4063SOL     OW23821   1.390   1.024  13.727  0.3835  0.4106 -0.1306
 4063SOL    HW123822   1.307   1.047  13.771 -0.6627 -0.4321 -1.6844
 4063SOL    HW223823   1.380   1.084  13.654 -0.1980 -1.8842 -1.9297
 4064SOL     OW23824   4.667   0.754   8.353 -0.3320  0.3078 -1.2230
 4064SOL    HW123825   0.015   0.797   8.370 -0.0577 -1.6686  2.3759
 4064SOL    HW223826   4.700   0.664   8.346 -0.3802  0.2799 -1.0870
 4065SOL     OW23827   3.322   0.149  11.939  0.3582  0.0715 -0.5765
 4065SOL    HW123828   3.364   0.130  12.023 -2.4246  1.4412  1.1323
 4065SOL    HW223829   3.396   0.175  11.885  0.7204  0.0605 -0.0817
 4066SOL     OW23830   0.858   2.035   8.685  0.6380 -0.3058 -0.4593
 4066SOL    HW123831   0.902   2.108   8.642 -0.2068  0.1726 -0.5107
 4066SOL    HW223832   0.933   1.978   8.704  1.0539  0.6725  0.8716
 4067SOL     OW23833   1.957   3.005   8.473  0.3276  0.4221  0.3365
 4067SOL    HW123834   2.035   2.963   8.435 -0.4652 -0.7823  0.0474
 4067SOL    HW223835   1.999   3.052   8.545  0.2023 -1.5469  1.6902
 4068SOL     OW23836   1.587   0.779   6.583 -0.1476  0.2217  0.3808
 4068SOL    HW123837   1.664   0.834   6.570  1.1490 -1.6254  0.2495
 4068SOL    HW223838   1.621   0.690   6.588 -1.4464 -0.2681  0.5208
 4069SOL     OW23839   4.655   0.073  17.656  0.0615  0.4670  0.0075
 4069SOL    HW123840   4.565   0.104  17.651  0.1892  0.8277 -0.0028
 4069SOL    HW223841   4.699   0.117  17.584  0.2231 -0.2578 -0.3349
 4070SOL     OW23842   3.564   1.080   7.989 -0.4023  0.3480 -0.3714
 4070SOL    HW123843   3.577   1.037   8.074  0.6978 -0.0770 -0.7562
 4070SOL    HW223844   3.511   1.156   8.014 -0.3068  0.1685  0.3757
 4071SOL     OW23845   4.307   4.295   4.255  0.2073 -0.5886 -0.4965
 4071SOL    HW123846   4.326   4.262   4.343  0.4526 -1.4349 -0.8782
 4071SOL    HW223847   4.231   4.244   4.226  0.9299 -0.3755 -2.7483
 4072SOL     OW23848   3.175   0.377  13.988  0.1874 -0.2834 -0.2050
 4072SOL    HW123849   3.258   0.422  13.974  0.3852 -0.5396  0.1406
 4072SOL    HW223850   3.129   0.394  13.906  0.1523 -0.5893 -0.2480
 4073SOL     OW23851   0.243   1.930   5.138  0.4638  0.1007  0.3438
 4073SOL    HW123852   0.296   1.901   5.212 -0.3852  0.4073  1.0791
 4073SOL    HW223853   0.214   2.014   5.174 -1.7776  0.8261 -3.1475
 4074SOL     OW23854   2.460   0.015  12.459  0.4255 -0.4216  0.2554
 4074SOL    HW123855   2.459   0.012  12.555 -0.8093  1.5428  0.3100
 4074SOL    HW223856   2.523   0.086  12.442 -0.5774 -0.4143 -3.2636
 4075SOL     OW23857   0.911   2.378   0.170 -0.6782  0.2763  0.1234
 4075SOL    HW123858   0.955   2.307   0.218 -0.8204 -0.8449 -1.4018
 4075SOL    HW223859   0.826   2.336   0.153 -0.3515 -0.2124 -0.3160
 4076SOL     OW23860   4.357   2.816   4.866 -0.0507 -0.1440 -0.5148
 4076SOL    HW123861   4.285   2.803   4.804 -1.3518 -0.0524  0.9925
 4076SOL    HW223862   4.335   2.898   4.910  0.3499 -0.7152  0.7487
 4077SOL     OW23863   1.852   4.540   7.633  0.2670  0.2665  0.4056
 4077SOL    HW123864   1.847   4.576   7.722 -1.3818 -0.0452  0.4253
 4077SOL    HW223865   1.817   4.454   7.654 -0.0381 -0.2521 -2.2037
 4078SOL     OW23866   1.508   4.297  17.416  0.1233  0.3731  0.5184
 4078SOL    HW123867   1.478   4.388  17.417  0.2914  0.4616 -2.2413
 4078SOL    HW223868   1.446   4.252  17.358  2.1611 -0.4547 -1.0117
 4079SOL     OW23869   1.554   1.475   5.063 -0.1662  0.5312  0.6480
 4079SOL    HW123870   1.468   1.435   5.080 -1.0889  1.0942 -2.8955
 4079SOL    HW223871   1.597   1.404   5.016 -2.0258  0.7321 -1.3657
 4080SOL     OW23872   4.352   1.702   2.258 -0.2989 -0.3166  0.8481
 4080SOL    HW123873   4.439   1.712   2.219 -0.1313  0.3301  1.3780
 4080SOL    HW223874   4.378   1.654   2.337  4.1693  0.3537 -0.2088
 4081SOL     OW23875   0.858   4.239   4.322  0.4342  0.6156  0.8195
 4081SOL    HW123876   0.855   4.309   4.388  2.1780  2.9136 -1.5616
 4081SOL    HW223877   0.810   4.288   4.255  0.7538  2.6120  2.0513
 4082SOL     OW23878   0.054   2.488   8.118  0.8491  0.2323 -0.5877
 4082SOL    HW123879   0.100   2.566   8.088  0.0434  0.2310 -1.8439
 4082SOL    HW223880   0.003   2.462   8.041  0.3877 -0.0199 -0.1987
 4083SOL     OW23881   4.674   3.468  16.822  0.5646  0.0299 -0.2851
 4083SOL    HW123882   4.666   3.558  16.852 -1.4723  0.1872 -1.3613
 4083SOL    HW223883   4.693   3.479  16.729  0.5610 -1.0664 -0.4249
 4084SOL     OW23884   3.074   1.525   3.389  0.1026 -0.3973 -0.0975
 4084SOL    HW123885   3.076   1.615   3.420 -0.0698 -1.3208  2.6255
 4084SOL    HW223886   3.070   1.533   3.294  1.2700 -1.7956 -0.2696
 4085SOL     OW23887   3.367   0.445   7.688  0.2080 -0.0884 -0.4384
 4085SOL    HW123888   3.318   0.365   7.671  2.6678 -1.6383 -0.1819
 4085SOL    HW223889   3.445   0.424   7.637  1.0810  2.2139 -0.0529
 4086SOL     OW23890   2.065   0.270   2.336 -0.0589  0.1165  0.9773
 4086SOL    HW123891   2.149   0.265   2.380  0.6331 -0.3866 -0.4048
 4086SOL    HW223892   2.021   0.319   2.406 -1.6940  0.8129 -0.5409
 4087SOL     OW23893   2.382   3.659  14.935 -0.7735 -0.1435 -0.6471
 4087SOL    HW123894   2.450   3.706  14.983 -1.1951  0.0047 -0.1855
 4087SOL    HW223895   2.389   3.572  14.974 -1.3619 -0.2683 -0.8122
 4088SOL     OW23896   2.976   3.401  17.725  0.1071  0.2596 -0.1605
 4088SOL    HW123897   2.912   3.333  17.704 -2.4540  2.0642  1.8506
 4088SOL    HW223898   3.019   3.395  17.639  0.7742  2.4773  0.0179
 4089SOL     OW23899   2.580   0.237   5.569  0.7249  0.0818 -0.3348
 4089SOL    HW123900   2.598   0.148   5.600  0.8707  0.4833  0.7010
 4089SOL    HW223901   2.540   0.279   5.645  0.3209 -2.0296  0.6159
 4090SOL     OW23902   0.883   0.714   2.689  0.4011 -0.4085  0.2110
 4090SOL    HW123903   0.854   0.641   2.634  2.2516 -1.0193  0.0278
 4090SOL    HW223904   0.897   0.670   2.772  0.3872 -0.5518  0.1375
 4091SOL     OW23905   0.363   3.717   7.807  0.5361  0.2885 -0.5987
 4091SOL    HW123906   0.359   3.625   7.833 -4.1584  0.7643  0.4718
 4091SOL    HW223907   0.355   3.763   7.890 -1.0756 -0.0835 -0.5446
 4092SOL     OW23908   3.953   3.059   1.478 -0.4012 -0.5246  0.0842
 4092SOL    HW123909   3.894   2.984   1.467 -0.4958 -0.4319 -0.0405
 4092SOL    HW223910   3.922   3.097   1.561 -1.4143 -0.0479 -0.5038
 4093SOL     OW23911   1.489   4.108  14.569 -0.3205  0.0344 -0.2112
 4093SOL    HW123912   1.529   4.195  14.568  2.0859 -1.0702  1.2770
 4093SOL    HW223913   1.398   4.138  14.568  0.2831  1.8019 -0.8557
 4094SOL     OW23914   0.837   3.515   8.651 -0.1423 -0.4815  0.0953
 4094SOL    HW123915   0.932   3.509   8.660 -0.0891  0.1778 -0.0004
 4094SOL    HW223916   0.812   3.424   8.636  1.8191 -0.7732 -1.2786
 4095SOL     OW23917   0.956   3.011   1.429 -0.4782  0.4121  0.1653
 4095SOL    HW123918   0.980   3.078   1.492  1.8463  0.6587 -0.9952
 4095SOL    HW223919   0.972   3.061   1.349 -0.9279 -1.5174 -1.1317
 4096SOL     OW23920   1.475   0.577   1.005 -0.4138 -0.4516 -0.0278
 4096SOL    HW123921   1.489   0.491   0.967  0.6383 -0.3514  0.1431
 4096SOL    HW223922   1.422   0.624   0.941 -2.8534 -0.6183  1.8331
 4097SOL     OW23923   2.693   3.295   1.581 -0.2011 -0.1917 -0.2322
 4097SOL    HW123924   2.650   3.377   1.557 -0.5129 -0.0295  0.8952
 4097SOL    HW223925   2.785   3.318   1.565 -1.4928  3.9598 -1.7334
 4098SOL     OW23926   4.173   3.596   5.267 -0.2632  0.2518 -0.3888
 4098SOL    HW123927   4.207   3.680   5.298  0.0237 -0.0994  0.2276
 4098SOL    HW223928   4.090   3.586   5.312  0.9574 -1.5179  1.4333
 4099SOL     OW23929   2.416   0.809   6.452 -0.1489 -0.3143  0.0270
 4099SOL    HW123930   2.331   0.850   6.471  0.3660 -0.1477  1.9029
 4099SOL    HW223931   2.437   0.862   6.375  0.8115 -0.3130  0.2972
 4100SOL     OW23932   4.645   3.408  15.728 -0.2550  0.5049  0.0840
 4100SOL    HW123933   4.599   3.363  15.798  2.8275  0.2727  1.9982
 4100SOL    HW223934   4.681   3.330  15.686  0.8658 -0.0683  2.1006
 4101SOL     OW23935   2.445   2.823   5.935 -0.1173 -0.0048  0.3171
 4101SOL    HW123936   2.535   2.816   5.903 -0.7289  0.4568 -1.5255
 4101SOL    HW223937   2.459   2.849   6.025  3.4032 -1.1450  0.0950
 4102SOL     OW23938   2.529   1.673   8.391 -0.5303 -0.0321 -0.6652
 4102SOL    HW123939   2.507   1.766   8.391 -3.7631 -0.7804  2.0233
 4102SOL    HW223940   2.444   1.636   8.368 -0.9023 -1.3167  2.6562
 4103SOL     OW23941   3.900   2.358   8.138 -1.0539  0.1604  0.3319
 4103SOL    HW123942   3.899   2.295   8.066 -2.0604 -0.5849  0.9965
 4103SOL    HW223943   3.900   2.440   8.088  1.7786 -0.0573 -0.0294
 4104SOL     OW23944   4.566   4.387   4.145  0.2886  0.1426 -0.2591
 4104SOL    HW123945   4.486   4.342   4.171  0.1197 -0.4699 -1.8155
 4104SOL    HW223946   4.576   4.462   4.204 -0.3430 -0.7656  0.9996
 4105SOL     OW23947   1.262   4.512   2.946 -0.0867 -0.5097 -0.3686
 4105SOL    HW123948   1.219   4.494   2.862 -3.0459  2.4534  0.5068
 4105SOL    HW223949   1.289   4.430   2.986  1.2197  0.6749  1.1578
 4106SOL     OW23950   4.102   1.141   8.473 -0.2886 -0.1439 -0.5837
 4106SOL    HW123951   4.071   1.060   8.433 -0.9643  0.9890 -2.3383
 4106SOL    HW223952   4.042   1.210   8.447  0.5240  0.4989 -0.7321
 4107SOL     OW23953   2.720   1.235  12.633  0.1408  0.5785 -0.2388
 4107SOL    HW123954   2.802   1.271  12.600 -0.1998  0.8038 -0.8634
 4107SOL    HW223955   2.726   1.247  12.728 -1.0232  0.7840 -0.1849
 4108SOL     OW23956   3.966   1.914  13.528  0.2149 -0.2929 -0.5923
 4108SOL    HW123957   4.036   1.960  13.482 -1.4874  3.0844  0.1713
 4108SOL    HW223958   3.899   1.983  13.528 -0.1875 -0.7038  1.6372
 4109SOL     OW23959   2.910   1.064  15.637  0.2513  0.4524 -0.3414
 4109SOL    HW123960   2.877   1.129  15.698 -0.6769  1.0822 -1.5066
 4109SOL    HW223961   2.824   1.023  15.626  1.7295 -2.1253 -2.2210
 4110SOL     OW23962   3.682   0.746   9.113 -0.0621  0.3940 -0.0500
 4110SOL    HW123963   3.757   0.697   9.146 -0.4279 -0.7584 -0.8853
 4110SOL    HW223964   3.650   0.682   9.048 -0.6993 -0.2433  0.8888
 4111SOL     OW23965   4.217   1.301   8.053  0.6594  0.0554 -0.6159
 4111SOL    HW123966   4.153   1.236   8.026  0.7347  0.6559 -2.2834
 4111SOL    HW223967   4.181   1.389   8.039  1.6881  0.5625 -0.1702
 4112SOL     OW23968   4.592   4.018   9.153 -0.4126  0.3289  0.1306
 4112SOL    HW123969   4.520   3.970   9.112 -0.7558 -1.0080  2.2930
 4112SOL    HW223970   4.652   3.996   9.082 -1.6403  1.5825 -1.2837
 4113SOL     OW23971   0.841   4.626  17.071 -0.4438  0.1014 -0.3043
 4113SOL    HW123972   0.769   4.567  17.094  1.7011 -2.1171  0.7713
 4113SOL    HW223973   0.807   4.713  17.093 -0.6203  0.1449 -0.7406
 4114SOL     OW23974   3.884   2.812   8.788 -0.3040 -0.3503  0.1055
 4114SOL    HW123975   3.809   2.789   8.843  0.2442 -3.2873 -0.3718
 4114SOL    HW223976   3.823   2.852   8.726  1.1646  0.9291 -0.4816
 4115SOL     OW23977   1.327   2.002   4.480 -0.3285 -0.6640 -0.4942
 4115SOL    HW123978   1.275   2.063   4.532 -0.6811 -0.3492 -1.2248
 4115SOL    HW223979   1.400   2.012   4.542 -0.0010 -1.3884 -0.7630
 4116SOL     OW23980   0.343   2.033   3.907  0.7001  0.6930 -0.2010
 4116SOL    HW123981   0.367   2.088   3.982 -1.3146  1.6418 -0.2444
 4116SOL    HW223982   0.288   1.967   3.949 -1.0391  2.3264  0.1294
 4117SOL     OW23983   4.372   3.541   6.286  0.2562  0.0753  0.2598
 4117SOL    HW123984   4.323   3.516   6.208 -0.7404 -0.2685  1.0026
 4117SOL    HW223985   4.461   3.536   6.253  1.1626 -1.4073  2.8993
 4118SOL     OW23986   1.888   1.215   6.150 -0.0730 -0.4647 -0.2328
 4118SOL    HW123987   1.965   1.267   6.176 -0.7931 -0.5215  1.9943
 4118SOL    HW223988   1.863   1.262   6.070 -1.0817 -2.1997 -0.9188
 4119SOL     OW23989   3.617   0.087   3.756 -0.5504 -0.2455  0.7664
 4119SOL    HW123990   3.593   0.060   3.844 -0.4800 -2.8661 -0.0223
 4119SOL    HW223991   3.656   0.004   3.727 -2.3816 -1.1230  0.8494
 4120SOL     OW23992   2.667   3.205  10.674  0.2350 -0.3405  0.1283
 4120SOL    HW123993   2.715   3.122  10.678 -1.4681 -1.2321  1.8806
 4120SOL    HW223994   2.628   3.187  10.588 -2.2972  1.3095  0.9382
 4121SOL     OW23995   4.254   1.978   0.117 -0.8923  0.6221 -0.1183
 4121SOL    HW123996   4.332   1.923   0.107 -3.4254 -2.9529 -0.0760
 4121SOL    HW223997   4.281   2.055   0.066 -2.1915 -1.3658 -3.8500
 4122SOL     OW23998   4.376   0.787   8.354  0.0675  0.2687  0.4256
 4122SOL    HW123999   4.468   0.769   8.337  0.5611  1.1397  2.3045
 4122SOL    HW224000   4.338   0.804   8.268  2.2956 -1.9823 -1.0237
 4123SOL     OW24001   0.666   3.486   7.644  0.2908  0.4009 -0.6363
 4123SOL    HW124002   0.737   3.442   7.597  1.9741  1.9656  0.4295
 4123SOL    HW224003   0.654   3.422   7.714 -1.8706  0.8123 -0.6371
 4124SOL     OW24004   3.858   3.873   4.572 -0.4085  0.4607  0.2739
 4124SOL    HW124005   3.798   3.882   4.499  1.8079  1.8920 -1.3784
 4124SOL    HW224006   3.830   3.958   4.606 -1.4207  0.9986 -1.9069
 4125SOL     OW24007   0.585   2.858   8.188 -0.0590 -0.2518 -0.0401
 4125SOL    HW124008   0.651   2.819   8.131 -1.2381 -2.1148 -0.1194
 4125SOL    HW224009   0.641   2.875   8.264 -1.0914 -2.0409  1.1111
 4126SOL     OW24010   0.865   2.619   9.232  0.4490 -0.6229 -0.1141
 4126SOL    HW124011   0.848   2.525   9.223 -1.0492 -0.3141 -0.3873
 4126SOL    HW224012   0.922   2.629   9.156  2.5547  1.3750  1.7161
 4127SOL     OW24013   0.257   3.685   6.357  0.6016 -0.0340  0.6550
 4127SOL    HW124014   0.329   3.633   6.321  1.2624  0.7812  0.8162
 4127SOL    HW224015   0.199   3.617   6.391 -0.9592  0.0655 -1.7924
 4128SOL     OW24016   3.099   0.282   0.986 -0.0341 -0.0722  0.2291
 4128SOL    HW124017   3.071   0.325   0.905  1.3061  1.2335  0.4588
 4128SOL    HW224018   3.035   0.211   0.995  1.2301 -1.0974  1.1208
 4129SOL     OW24019   0.239   3.147   2.421 -0.7328  0.2578  0.1964
 4129SOL    HW124020   0.249   3.227   2.471  1.1061  0.1284  0.0745
 4129SOL    HW224021   0.183   3.093   2.477  1.7630 -1.2058  1.2995
 4130SOL     OW24022   3.114   2.005  16.930 -0.4226  0.2051 -0.8711
 4130SOL    HW124023   3.050   1.960  16.985  1.5664 -1.4873  0.0662
 4130SOL    HW224024   3.182   1.938  16.919  0.0853  0.5566  0.1511
 4131SOL     OW24025   1.154   2.577   4.456  0.7356 -0.2230  0.0455
 4131SOL    HW124026   1.150   2.567   4.551 -0.1636 -2.5828 -0.2464
 4131SOL    HW224027   1.239   2.534   4.443  1.9376  1.2427  2.9592
 4132SOL     OW24028   3.428   4.196   8.816  0.2294  0.1140 -0.5740
 4132SOL    HW124029   3.434   4.216   8.723 -0.4374 -0.8402 -0.8221
 4132SOL    HW224030   3.359   4.255   8.847  1.1726 -0.6057  2.9545
 4133SOL     OW24031   0.743   3.869  16.311  0.1329 -0.3566  0.5606
 4133SOL    HW124032   0.796   3.874  16.232  1.3596  3.5381  1.5989
 4133SOL    HW224033   0.684   3.796  16.294  1.0351 -0.7329 -0.8985
 4134SOL     OW24034   2.919   4.316   3.394 -0.5187 -0.0770  0.3820
 4134SOL    HW124035   2.918   4.408   3.418 -2.0578  0.7900 -2.9511
 4134SOL    HW224036   2.827   4.299   3.413 -0.9811  0.6983 -1.1097
 4135SOL     OW24037   3.105   3.389   3.205 -0.2534 -0.1783  0.4514
 4135SOL    HW124038   3.090   3.308   3.254  0.2902 -1.0383 -0.8009
 4135SOL    HW224039   3.128   3.435   3.286 -0.4248  0.4220  0.1540
 4136SOL     OW24040   1.304   3.570   8.257  0.5892 -0.0296  0.5233
 4136SOL    HW124041   1.306   3.658   8.218  0.1431 -0.2780 -0.0613
 4136SOL    HW224042   1.343   3.572   8.345  2.0157  0.8012 -0.1226
 4137SOL     OW24043   1.922   2.785   5.162 -0.3745  0.4698  0.0230
 4137SOL    HW124044   1.926   2.841   5.084 -1.3038 -1.4076 -1.3739
 4137SOL    HW224045   2.008   2.809   5.198 -0.9110  1.9986  0.2635
 4138SOL     OW24046   0.441   2.126   0.677  0.1026 -0.1599  0.6918
 4138SOL    HW124047   0.533   2.112   0.657 -0.2207 -2.1416  0.5350
 4138SOL    HW224048   0.431   2.091   0.766  0.2485  0.0616  0.7927
 4139SOL     OW24049   1.069   0.751   4.968 -0.2761  0.0706  0.2128
 4139SOL    HW124050   1.133   0.822   4.963  0.1580 -0.5025 -2.6044
 4139SOL    HW224051   0.996   0.782   5.021 -0.9608 -1.2613  0.0419
 4140SOL     OW24052   2.015   0.152  17.707 -0.2603  0.3640 -0.3904
 4140SOL    HW124053   2.041   0.062  17.730  0.0574  1.2753  2.8040
 4140SOL    HW224054   2.074   0.206   0.018 -1.7259  0.6876  0.9296
 4141SOL     OW24055   2.463   1.934   4.091  0.0628 -0.2668 -0.2511
 4141SOL    HW124056   2.467   1.883   4.172 -0.8199  0.0307 -0.0273
 4141SOL    HW224057   2.437   1.860   4.037  1.3683 -0.8539 -0.0788
 4142SOL     OW24058   3.708   4.698   0.692 -0.1958  0.0046 -0.1305
 4142SOL    HW124059   3.705   4.632   0.762  1.8196 -0.2567 -0.2956
 4142SOL    HW224060   3.765   0.028   0.731  1.8550 -0.3619 -2.4744
 4143SOL     OW24061   3.713   3.129  10.773  0.3377  0.5244 -0.1966
 4143SOL    HW124062   3.730   3.219  10.803  0.6264  0.1252  0.8523
 4143SOL    HW224063   3.738   3.130  10.681 -0.2739  3.8219 -0.3482
 4144SOL     OW24064   3.287   3.667   0.796 -0.1785 -0.3840 -0.4049
 4144SOL    HW124065   3.192   3.658   0.805 -0.0746 -2.5893 -1.7184
 4144SOL    HW224066   3.284   3.671   0.701  1.0805 -0.3609 -0.4404
 4145SOL     OW24067   0.322   4.072   4.402  0.3774 -0.1020 -0.3582
 4145SOL    HW124068   0.356   4.161   4.395 -0.0774  0.1626  0.7771
 4145SOL    HW224069   0.227   4.079   4.394  0.2931 -1.7615 -0.8834
 4146SOL     OW24070   2.500   3.208   6.036  0.2585  0.3219 -0.0171
 4146SOL    HW124071   2.543   3.285   6.073 -1.8924  2.5096 -2.1169
 4146SOL    HW224072   2.579   3.169   5.998  0.9932 -0.3027  2.1376
 4147SOL     OW24073   1.241   1.245   1.590  0.1853 -0.0976  0.0572
 4147SOL    HW124074   1.172   1.263   1.527 -0.3446 -1.1974  0.3243
 4147SOL    HW224075   1.323   1.279   1.555 -1.1110  1.5305 -1.3818
 4148SOL     OW24076   2.070   0.460   3.766 -0.3543 -0.0690  0.1123
 4148SOL    HW124077   2.042   0.486   3.678  1.5076  1.2361 -0.0808
 4148SOL    HW224078   2.121   0.535   3.796  0.7096  0.6663 -3.5256
 4149SOL     OW24079   4.440   4.357  11.865 -0.3405  0.1540 -0.0162
 4149SOL    HW124080   4.400   4.271  11.868  0.5585 -0.2013  1.6113
 4149SOL    HW224081   4.476   4.372  11.952  0.1928  1.7490 -0.4974
 4150SOL     OW24082   4.558   2.883   9.141  0.5660  0.0052 -0.1337
 4150SOL    HW124083   4.619   2.878   9.068  0.4279 -1.3089 -0.1617
 4150SOL    HW224084   4.510   2.801   9.129 -0.9937  1.2279 -2.2017
 4151SOL     OW24085   1.005   2.762   6.703 -0.0946 -0.4924 -0.2799
 4151SOL    HW124086   1.053   2.835   6.743 -2.9633  1.3793 -0.2966
 4151SOL    HW224087   0.919   2.769   6.745  0.6317 -0.5820  1.2423
 4152SOL     OW24088   1.628   1.774   4.591  0.1554  0.3368 -0.0396
 4152SOL    HW124089   1.566   1.800   4.659 -1.2977 -2.3114 -0.3720
 4152SOL    HW224090   1.681   1.713   4.643  1.0176  0.4136 -0.8295
 4153SOL     OW24091   2.673   0.744   1.586  0.0818  0.5686  0.1670
 4153SOL    HW124092   2.752   0.701   1.621 -1.0445 -1.2806  0.4279
 4153SOL    HW224093   2.708   0.809   1.526 -2.5654  0.8348 -1.0890
 4154SOL     OW24094   3.881   4.533   8.945  0.3167  0.3484  0.2712
 4154SOL    HW124095   3.904   4.568   8.859  2.2741  0.5762  0.8800
 4154SOL    HW224096   3.926   4.450   8.930  0.6443  0.0690  2.8180
 4155SOL     OW24097   2.363   1.215   2.286  0.7364 -0.0900 -0.0107
 4155SOL    HW124098   2.354   1.139   2.343  1.9360 -1.9471 -2.2854
 4155SOL    HW224099   2.275   1.239   2.258  1.6621  3.0068 -0.2471
 4156SOL     OW24100   3.696   1.398  12.101  0.0637  0.4484  0.1275
 4156SOL    HW124101   3.653   1.481  12.079 -1.2633 -0.4698 -0.6994
 4156SOL    HW224102   3.631   1.334  12.071  0.2260 -0.1450  1.0624
 4157SOL     OW24103   2.397   4.560   6.807  0.0750 -0.0193  0.7155
 4157SOL    HW124104   2.476   4.583   6.759  0.6344  2.4512  2.8110
 4157SOL    HW224105   2.425   4.474   6.840 -2.0998 -0.7999  0.5286
 4158SOL     OW24106   2.776   2.368  16.195 -0.2157 -0.7143  0.3715
 4158SOL    HW124107   2.695   2.372  16.144  0.3584 -0.7581 -0.5455
 4158SOL    HW224108   2.836   2.359  16.122 -1.1883 -1.2881 -0.3552
 4159SOL     OW24109   1.336   1.094  11.277  0.5604 -0.4305 -0.0922
 4159SOL    HW124110   1.331   1.038  11.354  1.2393 -0.1140  0.1759
 4159SOL    HW224111   1.269   1.158  11.300  0.1034 -0.8044 -0.3657
 4160SOL     OW24112   4.413   0.529   3.067  0.0465 -0.0901  0.2861
 4160SOL    HW124113   4.400   0.491   2.980  3.9886 -0.7699 -0.0117
 4160SOL    HW224114   4.415   0.453   3.124 -1.2664  0.5396  1.1774
 4161SOL     OW24115   0.509   0.643  12.954 -0.2030  0.7574  0.3691
 4161SOL    HW124116   0.553   0.566  12.990  1.1266  1.8920  1.1612
 4161SOL    HW224117   0.424   0.646  12.999  1.2620 -0.1090  3.1628
 4162SOL     OW24118   2.830   2.813   8.797 -0.3023 -0.5684 -0.3306
 4162SOL    HW124119   2.895   2.796   8.866  0.1272 -0.7871 -0.7944
 4162SOL    HW224120   2.759   2.834   8.858  0.4591  2.5988 -0.5228
 4163SOL     OW24121   0.268   3.845   0.920  0.5458  0.4636 -0.2907
 4163SOL    HW124122   0.298   3.869   1.007  0.1348 -1.1121  0.2754
 4163SOL    HW224123   0.214   3.771   0.949  0.9412 -0.0677 -0.9147
 4164SOL     OW24124   0.336   4.052   3.397 -0.1063  0.2690  0.3712
 4164SOL    HW124125   0.252   4.090   3.424 -0.1687 -0.9016  1.8520
 4164SOL    HW224126   0.349   4.101   3.316  0.3121 -0.5071 -0.0299
 4165SOL     OW24127   0.778   2.587   2.929  0.2787  0.4451  0.0318
 4165SOL    HW124128   0.713   2.641   2.885  1.5819  1.6804 -0.3786
 4165SOL    HW224129   0.790   2.513   2.869 -0.9272  2.1341 -2.3158
 4166SOL     OW24130   4.331   1.862  12.395  0.3101 -0.0416  0.3796
 4166SOL    HW124131   4.248   1.813  12.393  0.8379 -0.8319 -1.8251
 4166SOL    HW224132   4.369   1.827  12.315 -0.1392  1.7258 -0.5973
 4167SOL     OW24133   1.667   1.229   3.122  0.1648  0.1045 -0.2468
 4167SOL    HW124134   1.646   1.290   3.193  1.8411 -1.3470  1.5069
 4167SOL    HW224135   1.730   1.280   3.072 -0.7834 -0.2407 -1.7980
 4168SOL     OW24136   4.082   1.502   7.894  0.2350 -0.2845 -0.1630
 4168SOL    HW124137   4.121   1.551   7.966  0.6618 -0.4807 -0.2591
 4168SOL    HW224138   4.094   1.561   7.820 -1.9354  0.0507 -0.2552
 4169SOL     OW24139   3.263   3.394  12.994  0.4735  0.0407  0.1360
 4169SOL    HW124140   3.180   3.422  13.032  0.7726 -0.5810  1.2351
 4169SOL    HW224141   3.327   3.405  13.064  0.9894  0.6883 -0.4451
 4170SOL     OW24142   3.533   4.223   6.796  0.2687 -0.4160  0.1595
 4170SOL    HW124143   3.621   4.258   6.810 -0.9417  1.8213  2.1741
 4170SOL    HW224144   3.556   4.135   6.767 -0.5044  0.2895 -2.6147
 4171SOL     OW24145   1.773   0.067   2.616 -0.2713 -0.0739 -0.1691
 4171SOL    HW124146   1.858   0.108   2.603 -0.4817  0.3524 -0.2075
 4171SOL    HW224147   1.795   4.724   2.566 -0.5876 -2.0943  2.8851
 4172SOL     OW24148   0.425   2.861   1.803  0.6681  0.1923  0.3697
 4172SOL    HW124149   0.354   2.846   1.741  1.5208  0.8950 -0.7915
 4172SOL    HW224150   0.420   2.954   1.828  1.2494  0.3313 -0.0308
 4173SOL     OW24151   0.126   3.745   3.630 -0.4897  0.0156  0.6664
 4173SOL    HW124152   0.170   3.663   3.653 -0.3160  0.3772  1.6092
 4173SOL    HW224153   0.050   3.713   3.581  0.1845  1.7977 -1.5827
 4174SOL     OW24154   4.496   4.573  11.359 -0.5691  0.1143 -0.1706
 4174SOL    HW124155   4.574   4.560  11.304  0.5348 -0.2217  1.4649
 4174SOL    HW224156   4.541   4.580  11.443  0.7610 -1.0234 -0.7886
 4175SOL     OW24157   3.039   2.820   5.492  0.2890  0.5895 -0.2328
 4175SOL    HW124158   2.996   2.872   5.424  0.0575 -0.7343 -1.1063
 4175SOL    HW224159   2.970   2.755   5.508 -1.4806  2.4116 -0.3954
 4176SOL     OW24160   2.287   4.634  10.678 -0.1543  0.1317  0.5836
 4176SOL    HW124161   2.280   4.681  10.761  1.1898  2.2654 -0.5297
 4176SOL    HW224162   2.309   4.544  10.699 -3.8830 -0.3826  2.3796
 4177SOL     OW24163   4.671   3.293  17.572 -0.0769  0.1673  0.5958
 4177SOL    HW124164   4.600   3.354  17.592  2.0816  2.6933  0.5807
 4177SOL    HW224165   4.612   3.218  17.573 -0.2457  0.3075  0.9397
 4178SOL     OW24166   3.324   0.734  16.669  0.5235  0.2272 -0.2679
 4178SOL    HW124167   3.401   0.691  16.707 -1.1503 -0.7616  2.0094
 4178SOL    HW224168   3.367   0.789  16.603 -1.3947  2.0789  0.0187
 4179SOL     OW24169   1.722   3.443   5.302 -0.3905  0.3877 -0.5105
 4179SOL    HW124170   1.814   3.426   5.322 -0.3185 -0.7310 -1.7668
 4179SOL    HW224171   1.709   3.410   5.213 -1.0055 -1.0531  0.1242
 4180SOL     OW24172   0.172   3.943   8.918 -0.3442  0.0559  0.4758
 4180SOL    HW124173   0.157   4.037   8.919 -1.0590 -0.0264 -1.6078
 4180SOL    HW224174   0.257   3.933   8.959 -0.4422  1.7964  1.0914
 4181SOL     OW24175   3.504   0.847   8.652  0.0389 -0.4695 -0.2118
 4181SOL    HW124176   3.523   0.873   8.562  0.0342 -0.5603 -0.2383
 4181SOL    HW224177   3.455   0.924   8.681 -0.1033 -0.1400 -1.3232
 4182SOL     OW24178   4.302   0.239   9.120 -0.2696  0.4177 -0.0640
 4182SOL    HW124179   4.221   0.245   9.170 -0.6206  0.7572 -0.6771
 4182SOL    HW224180   4.313   0.144   9.114  0.0715  0.5935 -2.2124
 4183SOL     OW24181   2.318   3.791   7.886 -0.1262  0.0441 -0.7577
 4183SOL    HW124182   2.261   3.752   7.952  1.1614  0.3119  0.5198
 4183SOL    HW224183   2.402   3.775   7.930 -0.4191 -1.9306 -0.9151
 4184SOL     OW24184   2.471   1.384   5.642 -0.0189 -0.1666 -0.2421
 4184SOL    HW124185   2.396   1.325   5.650  0.8082 -0.9892  1.3422
 4184SOL    HW224186   2.527   1.345   5.708  0.7464  1.1842 -0.0879
 4185SOL     OW24187   0.953   0.346   2.861  0.5628  0.2983 -0.4557
 4185SOL    HW124188   1.041   0.382   2.860  0.3234  0.9230  1.1160
 4185SOL    HW224189   0.963   0.255   2.833  1.4972  0.5823 -1.0427
 4186SOL     OW24190   0.261   1.436   8.371  0.3378 -0.3382 -0.3662
 4186SOL    HW124191   0.239   1.515   8.321 -0.1507 -1.6915 -2.3119
 4186SOL    HW224192   0.174   1.400   8.388  0.5898 -1.6661 -1.8720
 4187SOL     OW24193   0.028   1.718   9.560 -0.0205 -0.2650  0.1408
 4187SOL    HW124194   0.043   1.745   9.651  1.9553 -0.5072 -0.1100
 4187SOL    HW224195   0.117   1.686   9.547 -0.6403 -2.5147  1.4550
 4188SOL     OW24196   2.257   4.562   2.587  0.1672  0.0145  0.3619
 4188SOL    HW124197   2.339   4.577   2.633 -1.3825  0.8321  2.8546
 4188SOL    HW224198   2.285   4.556   2.496 -0.9226 -2.7280  0.2205
 4189SOL     OW24199   3.483   0.657   2.901  0.3116  0.0912 -0.2297
 4189SOL    HW124200   3.535   0.714   2.957 -0.3045  1.3338 -0.9221
 4189SOL    HW224201   3.530   0.659   2.818  0.6856 -2.4438 -0.0956
 4190SOL     OW24202   0.317   0.654  13.152  0.0951  0.0059  0.4948
 4190SOL    HW124203   0.337   0.570  13.193 -1.9087 -0.3854  0.6374
 4190SOL    HW224204   0.367   0.712  13.209  0.2495  2.0082 -1.6890
 4191SOL     OW24205   0.984   1.908  13.730 -0.5986 -0.2927 -0.4903
 4191SOL    HW124206   0.981   1.974  13.799 -0.2269 -2.0708  1.2344
 4191SOL    HW224207   0.996   1.824  13.775  3.6588  0.6485  0.1024
 4192SOL     OW24208   1.536   3.779   6.142 -0.3726 -0.1145 -0.2426
 4192SOL    HW124209   1.528   3.866   6.102 -1.6032 -0.1389 -0.0391
 4192SOL    HW224210   1.545   3.807   6.233 -2.7308  1.6291 -0.5532
 4193SOL     OW24211   0.200   3.218   7.755 -0.4697  0.1545  0.2126
 4193SOL    HW124212   0.159   3.247   7.673  0.8544 -1.0577 -0.8705
 4193SOL    HW224213   0.125   3.201   7.811  0.0447 -4.0231 -0.4208
 4194SOL     OW24214   3.775   4.600   3.721  0.1303 -0.5646  0.2241
 4194SOL    HW124215   3.818   4.525   3.680 -3.2703 -1.9413 -0.7910
 4194SOL    HW224216   3.846   4.664   3.706 -0.5942 -0.0576 -1.0307
 4195SOL     OW24217   3.432   0.870   2.532 -0.0256  0.5170  0.5419
 4195SOL    HW124218   3.357   0.816   2.506  1.2125 -1.1984  0.4856
 4195SOL    HW224219   3.501   0.806   2.513 -0.6611 -0.4275  1.3992
 4196SOL     OW24220   2.345   2.585   3.296 -0.2467 -0.4064  0.8675
 4196SOL    HW124221   2.433   2.549   3.282 -0.9766 -2.3471  1.3436
 4196SOL    HW224222   2.353   2.635   3.378 -2.7772  1.7916 -0.2651
 4197SOL     OW24223   4.220   3.783  12.825 -0.1445  0.0638 -0.2749
 4197SOL    HW124224   4.176   3.710  12.868 -1.3981 -0.2857 -2.1170
 4197SOL    HW224225   4.268   3.814  12.902 -1.6843  0.5067  0.5176
 4198SOL     OW24226   1.521   2.995   8.016 -0.8372  0.0187  0.2203
 4198SOL    HW124227   1.470   2.915   8.024  0.6460 -1.0727 -1.1558
 4198SOL    HW224228   1.445   3.053   8.014 -0.6301  0.3291  1.9806
 4199SOL     OW24229   4.458   2.729   5.655  0.1134  0.0280  0.4266
 4199SOL    HW124230   4.424   2.737   5.744 -0.0051 -1.4034  0.5002
 4199SOL    HW224231   4.416   2.649   5.626  1.8702 -1.1045  1.0145
 4200SOL     OW24232   3.393   0.624   6.670 -0.0620 -0.3738 -0.0073
 4200SOL    HW124233   3.380   0.690   6.602  2.8193 -1.7401 -1.8768
 4200SOL    HW224234   3.367   0.539   6.634 -0.9199 -1.0732  2.2757
 4201SOL     OW24235   3.393   3.474   9.079 -0.0763  0.1370 -0.5653
 4201SOL    HW124236   3.326   3.535   9.109 -0.1765 -0.3221  0.1511
 4201SOL    HW224237   3.444   3.461   9.160  0.3832 -0.1922 -0.9078
 4202SOL     OW24238   1.273   1.724  15.112  0.1395 -0.0733 -0.0940
 4202SOL    HW124239   1.225   1.708  15.193  0.5883  2.0465  0.5899
 4202SOL    HW224240   1.250   1.817  15.105 -0.9109 -0.6206 -3.9004
 4203SOL     OW24241   1.591   1.168   5.054  0.5612  0.3725 -0.4170
 4203SOL    HW124242   1.503   1.193   5.083  1.3743 -0.1129  2.4354
 4203SOL    HW224243   1.577   1.172   4.959 -2.8080 -0.1355  0.0574
 4204SOL     OW24244   2.403   4.127   7.287  0.3387  0.1716 -0.4475
 4204SOL    HW124245   2.459   4.197   7.254  0.6294  1.5602  2.9476
 4204SOL    HW224246   2.337   4.172   7.340 -0.2700 -0.1774 -0.9008
 4205SOL     OW24247   2.092   2.697  13.738  0.1001 -0.6707  0.1564
 4205SOL    HW124248   2.027   2.719  13.671 -1.4332 -1.8854  1.2542
 4205SOL    HW224249   2.038   2.659  13.806 -1.9445  1.5831 -0.2032
 4206SOL     OW24250   0.885   2.525   3.205 -0.2693  0.3013 -0.4085
 4206SOL    HW124251   0.851   2.502   3.119  1.3971 -1.3993 -0.6241
 4206SOL    HW224252   0.977   2.501   3.189  0.0067 -0.9644  2.9859
 4207SOL     OW24253   2.435   3.583   2.876  0.2347  0.1102 -0.7821
 4207SOL    HW124254   2.453   3.493   2.905 -0.1298  0.2271 -0.1950
 4207SOL    HW224255   2.350   3.563   2.836 -0.4986  0.4576  0.5892
 4208SOL     OW24256   3.834   2.650   3.326 -0.4226 -0.3638  0.5737
 4208SOL    HW124257   3.820   2.737   3.290 -3.3746 -0.7041  0.9456
 4208SOL    HW224258   3.871   2.601   3.253 -1.3151 -1.7699  1.0737
 4209SOL     OW24259   1.101   4.591   0.345 -0.2652  0.2332 -0.4192
 4209SOL    HW124260   1.171   4.529   0.324  0.6316  0.7360  1.0972
 4209SOL    HW224261   1.044   4.543   0.404 -0.9723 -0.0085 -1.2918
 4210SOL     OW24262   1.791   3.099   5.624 -0.1906 -0.8168  0.1969
 4210SOL    HW124263   1.851   3.075   5.553  0.4973  2.2183 -0.2527
 4210SOL    HW224264   1.780   3.012   5.663 -1.3304 -0.9052 -0.3008
 4211SOL     OW24265   1.317   1.889   8.940 -0.3662 -0.6585 -0.3559
 4211SOL    HW124266   1.400   1.936   8.953  1.5238 -4.1398  0.1825
 4211SOL    HW224267   1.269   1.926   9.014  1.5149 -0.3710  0.7198
 4212SOL     OW24268   2.540   1.734   6.280 -0.2594 -0.0041  0.2315
 4212SOL    HW124269   2.530   1.647   6.320 -1.6990 -0.2555 -0.7008
 4212SOL    HW224270   2.555   1.779   6.363  2.6201 -0.4793 -0.0217
 4213SOL     OW24271   4.205   0.563   5.238 -0.0560  0.6682 -0.2666
 4213SOL    HW124272   4.242   0.652   5.238 -2.1566  1.5334 -1.3252
 4213SOL    HW224273   4.142   0.574   5.310 -0.5165  0.0606 -0.5832
 4214SOL     OW24274   0.049   0.129   2.793  0.5549 -0.3086 -0.0556
 4214SOL    HW124275   4.708   0.107   2.740  0.3518 -2.3162  1.0855
 4214SOL    HW224276   0.017   0.169   2.874  2.3442  1.2092 -0.1049
 4215SOL     OW24277   0.486   2.605   6.726 -0.3044 -1.0240  0.1948
 4215SOL    HW124278   0.411   2.575   6.778 -0.8878  0.3343  0.1222
 4215SOL    HW224279   0.554   2.540   6.742 -2.0541 -3.2516 -1.3479
 4216SOL     OW24280   4.259   0.419   2.132 -0.1003  0.1907  0.3049
 4216SOL    HW124281   4.257   0.486   2.064 -0.5598  1.1662  1.2803
 4216SOL    HW224282   4.271   0.480   2.205  2.3400 -2.5030  2.1773
 4217SOL     OW24283   0.272   3.498   0.712  0.8337  0.1308 -0.2994
 4217SOL    HW124284   0.179   3.518   0.728  0.7021  0.5806 -1.6248
 4217SOL    HW224285   0.255   3.403   0.714 -3.1462  0.8472  1.3161
 4218SOL     OW24286   2.949   1.059   0.535  0.2433  0.3454 -0.3912
 4218SOL    HW124287   2.946   1.141   0.585 -0.7208 -0.3482  0.6726
 4218SOL    HW224288   2.981   0.990   0.592 -2.2235 -0.4475 -0.0069
 4219SOL     OW24289   3.864   0.411   3.743  1.0876  0.4488  0.2502
 4219SOL    HW124290   3.780   0.413   3.698  0.4709 -2.1480  1.3087
 4219SOL    HW224291   3.889   0.503   3.740  2.0271  0.1664 -0.4279
 4220SOL     OW24292   1.815   3.629   1.325 -0.0656  0.3298 -0.2754
 4220SOL    HW124293   1.909   3.619   1.308 -0.2156 -2.9359  0.7341
 4220SOL    HW224294   1.818   3.702   1.387 -3.3917 -0.4632  0.8409
 4221SOL     OW24295   2.179   1.093   8.289 -0.5157 -0.1916 -0.0336
 4221SOL    HW124296   2.167   1.175   8.337  1.9997  0.9261 -1.2851
 4221SOL    HW224297   2.109   1.043   8.330  0.8955 -1.6766  0.5488
 4222SOL     OW24298   2.988   0.109   3.861  0.5474  0.1100  0.3976
 4222SOL    HW124299   2.909   0.140   3.905  0.4113  0.4826 -0.1128
 4222SOL    HW224300   2.993   0.183   3.801  1.6444 -0.7087 -0.5184
 4223SOL     OW24301   3.255   1.626   1.710 -0.4527 -0.2402 -0.4450
 4223SOL    HW124302   3.277   1.698   1.652  1.5618  0.8915  1.6941
 4223SOL    HW224303   3.201   1.670   1.775  0.8836 -1.2259  1.3544
 4224SOL     OW24304   2.215   2.936   8.432 -0.0800 -0.1001  0.4111
 4224SOL    HW124305   2.266   2.907   8.509  0.6252 -1.0516 -0.4043
 4224SOL    HW224306   2.256   3.020   8.414  0.7929 -0.6022  0.0404
 4225SOL     OW24307   2.691   2.344   7.246 -0.1585  0.2270 -0.1333
 4225SOL    HW124308   2.739   2.262   7.230 -0.1296  0.2022  0.0813
 4225SOL    HW224309   2.606   2.313   7.217  0.7133 -0.3379 -2.1045
 4226SOL     OW24310   0.908   2.205  14.425 -0.2409 -0.0879  0.8801
 4226SOL    HW124311   0.890   2.116  14.455  1.0568 -0.6191  0.0507
 4226SOL    HW224312   0.985   2.193  14.369 -0.9880  1.4699 -0.4864
 4227SOL     OW24313   2.089   3.698   3.693 -0.6958 -0.2404 -0.0419
 4227SOL    HW124314   1.996   3.712   3.708 -0.8296  1.1761 -2.0825
 4227SOL    HW224315   2.107   3.639   3.766 -1.3287  0.2550  0.5037
 4228SOL     OW24316   3.289   2.373   7.765 -0.5496 -0.3626 -0.2025
 4228SOL    HW124317   3.288   2.447   7.826  0.3120  0.9408 -1.7464
 4228SOL    HW224318   3.218   2.323   7.805 -1.1508 -0.0346 -0.8587
 4229SOL     OW24319   2.383   0.114   6.220  0.3089 -0.7270  0.3586
 4229SOL    HW124320   2.477   0.127   6.230  0.0817  1.0416  0.2884
 4229SOL    HW224321   2.341   0.200   6.224  0.3285 -0.6022 -2.3755
 4230SOL     OW24322   2.634   0.354   7.076  0.0522  0.3623  0.1357
 4230SOL    HW124323   2.585   0.431   7.104 -0.3866 -0.1564  0.7890
 4230SOL    HW224324   2.592   0.329   6.993 -1.0827 -0.4745  0.9504
 4231SOL     OW24325   3.367   4.205  13.775  0.4179 -0.5035  0.3018
 4231SOL    HW124326   3.456   4.169  13.773  0.7435  0.4106 -1.7408
 4231SOL    HW224327   3.358   4.202  13.870  0.5915  0.0792  0.3389
 4232SOL     OW24328   4.132   1.034   8.015  0.1477 -0.1266 -0.3208
 4232SOL    HW124329   4.041   1.056   8.035  1.2063  2.5388  1.6377
 4232SOL    HW224330   4.143   1.068   7.926  0.3065 -0.2197 -0.3365
 4233SOL     OW24331   3.415   2.621   6.039 -0.4786  0.1325 -0.3585
 4233SOL    HW124332   3.490   2.668   6.005 -0.4861 -0.9253 -1.8230
 4233SOL    HW224333   3.348   2.676   5.998  0.6146  2.9955  1.6576
 4234SOL     OW24334   0.024   0.919   0.552 -0.1884 -0.0466  0.4159
 4234SOL    HW124335   0.020   0.949   0.643  0.2120  0.8832  0.1189
 4234SOL    HW224336   0.091   0.979   0.520  0.2485  0.3943  2.1352
 4235SOL     OW24337   0.971   3.649   8.348  0.3954 -0.3336  0.1638
 4235SOL    HW124338   0.942   3.642   8.439  1.1615  2.3043  0.6189
 4235SOL    HW224339   0.915   3.586   8.303  1.0068 -0.5946 -0.2264
 4236SOL     OW24340   3.308   4.467  14.189 -0.7121 -0.0175  0.0046
 4236SOL    HW124341   3.251   4.509  14.254 -1.6403  1.4666 -1.7662
 4236SOL    HW224342   3.389   4.482  14.237 -0.3806  0.6850 -0.7738
 4237SOL     OW24343   1.944   0.274  16.465  0.0592  0.2908 -0.0753
 4237SOL    HW124344   1.976   0.307  16.381  0.1316  1.2783  0.3305
 4237SOL    HW224345   2.023   0.248  16.511 -0.1573 -0.5023 -0.1474
 4238SOL     OW24346   2.432   2.347   5.648 -0.3498  0.3964 -0.1137
 4238SOL    HW124347   2.454   2.295   5.725 -2.0724  0.1931  0.2290
 4238SOL    HW224348   2.338   2.356   5.660 -0.1369 -0.0734  1.9606
 4239SOL     OW24349   0.742   0.152   5.878  0.2857  0.1399 -0.0114
 4239SOL    HW124350   0.781   0.188   5.958 -0.5807 -0.2920  0.6015
 4239SOL    HW224351   0.655   0.155   5.919  0.5605 -2.1080  0.7349
 4240SOL     OW24352   3.309   4.243  14.046  0.5215 -0.2732 -0.4495
 4240SOL    HW124353   3.307   4.187  14.123 -1.4112  0.9978  0.4414
 4240SOL    HW224354   3.317   4.325  14.095  2.3102  1.0316 -2.9480
 4241SOL     OW24355   1.057   1.693  10.217  0.4685  0.5374  0.4386
 4241SOL    HW124356   1.099   1.660  10.296 -2.0411 -2.7964  0.3764
 4241SOL    HW224357   1.108   1.661  10.142 -1.6912 -0.1992 -0.7067
 4242SOL     OW24358   1.709   4.015  14.702 -0.4879  0.4881  0.6828
 4242SOL    HW124359   1.689   3.925  14.681  1.4411  0.0616  0.6632
 4242SOL    HW224360   1.631   4.060  14.670  0.0872  0.3790 -0.8730
 4243SOL     OW24361   3.951   0.335   6.771  0.1357 -0.3115 -0.0552
 4243SOL    HW124362   4.032   0.284   6.770  2.0640  2.6981 -0.1110
 4243SOL    HW224363   3.952   0.358   6.864  0.9206  2.1120 -0.6545
 4244SOL     OW24364   0.834   2.488  11.465  0.1412 -0.4678 -0.3918
 4244SOL    HW124365   0.776   2.414  11.450 -1.8657  1.0293 -0.0417
 4244SOL    HW224366   0.828   2.503  11.559 -2.2870 -2.0577 -0.3059
 4245SOL     OW24367   2.335   3.511  11.650  0.0407 -0.1057  0.0605
 4245SOL    HW124368   2.406   3.463  11.608  0.6080  0.0126  0.8716
 4245SOL    HW224369   2.391   3.563  11.708  0.2798  0.7541 -0.9403
 4246SOL     OW24370   0.377   2.233   4.104  0.3604 -0.2206 -0.0396
 4246SOL    HW124371   0.286   2.208   4.117  0.3457 -0.9356 -1.4582
 4246SOL    HW224372   0.367   2.328   4.099  0.3351 -0.3097 -1.6439
 4247SOL     OW24373   4.241   3.540  13.121 -0.1885 -0.4859  0.0856
 4247SOL    HW124374   4.288   3.496  13.050  3.1532  0.5345  1.6519
 4247SOL    HW224375   4.167   3.573  13.070  1.4003  0.5887 -1.4972
 4248SOL     OW24376   3.511   1.452   1.532 -0.7830  0.0656  0.1381
 4248SOL    HW124377   3.533   1.363   1.507 -0.1354  0.3533 -0.3116
 4248SOL    HW224378   3.499   1.493   1.446 -1.6158 -1.2058 -0.3458
 4249SOL     OW24379   4.654   4.619   4.349 -0.0928  0.2583  0.0834
 4249SOL    HW124380   4.663   4.562   4.425 -0.9513 -2.1943 -1.6367
 4249SOL    HW224381   4.682   4.701   4.390 -0.7543 -0.3465  1.7098
 4250SOL     OW24382   2.669   0.055   7.875  0.4805 -0.2924 -0.2980
 4250SOL    HW124383   2.762   0.040   7.892  0.8661 -0.8153 -2.8481
 4250SOL    HW224384   2.648   4.720   7.814  2.1002 -0.1721 -0.9837
 4251SOL     OW24385   4.244   2.573  13.647  0.2779 -0.2744 -0.2054
 4251SOL    HW124386   4.300   2.641  13.685 -0.2554  0.0501 -0.0046
 4251SOL    HW224387   4.282   2.575  13.559  0.2934  1.4144 -0.1545
 4252SOL     OW24388   4.662   4.719  16.716  0.1111 -0.1537  0.2714
 4252SOL    HW124389   4.627   4.657  16.779 -0.6788  0.9695  0.9237
 4252SOL    HW224390   4.657   4.665  16.637 -0.0701  1.5523 -0.9119
 4253SOL     OW24391   1.739   1.329   4.326 -0.1756  0.0595  0.7613
 4253SOL    HW124392   1.695   1.250   4.357 -0.0263 -0.8286 -1.2487
 4253SOL    HW224393   1.808   1.324   4.392  0.8657  1.8872 -0.1888
 4254SOL     OW24394   2.867   2.000   0.996 -0.1466  0.0664  0.7000
 4254SOL    HW124395   2.951   1.960   0.972 -0.4851  0.0014 -0.3758
 4254SOL    HW224396   2.812   1.922   0.999 -2.7286  1.8813  0.4756
 4255SOL     OW24397   2.580   2.512   4.007 -0.5838  0.3007 -0.3815
 4255SOL    HW124398   2.574   2.466   4.091 -0.7675  0.2705 -0.4113
 4255SOL    HW224399   2.510   2.463   3.963 -2.4586  1.6933  1.0911
 4256SOL     OW24400   4.322   0.223   8.799  0.1433 -0.7123  0.2431
 4256SOL    HW124401   4.280   0.195   8.880 -0.7142 -1.1092 -0.3391
 4256SOL    HW224402   4.398   0.167   8.789  0.8688 -0.0478  2.0040
 4257SOL     OW24403   2.064   1.899   7.609 -1.0429 -0.2011 -0.1812
 4257SOL    HW124404   2.010   1.824   7.632 -0.0097 -1.2597 -1.2167
 4257SOL    HW224405   2.088   1.920   7.699 -1.1369  1.6591 -0.5795
 4258SOL     OW24406   2.522   3.062   2.471  0.3801 -0.0816 -0.5561
 4258SOL    HW124407   2.582   3.115   2.418  0.2598 -0.0620 -0.6733
 4258SOL    HW224408   2.463   3.125   2.511  0.8648  0.4845 -0.7339
 4259SOL     OW24409   1.044   0.922  11.662 -0.3550 -0.0777  0.3662
 4259SOL    HW124410   1.053   0.848  11.721  0.1928 -1.0747 -0.9655
 4259SOL    HW224411   0.995   0.987  11.713  0.0594  0.3601  0.2093
 4260SOL     OW24412   2.378   1.545   5.920  0.1796 -0.1472  0.2985
 4260SOL    HW124413   2.466   1.568   5.949  1.7064 -1.0849 -3.7132
 4260SOL    HW224414   2.368   1.471   5.981  2.0174 -1.1921 -0.6661
 4261SOL     OW24415   3.772   3.764  14.426  0.0008 -0.6603 -0.0158
 4261SOL    HW124416   3.858   3.803  14.408 -0.5652  0.1127 -1.0460
 4261SOL    HW224417   3.720   3.836  14.390 -0.0108 -1.0722 -0.8359
 4262SOL     OW24418   4.723   2.876   8.899 -0.0424 -0.3596  0.0049
 4262SOL    HW124419   0.059   2.825   8.937 -0.1818 -1.2005 -0.8874
 4262SOL    HW224420   0.031   2.951   8.857 -0.5895 -0.7395 -1.2378
 4263SOL     OW24421   1.319   4.215   1.747 -0.1881 -0.1220  0.3149
 4263SOL    HW124422   1.325   4.248   1.837  1.3142  1.0618 -0.2147
 4263SOL    HW224423   1.226   4.227   1.729  0.2740  1.8066 -0.8218
 4264SOL     OW24424   0.179   3.841   2.583 -0.1350  0.1414  0.4244
 4264SOL    HW124425   0.185   3.763   2.637  1.2188  0.2028  0.3687
 4264SOL    HW224426   0.266   3.879   2.596 -0.1575  0.9126 -1.6136
 4265SOL     OW24427   0.390   3.769   7.283  0.0655  0.1434  0.1133
 4265SOL    HW124428   0.450   3.711   7.331 -0.2729 -1.9857 -2.0487
 4265SOL    HW224429   0.384   3.847   7.339  0.7521 -0.3722  0.9111
 4266SOL     OW24430   2.843   4.626   3.774 -0.5553  0.1870  0.1855
 4266SOL    HW124431   2.897   4.677   3.834 -0.1577 -0.5900  0.4954
 4266SOL    HW224432   2.850   4.538   3.812  1.8467 -0.0874 -0.8863
 4267SOL     OW24433   4.630   4.080   9.415  0.2726 -0.3006 -0.1069
 4267SOL    HW124434   4.615   4.065   9.321 -1.1058  0.1563  0.0383
 4267SOL    HW224435   4.684   4.159   9.419 -0.2232 -0.0660  1.8620
 4268SOL     OW24436   4.539   2.106   3.512  0.3953 -0.5370  0.4358
 4268SOL    HW124437   4.535   2.199   3.490  0.0153 -0.8143 -0.6477
 4268SOL    HW224438   4.447   2.080   3.514  0.1437  0.3122 -0.0497
 4269SOL     OW24439   0.643   3.735   7.734 -0.0754  0.7170  0.2688
 4269SOL    HW124440   0.677   3.647   7.718  0.5737  0.6706  1.9687
 4269SOL    HW224441   0.562   3.708   7.777 -0.5720 -0.9962 -1.7127
 4270SOL     OW24442   2.420   1.965   3.284  0.1825 -0.0678 -1.2011
 4270SOL    HW124443   2.355   2.029   3.255  0.1100  0.9844  1.2085
 4270SOL    HW224444   2.407   1.894   3.222  1.1151 -0.7004 -0.6810
 4271SOL     OW24445   3.147   4.192   3.514 -0.2960  0.4306 -0.0561
 4271SOL    HW124446   3.068   4.241   3.495 -0.1547  0.9468  0.7119
 4271SOL    HW224447   3.209   4.263   3.497  1.2180 -0.9072 -0.2501
 4272SOL     OW24448   0.434   2.478   2.886  0.2479  0.2262 -0.8434
 4272SOL    HW124449   0.489   2.408   2.920 -1.4545 -0.5390  0.3636
 4272SOL    HW224450   0.401   2.444   2.803 -0.4766  0.9929 -0.8749
 4273SOL     OW24451   4.456   2.671   2.810  0.0775  0.1828  0.5522
 4273SOL    HW124452   4.529   2.714   2.854  0.2015  1.8960 -1.3067
 4273SOL    HW224453   4.416   2.743   2.761 -3.2196 -2.0226  0.0153
 4274SOL     OW24454   0.095   1.695  15.845 -1.0979  0.1926 -0.5448
 4274SOL    HW124455   0.183   1.715  15.878 -0.7576  1.1987 -2.0506
 4274SOL    HW224456   0.056   1.665  15.927 -0.9799  0.2917 -0.4536
 4275SOL     OW24457   2.164   3.093   1.554 -0.3767  0.9866  0.3339
 4275SOL    HW124458   2.238   3.046   1.516  0.8028  0.2492  3.5747
 4275SOL    HW224459   2.197   3.096   1.643 -0.8628  0.7811  0.5209
 4276SOL     OW24460   1.047   3.939   4.779  0.6471 -0.8449 -0.1716
 4276SOL    HW124461   1.111   3.878   4.816 -1.0217 -2.5271 -0.0904
 4276SOL    HW224462   1.021   3.877   4.712 -0.5086 -1.0611  0.4851
 4277SOL     OW24463   1.149   3.812   2.096 -0.1999  0.0483 -0.2281
 4277SOL    HW124464   1.151   3.845   2.006 -0.0613 -0.5601 -0.4488
 4277SOL    HW224465   1.073   3.757   2.115 -1.0179  0.3381 -2.7028
 4278SOL     OW24466   2.223   4.004  14.365 -0.3966 -0.4679 -0.3999
 4278SOL    HW124467   2.282   3.933  14.390  0.3750  0.0193 -0.8296
 4278SOL    HW224468   2.291   4.065  14.336 -2.4830  1.4228 -1.3371
 4279SOL     OW24469   1.293   3.787   6.768 -0.6815 -0.1330 -0.1995
 4279SOL    HW124470   1.360   3.787   6.837  1.3825 -0.5820 -2.2057
 4279SOL    HW224471   1.350   3.835   6.709 -1.1249 -0.4040 -0.8405
 4280SOL     OW24472   4.155   0.022   1.235 -0.1798  0.7177  0.0584
 4280SOL    HW124473   4.181   0.013   1.326  1.7098  0.8640 -0.4615
 4280SOL    HW224474   4.202   0.098   1.201 -0.0073  1.1515  1.2949
 4281SOL     OW24475   0.804   1.572   8.374 -0.2664 -0.1493 -0.0026
 4281SOL    HW124476   0.895   1.548   8.386 -0.1833  0.0059 -0.3299
 4281SOL    HW224477   0.759   1.501   8.421  1.7877 -1.0817  0.5307
 4282SOL     OW24478   3.387   3.770  11.527  0.3521 -0.2229  0.2335
 4282SOL    HW124479   3.326   3.822  11.475 -1.2121 -1.0865  1.2078
 4282SOL    HW224480   3.356   3.764  11.617  0.6020  1.3129  0.4089
 4283SOL     OW24481   3.495   0.945   8.392  0.1614 -0.3032 -0.1073
 4283SOL    HW124482   3.470   0.901   8.311 -1.2188 -1.0981  0.7524
 4283SOL    HW224483   3.423   1.007   8.403  0.5354 -0.0952  1.1331
 4284SOL     OW24484   4.346   2.776   5.904  0.1237 -0.0246  0.9418
 4284SOL    HW124485   4.326   2.835   5.977 -1.7845  0.7661 -0.2400
 4284SOL    HW224486   4.260   2.746   5.874  0.7827  0.0071 -0.9405
 4285SOL     OW24487   1.000   1.075   9.531  0.1707 -0.2240  0.9707
 4285SOL    HW124488   1.010   1.147   9.469  1.5215 -1.2870 -0.0610
 4285SOL    HW224489   1.089   1.054   9.559  0.4742 -0.7070 -0.3481
 4286SOL     OW24490   4.721   2.797  12.166 -0.1352 -0.2210  0.3218
 4286SOL    HW124491   4.689   2.858  12.100 -3.3353 -4.7191 -2.3607
 4286SOL    HW224492   4.642   2.768  12.213 -0.2665 -1.3983 -0.6198
 4287SOL     OW24493   2.913   3.749   3.589  0.5099  0.1957  0.0422
 4287SOL    HW124494   2.873   3.674   3.544 -0.3979  1.6378 -1.5335
 4287SOL    HW224495   2.971   3.777   3.518 -0.2445 -0.5771 -0.8663
 4288SOL     OW24496   3.336   1.222   4.633  0.3140  0.0383 -0.4205
 4288SOL    HW124497   3.363   1.215   4.724 -1.4591  0.5187  0.1384
 4288SOL    HW224498   3.370   1.311   4.619  0.8616  0.1291  1.5657
 4289SOL     OW24499   3.163   1.872  13.513  0.5748 -1.1339  0.2000
 4289SOL    HW124500   3.174   1.815  13.589  2.8124  0.0424  0.7801
 4289SOL    HW224501   3.076   1.903  13.537 -0.3150 -2.8388 -0.8095
 4290SOL     OW24502   3.499   4.230  11.448  0.1991  0.0388 -0.2040
 4290SOL    HW124503   3.414   4.203  11.481  1.0108 -1.0904  0.9488
 4290SOL    HW224504   3.494   4.324  11.428 -1.2823 -0.2536 -1.1734
 4291SOL     OW24505   1.226   3.747   4.900  0.4603 -0.3579 -0.8145
 4291SOL    HW124506   1.233   3.742   4.996 -0.3220 -2.3012 -0.8419
 4291SOL    HW224507   1.299   3.807   4.890 -0.0089 -0.0749 -2.5114
 4292SOL     OW24508   3.965   3.856   3.751  0.0826  0.2357 -0.4146
 4292SOL    HW124509   3.954   3.781   3.692  1.1023 -0.5241  0.3466
 4292SOL    HW224510   3.976   3.927   3.688  0.1115  0.0083 -0.6630
 4293SOL     OW24511   2.584   0.312   8.615  0.6675  0.1666 -0.5571
 4293SOL    HW124512   2.656   0.324   8.676  0.4214  0.9204 -0.4203
 4293SOL    HW224513   2.511   0.298   8.676  1.4798  0.5944  0.5034
 4294SOL     OW24514   3.719   2.536   5.930  0.1387  0.1716 -0.0287
 4294SOL    HW124515   3.814   2.543   5.922  0.1549 -0.8231 -0.5836
 4294SOL    HW224516   3.722   2.498   6.018 -1.3833  1.2841  0.5137
 4295SOL     OW24517   3.538   0.332   4.773  0.3545  0.0027  0.6345
 4295SOL    HW124518   3.485   0.297   4.701  0.4158  0.8048  0.2024
 4295SOL    HW224519   3.542   0.424   4.746  0.0410  0.0605  0.7778
 4296SOL     OW24520   0.107   3.496   6.448  0.3024  0.0629  0.0924
 4296SOL    HW124521   0.028   3.521   6.495  1.0992  1.3877  0.7407
 4296SOL    HW224522   0.102   3.402   6.465 -1.3003  0.2630  0.6812
 4297SOL     OW24523   0.458   2.949   6.973 -0.6648  0.2984 -0.5979
 4297SOL    HW124524   0.506   2.943   7.056  1.5677  1.9816 -1.7460
 4297SOL    HW224525   0.413   2.865   6.976 -0.1750  0.0490 -0.2160
 4298SOL     OW24526   2.310   4.016   8.690 -0.4595 -0.3754  0.8612
 4298SOL    HW124527   2.385   4.004   8.632  0.9263  2.3912  2.0541
 4298SOL    HW224528   2.236   3.968   8.654  0.2066 -2.6056  2.4397
 4299SOL     OW24529   4.179   1.994   9.669 -0.1629 -0.1450 -0.5914
 4299SOL    HW124530   4.242   1.921   9.671 -1.7339 -1.4012  2.1267
 4299SOL    HW224531   4.226   2.063   9.623  1.8326 -0.2435  1.3143
 4300SOL     OW24532   1.181   0.042   9.134  0.1703  0.3823  0.4655
 4300SOL    HW124533   1.237   0.112   9.165  1.3997 -0.3141 -0.1837
 4300SOL    HW224534   1.101   0.061   9.183  0.4146  2.3812  0.0692
 4301SOL     OW24535   3.510   1.593  15.122  0.2641  0.1991 -0.0642
 4301SOL    HW124536   3.491   1.500  15.126 -0.7208  0.4054  0.0595
 4301SOL    HW224537   3.601   1.588  15.154  1.1666  0.4920 -2.6201
 4302SOL     OW24538   1.985   0.099   4.808  0.4996 -0.7954 -0.2040
 4302SOL    HW124539   1.942   0.055   4.735 -0.3500  2.2249 -1.5389
 4302SOL    HW224540   2.002   0.182   4.762 -1.0782  0.4866  1.5522
 4303SOL     OW24541   0.652   2.738  15.751  0.1552 -0.0385 -0.0609
 4303SOL    HW124542   0.597   2.804  15.793 -0.5201 -0.5463 -0.1501
 4303SOL    HW224543   0.734   2.787  15.739 -1.0721  1.1089 -3.8242
 4304SOL     OW24544   0.665   0.278   3.906  0.8279  0.5400 -0.7317
 4304SOL    HW124545   0.659   0.203   3.965 -1.9144  1.9386  0.7323
 4304SOL    HW224546   0.596   0.255   3.843 -1.6415  2.9632  1.0924
 4305SOL     OW24547   3.594   1.132  12.298  0.8154  0.2536 -0.2820
 4305SOL    HW124548   3.540   1.168  12.227  1.1340 -2.6349 -1.9819
 4305SOL    HW224549   3.668   1.107  12.244  0.4384  1.8639 -1.5601
 4306SOL     OW24550   1.083   1.378   4.908 -0.1818  0.2686  0.5813
 4306SOL    HW124551   1.070   1.374   4.813  0.4343  1.0797  0.4625
 4306SOL    HW224552   1.116   1.467   4.915 -1.7262  1.0056 -1.5366
 4307SOL     OW24553   3.713   3.921   9.283  0.5359  0.4854  0.1249
 4307SOL    HW124554   3.724   4.014   9.264  0.1055  0.5724  0.2937
 4307SOL    HW224555   3.785   3.884   9.232 -0.7128  0.2231 -1.4395
 4308SOL     OW24556   4.213   3.078   2.855 -0.4892 -0.2377 -0.3288
 4308SOL    HW124557   4.256   3.020   2.792  1.9364 -1.0484  2.0755
 4308SOL    HW224558   4.228   3.036   2.939  0.0604 -1.3138 -0.9611
 4309SOL     OW24559   2.408   4.086  10.859  0.0143  0.2072  0.5528
 4309SOL    HW124560   2.416   4.080  10.764  1.7427 -0.3469  0.7335
 4309SOL    HW224561   2.327   4.039  10.878 -0.5622  0.8044 -0.4536
 4310SOL     OW24562   3.913   0.023   2.203  0.3709  0.0629  0.4159
 4310SOL    HW124563   3.999   0.064   2.193  0.6372 -0.8292 -1.0073
 4310SOL    HW224564   3.864   0.088   2.154  1.3740  0.2170 -0.3847
 4311SOL     OW24565   3.609   1.233   6.224  0.1410 -0.5577  0.0528
 4311SOL    HW124566   3.663   1.162   6.190  0.4446 -1.0234  1.4959
 4311SOL    HW224567   3.528   1.184   6.234 -0.7526  1.0209  0.5348
 4312SOL     OW24568   4.720   1.411  15.205 -0.2645  0.3240  0.2868
 4312SOL    HW124569   4.732   1.415  15.300  2.2337  0.8296 -0.0516
 4312SOL    HW224570   4.640   1.361  15.187  0.2837 -1.2122  2.0364
 4313SOL     OW24571   3.225   0.483   7.929  0.5691  0.4931  0.0948
 4313SOL    HW124572   3.258   0.479   7.839  0.0491 -0.1121 -0.0706
 4313SOL    HW224573   3.185   0.570   7.931 -0.9257 -0.1789 -0.5913
 4314SOL     OW24574   0.363   2.780   4.500 -0.3919 -0.0417 -0.2472
 4314SOL    HW124575   0.416   2.839   4.555 -0.8895  1.6585 -1.5896
 4314SOL    HW224576   0.417   2.702   4.510 -1.4837 -0.8204 -0.5320
 4315SOL     OW24577   2.019   1.540  10.255 -0.4469  0.2823  0.0503
 4315SOL    HW124578   2.093   1.543  10.195 -0.9603 -0.5814 -0.6279
 4315SOL    HW224579   2.046   1.475  10.319 -1.3408  0.9713  1.1207
 4316SOL     OW24580   4.338   4.089  13.856 -0.0263  0.1584 -0.1987
 4316SOL    HW124581   4.374   4.174  13.831 -1.1844  1.2869  1.9641
 4316SOL    HW224582   4.342   4.096  13.952  1.3858 -0.6175 -0.1988
 4317SOL     OW24583   3.011   1.975  11.562 -0.5488  0.1074  0.5423
 4317SOL    HW124584   3.018   1.983  11.657  0.8627  0.0915  0.4370
 4317SOL    HW224585   3.044   2.063  11.542  0.0985 -0.3707 -0.4644
 4318SOL     OW24586   2.143   0.338  17.480  0.6059  0.3760  0.1959
 4318SOL    HW124587   2.125   0.247  17.455  2.2451  0.2297 -0.4675
 4318SOL    HW224588   2.210   0.332  17.548  0.3976  0.5518  0.4164
 4319SOL     OW24589   2.026   2.526   4.560  0.0201 -0.7177  0.1182
 4319SOL    HW124590   2.104   2.532   4.505 -0.7515  0.9284 -0.7961
 4319SOL    HW224591   1.993   2.616   4.561 -1.6971 -1.3617  1.1885
 4320SOL     OW24592   0.134   3.351   1.269 -0.3626  0.0096 -0.6837
 4320SOL    HW124593   0.048   3.368   1.307 -0.6999 -2.5293 -0.3008
 4320SOL    HW224594   0.191   3.386   1.337  0.2917  0.6605 -1.5732
 4321SOL     OW24595   4.511   2.048  16.040  0.5146 -0.0909  0.1009
 4321SOL    HW124596   4.523   2.102  16.118  0.6184 -1.7808  1.2726
 4321SOL    HW224597   4.590   2.059  15.987  0.8108 -3.8787 -0.2303
 4322SOL     OW24598   2.815   4.641  14.341 -0.3673 -0.0113 -0.0611
 4322SOL    HW124599   2.809   4.650  14.436 -0.0390 -1.7706  0.1191
 4322SOL    HW224600   2.863   4.558  14.338  1.8003  1.3212 -2.6142
 4323SOL     OW24601   3.739   0.648   6.594  0.3151  0.6499  0.2591
 4323SOL    HW124602   3.719   0.682   6.507 -2.7317 -0.0178  0.6856
 4323SOL    HW224603   3.676   0.690   6.653  0.2552  0.5961  0.2335
 4324SOL     OW24604   3.080   1.722   9.668  0.1032 -0.3533 -1.0336
 4324SOL    HW124605   2.994   1.703   9.633 -1.1483  0.4750  1.5767
 4324SOL    HW224606   3.110   1.641   9.710 -1.6459 -1.2368 -1.5205
 4325SOL     OW24607   0.745   2.243   4.511 -0.1839 -0.0436 -0.1476
 4325SOL    HW124608   0.800   2.320   4.526  1.8250 -1.2595 -1.1746
 4325SOL    HW224609   0.665   2.290   4.489 -0.3928 -0.0336  0.6496
 4326SOL     OW24610   4.683   4.633  11.554 -0.3939 -0.1602  0.8055
 4326SOL    HW124611   4.724   4.713  11.522 -1.7775  0.3381  0.3226
 4326SOL    HW224612   4.638   4.663  11.633 -2.9182 -0.5348 -0.5224
 4327SOL     OW24613   2.220   4.618   1.639 -0.0836  0.6411  0.3297
 4327SOL    HW124614   2.243   4.550   1.575 -0.8017 -0.3269  1.0982
 4327SOL    HW224615   2.155   4.666   1.587  0.2992 -0.6143 -1.3053
 4328SOL     OW24616   0.942   2.113  17.134  0.0234  0.2339 -0.5447
 4328SOL    HW124617   0.863   2.096  17.082 -0.9311  0.0746  0.9795
 4328SOL    HW224618   0.967   2.199  17.100  0.2088  0.7232  0.8371
 4329SOL     OW24619   4.245   3.848   0.610 -0.9261  0.0204 -0.0630
 4329SOL    HW124620   4.174   3.898   0.651 -0.3164  1.8842 -1.2892
 4329SOL    HW224621   4.239   3.876   0.519  0.7465 -2.5260 -0.9529
 4330SOL     OW24622   2.822   2.094  16.146  0.4649 -0.1638  0.1439
 4330SOL    HW124623   2.863   2.037  16.211  1.8975 -2.2157 -2.5938
 4330SOL    HW224624   2.848   2.177  16.186  0.7484  0.8811 -2.2090
 4331SOL     OW24625   0.554   3.991   6.097 -0.1692  0.5865 -0.0548
 4331SOL    HW124626   0.520   4.041   6.023 -0.1211  1.8167  0.7437
 4331SOL    HW224627   0.475   3.943   6.121 -1.1514  1.7446 -0.9883
 4332SOL     OW24628   4.041   3.565   8.972 -0.0247 -0.1923  0.4136
 4332SOL    HW124629   4.021   3.486   9.023 -0.9819 -0.8416 -0.9694
 4332SOL    HW224630   3.964   3.618   8.989  1.2154  1.6373  0.2725
 4333SOL     OW24631   0.176   3.240   5.649  0.0954  0.2347 -0.5201
 4333SOL    HW124632   0.103   3.293   5.617 -1.9669 -1.6929  1.0375
 4333SOL    HW224633   0.188   3.284   5.733 -0.7234  0.5319 -0.5591
 4334SOL     OW24634   2.810   2.504  10.680 -0.5187  0.7949  0.6834
 4334SOL    HW124635   2.729   2.484  10.633 -0.1259 -0.9783  0.7434
 4334SOL    HW224636   2.782   2.488  10.770 -2.7711 -2.6270 -0.6216
 4335SOL     OW24637   4.459   2.050   2.862 -0.3400 -0.2774  0.9093
 4335SOL    HW124638   4.443   2.018   2.773 -2.0804  2.1735  0.3177
 4335SOL    HW224639   4.512   1.978   2.896 -0.2674 -2.0168 -2.9176
 4336SOL     OW24640   0.861   1.101   1.433  0.4660  0.1362  0.1138
 4336SOL    HW124641   0.931   1.055   1.387 -1.3806 -2.1411 -0.4213
 4336SOL    HW224642   0.911   1.114   1.514  1.6709  0.4152 -0.6722
 4337SOL     OW24643   4.597   0.161   5.948  0.1216  0.1815  0.1849
 4337SOL    HW124644   4.577   0.151   5.855  2.4689  0.1013 -0.3149
 4337SOL    HW224645   4.663   0.231   5.948  0.8153 -0.4709  1.3771
 4338SOL     OW24646   1.704   1.547   8.877 -0.0330  0.3810  0.5820
 4338SOL    HW124647   1.701   1.572   8.970 -0.4879  1.2541  0.3271
 4338SOL    HW224648   1.682   1.455   8.884  2.6069 -0.3533 -0.5156
 4339SOL     OW24649   4.092   3.141   5.979  0.0426  0.3165  0.6125
 4339SOL    HW124650   4.013   3.112   5.934  2.7580 -0.3801 -3.6503
 4339SOL    HW224651   4.092   3.078   6.052 -1.6426 -1.4324 -0.8935
 4340SOL     OW24652   0.339   3.386   8.807 -0.1857  0.1053  0.2847
 4340SOL    HW124653   0.381   3.302   8.786  1.8854  1.5491 -1.3991
 4340SOL    HW224654   0.285   3.403   8.730 -1.2434 -2.0872  0.5474
 4341SOL     OW24655   4.424   4.148   6.587  0.2051 -0.4771 -0.6511
 4341SOL    HW124656   4.499   4.111   6.541  0.4996  0.6895 -1.1181
 4341SOL    HW224657   4.399   4.069   6.635 -3.1946  0.9153 -0.1361
 4342SOL     OW24658   2.352   3.500   4.897  1.0967  0.0703 -0.3871
 4342SOL    HW124659   2.328   3.427   4.841  1.0257  0.1219 -0.4240
 4342SOL    HW224660   2.369   3.561   4.825  2.9383 -0.2471 -0.2295
 4343SOL     OW24661   0.097   4.236   4.330 -0.3257  0.1505 -0.1362
 4343SOL    HW124662   0.151   4.263   4.405  1.4274 -2.5155 -0.4158
 4343SOL    HW224663   0.134   4.280   4.254 -2.1440  3.1801  0.7228
 4344SOL     OW24664   4.270   2.574   3.045  0.0034  0.2767 -0.5033
 4344SOL    HW124665   4.292   2.543   3.134  0.6892 -0.6900 -1.0056
 4344SOL    HW224666   4.352   2.620   3.025 -0.0169  0.0398 -1.1208
 4345SOL     OW24667   1.752   0.706   0.994 -0.2246  0.0781  0.0420
 4345SOL    HW124668   1.843   0.709   1.023 -0.0692  2.4883 -0.7177
 4345SOL    HW224669   1.757   0.612   0.976  1.5177  0.3470 -0.8697
 4346SOL     OW24670   0.131   1.350   2.179  0.3876  0.2987 -0.3590
 4346SOL    HW124671   0.206   1.327   2.123  0.4601  0.9107 -0.5131
 4346SOL    HW224672   0.177   1.375   2.260  0.4728 -0.0009 -0.3124
 4347SOL     OW24673   0.452   3.656   6.992 -0.1295  0.1224  0.1431
 4347SOL    HW124674   0.437   3.748   6.969  2.7134  0.6354  0.3246
 4347SOL    HW224675   0.482   3.676   7.081  1.9908 -1.6081 -0.1731
 4348SOL     OW24676   2.454   4.680  17.501 -0.0854  0.0236  0.1540
 4348SOL    HW124677   2.366   4.643  17.499 -0.1060  0.1094 -0.6331
 4348SOL    HW224678   2.444   0.037  17.479  2.0920 -0.0914 -1.3182
 4349SOL     OW24679   1.241   4.319  13.374  0.4651 -0.0726 -0.4083
 4349SOL    HW124680   1.335   4.334  13.381  0.4673 -1.0462  1.4939
 4349SOL    HW224681   1.233   4.230  13.340  0.0074  0.0386 -0.5984
 4350SOL     OW24682   3.344   4.006   9.664  0.9968 -0.0921  0.0997
 4350SOL    HW124683   3.353   4.102   9.657 -0.9068  0.1131  0.4791
 4350SOL    HW224684   3.437   3.986   9.677  1.2673  0.7747 -0.4941
 4351SOL     OW24685   3.058   3.811  14.064  0.0081 -0.1029 -0.9219
 4351SOL    HW124686   3.033   3.789  14.153 -0.6483  1.4038 -0.7288
 4351SOL    HW224687   2.992   3.758  14.018 -1.6271  1.0599  0.0799
 4352SOL     OW24688   4.567   3.369   7.138  0.5653  0.3461  0.5663
 4352SOL    HW124689   4.592   3.293   7.190 -0.6437 -0.7327 -0.4361
 4352SOL    HW224690   4.592   3.444   7.192  0.0140  1.4741 -0.7177
 4353SOL     OW24691   1.022   0.538   9.472  0.2193  0.2310 -0.1361
 4353SOL    HW124692   0.966   0.608   9.439  0.7677  0.5333 -0.4235
 4353SOL    HW224693   1.008   0.478   9.398 -2.6055 -2.8431  2.9258
 4354SOL     OW24694   3.013   4.693  16.613  0.5520 -0.0407  0.6026
 4354SOL    HW124695   2.919   4.708  16.606  0.9540  1.2869 -1.9480
 4354SOL    HW224696   3.037   4.682  16.520 -1.6672 -2.6303  0.3316
 4355SOL     OW24697   1.349   1.413   9.240 -0.6305  0.2379  0.2815
 4355SOL    HW124698   1.406   1.399   9.164 -3.0008  0.3774 -1.5101
 4355SOL    HW224699   1.337   1.507   9.228  1.3011  0.5442  0.6979
 4356SOL     OW24700   2.582   4.344   6.414 -0.0696 -0.7101 -0.1957
 4356SOL    HW124701   2.606   4.402   6.342 -0.3100 -0.0551  0.2570
 4356SOL    HW224702   2.502   4.301   6.384  0.8513 -1.5923 -1.3855
 4357SOL     OW24703   1.954   4.052   7.241 -0.1039 -0.6219  0.3127
 4357SOL    HW124704   2.012   3.975   7.237  0.9540  0.1923 -0.0982
 4357SOL    HW224705   1.933   4.062   7.148 -0.1364  1.7832  0.5861
 4358SOL     OW24706   3.033   2.318   8.480  0.5157  0.4989  0.4765
 4358SOL    HW124707   2.955   2.285   8.436  2.0096 -0.1742 -1.6604
 4358SOL    HW224708   3.068   2.238   8.520 -0.8640 -0.4561 -0.2288
 4359SOL     OW24709   0.916   2.541   7.047 -0.4025  0.3615  0.1616
 4359SOL    HW124710   0.893   2.457   7.008  1.5195 -1.5055  2.9558
 4359SOL    HW224711   0.931   2.515   7.138  0.3070 -1.6298 -0.5170
 4360SOL     OW24712   2.879   4.246   8.120 -0.1963 -0.7373 -0.2444
 4360SOL    HW124713   2.799   4.215   8.079 -0.0891 -0.3322 -0.7622
 4360SOL    HW224714   2.934   4.172   8.144 -0.4769 -0.6471  0.6929
 4361SOL     OW24715   3.357   0.599   8.593 -0.0270  0.5360  0.6706
 4361SOL    HW124716   3.339   0.605   8.687  1.7438 -1.3936  1.1420
 4361SOL    HW224717   3.428   0.664   8.594  0.7847 -0.3123 -1.0762
 4362SOL     OW24718   4.162   3.680  12.146  0.5544  0.4050 -0.7163
 4362SOL    HW124719   4.219   3.606  12.125 -0.6687 -0.3588 -1.3250
 4362SOL    HW224720   4.208   3.753  12.105  1.1805  0.3330 -0.1482
 4363SOL     OW24721   1.035   1.405   5.608 -1.2621  0.0779 -0.4844
 4363SOL    HW124722   0.961   1.450   5.568 -1.9790 -3.4227 -3.0416
 4363SOL    HW224723   1.035   1.317   5.570  0.7101  0.3393 -1.0762
 4364SOL     OW24724   0.632   3.042  10.541 -0.5789 -0.4104 -0.1395
 4364SOL    HW124725   0.694   3.106  10.576 -0.0099 -1.3833  0.6057
 4364SOL    HW224726   0.560   3.046  10.604 -1.8380  1.3003 -1.6623
 4365SOL     OW24727   0.807   1.443   9.548 -0.5390  0.2104 -0.3253
 4365SOL    HW124728   0.869   1.383   9.588 -0.2949 -0.2628 -1.4273
 4365SOL    HW224729   0.854   1.469   9.469  1.5937  1.0595  1.2194
 4366SOL     OW24730   3.818   0.486   7.543 -0.4361 -0.1237  0.3561
 4366SOL    HW124731   3.832   0.437   7.624  0.3123 -2.6369 -1.2989
 4366SOL    HW224732   3.863   0.438   7.474 -1.9270  0.7056 -1.2350
 4367SOL     OW24733   4.269   4.178  16.073  0.2865  0.2698  0.3113
 4367SOL    HW124734   4.309   4.120  16.139  1.0832  1.7342  1.1106
 4367SOL    HW224735   4.270   4.118  15.998  1.1066 -1.5828  1.7904
 4368SOL     OW24736   1.006   3.519  13.197 -0.5145  0.2607  0.1234
 4368SOL    HW124737   1.078   3.533  13.136 -0.9080  1.0868 -0.1558
 4368SOL    HW224738   1.045   3.454  13.255 -0.6680  1.7192  1.8522
 4369SOL     OW24739   3.456   0.531   8.051 -0.3025 -0.1209 -0.5471
 4369SOL    HW124740   3.399   0.478   7.997 -2.2470  1.6605 -0.2273
 4369SOL    HW224741   3.429   0.516   8.142  1.3115  0.7817  0.1028
 4370SOL     OW24742   3.713   0.970   4.754 -0.1373  0.1754  0.2079
 4370SOL    HW124743   3.667   1.022   4.821 -1.8299 -0.5392 -0.3815
 4370SOL    HW224744   3.712   1.026   4.676 -0.6469 -1.5384 -1.0235
 4371SOL     OW24745   3.618   1.200  10.764 -0.6086  0.0061 -0.5311
 4371SOL    HW124746   3.664   1.267  10.713 -1.8447  1.7782  0.6939
 4371SOL    HW224747   3.655   1.121  10.725  0.2900  0.3857 -0.4468
 4372SOL     OW24748   0.724   3.537   6.534  0.6912 -0.4505 -0.0501
 4372SOL    HW124749   0.735   3.537   6.629 -0.3008  0.5509  0.0644
 4372SOL    HW224750   0.653   3.473   6.528 -0.9020  1.1570  1.7101
 4373SOL     OW24751   2.424   3.922   2.094  0.1129  0.0859  0.0291
 4373SOL    HW124752   2.396   3.831   2.097 -3.0832  1.0561 -0.5152
 4373SOL    HW224753   2.429   3.939   2.188 -0.0145  1.4423 -0.2070
 4374SOL     OW24754   0.503   0.979   4.158 -0.5943  0.1110  0.7673
 4374SOL    HW124755   0.516   1.074   4.157  1.1697 -0.1111  1.5058
 4374SOL    HW224756   0.582   0.951   4.205  0.0423  0.5643 -0.0175
 4375SOL     OW24757   4.545   2.061   5.285 -0.2319  0.1022  0.1296
 4375SOL    HW124758   4.544   1.966   5.298 -3.0563  0.3579  1.7525
 4375SOL    HW224759   4.459   2.090   5.315 -0.2501  0.4071 -0.2231
 4376SOL     OW24760   1.453   2.500   3.024  0.1764 -0.9432  0.0660
 4376SOL    HW124761   1.528   2.535   2.977  0.4777 -2.4401 -0.5693
 4376SOL    HW224762   1.392   2.574   3.020  0.0232 -1.1157 -0.6640
 4377SOL     OW24763   3.200   3.752  11.773  0.2301  0.3305  0.4882
 4377SOL    HW124764   3.261   3.757  11.847  0.6884 -1.8910  0.2632
 4377SOL    HW224765   3.121   3.786  11.814 -1.2325  0.1595 -2.1912
 4378SOL     OW24766   1.698   3.955  11.937  0.9460  0.1013  0.3770
 4378SOL    HW124767   1.732   3.939  11.849 -0.9562  1.0418 -0.5288
 4378SOL    HW224768   1.696   3.864  11.968 -3.0782 -0.4844 -1.5700
 4379SOL     OW24769   2.803   3.245   7.644 -0.4685  0.7743 -0.4266
 4379SOL    HW124770   2.818   3.298   7.565  0.9341  0.3785 -0.4195
 4379SOL    HW224771   2.819   3.303   7.718 -2.1352  0.1993  0.3884
 4380SOL     OW24772   0.458   3.025   7.987 -0.2122 -0.2656  0.4188
 4380SOL    HW124773   0.499   2.976   8.059 -0.0267 -0.6976  0.0237
 4380SOL    HW224774   0.458   3.114   8.020 -0.2542  0.1631 -0.7364
 4381SOL     OW24775   0.702   2.388   1.671  0.1710  0.3460 -0.2727
 4381SOL    HW124776   0.647   2.452   1.626  1.9680  1.0905 -1.4353
 4381SOL    HW224777   0.779   2.372   1.615 -0.3650 -0.5945 -0.7452
 4382SOL     OW24778   1.958   4.438   5.373 -0.2710  0.3519 -0.1668
 4382SOL    HW124779   2.015   4.425   5.450 -1.7691  0.2218  0.9235
 4382SOL    HW224780   1.883   4.488   5.404 -1.2239 -0.2292 -1.5539
 4383SOL     OW24781   0.750   1.218   1.226  0.0038  0.3285  0.1436
 4383SOL    HW124782   0.767   1.153   1.294  2.5597  0.3159 -0.5316
 4383SOL    HW224783   0.801   1.297   1.246 -0.7171  0.8604 -0.1157
 4384SOL     OW24784   1.978   1.606   5.717  0.1841 -0.1229  0.2942
 4384SOL    HW124785   2.056   1.587   5.665 -1.1881  0.5619 -2.0208
 4384SOL    HW224786   1.984   1.544   5.790  0.1053 -0.3154  0.1371
 4385SOL     OW24787   3.235   3.665   5.199  0.8953  0.0017 -0.2025
 4385SOL    HW124788   3.233   3.664   5.295 -0.9748 -2.9811 -0.2770
 4385SOL    HW224789   3.304   3.600   5.188  0.3268 -0.3437 -1.7005
 4386SOL     OW24790   0.127   3.342  14.139 -0.1377  0.0970 -0.0540
 4386SOL    HW124791   0.138   3.289  14.060 -1.0433 -0.7394  0.3854
 4386SOL    HW224792   0.203   3.399  14.134  1.2036 -1.6698  0.0484
 4387SOL     OW24793   2.723   4.723   4.124  0.4392  0.4629 -0.5639
 4387SOL    HW124794   2.643   0.026   4.161  0.2603  0.0452 -0.5175
 4387SOL    HW224795   2.692   4.651   4.070  0.9205  0.0589 -0.2923
 4388SOL     OW24796   1.603   1.949   6.073 -0.7182 -0.0445 -0.1727
 4388SOL    HW124797   1.648   1.990   5.999 -0.5752  0.2440  0.0786
 4388SOL    HW224798   1.664   1.877   6.092 -0.3862  0.5377  0.9363
 4389SOL     OW24799   0.606   3.364   2.974  0.9898  0.7331  0.1597
 4389SOL    HW124800   0.695   3.397   2.987  0.0587  3.4583 -0.3988
 4389SOL    HW224801   0.619   3.272   2.950 -2.1302  0.5513 -0.9029
 4390SOL     OW24802   4.639   0.356   5.673  0.2587 -0.0234  0.4230
 4390SOL    HW124803   4.730   0.349   5.644  1.2763  1.9434  3.1258
 4390SOL    HW224804   4.584   0.337   5.597 -1.0795  0.3488  1.3015
 4391SOL     OW24805   0.017   0.745   9.713 -0.1101 -0.3541  0.5036
 4391SOL    HW124806   4.730   0.824   9.664  0.5999 -1.3295 -1.3727
 4391SOL    HW224807   0.109   0.764   9.733 -0.6712  0.1803  2.5730
 4392SOL     OW24808   1.316   3.538   3.673 -0.1047  0.4382  0.1866
 4392SOL    HW124809   1.408   3.562   3.661 -0.2506  1.9232  2.0495
 4392SOL    HW224810   1.333   3.444   3.683 -1.9395 -0.0625 -1.4616
 4393SOL     OW24811   0.833   2.900   9.052 -0.0125 -0.3518  0.4588
 4393SOL    HW124812   0.923   2.872   9.073 -0.0065  0.2649  1.2460
 4393SOL    HW224813   0.832   2.996   9.058 -0.0361 -0.2304 -1.5297
 4394SOL     OW24814   3.746   4.075   8.633 -0.1217  0.5158 -0.2000
 4394SOL    HW124815   3.791   4.068   8.549 -0.5951  0.5235 -0.4545
 4394SOL    HW224816   3.762   3.992   8.678  2.5041  0.6169 -0.9901
 4395SOL     OW24817   2.375   0.330   1.763 -0.1260 -0.2397  0.1460
 4395SOL    HW124818   2.332   0.253   1.727 -0.7454  0.6790 -1.0669
 4395SOL    HW224819   2.301   0.387   1.784 -0.0426 -0.3854  0.8480
 4396SOL     OW24820   3.412   2.457   2.802  0.7990  0.3003 -0.1496
 4396SOL    HW124821   3.336   2.461   2.743  2.1405  0.6762 -1.8730
 4396SOL    HW224822   3.400   2.377   2.852 -2.2463  0.0519 -1.2237
 4397SOL     OW24823   2.694   4.086   3.370  0.0901 -0.6506 -0.1042
 4397SOL    HW124824   2.698   3.990   3.370 -2.7700 -0.7616  1.0003
 4397SOL    HW224825   2.661   4.104   3.458  1.6510 -2.8165  0.9167
 4398SOL     OW24826   0.802   0.764   8.202 -0.2503 -0.2123  0.2726
 4398SOL    HW124827   0.894   0.781   8.181 -0.0564  0.4948  1.7017
 4398SOL    HW224828   0.773   0.721   8.121  0.8196 -1.6649  0.6657
 4399SOL     OW24829   1.358   2.268  12.199 -0.0332  0.5926 -0.5300
 4399SOL    HW124830   1.321   2.197  12.147 -1.2555 -0.2199  1.4370
 4399SOL    HW224831   1.452   2.255  12.198 -0.0328  0.8420 -3.0874
 4400SOL     OW24832   3.599   0.453   5.607  0.3338 -0.4941 -0.2550
 4400SOL    HW124833   3.669   0.392   5.586  0.0749 -0.9597  0.2289
 4400SOL    HW224834   3.641   0.517   5.665 -0.6392  0.1877 -0.2832
 4401SOL     OW24835   0.742   1.556   5.076  0.7536 -0.0067 -0.3997
 4401SOL    HW124836   0.684   1.538   5.002 -1.4913 -1.4702  1.7380
 4401SOL    HW224837   0.700   1.521   5.154  0.3834 -1.2195 -1.1600
 4402SOL     OW24838   3.069   4.471   8.540  0.2297  0.0017 -0.4283
 4402SOL    HW124839   3.036   4.442   8.625  0.0320  0.2072 -0.4365
 4402SOL    HW224840   3.164   4.468   8.552  0.0242  0.8298  1.4494
 4403SOL     OW24841   4.270   0.068  16.914 -0.0466 -0.6286  0.3626
 4403SOL    HW124842   4.280   0.161  16.933 -1.4758 -0.2100 -0.9676
 4403SOL    HW224843   4.343   0.024  16.958 -0.3012 -1.4729 -0.0585
 4404SOL     OW24844   2.411   3.931   7.467  0.0072 -0.2050  0.2481
 4404SOL    HW124845   2.423   4.000   7.533  0.6497 -2.1776  2.2166
 4404SOL    HW224846   2.412   3.987   7.390 -0.4617 -0.1304  0.2925
 4405SOL     OW24847   3.264   1.185   6.036  0.6511 -0.3088 -0.3030
 4405SOL    HW124848   3.296   1.144   5.956 -0.2273  0.5907 -1.1147
 4405SOL    HW224849   3.187   1.235   6.010  2.5830  0.8644 -3.6710
 4406SOL     OW24850   1.980   2.557   2.561  0.3792  0.1773  0.2542
 4406SOL    HW124851   2.032   2.548   2.482 -1.0636 -3.2911 -0.2896
 4406SOL    HW224852   2.036   2.514   2.625 -1.0406 -3.0196 -0.6692
 4407SOL     OW24853   4.715   0.767  12.188  0.2492 -0.2515 -0.0644
 4407SOL    HW124854   0.029   0.777  12.269  0.6700  0.1880 -0.3811
 4407SOL    HW224855   4.686   0.858  12.187  0.8285 -0.0695  0.2191
 4408SOL     OW24856   2.951   2.375   0.300 -0.2970  0.1537  0.3229
 4408SOL    HW124857   2.871   2.324   0.287 -1.1858  1.0391  2.2262
 4408SOL    HW224858   2.958   2.374   0.396  0.3198  2.0769  0.2985
 4409SOL     OW24859   2.804   1.517   6.315 -0.6859  0.2576 -0.6338
 4409SOL    HW124860   2.761   1.465   6.383 -0.1891  1.3338  0.5052
 4409SOL    HW224861   2.732   1.529   6.253  0.8788 -0.2283 -2.5062
 4410SOL     OW24862   0.088   0.923   3.447 -0.2013  0.3654 -0.1031
 4410SOL    HW124863   0.029   0.903   3.374 -0.9870 -2.2013  1.2365
 4410SOL    HW224864   0.165   0.879   3.412  1.4575  1.0081  2.8104
 4411SOL     OW24865   3.345   1.921   7.852  0.1801 -0.0687 -0.2786
 4411SOL    HW124866   3.258   1.958   7.869 -0.0322 -0.7678  0.2044
 4411SOL    HW224867   3.354   1.947   7.761  0.8843  0.7145  0.0217
 4412SOL     OW24868   2.474   1.503  13.975 -0.3316 -0.0236  0.0069
 4412SOL    HW124869   2.549   1.522  14.030 -0.5916 -0.5896  0.5649
 4412SOL    HW224870   2.415   1.520  14.048 -0.1915  0.9379 -0.1033
 4413SOL     OW24871   4.503   0.183  16.744 -0.1840  0.0788 -0.7593
 4413SOL    HW124872   4.423   0.141  16.774  0.2211  0.2104  0.5061
 4413SOL    HW224873   4.569   0.114  16.732  1.5545  1.8187 -1.2484
 4414SOL     OW24874   0.366   0.670   8.160  0.0731  0.5356  0.2786
 4414SOL    HW124875   0.304   0.608   8.197  0.1062  1.0526  1.1971
 4414SOL    HW224876   0.398   0.616   8.087 -0.3137  0.1439  0.4044
 4415SOL     OW24877   2.356   2.629  13.671 -0.0593 -0.0067 -0.4337
 4415SOL    HW124878   2.268   2.626  13.707  0.0095 -0.4305 -0.2983
 4415SOL    HW224879   2.407   2.555  13.706  3.0977  2.0517 -0.6429
 4416SOL     OW24880   0.128   4.028   6.597  0.2434 -0.3894  1.4408
 4416SOL    HW124881   0.146   4.029   6.692 -0.1287  1.5085  1.4736
 4416SOL    HW224882   0.206   3.989   6.558 -0.1827  0.0976  0.1040
 4417SOL     OW24883   3.617   3.416   2.588 -0.4291  0.0712  0.0572
 4417SOL    HW124884   3.586   3.333   2.622  0.1296 -1.1203 -2.3184
 4417SOL    HW224885   3.701   3.432   2.630 -0.1967  0.2352 -0.4598
 4418SOL     OW24886   3.472   3.036   5.820  0.3318  0.2636 -0.1974
 4418SOL    HW124887   3.413   2.991   5.760 -0.2382  2.0754 -0.9912
 4418SOL    HW224888   3.536   2.968   5.838  1.9897  2.6285  2.7689
 4419SOL     OW24889   1.229   1.705   1.008  0.3730 -0.0044 -0.0058
 4419SOL    HW124890   1.318   1.736   1.027 -0.0427  2.7521 -2.5651
 4419SOL    HW224891   1.181   1.788   1.014 -2.4444 -1.6916  0.6676
 4420SOL     OW24892   1.347   1.453  14.059 -0.1986 -0.3558  0.3055
 4420SOL    HW124893   1.375   1.485  14.145 -2.7864 -1.6399  1.6330
 4420SOL    HW224894   1.410   1.382  14.058  0.3322  0.0957  1.9300
 4421SOL     OW24895   3.380   2.749   4.647 -0.6995  0.8559  0.2693
 4421SOL    HW124896   3.399   2.775   4.738  0.3598 -0.6088  0.4708
 4421SOL    HW224897   3.394   2.656   4.663 -1.1991  0.4478 -1.7377
 4422SOL     OW24898   3.850   1.125   3.087 -0.3652 -0.5046 -0.4415
 4422SOL    HW124899   3.890   1.097   3.005  1.7186  0.2232  0.3370
 4422SOL    HW224900   3.903   1.078   3.152 -1.9489 -0.9894  0.5087
 4423SOL     OW24901   2.703   2.983   7.994 -0.5048 -0.5278  0.0036
 4423SOL    HW124902   2.790   2.990   8.032 -0.6567  0.0466  0.2436
 4423SOL    HW224903   2.659   3.064   8.019 -1.3599 -0.5842 -1.2866
 4424SOL     OW24904   0.030   4.587  16.467 -0.1067 -0.1011  0.1159
 4424SOL    HW124905   4.724   4.643  16.401 -0.1177  1.4136  1.3908
 4424SOL    HW224906   0.020   4.500  16.429 -0.0984  0.6075 -1.5151
 4425SOL     OW24907   2.661   3.342   6.933  0.1011 -0.3584  0.2011
 4425SOL    HW124908   2.630   3.251   6.930 -1.3004  0.1290 -0.1174
 4425SOL    HW224909   2.592   3.400   6.966  0.6771  0.9466 -0.9095
 4426SOL     OW24910   0.068   2.150   7.036  0.7208 -0.1527 -0.3161
 4426SOL    HW124911   0.025   2.149   7.121  0.0481 -0.1278 -0.6564
 4426SOL    HW224912   0.052   2.243   7.018 -1.2809 -0.1761  1.3242
 4427SOL     OW24913   4.526   4.391   3.372 -0.3655 -0.6388 -1.0571
 4427SOL    HW124914   4.581   4.458   3.413 -1.4566  0.2849 -1.0946
 4427SOL    HW224915   4.437   4.413   3.399  0.1831  0.1533  0.1593
 4428SOL     OW24916   0.320   3.871   8.468 -0.8063 -0.7079 -0.2098
 4428SOL    HW124917   0.299   3.791   8.419  1.3970 -1.2562 -0.2767
 4428SOL    HW224918   0.382   3.843   8.535  1.3303  0.8728 -1.5594
 4429SOL     OW24919   3.138   1.142   7.550 -0.0433 -0.3294 -0.8733
 4429SOL    HW124920   3.229   1.135   7.577 -0.2705 -1.1506 -0.3143
 4429SOL    HW224921   3.118   1.063   7.500  2.0573  0.4717 -2.9986
 4430SOL     OW24922   1.106   2.441  15.305 -0.2648  0.3833  0.3661
 4430SOL    HW124923   1.098   2.535  15.290 -0.3767  0.6236  1.9217
 4430SOL    HW224924   1.089   2.433  15.399 -0.4616  2.0415  0.4568
 4431SOL     OW24925   0.156   3.243   1.783  0.3279 -0.5238  0.0338
 4431SOL    HW124926   0.094   3.256   1.712 -0.7890  0.6392  1.2105
 4431SOL    HW224927   0.133   3.321   1.835  0.0734 -0.2495 -0.4946
 4432SOL     OW24928   1.172   4.041   1.121  0.3540 -0.0400 -0.6316
 4432SOL    HW124929   1.229   4.045   1.199  1.0963  0.3538 -1.1867
 4432SOL    HW224930   1.183   3.949   1.096 -0.4679 -0.6976  1.4427
 4433SOL     OW24931   1.812   0.562   5.120  0.4364 -0.3490  0.3015
 4433SOL    HW124932   1.798   0.518   5.036  1.0820  0.0558 -0.0155
 4433SOL    HW224933   1.872   0.629   5.087  0.0655 -0.4487 -0.5693
 4434SOL     OW24934   3.836   3.200  10.483  0.0734  0.1317  0.1555
 4434SOL    HW124935   3.828   3.105  10.471 -1.0465  0.0775  1.2658
 4434SOL    HW224936   3.925   3.204  10.517 -0.0254 -0.8318  0.5435
 4435SOL     OW24937   4.325   4.557   4.324  1.0206  0.0417 -0.1800
 4435SOL    HW124938   4.312   4.466   4.298  4.1552 -1.0245  1.9575
 4435SOL    HW224939   4.362   4.561   4.412  0.3848 -0.4130  0.1074
 4436SOL     OW24940   2.626   1.657  10.331 -0.4495 -0.7841  0.3010
 4436SOL    HW124941   2.647   1.739  10.288 -1.0167 -1.5600 -1.4787
 4436SOL    HW224942   2.539   1.680  10.364  0.1854  0.0600  1.3525
 4437SOL     OW24943   4.573   1.803   2.943 -0.1398  0.4139  0.0338
 4437SOL    HW124944   4.513   1.731   2.929 -0.0751  0.3356  0.1599
 4437SOL    HW224945   4.564   1.821   3.037  1.6437 -0.1546  0.3178
 4438SOL     OW24946   0.047   3.131  14.458  0.0743  0.4213 -0.6746
 4438SOL    HW124947   0.018   3.100  14.372 -0.0196  2.2209 -1.2877
 4438SOL    HW224948   0.022   3.223  14.454  1.7562  0.8661 -1.0325
 4439SOL     OW24949   0.276   0.796   6.708 -0.3784 -0.1308  0.2835
 4439SOL    HW124950   0.232   0.715   6.684 -0.7935  0.6397 -1.5007
 4439SOL    HW224951   0.369   0.773   6.703 -0.7284 -0.8521 -2.4908
 4440SOL     OW24952   2.431   3.509   5.668  0.0490 -0.1292 -1.0187
 4440SOL    HW124953   2.493   3.536   5.735  0.7119  0.7130 -1.9765
 4440SOL    HW224954   2.346   3.525   5.710  0.5828  0.9596 -0.3666
 4441SOL     OW24955   1.249   3.200  13.013  0.0341 -0.3001  0.2660
 4441SOL    HW124956   1.303   3.123  12.998 -0.6865 -1.0602  1.5808
 4441SOL    HW224957   1.258   3.207  13.108  1.0682 -0.0186  0.1421
 4442SOL     OW24958   4.218   2.904   4.441 -0.4155  0.5145  0.2656
 4442SOL    HW124959   4.308   2.901   4.474  0.0874  0.9944 -1.0715
 4442SOL    HW224960   4.215   2.853   4.360 -2.0051  0.6951  0.2124
 4443SOL     OW24961   3.384   0.340   3.764 -0.6816 -0.0913 -0.6400
 4443SOL    HW124962   3.333   0.414   3.796 -2.0293 -1.2198 -0.1744
 4443SOL    HW224963   3.341   0.271   3.815  1.5565 -1.2495 -0.3233
 4444SOL     OW24964   0.519   3.248   8.112  0.0799 -0.0902 -0.2203
 4444SOL    HW124965   0.577   3.250   8.188 -1.2609 -0.1024  0.8129
 4444SOL    HW224966   0.445   3.303   8.138  0.7680  0.3148  0.8682
 4445SOL     OW24967   3.709   2.680   3.601  0.0519 -0.0515 -0.3236
 4445SOL    HW124968   3.728   2.651   3.512 -1.6031 -0.9171 -0.4045
 4445SOL    HW224969   3.729   2.773   3.603  0.8142 -0.2408  1.2610
 4446SOL     OW24970   3.176   4.060  13.658 -0.2613 -0.0171  0.0816
 4446SOL    HW124971   3.252   4.113  13.680 -0.9368  0.7421  0.5704
 4446SOL    HW224972   3.134   4.069  13.743  0.8015 -1.4154  0.7581
 4447SOL     OW24973   3.382   2.680  12.483 -0.1835 -0.1056 -0.3396
 4447SOL    HW124974   3.386   2.668  12.388  0.8825  0.3881 -0.3495
 4447SOL    HW224975   3.287   2.668  12.493 -0.2502  0.6829 -0.0073
 4448SOL     OW24976   4.080   4.427   2.477  0.6106 -0.1384  0.1286
 4448SOL    HW124977   3.996   4.386   2.455 -1.1028  2.6863  1.4879
 4448SOL    HW224978   4.143   4.362   2.444  1.2689  0.0728  0.9853
 4449SOL     OW24979   4.203   1.163   6.011  0.1882  0.4100  0.4171
 4449SOL    HW124980   4.192   1.069   6.024 -0.3294  0.3062 -0.7140
 4449SOL    HW224981   4.291   1.174   6.045 -0.0677  0.3065  1.1049
 4450SOL     OW24982   0.448   3.920   8.734  0.2186  0.1908 -0.1635
 4450SOL    HW124983   0.411   3.912   8.821  2.4270 -1.7168  0.6059
 4450SOL    HW224984   0.481   4.010   8.730  0.5115  0.0450 -1.2164
 4451SOL     OW24985   1.065   0.821   8.210 -0.0758 -0.0346 -0.2213
 4451SOL    HW124986   1.092   0.884   8.276 -1.5215  2.2160 -1.7999
 4451SOL    HW224987   1.103   0.740   8.244  0.6779  1.5514  2.6479
 4452SOL     OW24988   0.841   4.373   3.302  0.1626 -0.4985  0.3118
 4452SOL    HW124989   0.892   4.296   3.275 -2.3905 -1.6214 -1.2717
 4452SOL    HW224990   0.759   4.330   3.327  0.8641 -0.7920  2.1544
 4453SOL     OW24991   2.945   3.132   9.147 -0.3204  0.2126  0.5869
 4453SOL    HW124992   3.011   3.063   9.144  0.0080  0.5899 -1.1554
 4453SOL    HW224993   2.993   3.212   9.167  1.4353 -0.7763  0.3496
 4454SOL     OW24994   1.183   1.955   6.462 -0.1373  0.3478 -0.0763
 4454SOL    HW124995   1.168   2.009   6.540 -1.6391 -0.5205  0.2456
 4454SOL    HW224996   1.091   1.962   6.436 -0.2680  2.1553  0.8594
 4455SOL     OW24997   3.423   3.475   5.290  0.1870  0.2293 -0.0934
 4455SOL    HW124998   3.434   3.504   5.380  0.4738 -0.4358  0.0809
 4455SOL    HW224999   3.415   3.381   5.303  0.5941 -0.0327 -1.6959
 4456SOL     OW25000   2.332   3.208   5.341  0.3061  0.4970  0.0839
 4456SOL    HW125001   2.304   3.175   5.426  0.8167 -1.7452 -0.6282
 4456SOL    HW225002   2.371   3.295   5.352 -1.6887  1.1971  1.6537
 4457SOL     OW25003   4.488   0.952   1.644  0.4939  0.0898 -0.0704
 4457SOL    HW125004   4.495   1.012   1.718 -0.8236 -0.5948  0.6020
 4457SOL    HW225005   4.405   0.975   1.602 -0.1362  0.4589  1.4098
 4458SOL     OW25006   2.529   2.795   5.208 -0.1530  0.0934  0.2919
 4458SOL    HW125007   2.505   2.878   5.166 -1.7626 -1.8237 -2.6464
 4458SOL    HW225008   2.620   2.821   5.217 -0.1297 -0.1099  0.6275
 4459SOL     OW25009   1.108   0.623   3.489 -0.3402 -0.7359 -0.3244
 4459SOL    HW125010   1.049   0.556   3.521 -1.5814  1.2414  1.5381
 4459SOL    HW225011   1.188   0.601   3.537 -0.7217 -2.7315 -0.6303
 4460SOL     OW25012   4.105   0.727  16.999  0.3564  0.3905 -0.0300
 4460SOL    HW125013   4.120   0.726  17.093 -1.6709  0.5924  0.2898
 4460SOL    HW225014   4.094   0.821  16.981 -1.6535  0.1978  0.1785
 4461SOL     OW25015   0.562   3.047  11.922 -0.4533 -0.1654 -0.0594
 4461SOL    HW125016   0.606   3.112  11.978 -2.4934  1.1518  0.0348
 4461SOL    HW225017   0.555   3.106  11.846  0.3009  0.9347  0.7245
 4462SOL     OW25018   3.674   4.000  14.333 -0.0274  0.0307 -0.1789
 4462SOL    HW125019   3.689   4.064  14.403  0.8302 -0.2861 -0.0682
 4462SOL    HW225020   3.630   4.057  14.269  0.8720 -0.5512 -1.3310
 4463SOL     OW25021   3.239   4.159   9.068  0.4529  0.3015 -0.0433
 4463SOL    HW125022   3.163   4.175   9.012  0.8619 -0.1837 -0.7364
 4463SOL    HW225023   3.266   4.068   9.055  1.1277  0.5314 -0.2087
 4464SOL     OW25024   2.357   1.362   7.135  0.2334  0.4863 -0.1341
 4464SOL    HW125025   2.416   1.307   7.083  0.0601  0.1988 -0.0254
 4464SOL    HW225026   2.340   1.304   7.209  0.3393 -0.1433 -0.6059
 4465SOL     OW25027   1.251   0.916   7.974 -0.4271  0.2576 -0.4737
 4465SOL    HW125028   1.340   0.952   7.980  0.1637 -1.0109 -1.6996
 4465SOL    HW225029   1.210   0.983   8.028  1.6394 -0.5097  2.0455
 4466SOL     OW25030   4.270   2.870   2.686  0.1401 -0.5632  0.0511
 4466SOL    HW125031   4.184   2.910   2.671  0.2569 -0.3665 -0.1057
 4466SOL    HW225032   4.243   2.781   2.663 -1.3940  0.1941 -1.0768
 4467SOL     OW25033   3.857   2.083   3.126  0.3617 -0.1942 -0.0864
 4467SOL    HW125034   3.872   1.992   3.101  1.3640  0.0023 -0.1891
 4467SOL    HW225035   3.763   2.092   3.112  0.3805  1.0793  0.6344
 4468SOL     OW25036   0.687   3.756   2.353 -0.5443  0.3720  0.0512
 4468SOL    HW125037   0.614   3.818   2.352 -0.6365  0.2982  1.4654
 4468SOL    HW225038   0.682   3.723   2.443 -3.2954  1.5889  0.3390
 4469SOL     OW25039   3.838   4.404   0.529 -0.1113  0.3756 -0.6949
 4469SOL    HW125040   3.904   4.463   0.494  2.6300 -0.0100  3.7751
 4469SOL    HW225041   3.840   4.338   0.460 -1.3563 -0.4786  0.0765
 4470SOL     OW25042   2.217   2.363   9.798 -0.1965  0.1685 -0.0807
 4470SOL    HW125043   2.268   2.393   9.873 -0.8409  1.4560 -0.1578
 4470SOL    HW225044   2.134   2.346   9.843  1.0723 -3.6533  0.7282
 4471SOL     OW25045   1.308   2.818   7.374  0.3965 -0.3191  0.1570
 4471SOL    HW125046   1.350   2.793   7.457 -1.3969  0.8881  1.4275
 4471SOL    HW225047   1.248   2.890   7.393  0.1745 -0.5039  0.1456
 4472SOL     OW25048   0.268   3.362   8.129  0.8187 -0.5711 -0.6537
 4472SOL    HW125049   0.223   3.438   8.164  0.3245 -0.3792 -1.6895
 4472SOL    HW225050   0.212   3.292   8.163  1.7241 -1.4943 -1.0553
 4473SOL     OW25051   0.856   2.122   3.279 -0.4202  0.6840  0.0101
 4473SOL    HW125052   0.943   2.082   3.274 -0.9467 -0.3739 -0.6295
 4473SOL    HW225053   0.805   2.045   3.305 -0.5055  0.9212  0.5505
 4474SOL     OW25054   0.581   2.692   1.223 -0.4944 -0.1980 -0.2745
 4474SOL    HW125055   0.661   2.648   1.197 -0.4169 -0.9247  1.2378
 4474SOL    HW225056   0.622   2.778   1.233 -0.4850 -0.1870 -0.4114
 4475SOL     OW25057   1.383   0.426   5.451  0.5536  0.2545 -0.4871
 4475SOL    HW125058   1.416   0.513   5.474 -0.3990  1.1804 -2.6668
 4475SOL    HW225059   1.433   0.423   5.370 -0.3700 -0.8313 -1.0133
 4476SOL     OW25060   4.090   4.475  13.558  0.4688  0.5607  0.1105
 4476SOL    HW125061   4.063   4.555  13.602 -1.6269 -0.8418  1.3723
 4476SOL    HW225062   4.016   4.458  13.499  0.8174  0.5623 -0.3282
 4477SOL     OW25063   1.338   0.274   5.113 -0.4610 -0.5042 -0.1503
 4477SOL    HW125064   1.273   0.288   5.181 -1.7400 -0.6985 -1.3346
 4477SOL    HW225065   1.293   0.307   5.035 -1.8207 -4.9827 -1.2656
 4478SOL     OW25066   2.532   0.234   5.237  0.1021 -0.1970  0.5992
 4478SOL    HW125067   2.499   0.197   5.155 -1.2041  1.9797  0.1583
 4478SOL    HW225068   2.454   0.285   5.259  0.9169  0.6310  1.5748
 4479SOL     OW25069   3.078   1.630   8.495  0.2505  0.1383 -0.0029
 4479SOL    HW125070   3.031   1.702   8.453 -1.2982  0.2879  2.0160
 4479SOL    HW225071   3.010   1.605   8.558  0.9153  2.6038  1.6704
 4480SOL     OW25072   2.771   3.420   7.883  0.0741 -0.0357 -0.7181
 4480SOL    HW125073   2.813   3.343   7.924 -2.5339 -0.3079  1.4644
 4480SOL    HW225074   2.680   3.414   7.910  0.2196 -0.8705 -0.3807
 4481SOL     OW25075   2.334   2.649   9.175  0.4662 -0.3917 -0.1005
 4481SOL    HW125076   2.240   2.659   9.159  0.3163 -0.0572  0.9428
 4481SOL    HW225077   2.342   2.600   9.257  0.1717 -1.0140 -0.4444
 4482SOL     OW25078   3.481   1.557  17.504 -0.1287 -0.0143 -0.0383
 4482SOL    HW125079   3.514   1.563  17.414 -3.2446 -0.5205 -1.2256
 4482SOL    HW225080   3.474   1.463  17.516 -0.0029 -0.0631 -0.3396
 4483SOL     OW25081   2.925   0.913  14.277  0.3369  0.3364  0.6436
 4483SOL    HW125082   2.877   0.918  14.194 -0.0535 -1.3082  0.7624
 4483SOL    HW225083   2.867   0.848  14.316 -0.2300  0.8166  0.5999
 4484SOL     OW25084   0.773   1.621   6.484  0.2951  0.4181  0.6904
 4484SOL    HW125085   0.770   1.651   6.575  1.2084  1.2132  0.4532
 4484SOL    HW225086   0.690   1.662   6.462 -0.0697  0.0027  1.2987
 4485SOL     OW25087   3.341   0.997   7.157  0.5019 -0.1254 -0.4562
 4485SOL    HW125088   3.309   0.928   7.215 -0.8778  1.2268  0.3972
 4485SOL    HW225089   3.357   1.067   7.220  1.2873 -0.2905 -0.4768
 4486SOL     OW25090   0.976   0.946   3.646  0.3885 -0.1208  0.3736
 4486SOL    HW125091   0.886   0.921   3.667  0.2998 -2.5035 -2.7519
 4486SOL    HW225092   1.034   0.899   3.707  0.8436  0.3612  0.3110
 4487SOL     OW25093   4.388   1.114   2.615  0.1416 -0.1723 -0.1622
 4487SOL    HW125094   4.385   1.060   2.694 -0.8594 -0.3105 -0.2945
 4487SOL    HW225095   4.388   1.206   2.640 -2.5476 -0.8715  2.3731
 4488SOL     OW25096   0.480   4.152   7.629  0.5282  0.3722 -0.0288
 4488SOL    HW125097   0.540   4.078   7.632  0.2955  0.2656  2.5135
 4488SOL    HW225098   0.542   4.223   7.614  3.0198 -1.7784  0.1380
 4489SOL     OW25099   2.668   4.274   3.779  0.2192 -0.6286 -0.0119
 4489SOL    HW125100   2.603   4.344   3.782 -1.5301 -2.2732  0.7070
 4489SOL    HW225101   2.618   4.196   3.802  0.7105 -1.2203 -0.9569
 4490SOL     OW25102   4.574   3.134   7.273  0.2646 -0.1446  0.2568
 4490SOL    HW125103   4.631   3.072   7.318 -0.0966 -0.0857  0.7850
 4490SOL    HW225104   4.543   3.076   7.203 -2.0273 -0.1749  1.3037
 4491SOL     OW25105   1.449   2.813   3.248 -0.5213 -1.0366  0.3117
 4491SOL    HW125106   1.509   2.884   3.225 -2.8110  0.3575 -1.3111
 4491SOL    HW225107   1.387   2.870   3.294 -2.3636 -3.7194  1.1847
 4492SOL     OW25108   0.090   1.206   8.100 -0.0269  0.1615  0.4646
 4492SOL    HW125109   0.038   1.238   8.026 -2.3397  1.2325  2.5544
 4492SOL    HW225110   0.025   1.169   8.160  1.1788  0.4329  1.9220
 4493SOL     OW25111   0.577   0.237   5.269 -0.2036  0.2718  0.0585
 4493SOL    HW125112   0.636   0.167   5.242  0.1502  1.3223 -1.9916
 4493SOL    HW225113   0.637   0.298   5.311 -0.2764 -0.8165  1.7179
 4494SOL     OW25114   1.540   3.272   3.115 -0.3422 -0.1096 -0.0694
 4494SOL    HW125115   1.459   3.308   3.151 -1.0313 -1.5908 -0.1245
 4494SOL    HW225116   1.599   3.335   3.155 -0.5029  1.7070 -2.7348
 4495SOL     OW25117   1.449   3.024   5.464  0.1908 -0.1070 -0.3675
 4495SOL    HW125118   1.505   3.102   5.470  1.0284 -0.8983  2.1211
 4495SOL    HW225119   1.424   3.037   5.372 -1.0552  1.8669  0.2527
 4496SOL     OW25120   0.220   0.030   8.576 -0.3289  0.3964 -0.0023
 4496SOL    HW125121   0.167   4.732   8.503 -1.7220  1.4375  0.5293
 4496SOL    HW225122   0.179   4.724   8.651 -0.8889  0.9595  0.0106
 4497SOL     OW25123   4.655   4.365  16.352 -0.5152 -0.4821  0.0211
 4497SOL    HW125124   4.634   4.276  16.381  0.6643  0.0156  2.3831
 4497SOL    HW225125   4.691   4.351  16.264 -0.0152  0.0386  0.1424
 4498SOL     OW25126   1.389   2.286   7.579 -0.1200  0.3931 -0.3102
 4498SOL    HW125127   1.370   2.244   7.663  1.9421 -0.4150 -0.2295
 4498SOL    HW225128   1.328   2.238   7.523  0.2343 -1.2813  0.7390
 4499SOL     OW25129   1.301   3.900   1.493 -0.5881  0.6453 -0.0088
 4499SOL    HW125130   1.233   3.877   1.429 -1.7175 -0.6792  1.6427
 4499SOL    HW225131   1.304   3.994   1.477  0.4476  1.0017  2.2469
 4500SOL     OW25132   1.820   0.622  11.032  1.3999  0.5353  0.1790
 4500SOL    HW125133   1.830   0.528  11.046  1.1915  0.8655  2.5472
 4500SOL    HW225134   1.783   0.643  11.117 -3.4209  0.5208 -1.8982
 4501SOL     OW25135   0.197   1.519   3.827  0.4078  0.2816 -0.1782
 4501SOL    HW125136   0.171   1.450   3.767  1.0782  0.8844 -1.1558
 4501SOL    HW225137   0.254   1.466   3.883 -1.0368  1.2657  2.2619
 4502SOL     OW25138   3.975   4.683  13.706 -0.5812  0.4332  0.4808
 4502SOL    HW125139   4.003   0.012  13.771 -0.3645  0.8879 -0.0622
 4502SOL    HW225140   3.880   4.692  13.711 -0.5173  2.2240 -1.4599
 4503SOL     OW25141   4.320   1.074   2.121 -0.2309  0.4348  0.1013
 4503SOL    HW125142   4.361   0.987   2.123 -1.5561 -0.1963  0.4422
 4503SOL    HW225143   4.347   1.099   2.209  1.2229  3.2182 -1.1462
 4504SOL     OW25144   2.703   3.903   8.594  0.4093  0.1995  0.1680
 4504SOL    HW125145   2.647   3.925   8.520 -1.1550  2.2346  1.9311
 4504SOL    HW225146   2.682   3.814   8.622 -1.1563  0.5006 -0.0094
 4505SOL     OW25147   4.153   3.053   1.765  0.0718 -1.0355  0.1672
 4505SOL    HW125148   4.161   3.131   1.819  0.7720 -0.4137 -0.8337
 4505SOL    HW225149   4.058   3.058   1.755  0.0496 -1.6783  0.0263
 4506SOL     OW25150   1.251   2.522   8.032  0.1248  0.2463  0.0065
 4506SOL    HW125151   1.184   2.527   7.964  0.3721  1.6636 -0.1460
 4506SOL    HW225152   1.315   2.459   7.998  0.3134  0.2101  0.4271
 4507SOL     OW25153   1.152   0.286   9.476 -0.5950 -0.0992  0.2833
 4507SOL    HW125154   1.149   0.379   9.451 -0.9135 -0.6487 -1.7199
 4507SOL    HW225155   1.202   0.286   9.558  0.3195  0.4436 -0.2623
 4508SOL     OW25156   3.294   3.858   6.784 -0.5228 -0.3372 -0.6570
 4508SOL    HW125157   3.341   3.924   6.836 -2.3691 -0.8494  1.6579
 4508SOL    HW225158   3.287   3.912   6.705 -0.1890  1.8481  0.8095
 4509SOL     OW25159   2.470   4.233   1.996 -0.3090 -0.3982 -0.0464
 4509SOL    HW125160   2.532   4.288   2.044 -0.4143  0.0458 -0.4083
 4509SOL    HW225161   2.485   4.142   2.020 -0.7308 -0.2884  0.6370
 4510SOL     OW25162   1.130   1.466   3.978  0.8615 -0.0596 -0.1047
 4510SOL    HW125163   1.145   1.538   3.917 -1.0573  0.4374  0.0164
 4510SOL    HW225164   1.047   1.432   3.945  0.0653  2.4848 -0.6703
 4511SOL     OW25165   2.389   2.083  11.604 -1.4722 -0.2915  0.6426
 4511SOL    HW125166   2.327   2.047  11.668 -0.4363 -1.1887  1.1346
 4511SOL    HW225167   2.435   2.000  11.591  1.4022  1.2187  1.2293
 4512SOL     OW25168   2.051   1.536   3.117  0.2210  0.1745 -0.8517
 4512SOL    HW125169   2.052   1.597   3.191 -1.1230  0.4733 -1.0824
 4512SOL    HW225170   2.011   1.454   3.147 -0.7042  0.7063 -0.6333
 4513SOL     OW25171   0.138   3.401   8.626  0.6029  0.4158  0.0108
 4513SOL    HW125172   0.065   3.463   8.621 -0.9645 -1.4553 -0.1942
 4513SOL    HW225173   0.097   3.317   8.650 -0.1954  0.5594 -0.8202
 4514SOL     OW25174   3.422   0.207  15.033 -0.1118  0.2667  0.2573
 4514SOL    HW125175   3.447   0.176  15.120 -0.1698  0.0456  0.1958
 4514SOL    HW225176   3.481   0.281  15.025  0.2546 -0.2531 -1.8003
 4515SOL     OW25177   2.857   1.254   8.079 -0.2317 -0.3495  0.3094
 4515SOL    HW125178   2.779   1.236   8.026  1.9685 -3.9462 -1.7263
 4515SOL    HW225179   2.819   1.243   8.166 -1.3720  0.6879 -0.0629
 4516SOL     OW25180   3.114   3.346   8.081 -0.4258  0.0800 -0.5433
 4516SOL    HW125181   3.160   3.265   8.102  0.0222  0.5522  0.2647
 4516SOL    HW225182   3.079   3.331   7.993 -1.3518  0.6187 -0.2693
 4517SOL     OW25183   0.370   2.644   3.081 -0.2784 -0.4275  0.3478
 4517SOL    HW125184   0.394   2.578   3.146  0.2655  0.5269  1.1246
 4517SOL    HW225185   0.375   2.593   3.001  0.3168 -1.7743  1.2456
 4518SOL     OW25186   2.618   0.416  17.137 -0.4182 -0.3472  0.4055
 4518SOL    HW125187   2.675   0.342  17.116  0.4075  0.4781 -0.2732
 4518SOL    HW225188   2.584   0.438  17.049  2.7004  0.1240 -0.6606
 4519SOL     OW25189   0.641   0.105   4.121  0.2133  0.2236  0.4991
 4519SOL    HW125190   0.631   0.018   4.159  1.2223  0.2781  0.8814
 4519SOL    HW225191   0.580   0.167   4.161  1.4195  0.7167  1.5617
 4520SOL     OW25192   3.455   3.210   2.922  0.3572 -0.3343  0.2854
 4520SOL    HW125193   3.471   3.190   2.830 -1.8872 -1.1970  0.0690
 4520SOL    HW225194   3.392   3.151   2.963  1.5847 -1.4022  0.6122
 4521SOL     OW25195   1.120   1.252  11.281 -0.2315 -0.0738  0.1953
 4521SOL    HW125196   1.065   1.283  11.353  1.3704  1.7471  0.6500
 4521SOL    HW225197   1.145   1.334  11.239  0.1654 -0.1299  0.3244
 4522SOL     OW25198   2.884   3.977   6.874  0.1123 -0.1729 -0.5163
 4522SOL    HW125199   2.885   4.022   6.959 -2.6099  0.1778 -0.6603
 4522SOL    HW225200   2.816   4.029   6.830  1.5985  1.7275 -0.5458
 4523SOL     OW25201   4.023   3.907  15.699 -0.4330 -0.7335 -0.0949
 4523SOL    HW125202   4.068   3.836  15.743  1.5938  0.4174 -0.3132
 4523SOL    HW225203   4.044   3.894  15.606  3.5022  0.5709  0.6083
 4524SOL     OW25204   3.774   3.006  15.521 -0.0848  0.9036 -0.0747
 4524SOL    HW125205   3.789   2.972  15.433  0.2056  0.0654  0.2934
 4524SOL    HW225206   3.699   2.957  15.555  0.4596 -0.2960 -0.6056
 4525SOL     OW25207   3.639   1.213  17.719 -0.3849  0.0636  0.5887
 4525SOL    HW125208   3.717   1.269  17.724  0.4640 -1.2187  1.6328
 4525SOL    HW225209   3.565   1.271  17.739 -1.8039 -1.1518 -1.2199
 4526SOL     OW25210   4.498   1.761  16.152  0.4398 -0.3919  0.1212
 4526SOL    HW125211   4.494   1.849  16.116  0.2580 -0.2157  0.5641
 4526SOL    HW225212   4.425   1.764  16.214  0.2069 -1.3230 -0.1040
 4527SOL     OW25213   0.966   2.174   1.146  0.1998 -0.0041  0.3777
 4527SOL    HW125214   0.915   2.161   1.226  0.4373 -2.9151  0.0532
 4527SOL    HW225215   1.035   2.229   1.180 -0.3123 -0.1606  1.6644
 4528SOL     OW25216   3.001   2.034   5.438  0.1166  0.1142  0.2950
 4528SOL    HW125217   3.062   1.976   5.393  0.8291  1.3648 -0.3630
 4528SOL    HW225218   3.050   2.094   5.495  0.2492  1.9320 -1.7541
 4529SOL     OW25219   1.812   1.580  10.070 -0.1521  0.2456  0.5626
 4529SOL    HW125220   1.743   1.543  10.125 -0.4661  0.3719  0.2505
 4529SOL    HW225221   1.884   1.586  10.134  1.4623 -1.5237 -1.0647
 4530SOL     OW25222   0.647   1.196  11.742 -0.9676  0.9182  0.6390
 4530SOL    HW125223   0.609   1.188  11.655  0.3694 -2.1646  0.3254
 4530SOL    HW225224   0.577   1.159  11.795 -0.7212  0.2494  0.4984
 4531SOL     OW25225   2.802   3.160   8.904  0.3964  0.7856 -0.3041
 4531SOL    HW125226   2.827   3.150   8.996  1.9910 -1.7733 -1.0178
 4531SOL    HW225227   2.709   3.173   8.921  0.1282  0.4865 -1.5971
 4532SOL     OW25228   4.035   0.686   2.103 -0.1971  0.0667  0.0395
 4532SOL    HW125229   3.996   0.769   2.075 -0.4887 -0.5668 -1.4813
 4532SOL    HW225230   4.115   0.688   2.050 -0.3565  2.6491 -0.1078
 4533SOL     OW25231   2.801   2.400   4.610  0.1045  0.1843 -0.1893
 4533SOL    HW125232   2.725   2.391   4.668  0.8568  1.8394  1.0193
 4533SOL    HW225233   2.777   2.330   4.549  0.0041  0.9065 -0.9872
 4534SOL     OW25234   3.546   1.642  10.936  0.2855  0.1332  0.5883
 4534SOL    HW125235   3.540   1.547  10.948  1.1780  0.2312  1.7422
 4534SOL    HW225236   3.501   1.646  10.852  1.0627  1.4755  0.2422
 4535SOL     OW25237   2.057   2.220   6.500  0.2544 -0.1797 -0.0670
 4535SOL    HW125238   2.091   2.250   6.416  2.8605 -0.4120  0.9074
 4535SOL    HW225239   2.133   2.239   6.556  1.0193  0.6643 -1.3959
 4536SOL     OW25240   0.913   3.675   2.162 -0.6594 -0.1621  0.3232
 4536SOL    HW125241   0.863   3.690   2.241  1.6734 -0.1272  1.7944
 4536SOL    HW225242   0.920   3.580   2.166  1.3025 -0.0097  0.5995
 4537SOL     OW25243   3.425   0.482   3.480  0.2593 -0.2771  0.1744
 4537SOL    HW125244   3.346   0.479   3.427  0.0704  1.0526  0.3904
 4537SOL    HW225245   3.416   0.572   3.511  0.6117  0.8346 -2.9497
 4538SOL     OW25246   3.481   4.205   3.773  0.1974  0.1229  0.2920
 4538SOL    HW125247   3.573   4.187   3.796 -0.2812 -1.9282  0.5907
 4538SOL    HW225248   3.460   4.128   3.720  1.6130  0.7298 -1.1643
 4539SOL     OW25249   1.442   2.274   2.042  0.0843  0.1871 -0.0386
 4539SOL    HW125250   1.444   2.254   2.136  1.4548 -0.9444 -0.2997
 4539SOL    HW225251   1.510   2.341   2.038  0.5026 -0.1733  0.9236
 4540SOL     OW25252   3.446   1.893   1.910 -0.3856 -0.2444 -0.9654
 4540SOL    HW125253   3.414   1.982   1.900  1.2204  0.3395 -1.0034
 4540SOL    HW225254   3.414   1.843   1.835 -1.5844 -1.2845  0.2344
 4541SOL     OW25255   4.001   4.485  15.162 -0.6818  0.0217  1.3221
 4541SOL    HW125256   3.942   4.485  15.087  1.1334 -1.7805 -0.1012
 4541SOL    HW225257   3.938   4.444  15.221 -1.1189  2.1317  2.3319
 4542SOL     OW25258   0.066   1.810   7.424  0.5108 -0.2447 -0.9386
 4542SOL    HW125259   0.148   1.793   7.471 -0.2676 -0.9120  0.1842
 4542SOL    HW225260   0.064   1.728   7.375  0.0561 -0.3202 -0.7913
 4543SOL     OW25261   4.479   4.524  14.898  0.2391  0.4971 -0.2569
 4543SOL    HW125262   4.393   4.520  14.940  0.7579  0.2119  0.7760
 4543SOL    HW225263   4.520   4.473  14.968  0.4283  2.0455  0.7595
 4544SOL     OW25264   1.813   4.365   5.660  0.7966 -0.2232 -0.3529
 4544SOL    HW125265   1.753   4.309   5.611  0.3632  1.6585 -1.9493
 4544SOL    HW225266   1.764   4.446   5.649  0.8617 -0.0567  0.6469
 4545SOL     OW25267   2.238   2.168   3.800  0.2241  0.2047 -0.2353
 4545SOL    HW125268   2.251   2.185   3.707 -4.1953 -0.1185 -0.9043
 4545SOL    HW225269   2.231   2.073   3.809  0.6978  0.0379 -1.5520
 4546SOL     OW25270   2.871   0.198   7.090  0.5680  0.5290  0.2697
 4546SOL    HW125271   2.790   0.246   7.104 -0.0261 -0.7427  1.1835
 4546SOL    HW225272   2.923   0.278   7.104 -0.5036  1.3117 -0.2546
 4547SOL     OW25273   4.145   0.281   2.776  0.1128 -0.5079  0.3169
 4547SOL    HW125274   4.087   0.213   2.741  0.5039 -1.2647  1.1364
 4547SOL    HW225275   4.129   0.270   2.870 -0.1352  2.3378  0.6085
 4548SOL     OW25276   0.285   1.479   2.380  0.6874 -0.1876  0.4551
 4548SOL    HW125277   0.344   1.428   2.435  1.0865 -1.1127 -0.8540
 4548SOL    HW225278   0.317   1.569   2.385  1.1026 -0.4233  2.0223
 4549SOL     OW25279   0.938   2.396   8.251  0.6463  0.3956 -0.2464
 4549SOL    HW125280   0.874   2.437   8.192 -1.0212  0.7804  1.8384
 4549SOL    HW225281   0.885   2.351   8.317  1.0537 -0.7782 -0.7052
 4550SOL     OW25282   4.422   4.573   6.422  0.1506 -0.1673 -0.8940
 4550SOL    HW125283   4.498   4.524   6.390 -0.5515 -0.5061 -2.0409
 4550SOL    HW225284   4.368   4.495   6.435  0.6063 -0.0407  1.7851
 4551SOL     OW25285   4.198   1.117   2.398  0.1057 -0.1205  0.4699
 4551SOL    HW125286   4.256   1.092   2.469  0.1446  1.0223  0.8490
 4551SOL    HW225287   4.128   1.149   2.455  1.2511  2.9731  0.1475
 4552SOL     OW25288   2.817   2.549   8.263 -0.0284 -0.1514  0.0660
 4552SOL    HW125289   2.900   2.552   8.215 -1.0032  1.9864 -1.4671
 4552SOL    HW225290   2.794   2.642   8.268 -0.3437 -0.2547  0.4951
 4553SOL     OW25291   3.949   2.541   3.094 -0.5754 -0.2477 -0.1726
 4553SOL    HW125292   4.012   2.469   3.091  0.2315  0.2222  5.3210
 4553SOL    HW225293   3.884   2.515   3.029 -1.7235 -1.2358  1.3912
 4554SOL     OW25294   1.903   1.605   4.207  0.0122 -0.6640 -0.5372
 4554SOL    HW125295   1.948   1.634   4.287  0.1048 -2.1517 -0.0556
 4554SOL    HW225296   1.937   1.516   4.197 -1.1462 -1.0526 -1.0317
 4555SOL     OW25297   2.058   2.602  14.592  0.2275  0.0806  0.0908
 4555SOL    HW125298   2.144   2.604  14.632  0.2673  0.6810 -0.0224
 4555SOL    HW225299   2.041   2.692  14.562 -0.0346 -0.1776 -0.5304
 4556SOL     OW25300   4.401   2.004   9.312  0.0304 -0.1783 -0.6644
 4556SOL    HW125301   4.444   2.078   9.269 -2.5337  1.7902  0.1908
 4556SOL    HW225302   4.477   1.951   9.336  0.8213  0.5866 -1.4724
 4557SOL     OW25303   4.384   4.696   6.666  1.1371 -0.6060 -0.3535
 4557SOL    HW125304   4.382   4.620   6.607 -1.2775 -1.4103  0.7550
 4557SOL    HW225305   4.389   4.649   6.749  0.1439 -0.4138 -0.1758
 4558SOL     OW25306   3.416   4.482   7.172 -0.0516 -0.2835 -0.1319
 4558SOL    HW125307   3.502   4.440   7.170  0.4313  0.6642  0.4667
 4558SOL    HW225308   3.370   4.443   7.245 -0.2098  0.2931  0.0769
 4559SOL     OW25309   1.928   3.186   6.650 -0.1491 -0.1298  0.5568
 4559SOL    HW125310   1.859   3.125   6.675  1.1370 -2.0591 -0.6058
 4559SOL    HW225311   2.014   3.148   6.668  0.1211  0.4601  0.5397
 4560SOL     OW25312   0.446   4.009   1.953  0.2402 -0.2437 -0.1718
 4560SOL    HW125313   0.426   4.093   1.994  0.3147 -0.8699  1.1321
 4560SOL    HW225314   0.540   3.998   1.965  0.0442 -1.8648 -0.1374
 4561SOL     OW25315   0.683   0.741   7.393 -0.1316 -0.0193 -0.2127
 4561SOL    HW125316   0.623   0.814   7.385  2.3549  2.1100  0.5912
 4561SOL    HW225317   0.755   0.786   7.436  0.0665 -0.4345 -0.1030
 4562SOL     OW25318   0.312   3.601   9.010  0.3137  0.5329 -0.0039
 4562SOL    HW125319   0.316   3.532   8.945 -2.3408 -0.3789  0.8031
 4562SOL    HW225320   0.404   3.630   9.012  0.4809  0.1139 -1.7926
 4563SOL     OW25321   3.206   3.955   9.265  0.1130 -0.6387  0.0552
 4563SOL    HW125322   3.301   3.950   9.281  0.1844 -1.5692 -0.6417
 4563SOL    HW225323   3.201   4.048   9.242 -1.8873 -0.7569  0.0025
 4564SOL     OW25324   3.133   1.678   5.670  0.1857  0.0247 -0.6051
 4564SOL    HW125325   3.215   1.629   5.669  0.8262  1.0407  1.1152
 4564SOL    HW225326   3.108   1.673   5.578 -0.6901  1.8819 -0.4677
 4565SOL     OW25327   3.716   4.696   9.070 -0.3493 -0.4356  0.5567
 4565SOL    HW125328   3.626   4.684   9.100 -0.6894  0.4664 -0.1211
 4565SOL    HW225329   3.744   4.605   9.056 -2.3593 -0.9794  0.1943
 4566SOL     OW25330   1.944   0.384  11.362 -0.1534 -0.6926 -0.1167
 4566SOL    HW125331   2.022   0.331  11.350  0.6050  0.3756  0.0340
 4566SOL    HW225332   1.935   0.379  11.457 -1.6727 -3.7378 -0.4460
 4567SOL     OW25333   3.700   1.750   4.843  0.5043 -0.3971 -0.6848
 4567SOL    HW125334   3.678   1.831   4.888  2.2000 -0.5291  0.3490
 4567SOL    HW225335   3.767   1.730   4.908 -0.9495 -0.2472  0.8691
 4568SOL     OW25336   0.429   0.696   7.048 -0.4962  0.0299  0.2297
 4568SOL    HW125337   0.348   0.649   7.032 -2.4490  3.5721 -0.4321
 4568SOL    HW225338   0.485   0.633   7.092  0.6301  0.5892 -0.3912
 4569SOL     OW25339   4.137   2.198  17.654  0.4917  0.3793  0.0003
 4569SOL    HW125340   4.150   2.269  17.717  0.6702  1.6339 -1.4689
 4569SOL    HW225341   4.204   2.215  17.588 -2.1097  1.5296 -2.3176
 4570SOL     OW25342   1.164   1.173   8.626 -0.6531 -0.8917 -0.2574
 4570SOL    HW125343   1.181   1.123   8.706  1.3134 -1.4025 -1.0076
 4570SOL    HW225344   1.176   1.265   8.651  1.4258 -0.9776 -0.9463
 4571SOL     OW25345   2.137   0.779   0.133 -0.8785  0.0121 -0.0565
 4571SOL    HW125346   2.139   0.727   0.053  0.6224 -1.3654  0.8826
 4571SOL    HW225347   2.231   0.771   0.147 -0.8354  2.2929  0.9659
 4572SOL     OW25348   0.577   0.392  16.542  0.3537  0.7961  0.0737
 4572SOL    HW125349   0.647   0.326  16.536  0.5396  1.1403 -1.4047
 4572SOL    HW225350   0.569   0.423  16.452 -1.9603  1.9840  0.6919
 4573SOL     OW25351   4.448   3.229   1.078 -0.6191  0.0215 -0.4575
 4573SOL    HW125352   4.539   3.206   1.095  0.0518  0.7233 -3.0884
 4573SOL    HW225353   4.406   3.214   1.163  0.9327  0.3522  0.3633
 4574SOL     OW25354   2.818   0.218   2.203  0.0379  0.5711  0.1699
 4574SOL    HW125355   2.732   0.178   2.189 -0.3302  1.6892 -0.7840
 4574SOL    HW225356   2.881   0.149   2.179  0.4401  0.4273  1.6904
 4575SOL     OW25357   2.364   1.080  12.756 -0.4376 -0.4408  0.0651
 4575SOL    HW125358   2.329   1.166  12.734 -2.0773 -1.2754 -0.5916
 4575SOL    HW225359   2.421   1.069  12.680  0.1857  1.1807  0.2997
 4576SOL     OW25360   3.965   0.442  10.061  0.5712  0.5624  0.2766
 4576SOL    HW125361   3.916   0.508  10.012 -2.5755 -0.1012  2.5426
 4576SOL    HW225362   3.921   0.418  10.143 -0.3849  0.8693 -0.1437
 4577SOL     OW25363   2.198   1.714  16.557 -0.3885 -0.5222  0.2766
 4577SOL    HW125364   2.189   1.632  16.606  3.0582 -1.9706 -1.5228
 4577SOL    HW225365   2.110   1.750  16.554  0.3810  1.4453  1.3789
 4578SOL     OW25366   0.886   4.353   5.162  0.0994  0.2565 -0.2917
 4578SOL    HW125367   0.893   4.258   5.156  0.3826  0.1407  1.8631
 4578SOL    HW225368   0.952   4.381   5.098  0.7542 -3.0039 -1.0342
 4579SOL     OW25369   2.371   3.782  10.818  0.1028 -0.3980  0.2527
 4579SOL    HW125370   2.319   3.762  10.896 -1.8053 -0.3125 -0.9819
 4579SOL    HW225371   2.307   3.822  10.760 -0.4581 -1.7888 -0.0932
 4580SOL     OW25372   3.905   3.130  15.737  0.2539  0.3575  0.0440
 4580SOL    HW125373   3.863   3.092  15.660 -0.4097  1.1677  0.0125
 4580SOL    HW225374   3.907   3.047  15.786  0.0086  1.6243  2.1914
 4581SOL     OW25375   1.381   3.770   3.418  1.0604  0.5497 -0.1831
 4581SOL    HW125376   1.332   3.822   3.355 -0.6696 -0.7059  0.1629
 4581SOL    HW225377   1.414   3.700   3.362  0.0696  1.4215 -1.8605
 4582SOL     OW25378   3.700   0.845   6.289 -0.2464 -0.7213 -0.5575
 4582SOL    HW125379   3.653   0.863   6.371  2.1332  2.2010  0.1568
 4582SOL    HW225380   3.710   0.932   6.249  0.3490 -0.8411 -0.6631
 4583SOL     OW25381   3.605   3.273   0.201  0.3911 -0.0285 -0.3774
 4583SOL    HW125382   3.672   3.339   0.219 -0.6923  0.6029  1.3448
 4583SOL    HW225383   3.518   3.312   0.198  1.0216  1.2689 -1.4891
 4584SOL     OW25384   0.110   2.904   3.585 -0.0372 -0.1099 -0.0993
 4584SOL    HW125385   0.065   2.960   3.522  0.9542  1.3601  0.4872
 4584SOL    HW225386   0.105   2.814   3.551 -1.9793 -0.6288  1.5345
 4585SOL     OW25387   1.578   0.583   5.972 -0.4876  0.0796  0.3002
 4585SOL    HW125388   1.534   0.624   5.897 -0.3556  1.0261  0.7490
 4585SOL    HW225389   1.608   0.662   6.017 -1.3855  0.3116  0.4876
 4586SOL     OW25390   4.117   3.438   2.504  0.5195 -0.2920 -0.1438
 4586SOL    HW125391   4.110   3.393   2.588  1.7840 -0.8822 -0.3611
 4586SOL    HW225392   4.131   3.371   2.436  2.1163 -0.2640  0.1551
 4587SOL     OW25393   2.385   0.804   2.163 -0.4192  0.5171 -0.5495
 4587SOL    HW125394   2.380   0.733   2.099 -0.4415 -2.1091  2.3428
 4587SOL    HW225395   2.424   0.879   2.119 -0.1966 -0.8151 -2.6405
 4588SOL     OW25396   3.152   4.540   5.246 -0.3666 -0.5460  0.1607
 4588SOL    HW125397   3.097   4.531   5.324 -0.6318 -0.1081  0.0261
 4588SOL    HW225398   3.095   4.523   5.170 -0.1855  0.2185 -0.1465
 4589SOL     OW25399   0.085   0.237   6.219  0.3759 -0.3888 -0.0453
 4589SOL    HW125400   0.113   0.234   6.127  3.1251 -0.0645  0.7907
 4589SOL    HW225401   0.016   0.303   6.214 -2.2622 -3.1784 -0.9032
 4590SOL     OW25402   4.376   2.133   8.483  0.3604  0.1663 -0.3825
 4590SOL    HW125403   4.463   2.097   8.472  0.0135 -1.2420  1.4702
 4590SOL    HW225404   4.372   2.198   8.413  0.8106 -1.3793 -1.8211
 4591SOL     OW25405   1.916   0.523  17.138  0.3448 -0.0663  0.0636
 4591SOL    HW125406   1.828   0.502  17.171  0.0122 -1.7403 -1.9349
 4591SOL    HW225407   1.941   0.605  17.181 -0.5962 -0.4525  1.3635
 4592SOL     OW25408   2.189   2.673   3.671  0.6218 -0.5448  0.0721
 4592SOL    HW125409   2.131   2.601   3.693 -0.4399  0.2680 -0.0791
 4592SOL    HW225410   2.271   2.626   3.654  1.1004  1.0519 -2.0709
 4593SOL     OW25411   0.534   0.686   4.562 -0.1132 -0.4146 -0.2864
 4593SOL    HW125412   0.448   0.727   4.568 -0.5625 -1.1895 -1.3596
 4593SOL    HW225413   0.552   0.682   4.656 -2.4934  1.1927  0.2213
 4594SOL     OW25414   3.045   3.344   8.888 -0.7720  0.2802  0.3242
 4594SOL    HW125415   2.956   3.309   8.893 -0.6279 -0.3607 -1.8492
 4594SOL    HW225416   3.054   3.379   8.977  1.1029  1.3519 -0.3083
 4595SOL     OW25417   1.083   0.309   7.817  0.6884  0.1947 -0.1300
 4595SOL    HW125418   1.071   0.222   7.778 -0.2127  0.4370 -0.3871
 4595SOL    HW225419   1.010   0.357   7.778  1.5758  2.5051  1.0392
 4596SOL     OW25420   1.791   1.181   4.070  0.1051  0.2195  0.0255
 4596SOL    HW125421   1.766   1.219   4.155  0.6692 -1.5079  0.9685
 4596SOL    HW225422   1.772   1.250   4.007 -2.1359 -1.2383 -0.9008
 4597SOL     OW25423   4.133   2.312  15.077 -0.2322 -0.5892 -0.6251
 4597SOL    HW125424   4.066   2.318  15.009 -1.7509  3.5604  1.2692
 4597SOL    HW225425   4.139   2.217  15.091  3.9538 -0.5875 -2.1624
 4598SOL     OW25426   2.778   0.244   3.220 -0.6771  0.1623 -0.4212
 4598SOL    HW125427   2.787   0.332   3.185  0.9141 -0.1840 -0.9022
 4598SOL    HW225428   2.754   0.195   3.142 -0.0563  0.2375 -0.6573
 4599SOL     OW25429   3.900   2.594   8.000 -0.4528 -0.6029  0.0803
 4599SOL    HW125430   3.972   2.609   7.940 -0.6636  0.4478  0.0894
 4599SOL    HW225431   3.837   2.642   7.947 -1.3799 -0.7745  1.0147
 4600SOL     OW25432   2.692   3.429   5.323 -0.0282  0.0805  0.1761
 4600SOL    HW125433   2.778   3.448   5.360  0.8278 -2.5173 -0.5119
 4600SOL    HW225434   2.636   3.407   5.398 -0.3587 -0.0607 -0.1092
 4601SOL     OW25435   1.859   4.288   4.093 -0.6234 -0.4448 -0.0188
 4601SOL    HW125436   1.826   4.266   4.006 -1.9291 -0.2871  0.4267
 4601SOL    HW225437   1.777   4.299   4.142 -0.0653  2.4120  0.2613
 4602SOL     OW25438   0.139   4.720   6.407  0.3359  0.5155  0.2464
 4602SOL    HW125439   0.061   4.683   6.365 -1.4690  1.2127  2.9767
 4602SOL    HW225440   0.156   0.064   6.357  0.3799  0.4532  0.1613
 4603SOL     OW25441   0.198   0.085   2.489  0.3063  0.6862  0.5492
 4603SOL    HW125442   0.150   0.002   2.498 -0.2500  0.8831 -0.5791
 4603SOL    HW225443   0.259   0.076   2.563 -0.1797 -0.5868  0.8023
 4604SOL     OW25444   2.811   3.099   9.562 -0.2891 -0.0330  0.0883
 4604SOL    HW125445   2.804   3.179   9.613  0.5731  1.2323 -1.8071
 4604SOL    HW225446   2.896   3.114   9.521 -0.2149 -2.9060 -0.8155
 4605SOL     OW25447   2.584   1.174   8.246  0.0267  0.1639 -0.2984
 4605SOL    HW125448   2.580   1.265   8.276  1.1425  0.5593 -1.3397
 4605SOL    HW225449   2.664   1.142   8.287 -0.0973 -0.3993 -0.5053
 4606SOL     OW25450   4.030   2.793   4.124  0.2206 -0.1627  0.1318
 4606SOL    HW125451   4.093   2.863   4.113  0.4856 -0.7683 -2.1975
 4606SOL    HW225452   4.003   2.815   4.214  1.4059  1.2597  0.1361
 4607SOL     OW25453   2.691   1.612   2.368  0.6488 -0.2955 -0.0149
 4607SOL    HW125454   2.778   1.603   2.407 -0.4029 -1.6446  2.0291
 4607SOL    HW225455   2.633   1.576   2.435 -1.2471  0.6655 -1.1379
 4608SOL     OW25456   0.473   2.269   7.559 -0.2090 -0.1300  0.5991
 4608SOL    HW125457   0.495   2.216   7.483  2.7765 -0.2725  1.5565
 4608SOL    HW225458   0.415   2.330   7.512  0.8590  0.3087 -0.1391
 4609SOL     OW25459   2.530   3.051   5.138  0.0017  0.0799 -0.3253
 4609SOL    HW125460   2.606   3.108   5.146  0.6672 -1.0130  1.1267
 4609SOL    HW225461   2.484   3.074   5.220  0.4749  1.3599 -0.4130
 4610SOL     OW25462   2.851   4.626   3.133  0.7251 -0.4131  0.1871
 4610SOL    HW125463   2.847   4.683   3.057  1.0861 -0.1910  0.3338
 4610SOL    HW225464   2.789   4.659   3.198  0.3315 -0.0518 -0.3749
 4611SOL     OW25465   0.478   3.483   1.676  0.3380  0.5517  0.6482
 4611SOL    HW125466   0.471   3.561   1.731 -1.2570 -0.8940  2.4791
 4611SOL    HW225467   0.573   3.471   1.680  0.1016 -1.4253  0.0467
 4612SOL     OW25468   0.773   1.824   1.244  0.4690  0.2800 -0.1264
 4612SOL    HW125469   0.704   1.779   1.294  0.2330  1.4665  0.6130
 4612SOL    HW225470   0.719   1.860   1.174  0.7477  0.1812 -0.3880
 4613SOL     OW25471   2.570   3.677   8.665 -0.3146 -0.1960 -0.1364
 4613SOL    HW125472   2.502   3.710   8.724 -0.9929 -5.3699  1.9846
 4613SOL    HW225473   2.517   3.630   8.600  0.3224 -1.3466  0.1862
 4614SOL     OW25474   2.931   4.511  10.247 -0.0029  0.8910  0.0783
 4614SOL    HW125475   2.882   4.469  10.177 -1.0209  0.2204  1.1793
 4614SOL    HW225476   2.886   4.515  10.332 -4.3643  0.1530 -2.1926
 4615SOL     OW25477   1.593   2.692  14.642  0.2601  0.1630  0.2588
 4615SOL    HW125478   1.546   2.637  14.579  1.2126  1.5311 -1.6624
 4615SOL    HW225479   1.523   2.702  14.706 -1.1038 -1.6651 -0.9117
 4616SOL     OW25480   0.497   0.244   5.994 -0.0873 -0.0082  0.1327
 4616SOL    HW125481   0.499   0.269   6.086 -0.1780 -2.2252  0.7477
 4616SOL    HW225482   0.441   0.166   6.002  0.4633 -0.5222 -0.9472
 4617SOL     OW25483   4.033   2.229   7.686  0.3361  0.6545  0.1461
 4617SOL    HW125484   4.076   2.175   7.620 -0.2432 -0.2125  0.4686
 4617SOL    HW225485   3.997   2.299   7.632 -2.1842  1.0874  2.3758
 4618SOL     OW25486   1.089   1.222  11.589 -0.4297  0.5265 -0.2478
 4618SOL    HW125487   1.154   1.203  11.657 -0.5008  2.3904  0.3575
 4618SOL    HW225488   1.013   1.198  11.642  0.9404 -0.4191  1.2930
 4619SOL     OW25489   1.673   3.858   4.464  0.4187 -0.0951 -0.0724
 4619SOL    HW125490   1.606   3.897   4.409  0.7979 -0.0668 -0.5189
 4619SOL    HW225491   1.661   3.765   4.441 -1.2581 -0.1884  1.1920
 4620SOL     OW25492   1.290   3.107   6.057 -0.0935 -0.4823  0.2404
 4620SOL    HW125493   1.237   3.183   6.033 -1.0364 -1.7228 -1.5646
 4620SOL    HW225494   1.378   3.145   6.056  0.0021 -0.6971  0.5771
 4621SOL     OW25495   4.327   4.684  12.911  0.1322  0.1900 -0.8215
 4621SOL    HW125496   4.406   4.647  12.871  2.2096  2.3200  1.3671
 4621SOL    HW225497   4.257   4.628  12.877  0.9002  0.1712 -2.3787
 4622SOL     OW25498   1.804   1.407   2.963  0.0854  0.0502  0.3792
 4622SOL    HW125499   1.883   1.460   2.957 -0.6960  1.1173 -0.4167
 4622SOL    HW225500   1.741   1.472   2.995 -0.9403 -0.7619  0.0311
 4623SOL     OW25501   0.239   3.831  10.722  0.0854 -0.1308 -0.1941
 4623SOL    HW125502   0.294   3.843  10.645  1.2997  1.8029  0.9565
 4623SOL    HW225503   0.208   3.741  10.709 -1.7197  0.4966 -0.1877
 4624SOL     OW25504   1.556   1.133   1.629  0.6242 -0.9956 -0.2630
 4624SOL    HW125505   1.499   1.060   1.652 -0.6021 -0.1460 -0.5597
 4624SOL    HW225506   1.612   1.083   1.570  1.8478 -1.6297  1.4386
 4625SOL     OW25507   1.979   0.152   9.560  0.2579  0.0354 -0.3040
 4625SOL    HW125508   1.984   0.125   9.468 -0.6194 -0.1744 -0.2854
 4625SOL    HW225509   2.049   0.218   9.555 -1.3838  1.9441  2.1345
 4626SOL     OW25510   2.508   0.964   1.650  0.3717  0.2767 -0.3395
 4626SOL    HW125511   2.569   0.890   1.643  0.1836  0.2664 -1.7522
 4626SOL    HW225512   2.567   1.003   1.716 -1.0349  1.0186  0.4682
 4627SOL     OW25513   0.689   1.743   7.821  0.2906  0.5739 -0.4838
 4627SOL    HW125514   0.604   1.787   7.821  0.7871  1.5681  4.4610
 4627SOL    HW225515   0.676   1.689   7.899  0.4621  1.6712  0.3210
 4628SOL     OW25516   3.367   1.819   7.337 -0.6408  0.2084  0.6325
 4628SOL    HW125517   3.284   1.799   7.293 -1.3644 -0.6722  2.4016
 4628SOL    HW225518   3.420   1.833   7.258 -2.2748 -3.1103 -1.1014
 4629SOL     OW25519   2.621   0.366   3.617 -0.5030 -0.2229  0.0966
 4629SOL    HW125520   2.560   0.413   3.559 -0.3443 -1.4814 -1.0870
 4629SOL    HW225521   2.653   0.303   3.552 -1.2249 -0.3909 -0.1019
 4630SOL     OW25522   1.737   4.221   9.208  0.0239  0.2289 -0.0187
 4630SOL    HW125523   1.774   4.283   9.146 -1.2055 -1.3563 -2.3507
 4630SOL    HW225524   1.773   4.256   9.289  2.2502  0.2521 -1.0198
 4631SOL     OW25525   0.194   4.335   2.397  0.1764 -0.4266 -0.4427
 4631SOL    HW125526   0.141   4.374   2.327  0.7171  0.4978 -0.3438
 4631SOL    HW225527   0.149   4.251   2.404 -1.1293  0.3432  0.4468
 4632SOL     OW25528   0.203   2.217   7.997 -0.2748 -0.3446  0.4005
 4632SOL    HW125529   0.231   2.151   7.933  0.5456 -1.2458  1.6910
 4632SOL    HW225530   0.125   2.261   7.962  1.1035  0.9249 -1.1039
 4633SOL     OW25531   0.533   2.113   0.312  0.2882 -0.3355 -0.1229
 4633SOL    HW125532   0.456   2.149   0.357 -0.0466  0.1816 -1.1263
 4633SOL    HW225533   0.581   2.068   0.381  2.1130  0.7496 -0.6849
 4634SOL     OW25534   1.037   1.677   6.150  0.5993 -0.1405  0.3358
 4634SOL    HW125535   1.116   1.682   6.203 -0.8791  4.5143  2.0931
 4634SOL    HW225536   1.072   1.666   6.062  3.1071  2.9761  0.9635
 4635SOL     OW25537   0.216   2.119   6.151  0.8703  0.5345  0.1038
 4635SOL    HW125538   0.217   2.023   6.155 -0.2753  0.4310 -2.0627
 4635SOL    HW225539   0.130   2.140   6.117 -0.1378 -0.5172  2.0019
 4636SOL     OW25540   0.848   1.491   7.414  0.1976  0.3590  0.4394
 4636SOL    HW125541   0.791   1.414   7.412  1.0602 -0.2820  0.1993
 4636SOL    HW225542   0.824   1.537   7.334  0.9495 -1.0074 -0.5772
 4637SOL     OW25543   4.398   4.731   4.838  0.5203  0.2329 -0.3920
 4637SOL    HW125544   4.313   4.699   4.867  0.3941  0.6379 -0.3068
 4637SOL    HW225545   4.451   4.721   4.917  1.6116  3.7382 -0.6779
 4638SOL     OW25546   2.887   1.766   3.920 -0.4057 -0.7483 -0.1165
 4638SOL    HW125547   2.857   1.706   3.988  0.2906 -0.3787  0.5124
 4638SOL    HW225548   2.822   1.741   3.854  0.5508  1.7379 -1.9816
 4639SOL     OW25549   2.032   1.681   1.490  0.9393  0.6741  0.1837
 4639SOL    HW125550   1.991   1.766   1.506 -0.8424 -0.3933  1.3086
 4639SOL    HW225551   1.973   1.653   1.420  1.6522 -0.4190  0.0294
 4640SOL     OW25552   0.328   4.732  12.697 -0.9394  0.2979  0.0100
 4640SOL    HW125553   0.394   0.020  12.763 -0.4355 -0.3177 -0.2762
 4640SOL    HW225554   0.387   4.680  12.643 -0.8768  0.8532 -0.4559
 4641SOL     OW25555   0.755   2.215   8.400  0.0748 -0.0236  0.1384
 4641SOL    HW125556   0.682   2.246   8.453 -0.6534  0.2865 -1.0350
 4641SOL    HW225557   0.832   2.224   8.455  0.6759 -1.2199 -0.5047
 4642SOL     OW25558   4.010   4.002   7.315 -0.2160 -0.1673  0.1265
 4642SOL    HW125559   3.981   3.931   7.372  0.8512 -0.6438  0.0731
 4642SOL    HW225560   4.089   4.035   7.359 -0.8143  0.4430  0.7570
 4643SOL     OW25561   0.460   1.660   4.022 -0.4296  0.3287  0.0537
 4643SOL    HW125562   0.553   1.675   4.034 -0.7645  1.9300  0.6204
 4643SOL    HW225563   0.433   1.671   4.113  1.2579 -0.1089  0.5972
 4644SOL     OW25564   2.020   1.944   5.935  0.0825 -0.0719  0.5047
 4644SOL    HW125565   2.083   1.941   5.863  0.5205 -1.9184  0.9753
 4644SOL    HW225566   2.041   1.856   5.964  1.5845  0.1278  0.0128
 4645SOL     OW25567   3.993   3.352   3.358 -0.2433 -0.6606 -0.1807
 4645SOL    HW125568   4.026   3.430   3.314 -1.6363  0.7199  1.2735
 4645SOL    HW225569   3.961   3.308   3.279  0.4570 -1.6745  0.0902
 4646SOL     OW25570   1.988   3.044  13.108 -0.3183 -0.3945 -0.0300
 4646SOL    HW125571   2.012   2.967  13.056 -1.0768 -0.3454 -0.4564
 4646SOL    HW225572   1.966   3.002  13.191  0.6255  0.1135  0.4805
 4647SOL     OW25573   3.723   0.500  11.319  0.3039 -0.2932  0.1909
 4647SOL    HW125574   3.760   0.589  11.314  0.3096 -0.2209  1.4945
 4647SOL    HW225575   3.783   0.450  11.263 -0.0006 -0.3003 -0.1307
 4648SOL     OW25576   0.408   4.444   8.658  0.6160  0.1691  0.2592
 4648SOL    HW125577   0.489   4.394   8.669  1.1061  0.8763 -0.0559
 4648SOL    HW225578   0.374   4.454   8.747  2.4557 -0.4920  1.0498
 4649SOL     OW25579   1.517   1.669   4.862  0.1671  0.2161  0.0568
 4649SOL    HW125580   1.460   1.649   4.787  1.5013  0.9850 -1.1570
 4649SOL    HW225581   1.520   1.589   4.914  0.6818 -0.2542 -0.7065
 4650SOL     OW25582   3.995   1.573   1.807  0.2198  0.1062 -0.1113
 4650SOL    HW125583   4.041   1.648   1.771 -1.4773  1.8441  1.3652
 4650SOL    HW225584   3.917   1.593   1.755  0.5895  0.8392 -0.3843
 4651SOL     OW25585   2.354   4.295  17.662  0.4145 -0.2833  0.3720
 4651SOL    HW125586   2.285   4.284  17.596 -0.6409  0.5194  1.3554
 4651SOL    HW225587   2.421   4.319  17.598 -0.0207  0.1850  0.0873
 4652SOL     OW25588   1.325   0.006  11.805  0.2536  0.8389 -0.4665
 4652SOL    HW125589   1.268   0.082  11.794  4.1938  4.1004  1.2539
 4652SOL    HW225590   1.263   4.693  11.859  1.3522  0.0190  0.0545
 4653SOL     OW25591   0.882   4.445   4.799 -0.5420  0.0128  0.2302
 4653SOL    HW125592   0.950   4.447   4.866 -1.5507  0.4811  1.2376
 4653SOL    HW225593   0.889   4.354   4.771  0.5454  0.3015 -0.4446
 4654SOL     OW25594   4.621   3.170   2.257  0.0467 -0.0620 -0.4010
 4654SOL    HW125595   4.695   3.200   2.204 -0.1108 -3.2584 -2.4172
 4654SOL    HW225596   4.544   3.215   2.222  2.3027  2.5237 -1.9576
 4655SOL     OW25597   2.932   2.910   2.369 -0.5594  0.3441  0.3502
 4655SOL    HW125598   3.026   2.895   2.359 -0.7497  0.2762 -1.3665
 4655SOL    HW225599   2.921   2.988   2.314  0.9966  1.0643  1.0516
 4656SOL     OW25600   0.954   1.804   3.776 -0.2528  0.3481 -0.3256
 4656SOL    HW125601   0.915   1.868   3.717  1.7052  1.4450 -0.4183
 4656SOL    HW225602   1.048   1.822   3.770 -0.0769 -0.5066 -0.1854
 4657SOL     OW25603   1.940   4.236  15.119  0.0115 -0.1234  0.5827
 4657SOL    HW125604   1.915   4.271  15.205  1.0128 -0.4961  1.0191
 4657SOL    HW225605   1.941   4.143  15.141 -0.2584 -0.3053 -0.1666
 4658SOL     OW25606   2.084   0.267  10.704  0.1907 -0.8674 -0.3409
 4658SOL    HW125607   2.089   0.343  10.646  2.5119 -1.0006 -0.2914
 4658SOL    HW225608   2.172   0.234  10.686  0.5334  0.6863 -1.4593
 4659SOL     OW25609   3.702   0.726   1.639 -0.4897  0.0854 -0.1093
 4659SOL    HW125610   3.687   0.638   1.672 -0.2741 -0.2617 -0.9328
 4659SOL    HW225611   3.641   0.787   1.680 -3.0375 -1.5520 -1.4803
 4660SOL     OW25612   1.460   0.472   6.688 -0.2771 -0.2336 -0.3741
 4660SOL    HW125613   1.555   0.461   6.678 -0.1950  0.1708 -0.0533
 4660SOL    HW225614   1.426   0.472   6.598  1.8479 -1.6326 -1.1970
 4661SOL     OW25615   2.698   4.127   6.734  0.6931  0.4952  0.0843
 4661SOL    HW125616   2.631   4.177   6.781  0.1171  0.8863 -1.1603
 4661SOL    HW225617   2.666   4.103   6.647  2.8139  0.1506 -0.6028
 4662SOL     OW25618   1.205   3.897   3.693  0.0296 -0.5444  0.1499
 4662SOL    HW125619   1.114   3.868   3.681 -0.7758  1.8435  0.4516
 4662SOL    HW225620   1.226   3.905   3.600 -0.0815 -1.4976  0.0377
 4663SOL     OW25621   0.990   0.038  15.409 -0.0817  0.6345  0.3244
 4663SOL    HW125622   0.933   0.026  15.485 -0.5054 -4.0824 -0.6796
 4663SOL    HW225623   0.933   4.735  15.342 -0.1764  1.6426 -0.1640
 4664SOL     OW25624   4.625   1.689   6.218  0.9215  0.2583 -0.4250
 4664SOL    HW125625   4.609   1.627   6.147 -0.0784 -0.6215  0.5736
 4664SOL    HW225626   4.663   1.626   6.279 -0.0574  0.9610  0.9210
 4665SOL     OW25627   3.516   1.389   1.800  0.1611 -0.6120 -0.4268
 4665SOL    HW125628   3.514   1.386   1.705 -0.5565  4.3177 -0.5368
 4665SOL    HW225629   3.523   1.483   1.817  0.7144 -0.9339  1.1460
 4666SOL     OW25630   2.782   1.585   4.082 -0.0991 -0.7112 -0.8906
 4666SOL    HW125631   2.833   1.549   4.154  1.6132  2.5470 -0.4790
 4666SOL    HW225632   2.702   1.533   4.092 -0.5406  0.1568  0.0829
 4667SOL     OW25633   4.370   0.267   7.331 -0.5000 -0.1465 -0.2097
 4667SOL    HW125634   4.413   0.316   7.261  0.6194 -1.8400 -0.7105
 4667SOL    HW225635   4.284   0.308   7.326  0.1917  1.3079  0.0010
 4668SOL     OW25636   1.631   1.708   2.410  0.1754  0.0959 -0.1285
 4668SOL    HW125637   1.549   1.688   2.454 -0.8865 -0.8266 -2.5173
 4668SOL    HW225638   1.654   1.798   2.434  0.5809 -0.6403  2.1761
 4669SOL     OW25639   1.546   2.343   6.017  0.0595 -0.0549  0.4863
 4669SOL    HW125640   1.595   2.264   5.998 -1.3983 -0.3077 -2.3095
 4669SOL    HW225641   1.510   2.318   6.102  2.6432 -0.6840  1.3785
 4670SOL     OW25642   4.054   2.949  13.891 -0.5222  1.1888  0.2231
 4670SOL    HW125643   4.005   2.973  13.813 -0.8016 -1.0934 -0.2902
 4670SOL    HW225644   4.141   2.980  13.864 -0.9722  0.8092 -1.6141
 4671SOL     OW25645   4.288   1.865  13.802  0.1515 -0.1588 -0.1306
 4671SOL    HW125646   4.278   1.953  13.766 -1.7426 -0.7859 -1.1193
 4671SOL    HW225647   4.206   1.825  13.776  0.9028 -0.7644 -1.5349
 4672SOL     OW25648   2.235   0.257   8.487  0.5075  0.0551 -0.1840
 4672SOL    HW125649   2.181   0.241   8.410  0.0668  2.8395 -0.4404
 4672SOL    HW225650   2.221   0.351   8.490  1.4880  0.1505  1.1750
 4673SOL     OW25651   1.541   0.710   7.628  0.0043 -0.0377 -0.2303
 4673SOL    HW125652   1.493   0.779   7.672  1.0555  0.9196 -0.5948
 4673SOL    HW225653   1.467   0.648   7.626 -1.2776  1.5530 -2.2394
 4674SOL     OW25654   0.048   3.912   6.279  0.0525 -0.3304 -0.1068
 4674SOL    HW125655   4.716   3.893   6.213  0.4341  1.3756 -1.0026
 4674SOL    HW225656   0.090   3.827   6.288 -0.5249 -0.5395  0.5936
 4675SOL     OW25657   2.335   4.212  16.223 -0.0043  0.6854  0.0443
 4675SOL    HW125658   2.338   4.276  16.152 -0.2114  0.5309 -0.1027
 4675SOL    HW225659   2.249   4.172  16.209  0.1028  0.2280  0.6620
 4676SOL     OW25660   2.120   3.914   2.382  0.0681 -0.3902  0.4107
 4676SOL    HW125661   2.106   3.820   2.370  0.0481 -0.3053 -0.2155
 4676SOL    HW225662   2.104   3.922   2.476  0.7445 -1.5881  0.6195
 4677SOL     OW25663   4.526   0.425  15.680 -0.4505  0.1724 -0.1358
 4677SOL    HW125664   4.518   0.375  15.599  0.3239 -0.1762  0.0028
 4677SOL    HW225665   4.528   0.350  15.739  0.4162  0.0020 -0.3723
 4678SOL     OW25666   2.653   4.551  13.093  0.1539  0.2592  0.6382
 4678SOL    HW125667   2.654   4.467  13.138  2.2784 -1.7228 -3.0708
 4678SOL    HW225668   2.691   4.602  13.164  1.6411 -0.3310  0.2649
 4679SOL     OW25669   1.795   3.159  12.338 -0.3218 -0.0594  0.5017
 4679SOL    HW125670   1.868   3.100  12.356 -0.4515 -0.1430  0.7540
 4679SOL    HW225671   1.730   3.095  12.369 -0.0061 -0.4249  0.4159
 4680SOL     OW25672   0.808   3.694   8.041 -0.2318 -0.4219  0.0631
 4680SOL    HW125673   0.735   3.639   8.011  0.5464 -1.3064 -0.2242
 4680SOL    HW225674   0.863   3.624   8.078  0.5264  0.1582  0.0412
 4681SOL     OW25675   2.909   3.037   4.436 -0.3991  0.3737  0.1395
 4681SOL    HW125676   2.942   2.947   4.445  1.7064  1.2305  1.0849
 4681SOL    HW225677   2.958   3.063   4.514 -1.5959  1.1205  0.6376
 4682SOL     OW25678   0.146   3.306   8.969 -0.0272  0.2772 -0.5787
 4682SOL    HW125679   0.210   3.329   8.901  0.6316  2.7417  0.8646
 4682SOL    HW225680   0.102   3.390   8.980 -1.1989 -0.6547  1.8526
 4683SOL     OW25681   1.261   1.034  10.790 -0.1565 -0.1304  0.2388
 4683SOL    HW125682   1.309   1.064  10.867 -0.0698  1.9068 -0.6020
 4683SOL    HW225683   1.315   0.961  10.761 -1.2834 -0.2246 -1.6699
 4684SOL     OW25684   3.922   2.368  15.876  0.1717  0.2388 -0.4607
 4684SOL    HW125685   3.988   2.299  15.881 -0.1106 -0.0994 -1.4152
 4684SOL    HW225686   3.960   2.430  15.939  1.1511  0.4299 -1.2217
 4685SOL     OW25687   0.805   0.024   0.493  0.5385  0.1362 -0.3821
 4685SOL    HW125688   0.857   0.053   0.418 -0.2116 -0.3509 -1.0871
 4685SOL    HW225689   0.863   0.050   0.564  1.0045  1.3068 -1.1924
 4686SOL     OW25690   4.206   4.268   4.866  0.5243 -0.5192 -0.3414
 4686SOL    HW125691   4.260   4.191   4.849  1.1752 -0.1648  0.1485
 4686SOL    HW225692   4.252   4.307   4.940  0.4984 -0.1661 -0.5097
 4687SOL     OW25693   0.678   1.342   8.471  0.6106 -0.3586 -0.0992
 4687SOL    HW125694   0.623   1.300   8.405  3.6077 -1.1099 -2.1265
 4687SOL    HW225695   0.624   1.368   8.545  1.8572 -1.0763  1.0656
 4688SOL     OW25696   1.775   3.175   5.921  0.3551  0.0855 -0.2190
 4688SOL    HW125697   1.802   3.149   5.833 -1.4549  2.5235 -1.5130
 4688SOL    HW225698   1.809   3.264   5.932 -0.8525  0.8586 -2.7148
 4689SOL     OW25699   4.022   3.071  16.830 -0.3591 -0.4662 -0.0940
 4689SOL    HW125700   3.944   3.037  16.785  0.6971  1.8519 -3.6518
 4689SOL    HW225701   3.988   3.157  16.858  0.1085 -0.3101 -0.0059
 4690SOL     OW25702   3.328   3.917  11.074 -0.2716 -0.0862  0.5807
 4690SOL    HW125703   3.352   3.960  10.992 -1.7961 -0.2786  0.0361
 4690SOL    HW225704   3.410   3.939  11.117  0.1508  0.0775 -0.3145
 4691SOL     OW25705   1.441   0.888  14.502 -0.4275  0.0346 -0.4251
 4691SOL    HW125706   1.354   0.853  14.480  0.1726 -1.7525  0.0297
 4691SOL    HW225707   1.457   0.938  14.422  0.9469 -0.6571 -0.5714
 4692SOL     OW25708   0.029   1.241   3.084  0.2879  0.1006 -0.0568
 4692SOL    HW125709   0.041   1.260   3.177  1.0120  0.8603 -0.2991
 4692SOL    HW225710   0.019   1.147   3.092  0.7538 -0.1237 -2.1685
 4693SOL     OW25711   3.337   3.209   6.594 -0.3022 -0.0111  0.3193
 4693SOL    HW125712   3.258   3.218   6.541 -1.2137 -0.2872  1.6138
 4693SOL    HW225713   3.330   3.290   6.644 -2.4083  0.2651 -0.4458
 4694SOL     OW25714   0.723   2.989   1.134 -0.0212 -0.4635 -0.2216
 4694SOL    HW125715   0.735   2.931   1.210  1.6777 -0.4767 -0.5015
 4694SOL    HW225716   0.815   3.015   1.124  0.1021 -0.9962 -0.5140
 4695SOL     OW25717   0.535   4.462  15.533  0.3774  0.4599  0.1421
 4695SOL    HW125718   0.562   4.543  15.489 -1.0024 -0.0349 -1.5930
 4695SOL    HW225719   0.618   4.445  15.578  1.2753  2.4027 -0.7525
 4696SOL     OW25720   4.518   3.092   4.709 -0.6477 -0.0223 -0.6738
 4696SOL    HW125721   4.608   3.066   4.689 -0.0126  1.8450 -0.1919
 4696SOL    HW225722   4.532   3.186   4.720 -1.6166  0.3248 -2.2934
 4697SOL     OW25723   2.189   0.235  11.366 -0.0360  0.5855  0.8316
 4697SOL    HW125724   2.208   0.175  11.295  0.2423 -0.7678  2.0556
 4697SOL    HW225725   2.241   0.187  11.430 -0.1570  0.8373  1.1194
 4698SOL     OW25726   1.839   4.305  11.474 -0.3150 -0.0649 -0.5728
 4698SOL    HW125727   1.798   4.375  11.524  2.4425  0.7362  0.5998
 4698SOL    HW225728   1.798   4.318  11.389 -1.2135  0.5205 -0.0448
 4699SOL     OW25729   2.134   2.107   0.793 -0.0142  0.0327 -0.3752
 4699SOL    HW125730   2.170   2.144   0.874  0.8353 -0.2687 -0.6093
 4699SOL    HW225731   2.086   2.183   0.762 -0.5455  0.1282  0.6759
 4700SOL     OW25732   4.533   0.279  16.118  0.0915  0.0352 -0.6701
 4700SOL    HW125733   4.599   0.333  16.162  0.6176 -1.1529 -0.0072
 4700SOL    HW225734   4.458   0.302  16.171  0.2070 -1.1399  0.0089
 4701SOL     OW25735   1.540   1.415  13.059 -0.7108  0.1520  0.2893
 4701SOL    HW125736   1.580   1.404  13.145 -1.7017  0.7672  0.8236
 4701SOL    HW225737   1.553   1.331  13.015 -3.0936 -0.3129  0.4627
 4702SOL     OW25738   3.932   0.625   9.182 -0.3389  0.4069 -0.3196
 4702SOL    HW125739   3.898   0.539   9.206  0.7010 -0.1213 -0.7481
 4702SOL    HW225740   3.977   0.657   9.260 -1.1166 -0.8325  0.6253
 4703SOL     OW25741   3.969   3.124   0.068 -0.2246  1.1067  0.6288
 4703SOL    HW125742   3.942   3.036   0.042  0.3626  0.7359  1.2840
 4703SOL    HW225743   3.900   3.146   0.131 -0.4916  1.8619  0.0660
 4704SOL     OW25744   1.635   1.873   4.343 -0.1463 -0.5747  0.5392
 4704SOL    HW125745   1.629   1.853   4.436  2.6388  2.0983  1.2675
 4704SOL    HW225746   1.677   1.794   4.307 -2.7496 -0.3137 -3.0384
 4705SOL     OW25747   1.602   1.058   8.220 -0.0261 -0.2652 -0.0257
 4705SOL    HW125748   1.581   1.136   8.271  0.7783 -1.5152  2.2276
 4705SOL    HW225749   1.540   0.997   8.262  0.2745 -1.5476 -1.4168
 4706SOL     OW25750   2.596   3.446   8.424 -0.4985  0.4274  0.3766
 4706SOL    HW125751   2.532   3.518   8.425 -1.1522 -0.1610  1.6612
 4706SOL    HW225752   2.652   3.466   8.349 -0.8182  2.0293  0.5632
 4707SOL     OW25753   0.219   3.585   9.289  0.0313  0.1854  0.5277
 4707SOL    HW125754   0.259   3.612   9.206  0.8470 -1.8950  0.2330
 4707SOL    HW225755   0.209   3.493   9.263 -0.7892  0.6769 -0.9170
 4708SOL     OW25756   0.336   2.665   7.838 -0.4502 -0.0918 -0.5499
 4708SOL    HW125757   0.307   2.596   7.778 -0.9472 -1.7664  1.6296
 4708SOL    HW225758   0.409   2.611   7.870  0.6943  2.1904  0.6382
 4709SOL     OW25759   1.996   3.317   3.749  0.3223  0.4140 -0.1891
 4709SOL    HW125760   1.921   3.266   3.779  0.5340 -0.3108 -0.8852
 4709SOL    HW225761   1.976   3.308   3.655 -0.2401  0.4678 -0.0790
 4710SOL     OW25762   0.074   3.163   1.523 -0.2451  0.3920  0.0023
 4710SOL    HW125763   0.149   3.126   1.476  0.1696  1.6588 -0.3348
 4710SOL    HW225764   0.026   3.201   1.449  2.4002 -0.1607 -1.9744
 4711SOL     OW25765   2.989   1.803   4.834  0.1937  0.4341  0.2367
 4711SOL    HW125766   3.003   1.849   4.751 -0.4394  2.6351  1.3492
 4711SOL    HW225767   2.896   1.785   4.822  0.2118 -0.2696  1.1317
 4712SOL     OW25768   2.668   4.730   8.889 -0.6443  0.1369 -0.0510
 4712SOL    HW125769   2.690   4.710   8.798 -0.3224 -0.8466  0.2510
 4712SOL    HW225770   2.647   4.641   8.917  1.9185 -0.5014 -0.1183
 4713SOL     OW25771   1.364   1.564   7.368  0.0291  0.4971  0.8251
 4713SOL    HW125772   1.361   1.547   7.463 -0.5404 -2.5676  0.2577
 4713SOL    HW225773   1.436   1.627   7.359 -0.2523  1.0404  2.3262
 4714SOL     OW25774   2.630   0.640  15.617 -0.2789 -0.2192 -0.1472
 4714SOL    HW125775   2.681   0.690  15.554 -2.9361  0.5015 -1.7186
 4714SOL    HW225776   2.548   0.664  15.575 -0.7726 -1.7131 -0.0596
 4715SOL     OW25777   4.688   0.708   9.032 -0.2715  0.5877  0.2290
 4715SOL    HW125778   4.611   0.652   9.027  1.4372 -1.7050 -0.2193
 4715SOL    HW225779   4.658   0.796   9.008 -1.1192  0.0348 -0.7411
 4716SOL     OW25780   0.868   0.379  10.986  0.2123 -0.2213 -0.2277
 4716SOL    HW125781   0.839   0.465  11.016  0.8575 -0.6183  1.5550
 4716SOL    HW225782   0.799   0.314  11.002 -0.1210  0.3076  0.4734
 4717SOL     OW25783   1.415   3.663   0.387  0.1778  0.2670 -0.2361
 4717SOL    HW125784   1.455   3.750   0.388  1.4741 -0.3212  0.0443
 4717SOL    HW225785   1.457   3.628   0.309  2.5057 -0.7987  1.4755
 4718SOL     OW25786   2.987   4.514   2.327  0.2904  0.4745 -0.1051
 4718SOL    HW125787   3.055   4.448   2.340  0.9385  0.8881 -1.3521
 4718SOL    HW225788   3.040   4.590   2.304  1.0608 -0.4038 -1.2697
 4719SOL     OW25789   1.156   3.460   3.469 -0.3476  0.3287 -0.0300
 4719SOL    HW125790   1.065   3.453   3.497 -0.3280  2.3926  0.5229
 4719SOL    HW225791   1.194   3.507   3.543 -0.8692 -0.7604  0.9358
 4720SOL     OW25792   1.613   4.593   3.575  0.1667 -0.3706  0.2672
 4720SOL    HW125793   1.594   4.686   3.572 -0.2022 -0.4032  1.3996
 4720SOL    HW225794   1.702   4.605   3.541  0.2091 -0.9581  0.1682
 4721SOL     OW25795   0.245   0.514   4.833  0.5300 -0.1165 -0.3817
 4721SOL    HW125796   0.264   0.465   4.754  2.4234  0.1970 -0.1237
 4721SOL    HW225797   0.330   0.510   4.879 -0.9768 -1.3358  2.3141
 4722SOL     OW25798   0.944   2.057   6.764  0.6293  0.4883 -0.2556
 4722SOL    HW125799   1.026   2.009   6.767  0.3935  0.2985  3.2260
 4722SOL    HW225800   0.974   2.122   6.701 -1.3449  0.6767 -1.0100
 4723SOL     OW25801   4.191   1.282  13.211 -0.0603 -0.0080 -0.8384
 4723SOL    HW125802   4.117   1.227  13.238 -0.0558  0.4319  0.0942
 4723SOL    HW225803   4.227   1.301  13.298 -2.3450 -2.8945  0.7193
 4724SOL     OW25804   4.591   3.563  14.822  0.1088  0.0945  0.3575
 4724SOL    HW125805   4.653   3.547  14.751  1.1020  2.3737  0.7179
 4724SOL    HW225806   4.591   3.657  14.840  0.4521  0.1528  0.0468
 4725SOL     OW25807   4.057   2.734  11.463 -0.1658 -0.4726 -0.1354
 4725SOL    HW125808   4.136   2.694  11.501 -0.4840  0.4406  1.4722
 4725SOL    HW225809   4.094   2.807  11.413 -0.0459 -0.1058  0.4838
 4726SOL     OW25810   1.803   3.027   8.948 -0.2833  0.1516 -0.4291
 4726SOL    HW125811   1.889   3.042   8.989 -0.3150  1.0728 -0.7071
 4726SOL    HW225812   1.820   2.983   8.865 -0.6100  1.7121 -1.3082
 4727SOL     OW25813   1.058   0.744   1.329 -0.4762  0.2935  0.2370
 4727SOL    HW125814   1.072   0.778   1.241 -1.6759  0.8000  0.2533
 4727SOL    HW225815   1.054   0.830   1.370  1.6695 -0.4208  1.9658
 4728SOL     OW25816   2.305   0.017   3.719  0.4606 -0.2908  0.3501
 4728SOL    HW125817   2.398   0.000   3.708  0.1858 -1.8284  0.3294
 4728SOL    HW225818   2.266   0.014   3.632  0.5614 -1.1617  0.3330
 4729SOL     OW25819   0.100   3.404  11.318  0.2634  0.7536 -0.0763
 4729SOL    HW125820   0.051   3.485  11.326 -3.2608 -1.9043  5.0150
 4729SOL    HW225821   0.058   3.364  11.242  0.5783 -0.3143  0.3080
 4730SOL     OW25822   2.159   4.377   5.545  0.3133  0.7110 -0.0940
 4730SOL    HW125823   2.220   4.359   5.474 -0.8044  1.8638 -1.3442
 4730SOL    HW225824   2.218   4.394   5.618  1.2522 -1.7915 -0.2392
 4731SOL     OW25825   2.091   1.117   6.591  0.4060  0.1180  0.3312
 4731SOL    HW125826   1.997   1.102   6.579  0.5842 -0.7858  0.1052
 4731SOL    HW225827   2.094   1.161   6.676 -0.3681  0.7251  0.0447
 4732SOL     OW25828   2.508   4.559   2.797  0.5813  0.0906 -0.1441
 4732SOL    HW125829   2.564   4.608   2.857 -2.5803  3.0845  0.3925
 4732SOL    HW225830   2.523   4.472   2.835  0.4191  0.7823  1.5274
 4733SOL     OW25831   2.671   4.501   6.780  0.0627  0.5059  0.4110
 4733SOL    HW125832   2.671   4.483   6.874 -2.6532 -1.2431  0.0852
 4733SOL    HW225833   2.696   4.593   6.793  1.2909  0.1361  0.6870
 4734SOL     OW25834   1.836   2.042  17.387 -0.5927  0.2074 -0.3317
 4734SOL    HW125835   1.907   1.982  17.363  0.3746  1.2441 -0.0634
 4734SOL    HW225836   1.819   2.077  17.300  1.1937 -0.6700 -1.0356
 4735SOL     OW25837   2.669   4.422   8.263 -0.5882 -0.0893 -0.2426
 4735SOL    HW125838   2.733   4.360   8.230  0.6517 -0.7760  3.4852
 4735SOL    HW225839   2.627   4.441   8.179 -0.7779  0.5005 -0.0199
 4736SOL     OW25840   3.301   0.360   6.592  0.0662 -0.2246  0.4010
 4736SOL    HW125841   3.382   0.314   6.570 -1.0673 -2.8306  1.6643
 4736SOL    HW225842   3.245   0.341   6.517  1.6890  1.7480 -1.2984
 4737SOL     OW25843   1.568   2.786   4.886 -0.4694  0.6389  0.1695
 4737SOL    HW125844   1.637   2.849   4.864  1.7051 -2.0264 -0.6384
 4737SOL    HW225845   1.601   2.710   4.837 -0.7019  0.4024  0.3809
 4738SOL     OW25846   2.270   4.657   3.985 -0.9391 -0.1404  0.1238
 4738SOL    HW125847   2.268   4.677   3.891  2.4705 -2.7768 -0.5293
 4738SOL    HW225848   2.310   4.570   3.994  0.8440  0.6216 -0.2630
 4739SOL     OW25849   2.013   1.047   0.178 -0.2084 -0.5459 -0.7455
 4739SOL    HW125850   2.045   0.960   0.157 -0.5666 -0.8239 -0.1702
 4739SOL    HW225851   2.054   1.054   0.265 -0.5034 -0.2708 -0.6286
 4740SOL     OW25852   0.678   1.838   2.662  0.2602 -0.9356  0.1886
 4740SOL    HW125853   0.725   1.775   2.607 -0.1141 -0.1232 -1.0684
 4740SOL    HW225854   0.658   1.784   2.738 -1.3760 -0.3643  0.1697
 4741SOL     OW25855   3.608   4.390   8.331 -0.1818 -0.6278  0.3991
 4741SOL    HW125856   3.572   4.467   8.286 -0.4877  0.4288  2.4369
 4741SOL    HW225857   3.697   4.410   8.362  0.4527  0.5334 -2.1543
 4742SOL     OW25858   3.573   0.760   1.174 -0.1459 -0.2392 -0.1008
 4742SOL    HW125859   3.496   0.714   1.208 -1.4303  2.8610  1.1943
 4742SOL    HW225860   3.641   0.731   1.235 -1.0094  1.0248  1.4687
 4743SOL     OW25861   4.288   2.009   4.924 -0.0228 -0.6083  0.3288
 4743SOL    HW125862   4.347   2.082   4.904 -0.3278 -0.2745  0.6585
 4743SOL    HW225863   4.236   2.052   4.992  1.5793 -1.8638  2.3718
 4744SOL     OW25864   4.673   1.668  17.086 -0.1652  0.1578  0.3581
 4744SOL    HW125865   0.010   1.668  17.023  2.2352 -0.5304  3.1439
 4744SOL    HW225866   4.721   1.631  17.160  0.7808 -0.8851 -0.7784
 4745SOL     OW25867   2.848   0.678   3.333  0.1462 -0.0932  0.4929
 4745SOL    HW125868   2.852   0.626   3.252  2.1850  0.6519  0.1062
 4745SOL    HW225869   2.832   0.769   3.307 -1.6212 -0.6255 -0.2760
 4746SOL     OW25870   1.462   4.132   5.041 -0.1323  0.6925 -0.0529
 4746SOL    HW125871   1.447   4.226   5.036  0.6943  1.0009  3.0974
 4746SOL    HW225872   1.482   4.125   5.134 -0.9694 -0.0411  0.0754
 4747SOL     OW25873   3.785   2.033   6.222 -0.0748  0.3727 -0.2103
 4747SOL    HW125874   3.778   1.939   6.240 -1.0104  0.5495  0.4048
 4747SOL    HW225875   3.780   2.027   6.127 -0.9809 -1.5826 -0.0399
 4748SOL     OW25876   2.054   1.377  17.644 -0.3730  0.0560  0.0770
 4748SOL    HW125877   2.020   1.289  17.627  1.9074 -0.7607 -0.3172
 4748SOL    HW225878   2.016   1.396  17.730  0.1397 -2.0711  0.7997
 4749SOL     OW25879   2.650   4.665  15.119 -0.4094  0.3024 -0.2360
 4749SOL    HW125880   2.686   4.586  15.079  1.0332 -0.7257  3.1306
 4749SOL    HW225881   2.715   4.730  15.096  2.0675 -1.7560  0.9888
 4750SOL     OW25882   3.833   0.351   4.324 -0.0601 -0.4684  0.0255
 4750SOL    HW125883   3.800   0.261   4.329 -0.1950 -0.4101  0.1773
 4750SOL    HW225884   3.771   0.397   4.380  0.8127  0.1295  0.5085
 4751SOL     OW25885   0.978   1.838   3.141 -0.7535  0.5902 -0.0649
 4751SOL    HW125886   1.001   1.775   3.074 -0.9425 -0.1575  0.5693
 4751SOL    HW225887   0.885   1.822   3.160 -0.5624 -2.3444 -1.6136
 4752SOL     OW25888   1.928   0.927  12.693  0.0536 -0.0164 -0.1348
 4752SOL    HW125889   1.933   0.999  12.630 -0.4809 -0.2492 -0.4464
 4752SOL    HW225890   2.021   0.916  12.710  0.2817 -0.7949 -1.8623
 4753SOL     OW25891   3.980   2.174   3.891 -0.4442 -0.0412  0.1648
 4753SOL    HW125892   4.001   2.090   3.932  1.1492 -0.3252 -1.2393
 4753SOL    HW225893   3.974   2.146   3.800 -0.4231  1.9454 -0.4525
 4754SOL     OW25894   2.805   1.615  10.553 -0.4309 -0.0559  0.0255
 4754SOL    HW125895   2.789   1.523  10.573 -1.1133  0.4794  1.9117
 4754SOL    HW225896   2.736   1.628  10.488 -0.2602 -0.7134 -0.2914
 4755SOL     OW25897   0.884   3.266   6.548  0.0268  0.1609 -0.0773
 4755SOL    HW125898   0.814   3.303   6.603  0.8624 -0.1716  1.1953
 4755SOL    HW225899   0.871   3.317   6.468  4.2182  0.8146 -0.3428
 4756SOL     OW25900   3.300   4.179   5.182 -0.0413 -0.3653  0.1866
 4756SOL    HW125901   3.375   4.153   5.129 -0.5357 -1.7451  0.1677
 4756SOL    HW225902   3.268   4.096   5.216  1.1868 -1.7079 -1.9301
 4757SOL     OW25903   4.213   2.816   6.362 -0.3094  0.1606  0.2578
 4757SOL    HW125904   4.256   2.755   6.422 -0.3210  1.3646  1.4790
 4757SOL    HW225905   4.240   2.902   6.393  1.0979  0.1356 -0.8982
 4758SOL     OW25906   3.805   4.506   7.558 -0.2315 -0.1153 -0.1449
 4758SOL    HW125907   3.871   4.513   7.489 -1.7600  1.3706 -1.4839
 4758SOL    HW225908   3.813   4.411   7.567 -0.4663 -0.0134  1.1330
 4759SOL     OW25909   0.542   2.089   6.729  0.2771  0.4659  0.3222
 4759SOL    HW125910   0.541   2.096   6.633 -0.1332  0.0096  0.2903
 4759SOL    HW225911   0.455   2.056   6.752  1.0520 -0.6356  1.6081
 4760SOL     OW25912   4.062   0.676   8.126 -0.3327  0.3990 -0.1118
 4760SOL    HW125913   4.036   0.655   8.216  1.4938  1.2245  0.6146
 4760SOL    HW225914   4.118   0.752   8.145 -0.5151  0.4121  0.3829
 4761SOL     OW25915   3.522   3.178   4.461  0.1629 -0.0082  0.4332
 4761SOL    HW125916   3.462   3.195   4.534 -0.6804  0.5796 -0.3973
 4761SOL    HW225917   3.498   3.243   4.395  0.2109 -1.9198 -1.4569
 4762SOL     OW25918   3.264   0.021   2.883  0.0477 -0.1279  0.3146
 4762SOL    HW125919   3.270   0.012   2.978 -5.4157 -0.1605  0.6189
 4762SOL    HW225920   3.357   0.031   2.860  0.0589 -0.2987  0.2887
 4763SOL     OW25921   4.488   2.175   7.878  0.6924  0.0730 -0.2566
 4763SOL    HW125922   4.484   2.086   7.913 -1.4033 -0.0162 -0.7715
 4763SOL    HW225923   4.394   2.191   7.883  0.9475  1.6974 -0.7613
 4764SOL     OW25924   2.958   0.026  10.714  0.3862 -0.8601  0.1633
 4764SOL    HW125925   3.007   0.003  10.635  3.3188 -0.4780  1.8654
 4764SOL    HW225926   2.965   4.680  10.764  0.3346  0.3938  2.2042
 4765SOL     OW25927   0.276   4.695   1.876  0.8625  0.2283  0.1307
 4765SOL    HW125928   0.329   0.027   1.917  1.4736 -0.1758  0.0075
 4765SOL    HW225929   0.294   4.619   1.932  0.3270 -0.5727 -0.7696
 4766SOL     OW25930   0.275   1.422  16.336  0.6585 -0.2817  0.0216
 4766SOL    HW125931   0.334   1.382  16.273 -0.1373  0.7677 -1.3766
 4766SOL    HW225932   0.240   1.497  16.288  0.5869 -0.0368  0.4547
 4767SOL     OW25933   2.218   0.747   4.614  0.0265 -0.0653 -0.0101
 4767SOL    HW125934   2.263   0.826   4.645 -1.3358  0.0942  1.5443
 4767SOL    HW225935   2.264   0.745   4.530 -1.7163 -4.6051 -0.8403
 4768SOL     OW25936   1.926   1.847   7.228  0.0439  0.5844 -0.0100
 4768SOL    HW125937   1.929   1.829   7.134 -2.6394  0.3894 -0.0727
 4768SOL    HW225938   1.833   1.869   7.228 -0.1454 -0.2062 -0.6237
 4769SOL     OW25939   3.375   3.541  15.396 -0.5464  0.1747 -0.0434
 4769SOL    HW125940   3.391   3.578  15.309  1.1751  0.9640  0.5994
 4769SOL    HW225941   3.367   3.619  15.452 -1.7035  0.2800 -0.3540
 4770SOL     OW25942   0.649   2.946   3.545 -0.2692 -0.2789  0.4217
 4770SOL    HW125943   0.728   2.908   3.584  2.1986  5.1184  0.7109
 4770SOL    HW225944   0.592   2.870   3.538 -0.1619 -0.3749  0.5797
 4771SOL     OW25945   1.795   4.211  11.850 -0.0070  0.1962 -0.0814
 4771SOL    HW125946   1.768   4.134  11.900 -1.3772  1.5151  1.1957
 4771SOL    HW225947   1.872   4.235  11.900 -0.5085 -1.7051  1.6254
 4772SOL     OW25948   3.371   2.166   4.917 -0.3372 -0.1471 -0.5777
 4772SOL    HW125949   3.303   2.201   4.974  1.5900  1.1957  0.9059
 4772SOL    HW225950   3.418   2.117   4.984 -0.0355  0.5079 -0.3085
 4773SOL     OW25951   4.458   1.082   4.648  0.3659 -0.1541  0.2706
 4773SOL    HW125952   4.553   1.091   4.641  0.4711 -1.0618  0.5204
 4773SOL    HW225953   4.428   1.042   4.566  0.2104  0.1979  0.1565
 4774SOL     OW25954   4.242   2.669   0.716  0.0715 -0.4672  0.0476
 4774SOL    HW125955   4.300   2.738   0.746 -0.5424 -0.0709  0.3349
 4774SOL    HW225956   4.169   2.715   0.675  0.4534  0.2210  0.1412
 4775SOL     OW25957   4.067   4.572  14.806  0.2555 -0.1381 -0.1239
 4775SOL    HW125958   4.090   4.623  14.729  4.4275  1.2342  2.0606
 4775SOL    HW225959   3.978   4.607  14.818  0.5027  0.3937  0.1383
 4776SOL     OW25960   3.873   2.434  17.158  0.4350 -0.4760  0.0951
 4776SOL    HW125961   3.853   2.509  17.214  1.3754 -1.5186  1.8256
 4776SOL    HW225962   3.785   2.404  17.136  0.3822 -0.3858  0.1838
 4777SOL     OW25963   1.501   3.546   5.992 -0.7359  0.5361 -0.0694
 4777SOL    HW125964   1.425   3.579   5.943 -3.1846 -0.2797  3.1535
 4777SOL    HW225965   1.529   3.616   6.050 -0.2406  0.6234 -0.4173
 4778SOL     OW25966   4.553   0.101   7.656 -0.1770 -0.5599 -0.0060
 4778SOL    HW125967   4.548   0.186   7.613 -0.7322 -1.2966 -1.4036
 4778SOL    HW225968   4.517   0.043   7.588  1.2944  0.3387 -1.5218
 4779SOL     OW25969   2.134   0.612   2.727  0.6842  0.1044  0.0376
 4779SOL    HW125970   2.112   0.569   2.645 -2.3003 -1.4935  1.6804
 4779SOL    HW225971   2.048   0.614   2.770  0.0575  1.6572 -1.2942
 4780SOL     OW25972   0.899   1.386   3.842 -0.2891  0.7288 -0.2776
 4780SOL    HW125973   0.942   1.327   3.781  0.6361 -1.6956  2.7015
 4780SOL    HW225974   0.803   1.389   3.841 -0.2349  2.6920  0.6192
 4781SOL     OW25975   0.160   4.404   5.671  0.4384  0.0046 -0.2077
 4781SOL    HW125976   0.223   4.474   5.655  0.1672 -0.6717 -4.1689
 4781SOL    HW225977   0.150   4.380   5.579  0.6060 -1.1171  0.0640
 4782SOL     OW25978   2.767   2.044   6.838 -0.0295  0.1417  0.1017
 4782SOL    HW125979   2.676   2.065   6.860 -0.6344 -1.8961 -0.4995
 4782SOL    HW225980   2.782   2.104   6.764 -0.4571 -1.0493 -0.9445
 4783SOL     OW25981   3.909   1.887   0.511 -0.1754  0.4755 -0.2977
 4783SOL    HW125982   3.845   1.913   0.445  0.9003  2.0990 -0.7195
 4783SOL    HW225983   3.979   1.860   0.451  0.2913 -0.0816  0.4976
 4784SOL     OW25984   3.503   3.087   4.085 -0.0858 -0.0982 -0.5786
 4784SOL    HW125985   3.562   3.022   4.125  0.2681  1.5063  1.5066
 4784SOL    HW225986   3.570   3.141   4.043  2.1735 -1.8728  0.7199
 4785SOL     OW25987   0.510   4.426   7.984 -0.2646 -0.0155 -0.0358
 4785SOL    HW125988   0.489   4.494   8.047 -0.1775  2.3487 -2.5264
 4785SOL    HW225989   0.441   4.361   7.997 -0.8167  0.4500 -0.6201
 4786SOL     OW25990   4.018   1.006   6.616  0.4178 -0.1256 -0.5803
 4786SOL    HW125991   3.965   1.079   6.648  0.4633 -0.2011 -0.3322
 4786SOL    HW225992   3.991   0.944   6.684  0.1999  0.2421 -0.3325
 4787SOL     OW25993   1.537   1.702   5.713  0.5405 -1.0145 -0.4615
 4787SOL    HW125994   1.455   1.749   5.699  1.7263  1.1878  0.0563
 4787SOL    HW225995   1.602   1.768   5.692 -0.2925  0.5334  1.8195
 4788SOL     OW25996   2.515   3.491   6.197  1.0326 -0.1696 -0.1756
 4788SOL    HW125997   2.539   3.582   6.180  0.8329 -0.0714  0.0735
 4788SOL    HW225998   2.556   3.467   6.280 -1.5681 -0.6463  0.9557
 4789SOL     OW25999   0.947   2.285   6.942 -0.1518  0.0163 -0.6365
 4789SOL    HW126000   0.873   2.226   6.926  0.2250 -0.2911 -1.2407
 4789SOL    HW226001   1.025   2.244   6.904 -0.0344  1.0821 -1.5317
 4790SOL     OW26002   4.408   1.985   3.837  0.1047 -0.4258  0.2904
 4790SOL    HW126003   4.482   2.014   3.891  2.5061 -1.6836 -2.2839
 4790SOL    HW226004   4.331   2.021   3.881  1.5885  0.6711  1.9801
 4791SOL     OW26005   0.788   4.230  15.254 -0.2413 -0.0680 -0.2378
 4791SOL    HW126006   0.803   4.321  15.228  1.8709 -0.3592 -0.0235
 4791SOL    HW226007   0.707   4.221  15.203 -0.3145 -0.3883 -0.0671
 4792SOL     OW26008   1.530   2.978   2.352  0.3766  0.5288  0.2361
 4792SOL    HW126009   1.593   2.989   2.281  1.1424 -0.8646  0.7059
 4792SOL    HW226010   1.544   3.048   2.416 -0.5042  0.8296  0.1076
 4793SOL     OW26011   2.818   1.784   7.522  0.2160 -0.0837  0.3324
 4793SOL    HW126012   2.903   1.762   7.561 -0.1741 -1.1393  0.5956
 4793SOL    HW226013   2.803   1.876   7.542  0.3397 -0.0554  0.2942
 4794SOL     OW26014   2.574   4.710   4.664  0.1976 -0.1008 -0.3607
 4794SOL    HW126015   2.590   4.686   4.755  1.0094  1.9464  0.0365
 4794SOL    HW226016   2.484   4.680   4.652  0.4011 -0.4380 -1.0323
 4795SOL     OW26017   0.919   1.021  11.406 -0.0771 -0.1691 -0.1044
 4795SOL    HW126018   0.980   1.042  11.334  0.5888 -1.2105  0.1577
 4795SOL    HW226019   0.960   1.066  11.480 -1.3826 -1.0211  1.1241
 4796SOL     OW26020   4.523   1.337  14.510 -0.6495  0.0237 -0.2049
 4796SOL    HW126021   4.607   1.313  14.549 -0.9713  0.9902  1.0712
 4796SOL    HW226022   4.533   1.429  14.487  1.5487 -0.2607 -0.3794
 4797SOL     OW26023   4.666   2.585   3.649 -0.1561 -0.1402  0.2261
 4797SOL    HW126024   4.619   2.665   3.625  0.8853  0.6956  0.9994
 4797SOL    HW226025   4.624   2.572   3.734 -1.4707  0.0311 -0.4014
 4798SOL     OW26026   2.257   2.482   8.617 -0.1460  0.1652  0.2044
 4798SOL    HW126027   2.180   2.535   8.601  0.9977  1.6618 -0.3818
 4798SOL    HW226028   2.276   2.452   8.528 -2.3511  2.4217 -1.0126
 4799SOL     OW26029   2.163   1.888  16.202 -0.5835 -0.4633  0.1828
 4799SOL    HW126030   2.136   1.951  16.269 -0.9119  0.8772 -1.2212
 4799SOL    HW226031   2.220   1.829  16.252  1.1243 -0.0445 -1.2761
 4800SOL     OW26032   2.243   0.447   2.928  0.1022 -0.0846  0.0793
 4800SOL    HW126033   2.174   0.381   2.929  1.8591 -1.9231  1.4426
 4800SOL    HW226034   2.213   0.511   2.863 -0.3140 -1.8710 -1.5032
 4801SOL     OW26035   3.423   1.324  13.237 -0.1852 -0.0544  0.7368
 4801SOL    HW126036   3.425   1.391  13.169 -1.7243 -0.4115  0.3218
 4801SOL    HW226037   3.517   1.309  13.242 -0.1654 -0.3407 -0.5105
 4802SOL     OW26038   3.407   2.816   4.905 -0.0562  0.2441  0.1754
 4802SOL    HW126039   3.470   2.793   4.974 -0.8143  3.0993  1.8181
 4802SOL    HW226040   3.364   2.885   4.956  2.2188 -0.0084  2.4637
 4803SOL     OW26041   3.886   3.345   6.763 -0.0890  0.6159 -0.4259
 4803SOL    HW126042   3.793   3.337   6.783  0.4418 -3.0673  0.5329
 4803SOL    HW226043   3.922   3.258   6.780 -0.2109  0.3392 -1.6290
 4804SOL     OW26044   0.457   0.385   4.619 -0.0269  0.5049 -0.4255
 4804SOL    HW126045   0.420   0.447   4.557  2.5075  0.4316 -1.9975
 4804SOL    HW226046   0.525   0.438   4.659 -1.4003  1.8050  0.1679
 4805SOL     OW26047   1.781   1.147   5.573 -0.0808 -0.1958  0.4572
 4805SOL    HW126048   1.720   1.079   5.547  0.4986 -0.9920  1.1569
 4805SOL    HW226049   1.824   1.162   5.489  0.7201 -3.6108  0.2210
 4806SOL     OW26050   3.011   4.634   6.091 -0.5208  0.5377  0.1408
 4806SOL    HW126051   2.971   4.597   6.170  0.7946 -0.3823  0.3824
 4806SOL    HW226052   3.087   4.575   6.089 -1.5266 -0.7157 -0.5819
 4807SOL     OW26053   2.337   2.898   1.527  0.1920 -0.0682  0.4417
 4807SOL    HW126054   2.409   2.835   1.538  1.0003  0.4005 -2.2739
 4807SOL    HW226055   2.274   2.850   1.581 -1.3622  2.0903  0.4911
 4808SOL     OW26056   3.781   2.024   5.942  0.0216  0.3236  0.5139
 4808SOL    HW126057   3.817   1.947   5.898  0.4152 -0.1422  1.6398
 4808SOL    HW226058   3.717   2.051   5.877 -0.4898  0.9717  1.2873
 4809SOL     OW26059   2.779   4.406   4.339 -0.1104  0.8964 -0.0276
 4809SOL    HW126060   2.823   4.324   4.315  0.2176  1.3378 -0.9356
 4809SOL    HW226061   2.719   4.374   4.406  0.4717 -1.0928 -0.4531
 4810SOL     OW26062   4.152   1.018   8.976  0.0650 -0.5884  0.6415
 4810SOL    HW126063   4.154   1.067   8.894  0.7489 -0.7796  0.5422
 4810SOL    HW226064   4.073   1.048   9.020 -1.2774  0.9555 -2.8014
 4811SOL     OW26065   1.946   3.155   3.248  0.1594  0.2390  0.2080
 4811SOL    HW126066   1.897   3.086   3.294 -0.7699  0.1195 -0.9671
 4811SOL    HW226067   2.032   3.150   3.290 -0.7811  0.3854  2.1964
 4812SOL     OW26068   2.518   1.517   4.103 -0.0950 -0.0975  0.5719
 4812SOL    HW126069   2.442   1.533   4.159 -0.4827 -2.4705  0.7048
 4812SOL    HW226070   2.461   1.483   4.034  0.2750  0.7407 -0.1509
 4813SOL     OW26071   3.828   0.643   9.883 -0.2359 -0.0305  0.3071
 4813SOL    HW126072   3.838   0.563   9.831 -0.9335 -1.0370  1.7330
 4813SOL    HW226073   3.745   0.677   9.850  0.1646 -0.9831 -1.7155
 4814SOL     OW26074   3.134   1.034  15.158 -0.0882 -0.5980  0.6541
 4814SOL    HW126075   3.050   1.037  15.204  0.5680 -2.0008  1.9632
 4814SOL    HW226076   3.176   0.977  15.223 -0.7525 -0.3854  1.2636
 4815SOL     OW26077   3.110   1.901  16.635  0.1369 -0.1732 -0.7037
 4815SOL    HW126078   3.102   1.979  16.691 -0.4821 -1.1600  0.5747
 4815SOL    HW226079   3.117   1.949  16.552 -1.3141  1.1716 -0.0654
 4816SOL     OW26080   3.006   4.616   0.120  0.5746 -0.5347  0.1933
 4816SOL    HW126081   3.091   4.588   0.154  0.5499 -2.1101 -1.0630
 4816SOL    HW226082   2.957   4.534   0.131  0.6593 -0.5574  0.4127
 4817SOL     OW26083   0.068   3.518   5.274 -0.1718 -0.3128  0.1640
 4817SOL    HW126084   0.029   3.452   5.216  1.6442 -1.1188 -0.1358
 4817SOL    HW226085   0.160   3.509   5.249 -0.1573  1.1903 -0.3347
 4818SOL     OW26086   4.000   2.732  13.629  0.2342 -0.0545 -0.2134
 4818SOL    HW126087   4.066   2.701  13.691 -1.0377  0.6572  1.4833
 4818SOL    HW226088   4.012   2.679  13.550 -0.4255 -0.2474 -0.1840
 4819SOL     OW26089   3.250   1.219  13.413  0.1119 -0.7548 -0.7009
 4819SOL    HW126090   3.272   1.251  13.326  2.4154  2.6136  1.1023
 4819SOL    HW226091   3.157   1.242  13.416  0.2808 -0.4008  1.8330
 4820SOL     OW26092   0.656   1.723  10.312 -0.2633 -0.5268  0.2676
 4820SOL    HW126093   0.703   1.803  10.288  1.2302 -1.0990  1.2406
 4820SOL    HW226094   0.682   1.704  10.402  1.5525 -0.3762 -0.2161
 4821SOL     OW26095   2.849   2.269   2.558  0.4537  0.0479  0.2107
 4821SOL    HW126096   2.790   2.298   2.628  0.6754 -0.1410  0.4770
 4821SOL    HW226097   2.823   2.177   2.556 -0.4203  0.2595  2.0128
 4822SOL     OW26098   2.444   4.721   8.189 -0.4756  0.0032 -0.4425
 4822SOL    HW126099   2.467   0.075   8.163 -2.0135  0.7745  0.9133
 4822SOL    HW226100   2.489   4.666   8.124  0.4879  1.7773 -1.2903
 4823SOL     OW26101   3.545   2.251  13.315 -0.6656  0.3083  0.2374
 4823SOL    HW126102   3.516   2.243  13.406  1.5141 -0.5122  0.8699
 4823SOL    HW226103   3.475   2.259  13.251  0.1372  1.7187 -0.4779
 4824SOL     OW26104   1.554   0.665  11.279 -0.3906  0.3143  0.2402
 4824SOL    HW126105   1.542   0.571  11.291  2.3024 -0.1045 -0.2376
 4824SOL    HW226106   1.646   0.674  11.306 -0.1728 -2.0757  0.2373
 4825SOL     OW26107   2.765   3.959   9.281  0.1926  0.1031 -0.2044
 4825SOL    HW126108   2.820   3.884   9.303  1.1162  0.8693  0.0752
 4825SOL    HW226109   2.820   4.031   9.251 -0.1748  0.4413 -0.0814
 4826SOL     OW26110   2.130   1.568  13.826 -0.0604 -0.0888 -0.1055
 4826SOL    HW126111   2.147   1.633  13.895  1.7933 -2.4523  1.6437
 4826SOL    HW226112   2.066   1.517  13.877  0.1829  1.5139  1.8212
 4827SOL     OW26113   0.817   3.011   5.554 -0.1006  0.3382 -0.4388
 4827SOL    HW126114   0.776   2.951   5.491 -0.5339  0.6523 -0.4504
 4827SOL    HW226115   0.877   2.956   5.604 -1.3149  0.5999  1.2979
 4828SOL     OW26116   0.677   1.779   0.634  0.4501 -0.2073 -0.6387
 4828SOL    HW126117   0.668   1.705   0.694 -1.1291 -0.0535 -0.6820
 4828SOL    HW226118   0.710   1.853   0.685  1.7356 -0.5588 -0.9648
 4829SOL     OW26119   4.721   2.944   8.491  0.2289 -0.0332  0.1509
 4829SOL    HW126120   4.691   2.873   8.548 -1.0208  0.0109 -0.4511
 4829SOL    HW226121   4.634   2.956   8.452 -0.8589 -0.4972  2.3842
 4830SOL     OW26122   1.535   0.301   7.636 -0.8228 -0.4638  0.2338
 4830SOL    HW126123   1.556   0.294   7.543 -1.4091 -1.0395  0.1427
 4830SOL    HW226124   1.464   0.365   7.644 -1.2419 -0.9476  0.4514
 4831SOL     OW26125   2.509   0.628   5.444  0.0083 -0.1090  0.4403
 4831SOL    HW126126   2.577   0.578   5.398 -0.7969 -2.0660  1.3509
 4831SOL    HW226127   2.560   0.651   5.521 -0.0200 -1.5325  0.8786
 4832SOL     OW26128   3.149   2.591   7.030 -0.4605  0.3022 -0.4983
 4832SOL    HW126129   3.158   2.613   7.122  0.3275 -0.5916 -0.3589
 4832SOL    HW226130   3.168   2.497   7.026 -1.9818 -0.1078  1.6224
 4833SOL     OW26131   3.096   3.675   3.107  0.0375 -0.5839  0.4332
 4833SOL    HW126132   3.025   3.642   3.053 -1.4280 -2.3746  3.4351
 4833SOL    HW226133   3.164   3.608   3.095 -0.2220 -0.5077 -1.3790
 4834SOL     OW26134   2.834   3.762   2.614 -0.1167  0.4462  0.2319
 4834SOL    HW126135   2.838   3.857   2.601  0.5654  0.3681 -0.0952
 4834SOL    HW226136   2.739   3.750   2.624  0.0734 -0.2701  1.1617
 4835SOL     OW26137   0.609   3.525   3.603 -0.0616 -0.6879  0.1023
 4835SOL    HW126138   0.604   3.598   3.665  0.9141 -0.2052 -0.4003
 4835SOL    HW226139   0.581   3.577   3.528  1.9140 -0.9605 -0.8070
 4836SOL     OW26140   4.245   0.806   3.995  0.0536  0.2577 -0.5456
 4836SOL    HW126141   4.222   0.846   4.079  3.3628  0.3762  0.3149
 4836SOL    HW226142   4.265   0.715   4.018 -2.2195  0.1021  0.7869
 4837SOL     OW26143   3.939   1.135   9.107 -0.4506 -0.0063 -0.5104
 4837SOL    HW126144   3.926   1.135   9.202 -1.5008  0.7438 -0.6571
 4837SOL    HW226145   3.864   1.087   9.074  0.2737 -1.0660 -0.6171
 4838SOL     OW26146   0.248   4.657   5.221 -0.8984  0.2451 -0.1530
 4838SOL    HW126147   0.270   4.724   5.157 -0.0856  0.6608  0.5615
 4838SOL    HW226148   0.338   4.631   5.242 -2.1465 -3.7021  0.3570
 4839SOL     OW26149   2.244   3.034  12.682 -0.5551  0.2568  0.5499
 4839SOL    HW126150   2.203   2.983  12.751  0.7307  0.2086  1.2878
 4839SOL    HW226151   2.173   3.079  12.636 -1.0336 -1.8137 -0.7199
 4840SOL     OW26152   3.082   1.095   4.987  0.2445 -0.5504  0.4868
 4840SOL    HW126153   3.037   1.044   4.920  2.1400 -0.5731 -0.7724
 4840SOL    HW226154   3.033   1.177   4.994 -0.8413 -0.9670 -2.1699
 4841SOL     OW26155   1.238   4.464   3.829  0.1076 -0.6259  0.5305
 4841SOL    HW126156   1.196   4.475   3.915 -2.4582  0.2268 -0.8244
 4841SOL    HW226157   1.325   4.493   3.857  0.3530 -0.1992 -0.6973
 4842SOL     OW26158   1.093   3.922   9.092  0.0084  0.1264 -0.6000
 4842SOL    HW126159   1.186   3.903   9.100 -0.2245 -1.5205 -1.8899
 4842SOL    HW226160   1.074   3.845   9.038  1.4721 -0.4858 -0.2444
 4843SOL     OW26161   2.499   1.352   6.100 -0.1793 -0.7365 -0.0899
 4843SOL    HW126162   2.484   1.383   6.190 -1.5307 -3.2206  0.5676
 4843SOL    HW226163   2.472   1.263   6.122 -0.2592 -1.1542 -1.8882
 4844SOL     OW26164   2.100   1.327   8.402 -0.2115 -0.3268  0.0043
 4844SOL    HW126165   2.095   1.342   8.497  1.4165  3.8412 -0.5661
 4844SOL    HW226166   2.031   1.386   8.370  1.6206  0.8595 -1.7223
 4845SOL     OW26167   0.548   1.062   5.894  0.0898  0.3966 -0.0553
 4845SOL    HW126168   0.477   1.025   5.946  1.0011 -1.3311 -0.0345
 4845SOL    HW226169   0.537   1.155   5.912 -0.1309  0.6408 -1.5004
 4846SOL     OW26170   3.136   0.734   8.208 -0.1754 -0.0905  0.5238
 4846SOL    HW126171   3.094   0.777   8.282 -1.0682  1.4064 -0.8400
 4846SOL    HW226172   3.154   0.643   8.231  1.7377 -0.7846 -3.5518
 4847SOL     OW26173   4.618   2.597  10.200  0.0291 -0.1823 -0.1206
 4847SOL    HW126174   4.551   2.529  10.212  0.8350 -0.8980  0.3558
 4847SOL    HW226175   4.674   2.565  10.129 -2.2190 -0.7157 -1.6748
 4848SOL     OW26176   1.620   1.291  11.246 -0.2353 -0.5874 -0.2075
 4848SOL    HW126177   1.526   1.282  11.231  0.1899  0.0744 -3.3323
 4848SOL    HW226178   1.638   1.220  11.309 -4.0443 -1.6617 -0.3267
 4849SOL     OW26179   1.303   2.980   4.849  0.0550  0.1133 -0.0323
 4849SOL    HW126180   1.384   2.932   4.831 -0.9383 -1.6565  0.2346
 4849SOL    HW226181   1.320   3.058   4.797 -0.1037  1.0519  1.3354
 4850SOL     OW26182   0.949   4.375   7.604 -0.0524 -0.0774 -0.3626
 4850SOL    HW126183   0.937   4.299   7.547  1.9550 -0.3070 -0.4755
 4850SOL    HW226184   0.968   4.340   7.691 -0.5617  0.8950  0.1417
 4851SOL     OW26185   0.957   4.337   0.170  0.1011 -0.2810 -0.1381
 4851SOL    HW126186   0.871   4.368   0.142  0.1923 -1.4624 -1.7282
 4851SOL    HW226187   1.014   4.413   0.165  1.6153 -1.5584 -1.8601
 4852SOL     OW26188   0.707   3.016  15.376 -0.2778 -0.4845 -0.5957
 4852SOL    HW126189   0.767   2.983  15.309 -2.1942 -1.8071 -1.6523
 4852SOL    HW226190   0.672   2.934  15.411  0.4070  0.2491  1.8155
 4853SOL     OW26191   2.095   4.090   5.531 -0.4018  0.3300 -0.0432
 4853SOL    HW126192   2.125   4.120   5.445  0.6426  0.7294  0.4593
 4853SOL    HW226193   2.106   4.172   5.579 -1.5766  0.6638 -0.3347
 4854SOL     OW26194   1.572   1.879   3.128  0.2519 -0.2097 -0.0339
 4854SOL    HW126195   1.509   1.880   3.056 -1.0944 -2.4681  1.0723
 4854SOL    HW226196   1.541   1.955   3.178 -2.9573 -1.3524 -0.2481
 4855SOL     OW26197   0.213   3.870   5.908  0.0944 -0.1158  0.1971
 4855SOL    HW126198   0.196   3.781   5.940  1.3389  0.4189  2.3789
 4855SOL    HW226199   0.282   3.908   5.964  1.5887 -1.6718 -0.5983
 4856SOL     OW26200   2.682   4.590   7.430  0.1916 -0.2245  0.1778
 4856SOL    HW126201   2.622   4.558   7.362 -0.9687 -0.9164  1.5172
 4856SOL    HW226202   2.679   4.685   7.419  0.1016 -0.3023 -0.4999
 4857SOL     OW26203   3.019   0.033  14.207  0.3711  0.0872  0.0278
 4857SOL    HW126204   3.099   4.735  14.247  1.2748  1.8280 -0.3172
 4857SOL    HW226205   2.953   4.722  14.258 -0.5774  3.7728  2.2043
 4858SOL     OW26206   1.026   0.039   3.815 -0.6616 -0.6691  0.1286
 4858SOL    HW126207   1.024   0.054   3.720 -0.7884 -0.3750  0.1765
 4858SOL    HW226208   1.120   0.029   3.833 -0.4853  3.6364  1.6436
 4859SOL     OW26209   0.436   1.726   4.288 -0.4253 -0.4232  0.1319
 4859SOL    HW126210   0.417   1.756   4.377 -0.9241  1.2326 -0.5334
 4859SOL    HW226211   0.474   1.642   4.312 -1.5848 -0.7148  0.9533
 4860SOL     OW26212   1.083   1.895  17.014  0.2417 -0.4786 -0.2260
 4860SOL    HW126213   1.037   1.975  17.040 -0.0542 -0.2232 -1.5570
 4860SOL    HW226214   1.157   1.917  16.957  1.6841 -0.0815  1.7855
 4861SOL     OW26215   3.368   4.526   7.872  0.4752  0.1342  0.2679
 4861SOL    HW126216   3.294   4.538   7.931  0.7455  0.3263  0.5702
 4861SOL    HW226217   3.428   4.470   7.921  0.5166  0.9043  1.1120
 4862SOL     OW26218   3.202   4.566   4.864  1.1859  0.1542 -0.2768
 4862SOL    HW126219   3.182   4.473   4.865  0.8476  0.2362  0.3828
 4862SOL    HW226220   3.239   4.569   4.775  1.2790 -0.4091 -0.2544
 4863SOL     OW26221   4.493   3.486   8.147  0.1094 -0.3909  0.1237
 4863SOL    HW126222   4.408   3.442   8.153  1.3694 -2.9714 -0.5555
 4863SOL    HW226223   4.521   3.450   8.063 -1.6210 -2.5559  0.4641
 4864SOL     OW26224   2.216   1.696   2.946  0.7554 -0.0875  0.3032
 4864SOL    HW126225   2.156   1.741   2.886  0.3829  0.5536  1.1675
 4864SOL    HW226226   2.140   1.645   2.974  2.2095 -1.1748  2.2195
 4865SOL     OW26227   3.759   0.590   5.774 -0.1217 -0.0973  0.0705
 4865SOL    HW126228   3.762   0.573   5.868  1.6205  1.1335  0.2298
 4865SOL    HW226229   3.847   0.573   5.740  0.5620  3.3271  0.1551
 4866SOL     OW26230   3.835   4.229   5.097  0.2459 -0.5654 -0.3543
 4866SOL    HW126231   3.811   4.242   5.189  0.5845 -0.0081 -0.3431
 4866SOL    HW226232   3.926   4.205   5.114  0.2573  0.5874  1.2913
 4867SOL     OW26233   2.535   3.847   5.990 -0.2124  0.4572 -0.2940
 4867SOL    HW126234   2.583   3.896   5.922  1.4481  0.2738  0.7516
 4867SOL    HW226235   2.472   3.915   6.016 -1.0815 -1.3040  2.1311
 4868SOL     OW26236   4.079   2.371  13.707 -0.6779 -0.0508 -0.2319
 4868SOL    HW126237   4.028   2.422  13.770 -0.1444 -0.3554  0.4571
 4868SOL    HW226238   4.142   2.434  13.675 -1.9670  1.5960  0.4829
 4869SOL     OW26239   3.454   1.170   6.950 -0.3317  0.1672 -0.9623
 4869SOL    HW126240   3.427   1.092   6.999  1.5627 -0.3834 -0.8176
 4869SOL    HW226241   3.503   1.221   7.015  1.6810  0.8008 -3.0069
 4870SOL     OW26242   3.517   0.856   3.259  0.0456  0.1631  0.1749
 4870SOL    HW126243   3.460   0.914   3.309  0.5912  1.0270 -0.2035
 4870SOL    HW226244   3.511   0.777   3.313  2.6719 -0.9576 -1.1352
 4871SOL     OW26245   4.401   4.214   3.914  0.4343 -0.3289  0.0199
 4871SOL    HW126246   4.379   4.134   3.866  0.4273  0.2427 -0.9377
 4871SOL    HW226247   4.411   4.178   4.002 -0.0383  0.0589  0.2349
 4872SOL     OW26248   4.382   1.685   7.615  0.0135  0.4026  0.2217
 4872SOL    HW126249   4.343   1.730   7.540 -0.7205  0.3953  0.6011
 4872SOL    HW226250   4.470   1.723   7.610  0.3767 -0.5143 -0.3734
 4873SOL     OW26251   2.073   3.554   1.353 -0.7024 -0.0734 -0.2309
 4873SOL    HW126252   2.165   3.527   1.354 -0.1601  1.7197 -0.5378
 4873SOL    HW226253   2.017   3.477   1.361  1.4284 -1.4892  0.8998
 4874SOL     OW26254   0.554   0.642   4.820  0.0594 -0.3553  0.4187
 4874SOL    HW126255   0.630   0.609   4.868  0.8851  0.6819 -0.1834
 4874SOL    HW226256   0.518   0.706   4.882  1.1972  0.4201  0.2788
 4875SOL     OW26257   4.001   4.459   7.896  0.3944 -0.0333 -0.0711
 4875SOL    HW126258   4.056   4.538   7.895 -2.0942  1.6910  1.9503
 4875SOL    HW226259   3.932   4.484   7.957 -1.6663 -2.3403 -1.4507
 4876SOL     OW26260   0.534   1.829   5.681 -0.7991  0.2917  0.1205
 4876SOL    HW126261   0.605   1.827   5.617 -0.9734  3.4549 -0.1515
 4876SOL    HW226262   0.569   1.767   5.745 -0.5589 -1.4600 -1.7070
 4877SOL     OW26263   0.594   3.449   5.822  0.2192  0.3311  0.0274
 4877SOL    HW126264   0.616   3.399   5.743  3.1726  0.9774  0.4742
 4877SOL    HW226265   0.614   3.538   5.795  2.5920 -0.5148 -1.0014
 4878SOL     OW26266   2.248   4.718   2.968  0.7310 -0.0585 -0.3307
 4878SOL    HW126267   2.268   0.056   3.025 -0.4806  0.8789 -1.1084
 4878SOL    HW226268   2.276   4.643   3.020 -0.2654  0.5793  1.1200
 4879SOL     OW26269   3.810   1.812   2.043 -0.0043 -0.2263 -0.2464
 4879SOL    HW126270   3.885   1.764   2.078  1.6315  1.5999 -1.2488
 4879SOL    HW226271   3.849   1.899   2.035  0.1732 -0.3161 -0.3666
 4880SOL     OW26272   4.181   2.907  16.969  0.6754  0.2213  0.0175
 4880SOL    HW126273   4.155   2.830  16.920 -2.1927 -0.5555  2.7343
 4880SOL    HW226274   4.128   2.975  16.927  0.6566 -0.4868 -1.1026
 4881SOL     OW26275   2.110   4.399   8.563 -0.2400  0.4961 -0.2240
 4881SOL    HW126276   2.096   4.444   8.646 -0.4893 -2.2772  1.2212
 4881SOL    HW226277   2.180   4.456   8.531 -0.2624  0.0532 -1.0624
 4882SOL     OW26278   0.916   0.921   1.916 -0.6474 -0.6602 -0.3581
 4882SOL    HW126279   0.993   0.871   1.887 -1.1040 -2.4991  1.6080
 4882SOL    HW226280   0.893   0.959   1.831 -0.9764 -1.5184 -0.6609
 4883SOL     OW26281   0.209   4.390  15.956  0.2131  0.0937  0.4637
 4883SOL    HW126282   0.171   4.340  15.883 -1.3104 -0.0010  1.3288
 4883SOL    HW226283   0.230   4.315  16.012 -0.8715 -0.7258 -0.2151
 4884SOL     OW26284   1.104   3.634   2.586 -0.2929 -0.3661 -0.2261
 4884SOL    HW126285   1.181   3.618   2.531  1.1372  1.9446  1.0917
 4884SOL    HW226286   1.104   3.729   2.601 -1.3152 -0.4915  0.6043
 4885SOL     OW26287   1.828   3.493  14.992 -0.0281  0.1224 -0.0267
 4885SOL    HW126288   1.834   3.569  14.934  2.3978 -0.5273 -0.6650
 4885SOL    HW226289   1.792   3.425  14.935  0.8922 -0.2343 -0.1844
 4886SOL     OW26290   4.105   1.302   3.592  0.1082 -0.5399  0.6619
 4886SOL    HW126291   4.030   1.357   3.567 -0.0148 -0.7329  0.6100
 4886SOL    HW226292   4.171   1.347   3.539 -1.0164  1.5107  0.9777
 4887SOL     OW26293   2.779   0.334  11.226 -0.2782 -0.5823  0.0954
 4887SOL    HW126294   2.850   0.386  11.187 -0.4189 -0.9525 -0.6478
 4887SOL    HW226295   2.823   0.298  11.303  0.4158 -1.3112 -0.6447
 4888SOL     OW26296   1.220   2.850   4.304  0.1664  0.8491  0.1980
 4888SOL    HW126297   1.205   2.776   4.363  0.5146 -0.6721 -1.6251
 4888SOL    HW226298   1.161   2.838   4.229  1.5579 -0.6920 -0.6535
 4889SOL     OW26299   4.130   3.587   8.724 -0.5716  0.2209 -0.1241
 4889SOL    HW126300   4.074   3.512   8.701 -1.2374  2.1843 -5.0099
 4889SOL    HW226301   4.097   3.598   8.813 -0.6019 -0.1239 -0.0928
 4890SOL     OW26302   0.643   4.293   3.610 -0.3729 -0.3754  0.3420
 4890SOL    HW126303   0.652   4.389   3.611 -0.3196 -0.3975  1.6074
 4890SOL    HW226304   0.625   4.284   3.517  0.3637  2.0313 -0.0447
 4891SOL     OW26305   2.788   3.398  15.906  0.4213  0.1205 -0.1985
 4891SOL    HW126306   2.778   3.372  15.998 -1.4547 -4.5571 -1.7546
 4891SOL    HW226307   2.715   3.347  15.872  0.2376  0.4902 -0.3600
 4892SOL     OW26308   1.208   4.481   9.167  0.4775 -0.1567 -0.3421
 4892SOL    HW126309   1.254   4.565   9.169 -0.0376  0.0863  1.3030
 4892SOL    HW226310   1.260   4.436   9.101 -0.2791 -1.2961 -0.1441
 4893SOL     OW26311   2.665   1.061   2.459  0.1961 -0.4087  0.1926
 4893SOL    HW126312   2.667   0.980   2.409 -1.9799 -0.2774 -0.0905
 4893SOL    HW226313   2.602   1.039   2.526 -1.4158 -3.2263 -2.2548
 4894SOL     OW26314   0.520   2.043   4.728 -0.0981  0.4184  0.2933
 4894SOL    HW126315   0.556   2.034   4.816 -3.2560  4.2659  1.9212
 4894SOL    HW226316   0.565   2.115   4.684  1.0307 -0.4626 -0.0024
 4895SOL     OW26317   4.104   1.821   5.161  0.0004  1.0573 -0.2958
 4895SOL    HW126318   4.192   1.784   5.154 -0.0645  1.0812 -1.2781
 4895SOL    HW226319   4.091   1.827   5.066  0.0464 -0.1569 -0.3746
 4896SOL     OW26320   4.544   1.693   9.872  0.1735  0.7276  0.3386
 4896SOL    HW126321   4.632   1.728   9.878 -0.2018  1.9418 -1.1373
 4896SOL    HW226322   4.550   1.621   9.810 -1.4048  2.7544 -2.1899
 4897SOL     OW26323   3.346   1.774   8.966 -0.6115 -0.1846  0.4027
 4897SOL    HW126324   3.289   1.789   9.042  1.9046  0.9107  2.1006
 4897SOL    HW226325   3.428   1.810   9.001 -0.0606 -1.5543  0.5076
 4898SOL     OW26326   2.943   3.427   9.137 -0.1282 -0.4166 -0.1525
 4898SOL    HW126327   2.968   3.519   9.136 -0.2983 -0.3603  0.3242
 4898SOL    HW226328   2.862   3.432   9.087 -0.0382 -0.3610 -0.2929
 4899SOL     OW26329   1.903   3.161   2.803  0.1235 -0.7015 -0.1425
 4899SOL    HW126330   1.965   3.198   2.866 -0.4106  1.0649 -0.6711
 4899SOL    HW226331   1.832   3.225   2.813 -0.7117 -1.4587 -1.2271
 4900SOL     OW26332   2.500   0.389   4.121  0.5788  0.4234 -0.0196
 4900SOL    HW126333   2.529   0.341   4.043  2.4421 -0.3821  1.1410
 4900SOL    HW226334   2.508   0.314   4.180  0.2081 -1.1014 -1.9274
 4901SOL     OW26335   2.563   0.381  15.591  0.2337  0.1109  0.2013
 4901SOL    HW126336   2.605   0.317  15.533 -0.0413  0.2202 -0.1179
 4901SOL    HW226337   2.626   0.448  15.614  0.6763  0.2560 -1.4190
 4902SOL     OW26338   1.316   1.417  11.853 -0.3943 -0.3445 -0.1174
 4902SOL    HW126339   1.230   1.426  11.895 -0.5639 -0.5311 -0.4248
 4902SOL    HW226340   1.315   1.329  11.816  1.9909 -0.5975  0.4082
 4903SOL     OW26341   2.493   1.104   1.343 -0.2383 -0.4081  0.1584
 4903SOL    HW126342   2.433   1.030   1.340  0.4402 -0.8888 -2.0687
 4903SOL    HW226343   2.462   1.161   1.414  0.3904  1.5831 -1.1695
 4904SOL     OW26344   2.509   4.679  15.436 -0.2432 -0.1045  0.3199
 4904SOL    HW126345   2.423   4.675  15.477 -0.5417  2.7381 -0.0331
 4904SOL    HW226346   2.475   4.674  15.346 -2.1223 -0.6884  1.0630
 4905SOL     OW26347   2.889   1.511   2.569  0.2016  0.3722 -0.3214
 4905SOL    HW126348   2.874   1.420   2.545 -0.3718  0.4857 -0.3963
 4905SOL    HW226349   2.983   1.517   2.585  0.2385  1.4986 -0.9174
 4906SOL     OW26350   0.379   0.437  13.283 -0.2880  0.0628 -0.4906
 4906SOL    HW126351   0.385   0.345  13.258  0.0331  0.3470 -1.4631
 4906SOL    HW226352   0.378   0.424  13.378  0.3235  1.6152 -0.2642
 4907SOL     OW26353   4.725   2.466   4.767  0.4604 -0.4184 -0.2920
 4907SOL    HW126354   0.027   2.382   4.739 -0.5694 -1.4138  1.3222
 4907SOL    HW226355   0.058   2.524   4.735 -0.4828  0.3121 -0.9792
 4908SOL     OW26356   4.221   2.232   7.884 -0.3339 -0.5634 -0.0810
 4908SOL    HW126357   4.185   2.199   7.967 -1.1070  1.4447  0.3750
 4908SOL    HW226358   4.149   2.211   7.825 -1.1578 -0.8165  1.0067
 4909SOL     OW26359   2.808   0.770   6.545  0.1896 -0.0132 -0.1271
 4909SOL    HW126360   2.861   0.696   6.517 -0.1354 -0.1308 -0.4272
 4909SOL    HW226361   2.808   0.816   6.461 -0.3806 -0.5102 -0.3959
 4910SOL     OW26362   0.423   1.583   8.937  0.4145  0.4486  0.0082
 4910SOL    HW126363   0.403   1.490   8.951  1.8291  0.2510  0.6782
 4910SOL    HW226364   0.413   1.584   8.842 -1.5526 -0.6140  0.2070
 4911SOL     OW26365   0.089   2.367   6.606 -0.2453 -0.3001  0.5912
 4911SOL    HW126366   0.030   2.379   6.680  0.3937  1.2974  0.8331
 4911SOL    HW226367   0.084   2.456   6.571  0.3050  0.4343  2.3727
 4912SOL     OW26368   1.530   4.176  12.657 -0.1901  0.1124 -0.3190
 4912SOL    HW126369   1.449   4.206  12.616  0.1097  1.2480 -0.0711
 4912SOL    HW226370   1.555   4.094  12.615 -0.8275  0.7144 -1.8830
 4913SOL     OW26371   0.117   0.744   2.941  0.1838  0.9711  0.7963
 4913SOL    HW126372   0.180   0.815   2.957  2.8907 -0.9820 -1.1177
 4913SOL    HW226373   0.055   0.799   2.892  1.5213  0.3357 -1.5963
 4914SOL     OW26374   2.742   0.950   8.626  0.1938  0.6023  0.1721
 4914SOL    HW126375   2.761   0.876   8.684 -0.8829 -0.7975 -1.2510
 4914SOL    HW226376   2.677   0.912   8.567  0.4229  1.3249 -0.5401
 4915SOL     OW26377   2.448   1.861   7.067 -0.1332  0.5400 -0.1592
 4915SOL    HW126378   2.390   1.823   7.000 -1.2426  0.8673  0.6125
 4915SOL    HW226379   2.387   1.883   7.137  2.0748  1.3390  1.4921
 4916SOL     OW26380   0.109   2.193   9.507  0.1579 -0.6102  0.1275
 4916SOL    HW126381   0.101   2.101   9.530 -0.9336 -1.0638 -2.0686
 4916SOL    HW226382   0.198   2.218   9.532  0.2924 -1.4086  0.4309
 4917SOL     OW26383   3.121   0.221   7.990 -0.1679 -0.1435  0.1086
 4917SOL    HW126384   3.123   0.307   7.947 -2.4509 -0.1908 -0.1031
 4917SOL    HW226385   3.214   0.197   7.989 -0.3718 -0.9092 -1.2123
 4918SOL     OW26386   2.515   4.637   3.313  0.2280 -0.3231 -0.0775
 4918SOL    HW126387   2.430   4.680   3.311  0.1859 -0.4796 -1.6494
 4918SOL    HW226388   2.530   4.633   3.219  0.2875  0.9068 -0.1261
 4919SOL     OW26389   3.660   0.641   0.935  0.3248  0.3448 -0.0506
 4919SOL    HW126390   3.665   0.557   0.981 -1.4040 -0.1340 -0.7304
 4919SOL    HW226391   3.632   0.698   1.007  0.5877  0.3750  0.0262
 4920SOL     OW26392   4.355   1.207  12.848  0.3607 -0.5404 -0.2544
 4920SOL    HW126393   4.398   1.252  12.921  0.7989 -3.0174  0.9935
 4920SOL    HW226394   4.309   1.133  12.887 -0.1563 -1.4440 -2.5339
 4921SOL     OW26395   1.055   3.251   0.912 -0.6590  0.3861 -0.2749
 4921SOL    HW126396   0.967   3.287   0.925 -2.3259 -3.0071 -2.0703
 4921SOL    HW226397   1.089   3.323   0.860 -2.2718  1.4568  0.1460
 4922SOL     OW26398   1.884   4.491   8.987  0.1321  0.0957 -0.2062
 4922SOL    HW126399   1.946   4.420   9.001 -0.9478 -1.1814 -1.8914
 4922SOL    HW226400   1.920   4.521   8.904  2.6701 -3.3161 -0.3529
 4923SOL     OW26401   3.220   2.818   1.651  0.3169  0.1784 -0.2107
 4923SOL    HW126402   3.253   2.907   1.665  1.4336 -0.8352  3.6947
 4923SOL    HW226403   3.141   2.816   1.705  1.8851 -1.9217  2.0234
 4924SOL     OW26404   1.385   4.426   5.018 -0.3294 -0.0515 -0.3679
 4924SOL    HW126405   1.421   4.413   4.930  0.9836  1.3954 -0.0282
 4924SOL    HW226406   1.420   4.509   5.048 -0.0159 -0.6835  0.9981
 4925SOL     OW26407   0.872   4.136   4.784 -0.1366 -0.3636  1.0881
 4925SOL    HW126408   0.939   4.071   4.806  2.0670  0.7469 -2.1705
 4925SOL    HW226409   0.811   4.106   4.851  0.0802 -0.8706  1.0572
 4926SOL     OW26410   4.026   4.437   6.756  0.0564  0.1912 -0.0169
 4926SOL    HW126411   4.097   4.427   6.693  0.0104 -2.6357  0.3831
 4926SOL    HW226412   3.998   4.524   6.730 -1.3727 -1.2034 -3.1035
 4927SOL     OW26413   4.376   0.705  17.512 -0.2022 -0.4850  0.1908
 4927SOL    HW126414   4.385   0.787  17.464  1.0883 -1.4691 -1.2476
 4927SOL    HW226415   4.356   0.747  17.595 -2.0618  1.9784 -1.5303
 4928SOL     OW26416   0.148   1.606   0.084 -0.0883  0.3147 -0.0880
 4928SOL    HW126417   0.226   1.639   0.040  1.8159 -1.1242  2.2310
 4928SOL    HW226418   0.167   1.633   0.174 -2.6483 -1.5536  1.0013
 4929SOL     OW26419   1.456   4.323   3.710  0.3266  0.4144 -0.0503
 4929SOL    HW126420   1.383   4.311   3.770 -0.4186  2.1745 -0.5926
 4929SOL    HW226421   1.452   4.258   3.640 -0.8904  0.1513  0.2598
 4930SOL     OW26422   3.598   4.336   7.902 -0.0758  0.6577 -0.5981
 4930SOL    HW126423   3.618   4.285   7.980  1.6713  1.8763 -0.2459
 4930SOL    HW226424   3.687   4.366   7.881  1.3927 -1.5679  2.4359
 4931SOL     OW26425   0.620   1.677   0.915  1.0705  0.6980  0.1876
 4931SOL    HW126426   0.640   1.759   0.960  0.1555  1.6827 -1.1923
 4931SOL    HW226427   0.537   1.702   0.875  0.8228  0.7293  0.7294
 4932SOL     OW26428   1.854   0.308   7.182 -0.0033 -0.1269  0.0935
 4932SOL    HW126429   1.799   0.231   7.170  0.3170 -0.6114  1.7285
 4932SOL    HW226430   1.944   0.278   7.179 -0.5651 -1.8097  0.0820
 4933SOL     OW26431   1.749   1.773   8.284  0.0315  0.0535  0.3330
 4933SOL    HW126432   1.773   1.839   8.219 -0.1073 -1.0888 -0.8786
 4933SOL    HW226433   1.754   1.694   8.231  2.0838  0.0773  0.4877
 4934SOL     OW26434   0.552   3.105   0.942  0.4847 -0.3120  0.1718
 4934SOL    HW126435   0.621   3.106   1.008 -0.0324  1.8334  0.6809
 4934SOL    HW226436   0.580   3.173   0.881  0.3315 -0.6939 -0.3202
 4935SOL     OW26437   4.575   1.100  13.514 -0.0248  0.1041  0.5718
 4935SOL    HW126438   4.562   1.006  13.507 -1.1307  0.3332 -0.4590
 4935SOL    HW226439   4.670   1.092  13.508 -0.1079 -0.1970 -0.3035
 4936SOL     OW26440   3.733   2.936   3.458 -0.5033 -0.7348  0.2361
 4936SOL    HW126441   3.783   2.944   3.377 -1.7640 -0.1794 -0.5051
 4936SOL    HW226442   3.788   2.976   3.525  0.6235 -0.2377 -0.9734
 4937SOL     OW26443   0.688   3.831   8.431  0.0049  0.0680  0.4135
 4937SOL    HW126444   0.677   3.926   8.433 -0.7714 -0.0156  0.2674
 4937SOL    HW226445   0.782   3.817   8.440 -0.2160 -0.1838  2.2380
 4938SOL     OW26446   3.518   0.768   0.228 -0.0034  0.0973 -0.4817
 4938SOL    HW126447   3.484   0.734   0.311 -0.1733 -1.4839 -1.2088
 4938SOL    HW226448   3.473   0.851   0.213 -1.1218 -0.3800  0.1971
 4939SOL     OW26449   0.096   1.606  17.288  0.2151 -0.1415  0.2646
 4939SOL    HW126450   0.111   1.696  17.317  0.1645 -0.6039  1.7144
 4939SOL    HW226451   0.173   1.557  17.314  1.1095  1.4230  0.5308
 4940SOL     OW26452   3.281   1.039   1.123 -0.0050  0.0598 -0.2553
 4940SOL    HW126453   3.258   1.060   1.213 -0.2058  0.3194 -0.3671
 4940SOL    HW226454   3.252   0.948   1.119  2.0088 -0.7539  3.7235
 4941SOL     OW26455   2.922   0.075   4.284 -0.2212 -0.8345 -0.1469
 4941SOL    HW126456   2.894   0.073   4.376 -0.2333  1.4864 -0.1109
 4941SOL    HW226457   2.844   0.042   4.240 -0.4247  0.6705 -0.9146
 4942SOL     OW26458   3.287   0.841   2.962 -0.0055 -0.4018 -0.1266
 4942SOL    HW126459   3.312   0.905   2.895  0.6805 -0.2551  0.2700
 4942SOL    HW226460   3.364   0.785   2.950 -1.3655 -1.2961 -4.4805
 4943SOL     OW26461   2.024   2.987   6.390 -0.2274  0.1066 -0.5063
 4943SOL    HW126462   1.949   2.996   6.331 -0.5856 -2.6739 -0.5150
 4943SOL    HW226463   1.978   2.963   6.471 -0.4084 -0.7224 -0.8556
 4944SOL     OW26464   4.351   3.498  12.055  0.0413 -0.1441  0.2891
 4944SOL    HW126465   4.417   3.498  11.986  0.3909 -2.2396  0.6315
 4944SOL    HW226466   4.275   3.472  12.004 -0.1409 -2.6967  1.8443
 4945SOL     OW26467   4.658   3.501   2.705 -0.2405  0.0570  0.2757
 4945SOL    HW126468   4.686   3.591   2.687  1.7354 -0.4080  1.0621
 4945SOL    HW226469   4.608   3.514   2.786 -0.8057 -2.2723  0.3158
 4946SOL     OW26470   1.081   1.665   8.629 -0.2673 -0.5553  0.3870
 4946SOL    HW126471   1.174   1.670   8.648 -0.6378  2.6792  1.2794
 4946SOL    HW226472   1.076   1.587   8.573  0.5266 -0.2479 -0.0959
 4947SOL     OW26473   3.070   0.446  11.163  0.0199 -1.1249  0.2556
 4947SOL    HW126474   3.128   0.451  11.239  1.8142 -0.2007 -1.1690
 4947SOL    HW226475   3.093   0.358  11.134  2.4742  0.6758 -3.2833
 4948SOL     OW26476   2.979   2.034  13.646  0.3861 -0.2215 -0.2049
 4948SOL    HW126477   2.989   2.000  13.735  0.6364 -0.6419 -0.3907
 4948SOL    HW226478   3.021   2.115  13.672  0.6629  0.1471 -1.8433
 4949SOL     OW26479   2.578   3.462   4.673 -0.2459  0.2508 -0.1012
 4949SOL    HW126480   2.558   3.373   4.644  0.1585  0.9902 -2.6048
 4949SOL    HW226481   2.510   3.520   4.640  0.9483  0.7206 -1.7434
 4950SOL     OW26482   1.826   0.580   6.837 -0.1398 -0.2025  0.0468
 4950SOL    HW126483   1.807   0.581   6.930 -1.8185 -0.0158 -0.3039
 4950SOL    HW226484   1.920   0.601   6.838 -0.3393  0.6838  0.6471
 4951SOL     OW26485   4.624   1.901   7.223  0.5553  0.6902  0.1098
 4951SOL    HW126486   4.571   1.823   7.237 -1.4271  2.1571  0.7457
 4951SOL    HW226487   4.712   1.867   7.204 -0.2619 -1.8745  1.0076
 4952SOL     OW26488   3.735   2.487   2.957  0.0689 -0.1424  0.2009
 4952SOL    HW126489   3.718   2.396   2.931  0.1269  0.5161 -2.1160
 4952SOL    HW226490   3.649   2.512   2.992  0.9698  0.2333  2.0887
 4953SOL     OW26491   4.721   2.052  10.014 -0.2211  0.5728 -0.0415
 4953SOL    HW126492   0.058   2.061  10.076 -0.3649 -1.3055  0.3999
 4953SOL    HW226493   4.650   2.066  10.076 -0.3314  0.8608 -0.2328
 4954SOL     OW26494   0.506   3.589   7.469 -0.2496 -0.5103  0.2060
 4954SOL    HW126495   0.533   3.534   7.543 -1.7276 -2.0446 -0.4158
 4954SOL    HW226496   0.446   3.642   7.521 -1.1459 -0.8569 -0.4758
 4955SOL     OW26497   0.863   2.568   6.325 -0.0799  0.2017 -0.5966
 4955SOL    HW126498   0.805   2.644   6.315 -2.2722 -1.3427  0.4392
 4955SOL    HW226499   0.812   2.518   6.389 -1.1323  1.5014 -0.4085
 4956SOL     OW26500   2.607   3.118   3.739  0.4320  0.6241 -0.0198
 4956SOL    HW126501   2.656   3.046   3.780 -2.2408 -0.1044  1.8521
 4956SOL    HW226502   2.558   3.147   3.816 -0.2306 -3.6486  1.2055
 4957SOL     OW26503   3.618   2.412   9.507 -0.0606 -0.7910 -0.2897
 4957SOL    HW126504   3.710   2.429   9.526 -0.0708  0.5263 -1.3424
 4957SOL    HW226505   3.591   2.496   9.468  0.4464 -1.2288 -1.5791
 4958SOL     OW26506   2.342   3.629   1.393  0.3280  0.0668  0.4024
 4958SOL    HW126507   2.405   3.634   1.321  0.9944 -0.4675  0.9472
 4958SOL    HW226508   2.368   3.538   1.410 -0.5101 -0.3782 -0.6603
 4959SOL     OW26509   3.894   3.409   8.207  0.4179  0.1008 -0.0432
 4959SOL    HW126510   3.894   3.332   8.264  1.3567  0.3276  0.2586
 4959SOL    HW226511   3.948   3.392   8.130  1.1310  0.4297  0.3917
 4960SOL     OW26512   1.574   4.530   2.573  0.4120 -0.2410 -0.2498
 4960SOL    HW126513   1.652   4.498   2.527 -0.3019 -1.2463 -0.7784
 4960SOL    HW226514   1.619   4.569   2.648 -1.5492  0.7405  0.3952
 4961SOL     OW26515   4.485   1.686   4.500 -0.1261  0.5346 -0.1182
 4961SOL    HW126516   4.451   1.618   4.558 -1.2953  0.4328 -0.9313
 4961SOL    HW226517   4.579   1.669   4.509 -0.1237  0.1985 -0.7473
 4962SOL     OW26518   2.303   0.017   2.073  0.1812 -0.1741 -0.7012
 4962SOL    HW126519   2.252   0.065   2.008 -0.5698 -0.2474 -0.1669
 4962SOL    HW226520   2.337   0.084   2.132 -0.4499 -0.5072  0.0484
 4963SOL     OW26521   3.584   2.099   6.418 -0.2860 -0.4049  0.5522
 4963SOL    HW126522   3.674   2.084   6.388 -0.5473 -1.5423  0.3294
 4963SOL    HW226523   3.562   2.176   6.366 -0.9305 -0.3410  0.9272
 4964SOL     OW26524   2.983   2.391   2.193  0.8545 -0.3391 -0.2341
 4964SOL    HW126525   3.017   2.461   2.137 -0.5552  1.3993  1.0992
 4964SOL    HW226526   2.952   2.332   2.124  0.7655 -2.1868  1.3966
 4965SOL     OW26527   2.530   1.364   6.770 -0.1470 -0.3161 -0.1614
 4965SOL    HW126528   2.452   1.415   6.792 -0.3743 -0.3876 -0.8230
 4965SOL    HW226529   2.516   1.293   6.833 -3.1537  0.6629  0.2955
 4966SOL     OW26530   2.703   3.792   3.354 -0.0305 -0.1219 -0.2888
 4966SOL    HW126531   2.787   3.755   3.380  0.7809  1.2680 -0.9425
 4966SOL    HW226532   2.681   3.743   3.275 -1.3338 -1.2267  0.7553
 4967SOL     OW26533   0.794   0.108   2.255  0.2888 -0.3884 -0.0071
 4967SOL    HW126534   0.830   0.026   2.221  0.5703 -0.0979 -0.4152
 4967SOL    HW226535   0.703   0.112   2.224  0.1835  0.3421  0.3954
 4968SOL     OW26536   0.834   4.705   6.240 -0.0413  0.1687 -0.2731
 4968SOL    HW126537   0.848   4.621   6.198 -1.0801  0.0686 -0.4143
 4968SOL    HW226538   0.874   0.019   6.169 -0.6961  1.9345  0.5911
 4969SOL     OW26539   0.649   4.636  16.233 -0.0955  0.1193 -0.0377
 4969SOL    HW126540   0.610   4.670  16.153 -0.8950  1.1001  0.7723
 4969SOL    HW226541   0.743   4.633  16.213 -0.3420 -1.8195 -0.9468
 4970SOL     OW26542   0.036   0.843  12.446 -0.2620  0.3242 -0.1632
 4970SOL    HW126543   0.025   0.854  12.541  1.5381  0.6528 -0.0011
 4970SOL    HW226544   0.051   0.932  12.414 -2.1313  0.6211 -0.2237
 4971SOL     OW26545   2.627   2.041   3.127  0.4221  0.3014 -0.0880
 4971SOL    HW126546   2.584   2.022   3.210  2.2130  1.5526  1.1263
 4971SOL    HW226547   2.610   1.956   3.086  3.2446  0.1608 -0.9905
 4972SOL     OW26548   3.847   1.909   7.845  0.3102  0.2191 -0.5615
 4972SOL    HW126549   3.848   1.822   7.884  1.5845  0.0673 -0.9356
 4972SOL    HW226550   3.921   1.899   7.785  1.4896 -0.8873  1.1172
 4973SOL     OW26551   2.554   0.691   6.664 -0.4203 -0.5668 -0.5201
 4973SOL    HW126552   2.645   0.710   6.639  0.5317 -0.4680  3.0457
 4973SOL    HW226553   2.506   0.740   6.596 -0.8637  1.1187  1.0195
 4974SOL     OW26554   0.447   3.365   2.545  0.0887 -0.4682  0.3308
 4974SOL    HW126555   0.452   3.362   2.449  0.1628 -2.8531  0.4090
 4974SOL    HW226556   0.536   3.352   2.576  0.0865 -0.5740  0.2963
 4975SOL     OW26557   4.455   1.613  14.535 -0.0738 -0.4484  0.0786
 4975SOL    HW126558   4.412   1.670  14.599  2.4806  1.4142  0.0963
 4975SOL    HW226559   4.457   1.672  14.460 -0.4996  0.4078  0.7324
 4976SOL     OW26560   1.130   2.550   2.339  0.1665 -0.6410  0.3102
 4976SOL    HW126561   1.075   2.617   2.297  4.9487  1.2712 -2.8199
 4976SOL    HW226562   1.206   2.567   2.285  1.2927 -1.4826  1.6327
 4977SOL     OW26563   2.172   3.457  15.509  0.1955 -0.4500  0.2620
 4977SOL    HW126564   2.094   3.501  15.541  2.2883  2.5927  1.2057
 4977SOL    HW226565   2.241   3.491  15.566  1.7382  0.3948 -2.1348
 4978SOL     OW26566   0.446   0.671  14.015 -0.0798 -0.6171  0.3760
 4978SOL    HW126567   0.479   0.753  14.050  2.1851 -1.4669  0.2338
 4978SOL    HW226568   0.510   0.605  14.042 -0.1954  0.0177  2.1958
 4979SOL     OW26569   0.222   2.273   8.942 -0.2774 -0.3184 -0.2625
 4979SOL    HW126570   0.286   2.329   8.986 -0.8248  0.3852 -0.3521
 4979SOL    HW226571   0.143   2.312   8.980  0.1688  0.1821  0.1694
 4980SOL     OW26572   4.157   0.278   0.036  0.1368  1.1541 -0.2413
 4980SOL    HW126573   4.215   0.354   0.030 -2.0316  2.7612 -0.9486
 4980SOL    HW226574   4.091   0.311   0.097 -2.1502 -1.5348 -1.2534
 4981SOL     OW26575   1.294   0.682   1.795 -0.1504 -0.4072  0.4978
 4981SOL    HW126576   1.355   0.713   1.862  0.1547 -1.0158  0.5003
 4981SOL    HW226577   1.288   0.588   1.815 -2.5865 -0.4769 -0.4658
 4982SOL     OW26578   3.858   1.170  15.113 -0.4452  0.5086  0.6230
 4982SOL    HW126579   3.791   1.172  15.182 -1.1741 -0.4004 -0.0617
 4982SOL    HW226580   3.854   1.079  15.085 -1.6605 -0.2616  3.2913
 4983SOL     OW26581   1.545   2.830   6.737  0.3052 -0.2056 -0.3126
 4983SOL    HW126582   1.504   2.784   6.810 -0.3806  0.5008 -0.2578
 4983SOL    HW226583   1.469   2.834   6.680  0.1744 -2.2200 -0.2847
 4984SOL     OW26584   0.423   0.995  11.018  0.6399 -0.2313 -0.3142
 4984SOL    HW126585   0.490   1.010  11.086 -0.8606  1.4022  0.7877
 4984SOL    HW226586   0.483   0.997  10.943  0.2151  0.0628 -0.6413
 4985SOL     OW26587   2.344   0.147  10.557 -0.6689 -0.2352  0.0144
 4985SOL    HW126588   2.353   0.054  10.577  2.1011  0.4465  1.8788
 4985SOL    HW226589   2.403   0.182  10.624  0.7616 -0.0588 -1.3373
 4986SOL     OW26590   2.401   3.413  11.096  0.8332  0.5189  0.0605
 4986SOL    HW126591   2.400   3.509  11.096  2.0004  0.5321 -0.1989
 4986SOL    HW226592   2.377   3.392  11.186 -1.7556  2.3663 -0.1908
 4987SOL     OW26593   3.751   1.761   6.189 -0.0497  0.0739 -0.2275
 4987SOL    HW126594   3.776   1.671   6.208  2.6778  0.7927 -0.5003
 4987SOL    HW226595   3.677   1.742   6.131 -0.7672  0.7053  0.4896
 4988SOL     OW26596   2.744   1.790  16.831 -0.3502  0.4669  0.2212
 4988SOL    HW126597   2.730   1.700  16.859 -0.8918  0.4004 -0.2786
 4988SOL    HW226598   2.774   1.774  16.741 -1.5737  0.4997 -0.1905
 4989SOL     OW26599   3.031   1.178  12.896 -0.2490  0.0225  0.0734
 4989SOL    HW126600   3.072   1.237  12.834 -1.1469  0.2715 -0.2788
 4989SOL    HW226601   3.093   1.187  12.968 -1.3132 -0.7756  1.0760
 4990SOL     OW26602   0.060   3.516   8.248 -0.8245  0.3606  0.0184
 4990SOL    HW126603   0.002   3.544   8.177  0.5476  1.4601 -0.6574
 4990SOL    HW226604   0.008   3.477   8.319  1.7011 -1.6990  0.7482
 4991SOL     OW26605   3.841   4.551  16.680 -0.0110 -0.7123 -0.0462
 4991SOL    HW126606   3.894   4.624  16.647 -1.0179  0.9075  1.9331
 4991SOL    HW226607   3.802   4.585  16.760 -0.6993 -0.1251 -0.6333
 4992SOL     OW26608   4.683   1.232   7.013 -0.2310 -0.0222  0.4819
 4992SOL    HW126609   4.649   1.319   6.992 -0.7515  0.1559  2.0507
 4992SOL    HW226610   4.641   1.180   6.945 -1.2271 -1.3419  2.1371
 4993SOL     OW26611   4.200   2.254  10.984  0.2803  0.2080  0.2282
 4993SOL    HW126612   4.224   2.209  11.065  0.0139 -1.2782 -0.5297
 4993SOL    HW226613   4.224   2.187  10.920 -0.0264  0.8356 -0.5480
 4994SOL     OW26614   3.920   2.025   1.979 -0.4282 -0.1266 -0.3781
 4994SOL    HW126615   3.977   2.033   1.902  0.7577  1.2559  0.6462
 4994SOL    HW226616   3.833   2.023   1.939 -1.0493  0.5574  0.9652
 4995SOL     OW26617   2.770   2.897  12.590  0.0112 -0.3211 -0.3658
 4995SOL    HW126618   2.693   2.925  12.640  1.7343 -0.0618  2.1392
 4995SOL    HW226619   2.778   2.804  12.612 -2.2283 -0.8884 -1.9223
 4996SOL     OW26620   2.493   1.858   3.513  0.5781 -0.1755  0.0477
 4996SOL    HW126621   2.486   1.889   3.423  0.1931 -3.0776 -0.9465
 4996SOL    HW226622   2.532   1.932   3.559 -0.3382  0.9122 -0.9273
 4997SOL     OW26623   0.890   3.986  16.048 -0.2628 -0.0665 -0.1814
 4997SOL    HW126624   0.802   4.022  16.059  0.2203  1.3986 -1.0177
 4997SOL    HW226625   0.944   4.050  16.095  0.4603 -0.3234 -0.6558
 4998SOL     OW26626   2.254   1.794   4.322 -0.0891  0.2523 -0.3528
 4998SOL    HW126627   2.233   1.750   4.404  0.4267 -1.6951 -1.2890
 4998SOL    HW226628   2.262   1.716   4.269  0.7971 -0.8642  1.4162
 4999SOL     OW26629   3.642   0.631   3.986 -0.9258  0.3801  0.1694
 4999SOL    HW126630   3.641   0.591   3.898  0.2914  0.1284  0.2801
 4999SOL    HW226631   3.568   0.588   4.029 -1.9572 -0.0099 -1.9437
 5000SOL     OW26632   0.922   3.793  14.151  0.0940 -0.1391  0.4680
 5000SOL    HW126633   0.972   3.850  14.093 -0.2587 -0.3347 -0.0244
 5000SOL    HW226634   0.848   3.775  14.094 -1.0343  0.2984  1.8116
 5001SOL     OW26635   1.899   0.814   5.024 -0.0283 -0.3323  0.4353
 5001SOL    HW126636   1.862   0.899   5.048  1.8806  1.2358 -2.1121
 5001SOL    HW226637   1.920   0.820   4.931  1.9637  1.6546  0.9932
 5002SOL     OW26638   2.870   3.956   1.472 -0.1445  0.1346 -0.3228
 5002SOL    HW126639   2.849   3.968   1.379 -0.0829 -0.2975 -0.3928
 5002SOL    HW226640   2.963   3.966   1.452  0.2294  0.7112  1.7120
 5003SOL     OW26641   3.167   4.297   4.962  0.3486  0.2062 -0.0913
 5003SOL    HW126642   3.196   4.250   5.041 -0.4265 -2.9652 -1.7017
 5003SOL    HW226643   3.072   4.288   4.969  0.3883 -0.1930 -0.0407
 5004SOL     OW26644   2.201   3.869  11.591 -0.3393 -0.0338  0.6826
 5004SOL    HW126645   2.188   3.784  11.633  1.5769 -0.2453  0.8263
 5004SOL    HW226646   2.246   3.922  11.657 -1.5935 -0.6923  2.0822
 5005SOL     OW26647   2.312   3.285   0.715  0.1671  0.1367 -0.6886
 5005SOL    HW126648   2.326   3.364   0.767 -1.0985 -0.1413  0.0759
 5005SOL    HW226649   2.271   3.333   0.643 -0.4048 -0.8311 -1.0011
 5006SOL     OW26650   4.692   2.614  15.111 -0.3056 -0.3518 -0.2316
 5006SOL    HW126651   0.044   2.575  15.111 -1.2443 -2.4517 -0.4312
 5006SOL    HW226652   4.663   2.596  15.022  0.8853 -1.0627 -0.4690
 5007SOL     OW26653   0.308   1.451   2.928 -0.1453 -0.0230 -0.2811
 5007SOL    HW126654   0.227   1.480   2.970 -0.4897 -0.7725 -0.4269
 5007SOL    HW226655   0.384   1.496   2.966 -0.2668  0.1365 -0.2274
 5008SOL     OW26656   1.325   3.138   8.961 -0.1955  0.6587 -0.3822
 5008SOL    HW126657   1.320   3.112   8.869  2.2379 -1.4949  0.0953
 5008SOL    HW226658   1.243   3.186   8.969  0.7112  2.7228 -3.1013
 5009SOL     OW26659   4.504   0.796   4.339  0.4308  0.1386 -0.0829
 5009SOL    HW126660   4.575   0.836   4.289 -1.0150 -0.4051 -2.5496
 5009SOL    HW226661   4.454   0.876   4.349  0.6831  0.3740 -0.6712
 5010SOL     OW26662   2.456   2.243   1.524 -0.7815  0.1667  0.0966
 5010SOL    HW126663   2.438   2.152   1.501  1.4844 -0.4904  0.8588
 5010SOL    HW226664   2.368   2.278   1.536 -0.3098  1.5831 -0.5979
 5011SOL     OW26665   4.192   1.790   6.017 -0.6910 -0.0981 -1.1246
 5011SOL    HW126666   4.136   1.714   6.001 -1.6578  0.7435 -1.7083
 5011SOL    HW226667   4.273   1.765   5.974  0.7901  1.3925  0.7814
 5012SOL     OW26668   3.975   0.062   3.705 -0.3502  0.6190 -0.1746
 5012SOL    HW126669   3.993   0.048   3.798  1.4825  0.0574 -0.6135
 5012SOL    HW226670   4.017   0.148   3.695 -0.1815  0.3294 -1.9858
 5013SOL     OW26671   0.303   0.391  16.878 -0.4728 -0.0411  0.1401
 5013SOL    HW126672   0.215   0.421  16.857 -1.1749 -1.6124  0.8654
 5013SOL    HW226673   0.347   0.392  16.793  0.8195 -1.4709  0.8020
 5014SOL     OW26674   0.048   2.168   8.328  0.9683 -0.1201 -0.3518
 5014SOL    HW126675   0.085   2.106   8.264  2.0310  0.0174  0.1265
 5014SOL    HW226676   0.017   2.103   8.390 -2.1938  0.4613 -1.2900
 5015SOL     OW26677   3.188   1.895   9.906  0.2416  0.0965  0.3757
 5015SOL    HW126678   3.193   1.987   9.880 -2.4911 -0.0617 -0.7283
 5015SOL    HW226679   3.153   1.849   9.830 -1.4865 -1.1913  1.9517
 5016SOL     OW26680   2.906   3.980   7.563 -0.1359 -0.3335 -0.3375
 5016SOL    HW126681   2.850   3.908   7.588  0.5258  0.2099  2.6504
 5016SOL    HW226682   2.895   3.990   7.468 -2.9221  0.1628  0.0682
 5017SOL     OW26683   0.887   1.104  11.123 -0.1213 -0.2183  0.1634
 5017SOL    HW126684   0.956   1.170  11.123 -1.3828  1.1033 -0.8266
 5017SOL    HW226685   0.929   1.023  11.095  2.7710  0.9272  1.2210
 5018SOL     OW26686   3.169   1.080   3.639  0.1385  0.4657  0.0988
 5018SOL    HW126687   3.099   1.083   3.575  1.8069 -1.5609 -1.8180
 5018SOL    HW226688   3.140   1.004   3.691  2.3721  0.1693  0.9624
 5019SOL     OW26689   0.993   4.571   7.861  0.0222 -0.0246  0.1535
 5019SOL    HW126690   0.914   4.602   7.815  0.6054 -2.8489 -2.6910
 5019SOL    HW226691   0.953   4.492   7.898 -2.0670  0.7031 -0.5075
 5020SOL     OW26692   3.877   0.645   7.097  0.0484 -0.3584  0.1559
 5020SOL    HW126693   3.881   0.554   7.068  1.2074 -0.3513  0.2971
 5020SOL    HW226694   3.785   0.671   7.103 -0.4114 -1.7122 -1.0319
 5021SOL     OW26695   3.631   0.319   3.612 -0.1802 -0.3802 -0.1346
 5021SOL    HW126696   3.629   0.244   3.672  0.6631  0.0704  0.4519
 5021SOL    HW226697   3.538   0.342   3.608 -0.0362  0.0055 -1.2555
 5022SOL     OW26698   2.838   0.494  10.092 -0.7204 -0.0026  0.6518
 5022SOL    HW126699   2.747   0.503  10.064 -0.8456 -1.3318  0.6356
 5022SOL    HW226700   2.829   0.547  10.172 -0.9744  2.2088 -0.8262
 5023SOL     OW26701   2.932   0.203   0.366 -0.1214  0.1835  0.9303
 5023SOL    HW126702   2.976   0.118   0.370  0.6377  0.5354  0.1450
 5023SOL    HW226703   3.004   0.266   0.362  0.7805 -0.8297  1.2759
 5024SOL     OW26704   3.279   4.573   3.933 -1.0162 -0.1412  0.0727
 5024SOL    HW126705   3.283   4.478   3.945 -1.5877 -0.3388 -1.2614
 5024SOL    HW226706   3.184   4.582   3.939 -1.2636 -0.9544 -2.5396
 5025SOL     OW26707   2.950   4.621   4.975 -0.4023  0.0724  0.1056
 5025SOL    HW126708   3.036   4.605   4.935  0.8881  1.1080  2.4659
 5025SOL    HW226709   2.904   4.680   4.915 -0.9505  1.0000  1.4541
 5026SOL     OW26710   4.443   0.766   2.569 -0.1234 -0.2663  0.7970
 5026SOL    HW126711   4.536   0.748   2.582  0.0786  0.2700  0.0830
 5026SOL    HW226712   4.447   0.838   2.506  1.1409 -1.8948 -0.9788
 5027SOL     OW26713   1.237   3.265   4.049  0.0756 -0.4157 -0.4684
 5027SOL    HW126714   1.191   3.343   4.077  0.0717 -0.2545 -0.9246
 5027SOL    HW226715   1.195   3.202   4.107  2.5556 -2.3464 -0.7472
 5028SOL     OW26716   2.579   0.262   0.317  0.3653 -0.2372  0.4769
 5028SOL    HW126717   2.570   0.354   0.290  0.1126 -0.4235 -0.0681
 5028SOL    HW226718   2.559   0.219   0.234  1.1924  1.2645 -0.5125
 5029SOL     OW26719   0.334   0.367   5.817  0.1456  0.0105  0.1889
 5029SOL    HW126720   0.395   0.321   5.875  1.0516 -1.7493 -2.1289
 5029SOL    HW226721   0.366   0.334   5.733 -0.2235 -0.1857  0.1275
 5030SOL     OW26722   0.763   1.110  16.588  0.3821 -0.1822 -0.1386
 5030SOL    HW126723   0.767   1.202  16.612  0.4271 -0.4654  0.9485
 5030SOL    HW226724   0.851   1.080  16.612  0.4949 -1.0282 -1.5717
 5031SOL     OW26725   0.980   3.429   1.303 -0.3400  0.4805 -0.2650
 5031SOL    HW126726   1.020   3.475   1.228 -1.3444 -0.0591 -1.1260
 5031SOL    HW226727   1.036   3.455   1.376 -0.3752  2.1509 -0.8229
 5032SOL     OW26728   4.697   4.519   5.874  0.1825 -0.0637  0.4786
 5032SOL    HW126729   0.017   4.504   5.797 -0.5016  0.8114 -0.1839
 5032SOL    HW226730   0.025   4.556   5.935  2.0277 -1.5616 -0.5232
 5033SOL     OW26731   1.639   3.955   9.194 -0.4206 -0.1377  0.2535
 5033SOL    HW126732   1.671   4.045   9.193  0.5882 -0.5250 -1.9846
 5033SOL    HW226733   1.709   3.921   9.138 -0.1739 -0.5390  0.8048
 5034SOL     OW26734   4.493   3.556   1.269  0.0805 -0.3683  0.1089
 5034SOL    HW126735   4.546   3.573   1.192 -0.9760  0.4049 -0.4404
 5034SOL    HW226736   4.562   3.529   1.330 -1.5674 -0.4535  1.9517
 5035SOL     OW26737   3.354   2.723  14.436  0.2318 -0.3157 -0.1011
 5035SOL    HW126738   3.260   2.724  14.450  0.5426 -2.4257  2.0637
 5035SOL    HW226739   3.372   2.817  14.430 -0.3408 -0.1981  0.0262
 5036SOL     OW26740   0.824   3.542  17.316  0.2707 -0.2221  0.0742
 5036SOL    HW126741   0.732   3.558  17.341  0.3642  0.8922 -0.2558
 5036SOL    HW226742   0.820   3.505  17.228  3.2658  1.2276 -0.6519
 5037SOL     OW26743   2.965   3.081   1.582 -0.0593 -0.1129  0.4597
 5037SOL    HW126744   2.934   2.991   1.591 -1.0083  0.2603  0.9180
 5037SOL    HW226745   2.897   3.107   1.520  0.4653 -0.5635 -0.3147
 5038SOL     OW26746   0.236   0.224   0.863  0.4520 -0.2133 -0.4183
 5038SOL    HW126747   0.305   0.284   0.834  0.3706  0.1398  0.1056
 5038SOL    HW226748   0.188   0.205   0.783  1.3379  0.4760 -1.1041
 5039SOL     OW26749   0.045   3.706   9.694 -0.1267  0.7401  0.0020
 5039SOL    HW126750   0.130   3.699   9.651 -0.3230  0.8009 -0.3877
 5039SOL    HW226751   0.028   3.800   9.685 -4.7306 -0.0674  0.5957
 5040SOL     OW26752   0.357   0.784  16.635  0.1585  0.1876 -0.7107
 5040SOL    HW126753   0.425   0.842  16.669 -2.1828  4.2279 -2.9777
 5040SOL    HW226754   0.398   0.777  16.549  2.5893  0.2109  0.4473
 5041SOL     OW26755   0.517   4.646   8.495  0.2706 -0.3367 -0.1480
 5041SOL    HW126756   0.600   4.621   8.534 -0.6638  0.0397  2.0832
 5041SOL    HW226757   0.463   4.596   8.556  1.0647 -1.3282 -0.2655
 5042SOL     OW26758   0.605   2.089   5.301  0.2913 -0.3494  0.8151
 5042SOL    HW126759   0.661   2.061   5.374 -0.9548 -3.2807  0.6657
 5042SOL    HW226760   0.559   2.006   5.286  4.0689 -1.9356 -2.2418
 5043SOL     OW26761   0.280   3.194   0.762 -0.0727 -0.6674 -0.7256
 5043SOL    HW126762   0.242   3.116   0.723  0.2233 -0.0784 -2.2241
 5043SOL    HW226763   0.241   3.181   0.848 -1.3190 -3.2779 -1.6853
 5044SOL     OW26764   0.680   2.978   3.275  0.9680 -0.0115  0.3951
 5044SOL    HW126765   0.679   3.000   3.368  0.9926 -0.8341  0.5870
 5044SOL    HW226766   0.737   2.903   3.289 -0.1370 -0.8322  0.5090
 5045SOL     OW26767   1.876   4.142  14.407  0.1664 -0.7519 -0.2472
 5045SOL    HW126768   1.784   4.155  14.385 -0.0254 -2.8365 -0.7494
 5045SOL    HW226769   1.884   4.047  14.396 -3.9943 -1.4169  2.4335
 5046SOL     OW26770   2.601   0.516   0.544 -0.7728  0.3858 -0.4220
 5046SOL    HW126771   2.581   0.530   0.451 -1.5758 -1.7756 -0.5537
 5046SOL    HW226772   2.656   0.589   0.572 -1.3719  1.2706 -1.5323
 5047SOL     OW26773   3.071   2.642   2.479 -0.3016  0.2014 -0.8655
 5047SOL    HW126774   2.982   2.623   2.449 -0.2964 -2.4600  0.9253
 5047SOL    HW226775   3.102   2.710   2.418  2.2130 -0.2289 -0.0749
 5048SOL     OW26776   3.757   2.445   4.897 -0.3192 -0.0735 -0.0522
 5048SOL    HW126777   3.800   2.425   4.814  0.4247 -2.3957  0.8976
 5048SOL    HW226778   3.834   2.438   4.954 -0.5242  1.0097  0.3522
 5049SOL     OW26779   3.320   2.306   1.696 -0.3683  0.2225  0.8929
 5049SOL    HW126780   3.392   2.354   1.737 -1.1438  1.2982  0.9927
 5049SOL    HW226781   3.261   2.380   1.685  0.8433  1.0007 -0.3674
 5050SOL     OW26782   0.670   3.184   9.500  0.1310 -0.2031 -0.2180
 5050SOL    HW126783   0.757   3.216   9.525  0.1774 -0.8265  0.4377
 5050SOL    HW226784   0.660   3.251   9.433 -1.9946  0.0321  0.3340
 5051SOL     OW26785   3.227   3.654   0.517  0.2531  0.6440 -0.3666
 5051SOL    HW126786   3.148   3.664   0.464  0.3462  1.4766 -0.3465
 5051SOL    HW226787   3.278   3.594   0.462  0.7259  1.2394 -0.5845
 5052SOL     OW26788   2.859   2.807   6.684 -0.2748 -0.3456 -0.2931
 5052SOL    HW126789   2.939   2.793   6.735 -0.9201 -0.7275  0.6093
 5052SOL    HW226790   2.883   2.763   6.603 -0.4010 -0.0031 -0.5215
 5053SOL     OW26791   2.510   2.248  15.961 -0.4144  0.1536  0.5303
 5053SOL    HW126792   2.502   2.326  16.015  3.8892 -1.4622  3.5231
 5053SOL    HW226793   2.584   2.261  15.902 -0.7736 -0.8662 -0.1505
 5054SOL     OW26794   0.306   4.483   8.902  0.0443 -0.2601 -0.4241
 5054SOL    HW126795   0.285   4.414   8.965  1.1125 -0.4970 -0.3256
 5054SOL    HW226796   0.342   4.550   8.960 -1.3019  0.5203 -0.4755
 5055SOL     OW26797   1.653   1.796   6.766 -0.3437 -0.2952 -0.3282
 5055SOL    HW126798   1.731   1.773   6.816  0.2389 -0.8819 -1.5121
 5055SOL    HW226799   1.588   1.811   6.835  0.2957 -0.9158  0.4037
 5056SOL     OW26800   1.356   2.466   3.682 -0.1126  0.6805 -0.0047
 5056SOL    HW126801   1.344   2.534   3.749  2.0439  0.1223  0.9423
 5056SOL    HW226802   1.263   2.457   3.659  0.0402  0.4561 -0.5269
 5057SOL     OW26803   3.943   3.054   9.505  0.6246 -0.2725  1.0979
 5057SOL    HW126804   3.927   2.959   9.500  0.4976 -0.2560  1.1752
 5057SOL    HW226805   3.987   3.074   9.423 -5.0702 -0.9904 -2.1253
 5058SOL     OW26806   1.764   2.134   3.288  0.0250  0.0479 -0.1600
 5058SOL    HW126807   1.673   2.107   3.274 -0.9511  2.7703  0.9433
 5058SOL    HW226808   1.772   2.226   3.264 -2.1098  1.1893  3.4142
 5059SOL     OW26809   3.534   3.520   2.343 -0.2343  0.3062  0.1824
 5059SOL    HW126810   3.627   3.533   2.324 -0.0290  1.4691  2.0191
 5059SOL    HW226811   3.539   3.471   2.425 -1.3431 -3.3828 -1.9654
 5060SOL     OW26812   0.788   0.844   4.064  0.3427 -0.3557 -0.2249
 5060SOL    HW126813   0.821   0.868   4.151  2.1695 -1.6789 -0.5471
 5060SOL    HW226814   0.730   0.769   4.077  1.0282 -0.9954 -0.8396
 5061SOL     OW26815   4.685   0.625   0.544 -0.3048 -0.3111 -0.2346
 5061SOL    HW126816   0.022   0.563   0.536  1.7189  1.9675  0.6170
 5061SOL    HW226817   4.735   0.704   0.568 -2.9175  0.9805  0.9095
 5062SOL     OW26818   2.101   2.421   3.721 -0.0206  0.7465  0.2066
 5062SOL    HW126819   2.081   2.433   3.814  0.8673 -1.9758  0.7585
 5062SOL    HW226820   2.075   2.332   3.696  2.1345  0.8208 -2.3386
 5063SOL     OW26821   3.656   1.759   5.220  0.6310  0.2205 -0.2045
 5063SOL    HW126822   3.711   1.708   5.161 -1.4819 -0.3863 -1.6239
 5063SOL    HW226823   3.673   1.714   5.303  1.6010  2.4542  0.8164
 5064SOL     OW26824   2.155   1.441  13.418 -0.8132 -0.0415 -0.4511
 5064SOL    HW126825   2.185   1.380  13.485 -1.1731  0.0579 -0.1961
 5064SOL    HW226826   2.132   1.522  13.463  0.8403  1.5835 -2.4987
 5065SOL     OW26827   1.949   0.507   3.504  0.3359  0.2283 -0.0735
 5065SOL    HW126828   1.886   0.579   3.492 -1.0034 -1.0596 -0.7783
 5065SOL    HW226829   1.895   0.428   3.507 -0.1361  0.6052  1.3854
 5066SOL     OW26830   2.069   0.911   3.363  0.6460 -0.0840 -0.6028
 5066SOL    HW126831   2.164   0.917   3.366  0.6325 -0.0190 -0.3255
 5066SOL    HW226832   2.034   0.994   3.397 -0.8903 -1.1127  0.3056
 5067SOL     OW26833   1.095   4.119   2.526  0.0845  0.4650 -0.0712
 5067SOL    HW126834   1.120   4.091   2.438  0.1456  0.4107 -0.0368
 5067SOL    HW226835   1.044   4.198   2.507  0.7983  1.1776  0.9947
 5068SOL     OW26836   3.883   3.603   4.280  0.5290  0.2337  0.8444
 5068SOL    HW126837   3.888   3.508   4.280 -0.9985  0.1630 -1.2842
 5068SOL    HW226838   3.959   3.618   4.338  0.4482  1.0970  0.7305
 5069SOL     OW26839   4.186   4.184  17.415  0.9487 -0.1280  1.0383
 5069SOL    HW126840   4.202   4.221  17.328  0.4702 -1.1022  0.5268
 5069SOL    HW226841   4.155   4.254  17.471 -1.4883  0.6954 -1.3311
 5070SOL     OW26842   4.084   3.283   1.410 -0.1433 -0.0594 -0.2382
 5070SOL    HW126843   4.049   3.310   1.325 -3.2833  1.2183  1.4625
 5070SOL    HW226844   4.043   3.196   1.417  0.1659 -0.3105 -1.4850
 5071SOL     OW26845   4.612   1.858   9.367 -0.1038 -0.2166 -0.0834
 5071SOL    HW126846   4.697   1.860   9.324 -0.6023 -2.6267 -1.1692
 5071SOL    HW226847   4.640   1.806   9.442  1.3661 -0.4578 -0.8040
 5072SOL     OW26848   1.082   0.175   3.161 -0.5975  0.6299 -0.1479
 5072SOL    HW126849   1.018   0.165   3.091  0.3445 -2.5433 -0.5517
 5072SOL    HW226850   1.146   0.109   3.134 -0.6229 -0.1943  1.7967
 5073SOL     OW26851   2.218   0.778   4.992  0.1011  0.2465  0.4041
 5073SOL    HW126852   2.143   0.763   5.049  1.2566 -0.6189  1.6792
 5073SOL    HW226853   2.267   0.697   5.001  0.6486  0.8393  2.6975
 5074SOL     OW26854   1.820   1.695  13.692 -0.4100  0.1936  0.0180
 5074SOL    HW126855   1.735   1.730  13.665 -0.5501  1.0598  1.5779
 5074SOL    HW226856   1.863   1.775  13.721  1.5051 -1.1057  0.7709
 5075SOL     OW26857   4.370   4.584   8.160  0.2846 -0.1657 -0.2200
 5075SOL    HW126858   4.303   4.535   8.112 -1.0051 -1.7286  3.1866
 5075SOL    HW226859   4.327   4.662   8.195  0.5352 -1.4666  2.9601
 5076SOL     OW26860   2.161   3.913  13.504  0.3162  0.6623 -0.5443
 5076SOL    HW126861   2.073   3.951  13.500 -0.4473 -1.1902 -1.8603
 5076SOL    HW226862   2.209   3.967  13.566 -2.4416  2.0064  0.4393
 5077SOL     OW26863   3.674   4.227   4.870 -0.6831 -0.1648  0.1456
 5077SOL    HW126864   3.642   4.317   4.863  0.8153  0.3008 -0.8508
 5077SOL    HW226865   3.721   4.236   4.952  2.2413 -1.0183 -1.4354
 5078SOL     OW26866   3.627   0.101   6.077 -0.1421 -0.3040  0.5531
 5078SOL    HW126867   3.637   0.188   6.038 -0.5222 -0.8396 -0.7501
 5078SOL    HW226868   3.690   0.104   6.149  1.8169  0.9024 -1.2237
 5079SOL     OW26869   4.259   4.447  11.679 -0.1420 -0.1540 -0.3983
 5079SOL    HW126870   4.247   4.387  11.605 -1.6482 -0.7532  0.3224
 5079SOL    HW226871   4.329   4.409  11.733  1.2351  0.3437 -1.8238
 5080SOL     OW26872   0.895   0.998   9.039 -0.4846  0.2933 -1.1476
 5080SOL    HW126873   0.939   0.933   9.095 -1.5775  1.1815  0.7312
 5080SOL    HW226874   0.832   0.939   8.997 -1.1602 -0.6440  1.1352
 5081SOL     OW26875   0.599   0.611   4.030 -0.1049  0.8489 -0.5116
 5081SOL    HW126876   0.584   0.636   3.939  1.8694  1.9483 -0.5417
 5081SOL    HW226877   0.521   0.559   4.046 -0.3884  0.3901 -3.3208
 5082SOL     OW26878   2.265   3.157   2.327 -0.5278  0.5262  0.1212
 5082SOL    HW126879   2.316   3.097   2.272 -0.1223  0.2533  0.7926
 5082SOL    HW226880   2.272   3.124   2.416  0.7715  1.7242  0.4646
 5083SOL     OW26881   2.925   1.956  15.908 -0.0302 -0.3752  0.4796
 5083SOL    HW126882   2.915   1.985  15.999 -0.5083 -0.6496  0.5093
 5083SOL    HW226883   2.838   1.982  15.878  0.3430 -0.3802 -0.6067
 5084SOL     OW26884   4.097   3.213  10.568 -0.5769  0.0611  0.3331
 5084SOL    HW126885   4.136   3.294  10.599 -0.3562 -0.0788  0.4250
 5084SOL    HW226886   4.116   3.155  10.642  0.1227 -1.9218 -1.3934
 5085SOL     OW26887   2.424   0.577   1.638 -0.4455  0.4318 -0.3634
 5085SOL    HW126888   2.450   0.485   1.632  0.0373  0.5079  0.5113
 5085SOL    HW226889   2.504   0.623   1.613 -0.3956 -0.0991 -1.1764
 5086SOL     OW26890   2.005   2.584   7.901  0.1463 -0.0325 -0.2201
 5086SOL    HW126891   2.010   2.497   7.860  1.1375  0.6864 -1.6243
 5086SOL    HW226892   2.090   2.620   7.874  0.8098 -0.7600  0.8620
 5087SOL     OW26893   1.332   3.269   1.451 -0.6926  0.3603  0.2668
 5087SOL    HW126894   1.328   3.174   1.464  0.2255 -0.0207 -2.1431
 5087SOL    HW226895   1.426   3.277   1.439 -0.9647  1.8038 -0.9785
 5088SOL     OW26896   2.864   4.534   1.018  0.1416  0.4175 -0.5539
 5088SOL    HW126897   2.949   4.515   1.058  0.2293  0.9209 -0.5002
 5088SOL    HW226898   2.803   4.492   1.079 -0.1072  1.8120  0.1621
 5089SOL     OW26899   2.183   3.451  14.642 -0.0722 -0.0338  0.1618
 5089SOL    HW126900   2.100   3.459  14.594  0.7910  1.0193 -1.1538
 5089SOL    HW226901   2.254   3.473  14.582 -0.1885 -0.1487 -0.0180
 5090SOL     OW26902   1.458   2.169   0.179  0.3757  0.1296  0.5401
 5090SOL    HW126903   1.462   2.259   0.147 -0.7623  0.4334  1.2636
 5090SOL    HW226904   1.379   2.141   0.132 -0.1641 -0.4315  1.7836
 5091SOL     OW26905   4.141   4.089  12.036  0.8387  0.2371  0.3954
 5091SOL    HW126906   4.192   4.009  12.044 -0.1064 -0.1612  2.5500
 5091SOL    HW226907   4.177   4.128  11.957 -0.7365  0.6018 -0.1362
 5092SOL     OW26908   1.938   4.015  16.416  0.2543  0.4372 -0.0324
 5092SOL    HW126909   1.846   3.999  16.441  0.5067 -3.8335 -1.8304
 5092SOL    HW226910   1.964   3.924  16.400  0.0720  0.1021  1.5938
 5093SOL     OW26911   3.306   1.559   8.580  0.1028  0.2531 -0.1204
 5093SOL    HW126912   3.217   1.592   8.567  0.0399 -0.2903 -1.0506
 5093SOL    HW226913   3.304   1.554   8.676  0.8078  1.6678 -0.0361
 5094SOL     OW26914   3.781   3.651   3.869 -0.0443  0.2769  0.5042
 5094SOL    HW126915   3.725   3.597   3.813  0.2245 -1.0830  1.5403
 5094SOL    HW226916   3.837   3.698   3.807  1.4663  1.1843  2.5610
 5095SOL     OW26917   4.556   4.661   3.826 -0.1238  0.0005 -0.0110
 5095SOL    HW126918   4.576   4.645   3.918 -0.4237 -1.9829 -0.2854
 5095SOL    HW226919   4.529   0.017   3.827 -2.8141 -0.7659 -0.2574
 5096SOL     OW26920   4.244   1.344   2.769  0.4318 -0.6304  0.1167
 5096SOL    HW126921   4.193   1.355   2.849  0.4813 -0.1078  0.0732
 5096SOL    HW226922   4.325   1.386   2.797  1.2342 -0.8850 -1.7767
 5097SOL     OW26923   3.941   3.273   9.699 -0.2462  0.5353 -0.1310
 5097SOL    HW126924   3.884   3.349   9.684 -2.3411 -1.4042 -1.8696
 5097SOL    HW226925   3.915   3.213   9.629 -0.6209  0.1354  0.3525
 5098SOL     OW26926   2.941   2.840   6.295  0.0482 -0.0075  0.0741
 5098SOL    HW126927   2.866   2.802   6.342  1.3542 -1.1740  1.2070
 5098SOL    HW226928   3.009   2.856   6.360 -0.2520  0.6475  0.2194
 5099SOL     OW26929   3.374   2.692   5.609 -0.2452  0.3909  0.3283
 5099SOL    HW126930   3.347   2.603   5.587 -0.9936  0.6873  0.0430
 5099SOL    HW226931   3.469   2.688   5.602 -0.4024  0.0044 -1.6975
 5100SOL     OW26932   0.513   3.514  14.811  0.3241 -0.0748 -0.0889
 5100SOL    HW126933   0.504   3.450  14.882  1.3845  0.1160  0.2169
 5100SOL    HW226934   0.586   3.482  14.759 -1.1108 -0.1709 -2.0541
 5101SOL     OW26935   3.780   4.404  15.002  1.0463 -0.5240  0.8038
 5101SOL    HW126936   3.714   4.377  14.938  1.6416 -0.8941  0.3419
 5101SOL    HW226937   3.783   4.319  15.046  0.3043 -1.7477 -1.4924
 5102SOL     OW26938   3.770   1.115   2.423 -0.3316  0.5639 -0.5542
 5102SOL    HW126939   3.691   1.133   2.474 -0.2650  0.0188 -0.2489
 5102SOL    HW226940   3.773   1.177   2.350  2.8189  0.5895 -0.3905
 5103SOL     OW26941   0.499   1.142   9.499 -0.7452  0.4979 -0.2482
 5103SOL    HW126942   0.565   1.102   9.555  0.0857  2.4444  0.1763
 5103SOL    HW226943   0.432   1.075   9.501 -0.7923  0.5030 -1.5719
 5104SOL     OW26944   3.726   0.715   2.091 -0.4052  0.3811  0.1953
 5104SOL    HW126945   3.800   0.775   2.094  0.7037 -0.9371 -0.6536
 5104SOL    HW226946   3.670   0.763   2.030 -1.0103  0.2129  0.6204
 5105SOL     OW26947   3.794   0.444  12.875  0.2748  0.2109  0.8345
 5105SOL    HW126948   3.807   0.349  12.880  3.0564  0.5108 -0.5376
 5105SOL    HW226949   3.710   0.456  12.920  0.1110  0.5480  0.4336
 5106SOL     OW26950   1.028   3.539   3.956 -0.4577  0.4084  0.0503
 5106SOL    HW126951   0.968   3.466   3.938  2.4162 -1.9661  0.0446
 5106SOL    HW226952   1.047   3.528   4.049 -1.1951  2.0472  0.3939
 5107SOL     OW26953   2.180   0.505   4.251  0.1260 -0.3035 -0.8389
 5107SOL    HW126954   2.210   0.595   4.258  0.2399 -0.4719  0.9894
 5107SOL    HW226955   2.197   0.497   4.157 -0.3490 -1.8330 -0.8071
 5108SOL     OW26956   0.945   0.446  10.482  0.3681 -0.2901 -0.3542
 5108SOL    HW126957   0.879   0.398  10.431 -0.3086 -0.6682  0.8977
 5108SOL    HW226958   0.958   0.533  10.443  0.1345 -1.0317 -2.0768
 5109SOL     OW26959   1.325   2.923   9.229  0.3930  0.3557  0.0966
 5109SOL    HW126960   1.418   2.923   9.205  0.9501  0.0783  2.2811
 5109SOL    HW226961   1.304   3.016   9.235 -2.2749 -0.2518  0.0478
 5110SOL     OW26962   3.178   4.649   1.715 -0.0929 -0.0133  0.1431
 5110SOL    HW126963   3.190   4.574   1.774 -1.9989  1.9159  2.9748
 5110SOL    HW226964   3.129   4.712   1.768  0.1932  0.0268  0.3640
 5111SOL     OW26965   2.131   1.015   2.802 -0.7880 -0.0136 -0.0398
 5111SOL    HW126966   2.172   1.079   2.743 -1.6909 -0.7360 -1.4472
 5111SOL    HW226967   2.055   1.069   2.825 -1.0775  1.0947 -3.5745
 5112SOL     OW26968   3.934   0.912  13.023 -0.3546  0.4525 -0.1503
 5112SOL    HW126969   3.966   0.831  12.982  0.8900  0.9836 -0.2212
 5112SOL    HW226970   3.842   0.911  12.998 -0.5509 -0.7778  0.5819
 5113SOL     OW26971   0.302   0.735   3.366  0.0915  0.1600  0.2037
 5113SOL    HW126972   0.330   0.788   3.291  0.8710  0.6818  0.8654
 5113SOL    HW226973   0.282   0.649   3.328  0.4903  0.9085 -1.7253
 5114SOL     OW26974   3.818   1.609   5.067 -0.2715  0.5552 -0.1714
 5114SOL    HW126975   3.896   1.608   5.012  0.6936  2.0608  1.1716
 5114SOL    HW226976   3.814   1.518   5.096 -1.6517  0.8699  0.6231
 5115SOL     OW26977   1.347   0.670  14.696 -0.4031 -0.5149 -0.3029
 5115SOL    HW126978   1.274   0.717  14.655 -0.1144  1.1773  1.0944
 5115SOL    HW226979   1.414   0.739  14.698  0.9994 -1.9864  2.3104
 5116SOL     OW26980   1.754   1.750   6.380 -0.5870 -0.1595 -0.0625
 5116SOL    HW126981   1.682   1.813   6.377  0.4783  1.0629  0.1656
 5116SOL    HW226982   1.778   1.745   6.287  1.0644 -2.5161  0.4917
 5117SOL     OW26983   2.492   0.553   8.433 -0.5306  0.2654 -0.1020
 5117SOL    HW126984   2.500   0.507   8.350  1.0900  0.2155  0.0709
 5117SOL    HW226985   2.561   0.516   8.489 -2.8631 -3.7740  0.1119
 5118SOL     OW26986   4.390   2.455  10.825 -0.0120 -0.7847 -0.1253
 5118SOL    HW126987   4.413   2.423  10.912 -0.4825 -1.0670 -0.1065
 5118SOL    HW226988   4.300   2.427  10.812 -0.3297 -0.0417  0.4621
 5119SOL     OW26989   1.958   4.426  14.683  0.0987  0.0659  0.0340
 5119SOL    HW126990   1.915   4.446  14.766  0.2188 -2.0679  0.5919
 5119SOL    HW226991   1.955   4.514  14.644 -1.0032 -0.4100 -0.9589
 5120SOL     OW26992   2.444   4.140  13.569  0.4280  0.3013 -0.0528
 5120SOL    HW126993   2.464   4.116  13.659  1.6584  1.3861 -0.0420
 5120SOL    HW226994   2.532   4.132  13.532  0.4937 -0.4856  0.2678
 5121SOL     OW26995   0.101   3.458   1.963 -0.1235 -0.4622  0.0884
 5121SOL    HW126996   0.192   3.486   1.972 -0.3122  0.3697 -0.5740
 5121SOL    HW226997   0.073   3.486   2.050 -3.5151 -4.0443  0.1307
 5122SOL     OW26998   3.094   4.142   3.840  0.1119 -0.3619 -0.8334
 5122SOL    HW126999   3.040   4.130   3.761 -1.7142 -0.2634  0.3861
 5122SOL    HW227000   3.110   4.053   3.871 -2.9213 -0.1045  1.5619
 5123SOL     OW27001   1.815   1.769  13.275 -0.8527 -0.7468 -0.4445
 5123SOL    HW127002   1.763   1.849  13.266  3.3775  1.8742 -1.5729
 5123SOL    HW227003   1.767   1.719  13.208 -1.0528 -1.4568  0.2217
 5124SOL     OW27004   2.299   3.118   2.616 -0.1220 -0.0199  0.0964
 5124SOL    HW127005   2.319   3.210   2.600  2.0823 -0.4467  0.4441
 5124SOL    HW227006   2.288   3.118   2.711  0.7962 -0.7652  0.2071
 5125SOL     OW27007   0.379   0.566   8.988 -0.4958 -0.0090 -0.4813
 5125SOL    HW127008   0.312   0.535   8.928  1.1280 -1.2241 -1.6631
 5125SOL    HW227009   0.323   0.549   9.064 -0.5249  1.2465 -0.2257
 5126SOL     OW27010   2.012   4.589   7.396  0.4176  0.5684  0.0530
 5126SOL    HW127011   1.949   4.587   7.468  0.1972 -0.0363 -0.1600
 5126SOL    HW227012   1.989   4.500   7.371  3.0380  0.4141 -1.7609
 5127SOL     OW27013   3.819   0.316   7.773  0.0864 -0.4260 -0.2226
 5127SOL    HW127014   3.836   0.382   7.840 -1.1732 -1.4286  1.0820
 5127SOL    HW227015   3.873   0.239   7.789 -0.2356 -0.2343  1.7128
 5128SOL     OW27016   2.613   2.140  13.679  0.5077  0.6124 -0.0686
 5128SOL    HW127017   2.675   2.110  13.746 -1.2919  0.3223  1.4668
 5128SOL    HW227018   2.558   2.064  13.666  0.6542 -0.0484  3.1936
 5129SOL     OW27019   2.968   1.834  10.525  0.0269  0.1603  0.6317
 5129SOL    HW127020   2.922   1.766  10.573 -0.8267  1.7494  2.0446
 5129SOL    HW227021   2.925   1.909  10.566  2.5994  1.9459  0.0372
 5130SOL     OW27022   0.787   1.018   2.341 -0.0886 -0.0921  0.2458
 5130SOL    HW127023   0.712   1.068   2.373 -1.2658 -0.3639 -2.0503
 5130SOL    HW227024   0.746   0.974   2.266  1.6714 -0.3044 -0.6056
 5131SOL     OW27025   1.631   3.793   1.528 -0.4947 -0.6745 -0.1999
 5131SOL    HW127026   1.677   3.852   1.468  0.4554  0.4717  1.6307
 5131SOL    HW227027   1.545   3.835   1.536  0.0118  0.8049 -2.4331
 5132SOL     OW27028   4.417   0.302   3.208  0.5962 -0.1608  0.4383
 5132SOL    HW127029   4.412   0.208   3.189 -1.7416 -0.2392  1.3299
 5132SOL    HW227030   4.442   0.295   3.300 -0.5818 -1.7069  0.6448
 5133SOL     OW27031   0.038   2.475  16.197  0.5616  0.0957  0.9541
 5133SOL    HW127032   0.118   2.461  16.248  1.3700 -1.9330 -0.8499
 5133SOL    HW227033   0.059   2.415  16.125  1.1135 -0.6982  1.7695
 5134SOL     OW27034   3.919   3.942   5.987  0.1481  0.3854  0.1681
 5134SOL    HW127035   3.993   3.895   6.024  0.3171  1.9680  1.8545
 5134SOL    HW227036   3.957   4.014   5.936 -2.3424  1.1322 -0.6227
 5135SOL     OW27037   1.397   0.657   8.918  0.1167 -0.3704 -0.2909
 5135SOL    HW127038   1.469   0.604   8.886  0.3405 -0.0162 -0.3781
 5135SOL    HW227039   1.366   0.605   8.992  0.0082 -0.5922 -0.4962
 5136SOL     OW27040   4.247   2.861   7.876  0.3307 -0.3016 -0.0489
 5136SOL    HW127041   4.232   2.926   7.807  2.1827  0.6790  0.4716
 5136SOL    HW227042   4.293   2.915   7.941 -0.2964  1.5457 -1.1208
 5137SOL     OW27043   2.030   0.494   1.896 -0.1853 -0.1163 -0.0272
 5137SOL    HW127044   2.080   0.442   1.959 -0.9309  3.5710  3.5477
 5137SOL    HW227045   2.057   0.579   1.930 -2.4558  0.6777 -0.2185
 5138SOL     OW27046   0.064   1.306   7.493  0.8842  0.2834  0.1028
 5138SOL    HW127047   4.712   1.275   7.515  0.5108  2.5065  1.7024
 5138SOL    HW227048   0.102   1.219   7.478 -2.1173 -1.5437  3.0547
 5139SOL     OW27049   2.924   3.446   1.976 -0.0879 -0.2092  0.1342
 5139SOL    HW127050   2.946   3.398   1.896  2.3621  0.8247  0.1846
 5139SOL    HW227051   3.008   3.447   2.022  1.1941 -2.5214 -2.2014
 5140SOL     OW27052   2.099   1.189   7.084  0.0338  0.0812 -0.7811
 5140SOL    HW127053   2.027   1.142   7.125 -0.2318  0.7016 -0.5390
 5140SOL    HW227054   2.176   1.160   7.133 -1.3053 -0.1082  1.2197
 5141SOL     OW27055   0.327   0.535   4.433  0.0895 -0.3214  0.2427
 5141SOL    HW127056   0.345   0.613   4.380 -1.7585 -0.1203 -0.0895
 5141SOL    HW227057   0.245   0.497   4.400  0.5235 -0.1975 -0.9649
 5142SOL     OW27058   0.736   1.983   6.391 -0.2337  0.3536  0.1572
 5142SOL    HW127059   0.751   2.057   6.449  2.7404 -1.6794  1.9764
 5142SOL    HW227060   0.643   1.990   6.368 -0.7067 -1.3302  1.5550
 5143SOL     OW27061   0.263   3.691   8.269 -0.5244 -0.2342 -0.3214
 5143SOL    HW127062   0.176   3.651   8.266 -1.0199  0.7519  1.1631
 5143SOL    HW227063   0.314   3.611   8.278  0.3799  0.4749  0.8061
 5144SOL     OW27064   3.195   1.720  14.042  0.1126  0.6320 -0.1763
 5144SOL    HW127065   3.147   1.643  14.010  2.1109  0.0910 -1.8913
 5144SOL    HW227066   3.143   1.789  14.001  0.1351 -0.0068 -1.2826
 5145SOL     OW27067   3.916   4.449   9.355 -0.1152 -0.6080  0.8382
 5145SOL    HW127068   3.847   4.506   9.321  0.8130  0.8532  1.3857
 5145SOL    HW227069   3.876   4.365   9.333 -2.3147  1.2827 -2.4742
 5146SOL     OW27070   2.158   1.343  13.677 -0.3787  0.5664 -0.1238
 5146SOL    HW127071   2.120   1.287  13.744 -2.0184  0.9962 -0.7106
 5146SOL    HW227072   2.171   1.427  13.722  0.3745 -0.0057  0.7480
 5147SOL     OW27073   0.665   1.717   6.773 -0.3881 -0.4357 -0.1630
 5147SOL    HW127074   0.594   1.716   6.709 -0.7284  2.2824  0.1778
 5147SOL    HW227075   0.621   1.718   6.858 -2.7696 -0.0709 -1.4213
 5148SOL     OW27076   1.562   2.652   9.866  0.2222  0.2557 -0.3246
 5148SOL    HW127077   1.553   2.712   9.792 -0.9782  3.1433  2.1773
 5148SOL    HW227078   1.648   2.613   9.852  0.3900  0.7017 -0.5151
 5149SOL     OW27079   2.958   4.266   1.422  0.1681 -0.0074 -0.0485
 5149SOL    HW127080   2.936   4.350   1.463  2.5098 -1.2514  3.7483
 5149SOL    HW227081   3.052   4.262   1.442 -0.1331  1.9040  1.7651
 5150SOL     OW27082   1.578   0.334  16.348  0.4530  0.2379 -0.4549
 5150SOL    HW127083   1.517   0.359  16.418 -0.8228  2.0241 -2.2262
 5150SOL    HW227084   1.632   0.291  16.414 -0.8945 -0.1648  0.4000
 5151SOL     OW27085   4.658   0.763  17.538  0.4357  0.1332  0.0140
 5151SOL    HW127086   4.655   0.852  17.574 -1.6303  0.2198 -0.3617
 5151SOL    HW227087   4.568   0.737  17.517  1.1082 -1.3634 -1.0038
 5152SOL     OW27088   3.914   1.184   9.383 -0.6583  0.4409 -0.1117
 5152SOL    HW127089   3.834   1.236   9.395 -0.5068 -0.1144  3.2164
 5152SOL    HW227090   3.886   1.127   9.455 -1.0006 -0.3833 -0.8923
 5153SOL     OW27091   1.669   0.354   3.738 -0.4126  0.2621 -0.3991
 5153SOL    HW127092   1.653   0.296   3.663  3.9093 -0.9668 -0.3572
 5153SOL    HW227093   1.743   0.314   3.784  0.5124  0.8883 -1.3365
 5154SOL     OW27094   2.358   0.018   5.959 -0.2135  0.3382  0.3346
 5154SOL    HW127095   2.390   0.036   6.047  0.4302 -2.8696  0.7479
 5154SOL    HW227096   2.438   0.025   5.906 -0.6121  1.3463 -0.1319
 5155SOL     OW27097   3.541   2.747  12.845  0.2781 -0.1105  0.2710
 5155SOL    HW127098   3.561   2.754  12.752 -0.0094  2.9006  0.4243
 5155SOL    HW227099   3.490   2.827  12.859  1.8835  0.7400  1.2711
 5156SOL     OW27100   1.067   1.454   4.649 -0.1210  0.0239 -0.0484
 5156SOL    HW127101   0.975   1.472   4.667  0.0937  1.0748 -0.0037
 5156SOL    HW227102   1.084   1.522   4.583 -1.5388  0.8088  0.3934
 5157SOL     OW27103   0.046   3.068   5.241  0.0827  0.2892  0.3091
 5157SOL    HW127104   0.063   3.032   5.328 -0.5391 -0.9830 -0.1078
 5157SOL    HW227105   4.701   3.117   5.252  0.7190  1.4470 -0.1318
 5158SOL     OW27106   2.353   2.546   6.579 -0.5321 -0.1850  0.3197
 5158SOL    HW127107   2.260   2.541   6.557 -0.1312  1.2639 -1.6972
 5158SOL    HW227108   2.363   2.636   6.549 -2.0603 -0.0848  0.1044
 5159SOL     OW27109   3.818   1.850  10.540 -0.4485  0.5148  0.1537
 5159SOL    HW127110   3.735   1.836  10.586 -0.1868  1.2841  0.8602
 5159SOL    HW227111   3.876   1.874  10.613  0.9531  2.2328 -1.5231
 5160SOL     OW27112   2.815   0.307  16.268 -0.1904  0.3832 -0.6498
 5160SOL    HW127113   2.770   0.352  16.197  0.2687  3.1297  0.7970
 5160SOL    HW227114   2.881   0.264  16.214 -3.1778 -0.8535 -3.2946
 5161SOL     OW27115   4.360   0.074   2.321  0.5830 -0.2113  0.5986
 5161SOL    HW127116   4.284   0.019   2.303 -0.6019  1.8605 -0.7792
 5161SOL    HW227117   4.334   0.136   2.389 -0.6800  0.3493 -0.3971
 5162SOL     OW27118   3.074   0.897   5.766 -0.4606  0.7770 -0.0915
 5162SOL    HW127119   3.141   0.927   5.827  0.3182  0.4285 -0.7746
 5162SOL    HW227120   3.074   0.803   5.784 -2.4643  0.8049  0.0891
 5163SOL     OW27121   3.684   2.813   1.999  0.1789 -0.1162 -0.1343
 5163SOL    HW127122   3.693   2.759   1.921  0.5873  1.2218 -1.0118
 5163SOL    HW227123   3.737   2.765   2.063  0.9066 -0.8556 -1.2931
 5164SOL     OW27124   3.410   2.466  10.838 -0.1854  0.1730 -0.5202
 5164SOL    HW127125   3.465   2.401  10.881  1.6679  0.1172 -2.9380
 5164SOL    HW227126   3.390   2.530  10.906 -1.0138  0.4230 -0.9885
 5165SOL     OW27127   3.461   1.188   1.978 -0.4439 -0.2397 -0.4462
 5165SOL    HW127128   3.487   1.261   1.922 -0.2018 -0.2535 -0.3546
 5165SOL    HW227129   3.464   1.232   2.063 -1.7059 -2.2131  0.6239
 5166SOL     OW27130   2.193   0.660  17.631  0.3498 -0.8086 -0.3840
 5166SOL    HW127131   2.273   0.609  17.645  2.1892  2.2915  0.3379
 5166SOL    HW227132   2.219   0.743  17.591 -1.9665  0.5173  0.8441
 5167SOL     OW27133   0.458   4.130   4.104 -0.4219 -0.3023 -0.2712
 5167SOL    HW127134   0.505   4.133   4.021 -1.6392 -4.0519 -1.1243
 5167SOL    HW227135   0.369   4.146   4.073  0.6636  3.4291 -1.3499
 5168SOL     OW27136   4.490   3.731   2.532 -0.6378  0.3082  0.3568
 5168SOL    HW127137   4.407   3.691   2.557 -0.6029 -0.5488 -0.9027
 5168SOL    HW227138   4.508   3.669   2.461 -2.5178 -0.1887  0.3279
 5169SOL     OW27139   1.039   2.050   9.086 -0.3066  0.3394 -0.0423
 5169SOL    HW127140   1.004   2.096   9.009 -1.5812  0.0984  0.3999
 5169SOL    HW227141   0.957   2.057   9.134 -0.8758 -1.8520 -0.7251
 5170SOL     OW27142   0.977   3.676   1.762  0.2503 -0.2194  0.3394
 5170SOL    HW127143   1.031   3.681   1.683 -0.0121  1.1411  0.2540
 5170SOL    HW227144   1.047   3.706   1.819 -0.3716  2.1558 -0.1520
 5171SOL     OW27145   1.281   2.043   8.071  0.0285  0.2920  0.1391
 5171SOL    HW127146   1.281   1.997   8.154 -1.3898 -0.9742 -0.5696
 5171SOL    HW227147   1.189   2.059   8.049  0.3875  0.4023 -1.2955
 5172SOL     OW27148   1.104   3.207  14.915  0.1499 -0.3799 -0.1964
 5172SOL    HW127149   1.015   3.175  14.903 -0.1518  0.0629  0.8536
 5172SOL    HW227150   1.101   3.262  14.837 -2.5029  0.0534  0.2438
 5173SOL     OW27151   1.313   4.194   2.810 -0.3964  0.0951 -0.0559
 5173SOL    HW127152   1.343   4.167   2.723  1.5327 -0.3002  0.7126
 5173SOL    HW227153   1.240   4.253   2.795  0.4910  1.3525  0.5552
 5174SOL     OW27154   1.599   0.467  10.238 -0.9097  0.2779 -0.0929
 5174SOL    HW127155   1.591   0.555  10.274  1.8088  0.7156 -0.5687
 5174SOL    HW227156   1.618   0.415  10.316 -0.1946  0.8272  0.1015
 5175SOL     OW27157   1.142   1.511  15.687  0.5720  0.4205 -0.5790
 5175SOL    HW127158   1.082   1.509  15.613  1.4051  0.3453 -1.2600
 5175SOL    HW227159   1.230   1.485  15.657  0.8296 -0.4288  0.8829
 5176SOL     OW27160   3.682   2.151   9.523 -0.1888  0.0834 -0.0337
 5176SOL    HW127161   3.761   2.177   9.569  0.0340 -1.9948  0.7676
 5176SOL    HW227162   3.652   2.239   9.503  0.8828  0.8801  1.9573
 5177SOL     OW27163   0.814   2.363   9.210 -0.7202 -0.1069 -0.5401
 5177SOL    HW127164   0.776   2.299   9.149 -0.3106 -2.4034  1.5950
 5177SOL    HW227165   0.873   2.303   9.255 -1.6160 -1.0962 -0.6748
 5178SOL     OW27166   4.419   1.332   2.234 -0.4397 -0.0039 -0.2869
 5178SOL    HW127167   4.475   1.378   2.296 -1.6144 -0.5630  1.1915
 5178SOL    HW227168   4.488   1.309   2.173 -0.5246  0.8033 -0.6874
 5179SOL     OW27169   4.660   4.595   4.909  0.0213  0.3028 -0.0672
 5179SOL    HW127170   4.682   4.518   4.963  0.4658  1.0168  0.7707
 5179SOL    HW227171   4.613   4.562   4.832  0.6135 -0.6770 -0.0129
 5180SOL     OW27172   0.382   3.135   8.463 -0.4414  0.0906 -0.1883
 5180SOL    HW127173   0.386   3.225   8.431  0.9482 -0.0983 -0.5499
 5180SOL    HW227174   0.342   3.089   8.390  0.0103  0.5915 -0.7464
 5181SOL     OW27175   0.091   4.513  16.182  0.6893  0.1616  0.1652
 5181SOL    HW127176   0.161   4.470  16.233 -1.6356 -2.6301  1.0224
 5181SOL    HW227177   0.113   4.462  16.104  0.2795 -0.0947  0.2154
 5182SOL     OW27178   1.064   2.469   6.153 -0.0144 -0.1082 -0.4134
 5182SOL    HW127179   1.033   2.380   6.139  1.3136 -0.6342  0.0268
 5182SOL    HW227180   0.991   2.499   6.207  1.4618 -2.4930  2.9221
 5183SOL     OW27181   3.481   3.693  12.208  0.6825 -0.8928 -0.1891
 5183SOL    HW127182   3.470   3.668  12.300  1.3507 -1.3913 -0.2438
 5183SOL    HW227183   3.575   3.681  12.197  0.8123  0.4883 -0.5550
 5184SOL     OW27184   3.209   3.131   4.900 -0.0458  0.7021 -0.1383
 5184SOL    HW127185   3.154   3.159   4.973 -0.1185 -1.4508  0.6599
 5184SOL    HW227186   3.165   3.052   4.869 -0.5976  0.4259  1.3437
 5185SOL     OW27187   0.893   1.762   9.268 -0.1015 -0.4456 -0.3978
 5185SOL    HW127188   0.947   1.767   9.188 -1.9971 -1.9449 -1.7805
 5185SOL    HW227189   0.810   1.805   9.247 -0.1605  0.0079  0.7954
 5186SOL     OW27190   0.426   0.261  12.447  0.7859 -0.2455 -0.3269
 5186SOL    HW127191   0.502   0.205  12.464  0.3928 -1.0183 -1.1386
 5186SOL    HW227192   0.361   0.209  12.400  0.5601 -0.8519  0.6451
 5187SOL     OW27193   0.486   2.890  10.941  0.4349 -0.4988  0.2536
 5187SOL    HW127194   0.570   2.859  10.909  1.1553 -0.3368  1.9820
 5187SOL    HW227195   0.492   2.889  11.037  2.2641 -0.9776  0.1156
 5188SOL     OW27196   2.213   0.767   7.487 -0.8110  0.2401 -0.1561
 5188SOL    HW127197   2.233   0.683   7.531  1.9873  0.4307 -1.0878
 5188SOL    HW227198   2.284   0.821   7.520  0.3045 -1.2524 -0.1275
 5189SOL     OW27199   1.098   4.645  10.438  0.4856 -0.3553  0.3965
 5189SOL    HW127200   1.049   4.592  10.375  0.2816  2.3310 -1.6925
 5189SOL    HW227201   1.146   4.715  10.393 -1.4543  0.6281 -0.1303
 5190SOL     OW27202   3.406   2.008   6.613  0.0735  0.0423 -0.5650
 5190SOL    HW127203   3.381   1.916   6.600 -0.3979  0.0844  0.0341
 5190SOL    HW227204   3.451   2.040   6.535 -1.2374 -0.7067 -1.6143
 5191SOL     OW27205   2.678   2.905   4.015 -0.4003  0.0996  0.3155
 5191SOL    HW127206   2.748   2.941   4.070 -2.7876  0.2747  3.2532
 5191SOL    HW227207   2.718   2.911   3.928 -0.6088 -1.5768  0.1101
 5192SOL     OW27208   1.058   1.510   3.045 -0.3488 -0.4152  0.4351
 5192SOL    HW127209   1.133   1.451   3.044  0.7028  0.9607 -1.3147
 5192SOL    HW227210   1.017   1.505   2.959 -0.0826  0.0789  0.2852
 5193SOL     OW27211   0.550   2.587   4.510 -0.2450 -0.5111 -0.3013
 5193SOL    HW127212   0.550   2.553   4.600  1.3274  1.2487  0.3646
 5193SOL    HW227213   0.556   2.509   4.454 -0.0008 -0.7889  0.1091
 5194SOL     OW27214   3.714   2.264  10.810  0.2518  0.6976  0.2187
 5194SOL    HW127215   3.799   2.249  10.851 -0.1387 -0.7508  0.4752
 5194SOL    HW227216   3.717   2.358  10.791  0.0999  0.6864  0.1352
 5195SOL     OW27217   4.705   2.947  14.870 -0.5328 -0.2556 -0.4345
 5195SOL    HW127218   4.635   2.896  14.912  0.8085  0.0633  2.2165
 5195SOL    HW227219   0.043   2.886  14.871 -0.3981 -0.0840  1.4407
 5196SOL     OW27220   1.433   3.729  17.469  0.0719 -0.0799  0.1006
 5196SOL    HW127221   1.349   3.690  17.494  0.1248 -0.1250  0.2103
 5196SOL    HW227222   1.448   3.791  17.541  1.1606 -0.4466  0.1930
 5197SOL     OW27223   2.869   1.238   2.515 -0.0533  0.1325  0.4194
 5197SOL    HW127224   2.797   1.182   2.485 -0.6366  0.9493  0.3009
 5197SOL    HW227225   2.938   1.172   2.528  2.5231  2.7542 -0.0562
 5198SOL     OW27226   1.239   2.205   5.071 -0.0494 -0.1659 -0.1782
 5198SOL    HW127227   1.314   2.234   5.018 -1.7296 -1.2609 -3.1076
 5198SOL    HW227228   1.247   2.110   5.064 -3.1376 -0.4412  0.0460
 5199SOL     OW27229   0.173   3.870  16.160  0.0346  0.7237 -0.1004
 5199SOL    HW127230   0.137   3.956  16.181  0.6510  1.1002 -0.6197
 5199SOL    HW227231   0.153   3.856  16.067  0.6620  3.4313 -0.6416
 5200SOL     OW27232   0.187   0.797   5.129 -0.3021  0.5530 -0.0589
 5200SOL    HW127233   0.119   0.741   5.091 -0.3888  1.3578 -1.0951
 5200SOL    HW227234   0.199   0.866   5.063  1.5199 -0.8560 -1.1843
 5201SOL     OW27235   3.997   3.156   4.848  0.3807  0.1041  0.3265
 5201SOL    HW127236   4.003   3.089   4.915  0.5827  0.5015  0.7062
 5201SOL    HW227237   3.998   3.237   4.899 -1.3198  0.7605 -0.6579
 5202SOL     OW27238   2.425   4.012   2.618  0.2099  0.3471  0.0457
 5202SOL    HW127239   2.432   3.945   2.686  0.0908 -0.4377 -0.7107
 5202SOL    HW227240   2.400   4.079   2.681  1.5227  0.8923 -0.0392
 5203SOL     OW27241   2.462   2.810  14.825 -0.6536  0.1906  0.3005
 5203SOL    HW127242   2.437   2.872  14.893 -1.1927 -0.2680  0.5215
 5203SOL    HW227243   2.502   2.859  14.753  1.3570  0.4056  1.5946
 5204SOL     OW27244   0.088   2.987   5.754 -0.7265  0.1094 -0.1481
 5204SOL    HW127245   0.135   3.069   5.737  0.0235  0.2437  2.5898
 5204SOL    HW227246   0.057   2.971   5.665  2.4743 -0.7606 -1.1344
 5205SOL     OW27247   1.337   3.336   2.239 -0.0419 -0.6199 -0.4047
 5205SOL    HW127248   1.380   3.279   2.175  1.9358  0.2538  0.1461
 5205SOL    HW227249   1.247   3.304   2.234  0.8257 -3.5670  2.8642
 5206SOL     OW27250   4.701   2.809  15.292  0.5105 -0.0361  0.6782
 5206SOL    HW127251   4.692   2.732  15.235 -1.9474  0.0361  0.9686
 5206SOL    HW227252   4.719   2.880  15.232  0.8409 -1.4254 -0.8680
 5207SOL     OW27253   1.386   0.517   3.496  0.4213 -0.1198  0.7342
 5207SOL    HW127254   1.404   0.477   3.410 -0.0016 -1.3352  1.2090
 5207SOL    HW227255   1.433   0.599   3.483 -0.0455  0.1455  0.7245
 5208SOL     OW27256   0.103   2.334  17.356 -0.4834 -0.1771 -0.4915
 5208SOL    HW127257   0.017   2.338  17.397 -0.2903 -0.4062 -0.0680
 5208SOL    HW227258   0.089   2.388  17.278  0.3254  1.1349  0.2672
 5209SOL     OW27259   0.560   1.312   8.105  0.0549  0.4037 -0.7828
 5209SOL    HW127260   0.478   1.287   8.063 -0.0695  0.5426 -0.6218
 5209SOL    HW227261   0.539   1.317   8.198  2.1498  3.5946 -0.4912
 5210SOL     OW27262   0.619   1.107   7.647  0.2933 -0.7312 -0.2078
 5210SOL    HW127263   0.687   1.158   7.691  1.3197 -2.1133 -0.2011
 5210SOL    HW227264   0.557   1.177   7.626 -2.1163 -2.6761  0.3770
 5211SOL     OW27265   3.337   0.547   8.314  0.2160 -0.5768  0.1475
 5211SOL    HW127266   3.382   0.541   8.398 -0.4990  0.6557  0.6134
 5211SOL    HW227267   3.254   0.532   8.359  0.8879 -0.5894  1.3628
 5212SOL     OW27268   4.647   0.752   6.085  0.6409 -0.4128  0.3089
 5212SOL    HW127269   4.619   0.691   6.017 -1.1055 -0.7179  1.3188
 5212SOL    HW227270   4.655   0.836   6.042 -1.0228 -0.3853  0.0525
 5213SOL     OW27271   2.834   3.803  13.307  0.4100 -0.3860  0.0929
 5213SOL    HW127272   2.832   3.734  13.241 -2.8523  1.8671 -2.1642
 5213SOL    HW227273   2.821   3.878  13.250 -0.2923  0.6011  1.5376
 5214SOL     OW27274   0.031   3.461  10.455  0.1931  0.2203  0.0017
 5214SOL    HW127275   0.020   3.370  10.428  1.8575 -0.0042  0.0747
 5214SOL    HW227276   4.675   3.469  10.481 -0.5757 -0.6481 -2.3642
 5215SOL     OW27277   1.597   2.009   7.890 -0.3789 -0.3169  0.3538
 5215SOL    HW127278   1.620   2.009   7.983 -0.3205 -2.3182  0.3238
 5215SOL    HW227279   1.620   1.927   7.847 -0.2287 -1.4374  2.5794
 5216SOL     OW27280   3.157   3.564   8.397  0.3119  0.3562 -0.3480
 5216SOL    HW127281   3.115   3.503   8.458 -0.0265 -0.3579 -1.3087
 5216SOL    HW227282   3.243   3.524   8.401  0.2742  0.5750  2.7244
 5217SOL     OW27283   0.745   4.498   8.732 -0.6411 -0.4506 -0.2467
 5217SOL    HW127284   0.836   4.494   8.761 -0.6807  0.8170  0.0400
 5217SOL    HW227285   0.706   4.537   8.810 -1.2394 -3.1534  0.7903
 5218SOL     OW27286   1.966   3.896  14.288 -0.3577 -0.3876 -0.3025
 5218SOL    HW127287   1.954   3.890  14.193  0.1727  2.4907 -0.5558
 5218SOL    HW227288   2.061   3.911  14.288 -0.4439  0.1092 -1.9277
 5219SOL     OW27289   0.611   3.986   2.824 -0.5331  0.5810 -0.0639
 5219SOL    HW127290   0.674   4.029   2.766 -1.6341  3.4212  0.8617
 5219SOL    HW227291   0.656   3.903   2.836 -2.0190  0.2195  2.9275
 5220SOL     OW27292   1.024   3.567   4.824 -0.2522 -0.4669  0.6485
 5220SOL    HW127293   1.024   3.515   4.743 -0.5858 -1.1288  1.0709
 5220SOL    HW227294   1.099   3.625   4.807  0.0325 -2.1937 -3.9857
 5221SOL     OW27295   2.922   4.166   5.715  0.1773  0.5422  0.5515
 5221SOL    HW127296   2.874   4.186   5.634 -0.5143 -0.4484  0.7158
 5221SOL    HW227297   2.913   4.249   5.762 -0.1100  0.2355  1.0401
 5222SOL     OW27298   0.408   1.041   1.903  0.0153 -0.7036 -0.4925
 5222SOL    HW127299   0.483   1.032   1.844  1.7821 -1.4425  1.8598
 5222SOL    HW227300   0.331   1.019   1.851 -1.4473 -0.6090  1.6054
 5223SOL     OW27301   1.843   1.643   1.310 -0.5276  0.3383 -0.1530
 5223SOL    HW127302   1.801   1.559   1.289  0.5232 -0.6107  1.5585
 5223SOL    HW227303   1.784   1.707   1.270  1.4297  3.0927  1.3679
 5224SOL     OW27304   4.561   0.266   2.526 -0.3570  0.2381  0.3473
 5224SOL    HW127305   4.571   0.223   2.611  0.4490  0.3912  0.3292
 5224SOL    HW227306   4.470   0.295   2.531 -1.2893 -2.7058 -0.0291
 5225SOL     OW27307   0.030   2.960   1.044  0.6792  0.0721 -0.0747
 5225SOL    HW127308   4.718   2.942   1.124 -0.0365  3.3599  0.2662
 5225SOL    HW227309   0.011   2.873   1.010 -3.9011  1.3350 -0.7942
 5226SOL     OW27310   4.620   2.485   8.620  0.5014 -0.4166 -0.0063
 5226SOL    HW127311   4.632   2.390   8.625 -2.2425 -0.8111 -1.3295
 5226SOL    HW227312   4.629   2.489   8.525 -1.7924 -0.1381 -0.2019
 5227SOL     OW27313   3.003   4.024   8.909 -0.4420 -0.2202  0.4406
 5227SOL    HW127314   3.060   3.952   8.879  0.1329  0.7041 -0.6727
 5227SOL    HW227315   2.939   4.032   8.839  0.9023 -0.8414 -0.8675
 5228SOL     OW27316   0.824   3.053   2.355 -0.4930  0.3509 -0.0772
 5228SOL    HW127317   0.788   2.969   2.328 -0.1100  0.1680 -0.0206
 5228SOL    HW227318   0.777   3.120   2.306  1.5235  1.4168 -0.5498
 5229SOL     OW27319   0.921   1.582   3.604  0.6491 -0.6997 -0.1332
 5229SOL    HW127320   0.945   1.537   3.685 -1.5899  0.5641  1.2325
 5229SOL    HW227321   0.921   1.672   3.637 -0.4755 -0.7059 -0.1196
 5230SOL     OW27322   0.578   0.158  10.111 -0.1595 -0.3859  0.1801
 5230SOL    HW127323   0.529   0.184  10.188 -3.2034 -0.5256 -1.6953
 5230SOL    HW227324   0.599   0.245  10.077  0.6347 -0.7394 -0.2366
 5231SOL     OW27325   4.156   1.328   1.527  0.1893 -0.3525 -0.4414
 5231SOL    HW127326   4.123   1.344   1.616 -0.4075 -1.8221 -0.3944
 5231SOL    HW227327   4.239   1.375   1.529  0.2188 -0.4217 -0.0825
 5232SOL     OW27328   0.384   4.319  16.566 -0.0259 -0.1869  0.4796
 5232SOL    HW127329   0.461   4.357  16.609  0.8473  0.5746 -1.7747
 5232SOL    HW227330   0.347   4.267  16.637  0.1273 -1.6770 -0.5363
 5233SOL     OW27331   3.543   4.661   4.246  0.2953  0.7206  0.8239
 5233SOL    HW127332   3.545   4.565   4.241 -1.3586  0.7146  0.0927
 5233SOL    HW227333   3.536   4.685   4.338 -2.7856 -0.7560  1.0021
 5234SOL     OW27334   2.133   0.560   6.927 -0.6826 -0.0385 -0.0801
 5234SOL    HW127335   2.115   0.467   6.942  0.0154 -0.3795 -1.4125
 5234SOL    HW227336   2.113   0.608   7.008 -0.8595 -1.1768  0.5544
 5235SOL     OW27337   3.831   1.474   2.524  0.1458  0.0606  0.1218
 5235SOL    HW127338   3.891   1.484   2.450  1.0356 -0.7678  0.7325
 5235SOL    HW227339   3.761   1.536   2.505 -1.2060 -1.9283 -1.3551
 5236SOL     OW27340   0.535   3.398   6.401  0.1803  0.1909 -0.1260
 5236SOL    HW127341   0.493   3.316   6.377  0.8157  0.4402 -2.1151
 5236SOL    HW227342   0.608   3.397   6.340 -1.2069 -0.9006 -1.7553
 5237SOL     OW27343   4.383   3.413   9.361 -0.7046 -0.0233 -0.0758
 5237SOL    HW127344   4.393   3.455   9.447  1.8225  0.6268 -0.7007
 5237SOL    HW227345   4.472   3.410   9.328 -0.1972  0.0182  1.2823
 5238SOL     OW27346   0.433   0.159   9.226  0.0434 -0.2181  0.2533
 5238SOL    HW127347   0.428   0.167   9.321 -4.3826  1.9123 -0.1742
 5238SOL    HW227348   0.520   0.194   9.205 -0.2136  0.8847  1.0840
 5239SOL     OW27349   1.330   2.318  16.172 -0.5365  0.1382 -0.1810
 5239SOL    HW127350   1.388   2.394  16.161 -0.3141  0.0687  0.4903
 5239SOL    HW227351   1.248   2.358  16.202 -0.2869  0.1147  0.5416
 5240SOL     OW27352   0.440   4.320   4.324  0.2994  0.2584 -0.3589
 5240SOL    HW127353   0.395   4.367   4.254 -1.9802 -0.1658  0.8216
 5240SOL    HW227354   0.460   4.240   4.275 -1.0423  1.1732 -2.4017
 5241SOL     OW27355   1.019   2.866   1.968  0.0437  0.3756 -0.0344
 5241SOL    HW127356   1.010   2.801   1.899  0.8337 -2.5370  2.5854
 5241SOL    HW227357   1.079   2.929   1.929  2.8182 -0.7130  2.5079
 5242SOL     OW27358   0.092   2.157  16.304 -0.1792 -0.4776  0.0340
 5242SOL    HW127359   0.117   2.239  16.262  0.3202  0.9353  3.0679
 5242SOL    HW227360   0.100   2.195  16.392 -0.3332  0.8501 -0.5205
 5243SOL     OW27361   2.820   2.236   3.151 -0.2699 -0.0703  0.1129
 5243SOL    HW127362   2.807   2.142   3.142  1.4197 -0.6281  3.3507
 5243SOL    HW227363   2.802   2.247   3.245  0.0599  1.7109 -0.0306
 5244SOL     OW27364   4.088   4.109   3.865 -0.8350 -0.7395 -0.4832
 5244SOL    HW127365   4.130   4.041   3.813  0.3862 -0.5248  0.2207
 5244SOL    HW227366   4.094   4.196   3.825  2.4302 -1.5737 -1.8076
 5245SOL     OW27367   4.386   1.035   4.350  0.4902 -0.2850 -0.3456
 5245SOL    HW127368   4.419   1.090   4.279  1.1479 -2.0678 -1.4174
 5245SOL    HW227369   4.317   1.094   4.382  1.2891 -0.4298  1.6819
 5246SOL     OW27370   3.069   0.638  15.665 -0.1467 -0.1298 -0.4323
 5246SOL    HW127371   3.133   0.570  15.689 -1.1223 -0.7394  0.4428
 5246SOL    HW227372   2.987   0.594  15.689 -0.1923  1.3414  2.0822
 5247SOL     OW27373   3.034   0.307  14.900 -0.0190  0.2654  0.1158
 5247SOL    HW127374   2.989   0.369  14.843  1.2629  0.1542 -0.9876
 5247SOL    HW227375   3.113   0.298  14.847 -0.1005 -0.8423  0.1765
 5248SOL     OW27376   2.470   0.111   1.218 -0.0839 -0.0111  0.0545
 5248SOL    HW127377   2.483   0.033   1.271  1.5678 -0.9989 -1.8268
 5248SOL    HW227378   2.497   0.172   1.287  2.6042 -0.7828 -0.2808
 5249SOL     OW27379   1.022   2.198   2.486 -0.4835  0.0521  0.5893
 5249SOL    HW127380   0.972   2.195   2.404  1.3285  0.7543 -0.5202
 5249SOL    HW227381   0.986   2.120   2.530  1.3565 -0.5642  0.9886
 5250SOL     OW27382   2.352   2.907  12.228 -0.8114 -0.2711  0.1002
 5250SOL    HW127383   2.340   2.998  12.257 -0.4887 -0.3407  0.4444
 5250SOL    HW227384   2.370   2.864  12.311  2.2922 -1.7327 -1.3496
 5251SOL     OW27385   2.527   0.059  11.384  0.3585 -0.0701  0.1420
 5251SOL    HW127386   2.563   0.134  11.431  0.9270 -1.2292  1.5374
 5251SOL    HW227387   2.438   0.062  11.418  1.0925 -0.2393  2.0549
 5252SOL     OW27388   1.820   2.182  10.404  0.1819  0.9773 -0.2839
 5252SOL    HW127389   1.758   2.230  10.348  0.9623  0.7322 -1.3535
 5252SOL    HW227390   1.901   2.210  10.363  0.9445  0.9469  1.2149
 5253SOL     OW27391   3.399   4.049   5.796 -0.2409  0.1433  0.1447
 5253SOL    HW127392   3.428   3.973   5.745 -1.5439 -2.4685  3.2872
 5253SOL    HW227393   3.339   4.004   5.856 -0.5612 -0.1808 -0.4234
 5254SOL     OW27394   4.668   1.697   5.768  0.2461 -0.4703 -1.1771
 5254SOL    HW127395   4.617   1.660   5.841  1.2360  0.5686  0.0470
 5254SOL    HW227396   0.022   1.666   5.781 -0.4510 -1.4408  1.3901
 5255SOL     OW27397   0.511   2.409  11.811 -0.3029  0.1459 -0.0951
 5255SOL    HW127398   0.539   2.469  11.742 -1.6205 -0.5151 -1.2012
 5255SOL    HW227399   0.494   2.333  11.755  1.1675  0.5973 -1.1401
 5256SOL     OW27400   0.728   0.973   9.572  0.1798  0.2965  0.7774
 5256SOL    HW127401   0.815   1.013   9.570 -0.1571  0.9107 -1.3269
 5256SOL    HW227402   0.741   0.890   9.527 -0.5968  0.6328 -0.0723
 5257SOL     OW27403   3.091   3.735  10.934  0.8854 -0.6796  0.4174
 5257SOL    HW127404   3.164   3.676  10.954  1.6277  0.2422  0.4034
 5257SOL    HW227405   3.021   3.681  10.897  0.2301 -0.4331  1.2920
 5258SOL     OW27406   3.502   3.071   9.443  0.5515 -0.0765 -0.3988
 5258SOL    HW127407   3.496   3.163   9.469 -1.0343  0.2217 -1.8059
 5258SOL    HW227408   3.509   3.030   9.529 -2.6655 -0.0367 -0.1376
 5259SOL     OW27409   1.885   1.175   4.879  0.1949  0.3159  0.4985
 5259SOL    HW127410   1.882   1.267   4.904 -2.3909 -0.4839  3.0556
 5259SOL    HW227411   1.874   1.140   4.967 -3.9808  2.2665  0.7229
 5260SOL     OW27412   4.468   2.901   2.138 -0.0098  0.5433 -0.8982
 5260SOL    HW127413   4.543   2.863   2.183 -0.6945 -1.0747 -1.1110
 5260SOL    HW227414   4.416   2.934   2.211 -1.2484 -1.6022 -0.8068
 5261SOL     OW27415   0.509   0.397  11.083 -0.1276  0.5033 -0.0669
 5261SOL    HW127416   0.418   0.424  11.098  0.1380  0.8630  0.8968
 5261SOL    HW227417   0.514   0.329  11.151  0.0598  0.6476  0.0629
 5262SOL     OW27418   2.861   1.784   8.428 -0.1874  0.5119  0.0339
 5262SOL    HW127419   2.906   1.861   8.463 -1.0986  1.5296 -1.0481
 5262SOL    HW227420   2.809   1.750   8.501 -0.8621  0.9214 -0.2683
 5263SOL     OW27421   3.686   2.910   9.253  0.1115  0.2673  0.1734
 5263SOL    HW127422   3.745   2.986   9.256 -0.0988  0.4296  0.1699
 5263SOL    HW227423   3.608   2.964   9.263 -0.3806 -0.5757  0.8965
 5264SOL     OW27424   0.725   2.470   5.715  0.3210  0.4571 -0.1425
 5264SOL    HW127425   0.765   2.531   5.777  1.0097  0.1726 -0.3129
 5264SOL    HW227426   0.804   2.419   5.698  0.9571  0.7823  1.8449
 5265SOL     OW27427   0.001   4.643  14.058  0.4035  0.9634  0.4039
 5265SOL    HW127428   0.011   4.715  13.995  0.1937 -1.8228 -2.7909
 5265SOL    HW227429   0.083   4.641  14.108  0.5138 -1.2725  0.1225
 5266SOL     OW27430   1.448   2.714   2.666  0.5045  0.7060  0.3689
 5266SOL    HW127431   1.476   2.725   2.576  1.0984  0.8574  0.5742
 5266SOL    HW227432   1.369   2.767   2.673 -0.0587  0.0123 -0.6765
 5267SOL     OW27433   2.099   4.404  11.814 -1.0379 -0.4311 -0.5751
 5267SOL    HW127434   2.159   4.448  11.874 -0.4109 -1.2312 -0.6114
 5267SOL    HW227435   2.019   4.438  11.853  0.4618 -0.3369  2.4461
 5268SOL     OW27436   0.148   1.283   6.339 -0.0642  0.0636  0.3571
 5268SOL    HW127437   0.098   1.364   6.339 -0.7439 -0.3582 -0.3042
 5268SOL    HW227438   0.238   1.314   6.346 -0.0254  0.4277 -1.6677
 5269SOL     OW27439   4.315   3.164   9.660  0.2671  0.2407  0.1940
 5269SOL    HW127440   4.309   3.247   9.708 -0.9148 -0.1243  0.6678
 5269SOL    HW227441   4.233   3.126   9.691 -0.4437  0.4475 -1.4512
 5270SOL     OW27442   0.036   4.555  10.443  0.6001  0.3466  0.2784
 5270SOL    HW127443   4.715   4.520  10.511  1.4898  0.3394  1.0176
 5270SOL    HW227444   0.069   4.636  10.481  0.8662 -0.3137  1.4643
 5271SOL     OW27445   0.981   3.444   2.737 -0.2423  0.2030 -0.3516
 5271SOL    HW127446   1.013   3.507   2.672  1.1808 -0.6393 -0.4692
 5271SOL    HW227447   1.059   3.389   2.740  0.5773  1.4927  1.9603
 5272SOL     OW27448   3.046   1.711  11.526  0.4607  0.6453 -0.1559
 5272SOL    HW127449   3.061   1.727  11.433 -1.1480  1.6503 -0.2455
 5272SOL    HW227450   3.027   1.802  11.549 -1.0393  0.2362  0.2201
 5273SOL     OW27451   2.114   4.094  14.612 -0.0370 -0.1831 -0.7017
 5273SOL    HW127452   2.118   4.068  14.521  3.2171  0.1818 -0.6429
 5273SOL    HW227453   2.202   4.132  14.619 -0.5586  0.9471 -0.2285
 5274SOL     OW27454   4.168   4.375  13.831 -0.0185 -0.6651  0.6128
 5274SOL    HW127455   4.193   4.465  13.850  1.3416 -1.0853  0.8682
 5274SOL    HW227456   4.122   4.387  13.748 -1.1003  0.5853  1.3961
 5275SOL     OW27457   1.182   0.676   7.084  0.1207 -0.1274  0.3344
 5275SOL    HW127458   1.230   0.695   7.164 -0.9171  0.8640  0.7106
 5275SOL    HW227459   1.237   0.601   7.060 -1.1934 -0.5151 -1.5142
 5276SOL     OW27460   1.375   2.093  12.530  0.0853 -0.3905 -0.3765
 5276SOL    HW127461   1.342   2.120  12.444  0.2452 -1.0305 -0.6424
 5276SOL    HW227462   1.371   1.998  12.520 -0.2553 -0.2044 -1.9484
 5277SOL     OW27463   2.860   0.248  16.530 -0.8617  0.1649 -0.0590
 5277SOL    HW127464   2.956   0.250  16.539 -0.8969 -1.1506  0.7375
 5277SOL    HW227465   2.847   0.256  16.435 -0.5077  1.3404  0.0005
 5278SOL     OW27466   2.093   1.600   3.878  0.2106 -0.1532 -0.3333
 5278SOL    HW127467   2.005   1.605   3.914  1.5549 -1.3661  3.1881
 5278SOL    HW227468   2.074   1.551   3.798  0.2607  1.2486 -1.1980
 5279SOL     OW27469   1.846   0.124   3.780  0.2337  0.2820  0.1684
 5279SOL    HW127470   1.893   0.041   3.782 -4.6504 -2.4554  1.1134
 5279SOL    HW227471   1.809   0.119   3.868 -0.2648 -1.7548 -0.1667
 5280SOL     OW27472   2.076   3.517   4.522  0.6889 -0.2592  0.6526
 5280SOL    HW127473   2.108   3.487   4.437  0.6110  1.3538  0.0603
 5280SOL    HW227474   1.982   3.506   4.506  1.3122 -2.1957 -1.6320
 5281SOL     OW27475   2.352   0.913   8.870 -0.5234 -0.2251 -0.6085
 5281SOL    HW127476   2.275   0.935   8.817 -1.1546 -2.0824 -0.4436
 5281SOL    HW227477   2.309   0.948   8.948  1.5153  0.8045  0.0578
 5282SOL     OW27478   0.770   1.015   2.838  0.3545  0.4318 -0.2107
 5282SOL    HW127479   0.821   1.082   2.792  0.3846  0.6957  0.2084
 5282SOL    HW227480   0.827   0.938   2.843  0.4303  0.4029 -1.7073
 5283SOL     OW27481   2.393   2.858   6.858 -0.5239  0.3021  0.1784
 5283SOL    HW127482   2.453   2.917   6.904  0.2793  0.2340 -0.7717
 5283SOL    HW227483   2.318   2.861   6.916  0.5025 -1.5970  1.5985
 5284SOL     OW27484   3.780   3.583   4.961 -0.4298  0.4378 -0.0357
 5284SOL    HW127485   3.704   3.532   4.989  0.6416 -1.0690  0.1363
 5284SOL    HW227486   3.851   3.520   4.976 -0.1781  1.6048  3.6149
 5285SOL     OW27487   0.387   3.396   9.450  0.3235 -0.2734 -0.8737
 5285SOL    HW127488   0.293   3.398   9.465  0.2650  0.7913 -1.3941
 5285SOL    HW227489   0.403   3.471   9.392 -1.3454 -0.9216 -2.1766
 5286SOL     OW27490   1.540   2.318  14.106 -0.6885  0.0009  0.0239
 5286SOL    HW127491   1.594   2.254  14.153 -0.5759 -0.6032 -0.9226
 5286SOL    HW227492   1.572   2.399  14.146  0.4291 -0.7583  0.6749
 5287SOL     OW27493   4.615   0.187   3.667 -0.0952  0.1382 -0.0575
 5287SOL    HW127494   4.534   0.194   3.718 -1.2790  0.5975 -2.0296
 5287SOL    HW227495   4.599   0.110   3.612  0.0900 -0.8468  1.2637
 5288SOL     OW27496   0.501   0.527  15.634  0.0436  0.0130 -0.2845
 5288SOL    HW127497   0.443   0.603  15.638  0.2467  0.2867 -2.2819
 5288SOL    HW227498   0.442   0.456  15.610  1.0805 -1.0738  0.3330
 5289SOL     OW27499   4.228   0.184   3.435  0.2847 -0.2888  0.0027
 5289SOL    HW127500   4.197   0.256   3.379  0.0788 -0.4279 -0.0596
 5289SOL    HW227501   4.320   0.209   3.448  0.5711 -1.6634  0.5522
 5290SOL     OW27502   4.491   0.668   1.812  0.4748  0.1565 -0.0171
 5290SOL    HW127503   4.474   0.762   1.813  0.8066  0.1879  2.3059
 5290SOL    HW227504   4.583   0.659   1.837 -0.1271 -0.0699  2.0988
 5291SOL     OW27505   0.604   4.130   6.356 -0.2323 -0.3887 -0.3659
 5291SOL    HW127506   0.580   4.082   6.277 -3.1355 -1.8577  1.3841
 5291SOL    HW227507   0.668   4.193   6.323 -1.7546  2.0514  1.4383
 5292SOL     OW27508   3.841   0.611   4.195 -0.3243 -0.3481  0.5451
 5292SOL    HW127509   3.832   0.522   4.229 -1.1332 -0.0241  1.1811
 5292SOL    HW227510   3.763   0.612   4.139  0.1775 -0.0224 -0.1490
 5293SOL     OW27511   1.893   2.496  12.965  0.1268 -0.2294 -0.1958
 5293SOL    HW127512   1.982   2.460  12.972  0.1893  0.1892  1.0311
 5293SOL    HW227513   1.915   2.559  12.897 -0.4152  0.9312  0.7075
 5294SOL     OW27514   2.382   0.065  14.150 -0.2433  0.4726 -0.7070
 5294SOL    HW127515   2.304   0.028  14.109 -0.4193 -0.6732  0.6439
 5294SOL    HW227516   2.444   4.728  14.140 -1.0903 -0.1939 -1.1431
 5295SOL     OW27517   4.123   3.703   9.680  0.2423 -0.0063  0.4750
 5295SOL    HW127518   4.033   3.723   9.653  0.5021  2.1796  1.2336
 5295SOL    HW227519   4.115   3.617   9.721  1.9115 -2.1180 -3.6959
 5296SOL     OW27520   2.507   4.103   6.110  0.6068 -0.3499 -0.0336
 5296SOL    HW127521   2.584   4.074   6.159  0.7545 -0.3881 -0.2852
 5296SOL    HW227522   2.529   4.193   6.084 -1.0704 -0.3419 -1.4334
 5297SOL     OW27523   2.076   2.223  16.101 -0.1376  0.0766  0.4602
 5297SOL    HW127524   2.139   2.170  16.052 -1.5983 -1.1831 -0.0615
 5297SOL    HW227525   2.096   2.189  16.188 -0.0575 -1.3761 -0.1214
 5298SOL     OW27526   1.672   1.374   5.761 -0.4835 -0.2635 -0.2804
 5298SOL    HW127527   1.759   1.412   5.771 -1.3910  1.4002  1.3637
 5298SOL    HW227528   1.687   1.310   5.691  2.7942  0.1068  0.0845
 5299SOL     OW27529   0.684   0.033   7.190  0.0367  0.1504 -0.3293
 5299SOL    HW127530   0.659   0.120   7.222  0.3701  0.5353 -1.1096
 5299SOL    HW227531   0.770   0.018   7.229 -0.4003  2.5521  1.5646
 5300SOL     OW27532   0.027   4.097   7.544  0.6802  0.4474 -0.8143
 5300SOL    HW127533   0.050   4.131   7.630  1.1935 -1.3660 -0.2218
 5300SOL    HW227534   0.063   4.169   7.493 -0.9532  0.3075 -2.1763
 5301SOL     OW27535   4.294   0.585  11.889  0.0465  0.5574 -0.0557
 5301SOL    HW127536   4.381   0.577  11.930 -0.6458 -2.4691  0.7905
 5301SOL    HW227537   4.265   0.502  11.927 -1.5591 -0.6024 -3.8884
 5302SOL     OW27538   2.092   4.634   5.211  0.3515  0.1980 -0.0366
 5302SOL    HW127539   2.153   4.669   5.275 -1.2536 -0.4729  1.8440
 5302SOL    HW227540   2.034   4.578   5.263  0.7472  0.4347  0.6512
 5303SOL     OW27541   0.851   0.019  12.146  0.4509  0.1499 -0.3667
 5303SOL    HW127542   0.758   4.734  12.159  0.0317  2.1283 -0.0851
 5303SOL    HW227543   0.858   0.019  12.051  0.7692  0.8472 -0.3450
 5304SOL     OW27544   3.245   1.350   7.194  0.6653 -0.0801  0.3035
 5304SOL    HW127545   3.331   1.347   7.152  0.9980 -1.1804  1.0493
 5304SOL    HW227546   3.209   1.436   7.171  1.4988  0.8519  2.5079
 5305SOL     OW27547   3.617   3.066  16.960  0.3766 -0.5611  0.1209
 5305SOL    HW127548   3.558   3.113  16.901 -0.6821  0.0441  1.6582
 5305SOL    HW227549   3.594   3.083  17.051 -0.2363 -1.1589  0.0727
 5306SOL     OW27550   1.639   3.404   5.040 -0.1211  0.0702  0.5941
 5306SOL    HW127551   1.619   3.464   4.968  1.4714 -0.7634 -0.5364
 5306SOL    HW227552   1.608   3.321   5.004 -1.4616  0.2821  1.2490
 5307SOL     OW27553   0.442   1.582   5.915  0.3325  0.0180  0.2952
 5307SOL    HW127554   0.480   1.495   5.914  1.8774  0.7004 -1.7962
 5307SOL    HW227555   0.518   1.640   5.909  1.5101 -1.5148  0.5386
 5308SOL     OW27556   3.246   2.255   5.992  0.1611 -0.1951 -0.3058
 5308SOL    HW127557   3.335   2.289   6.000  0.4148 -1.0031  0.3217
 5308SOL    HW227558   3.233   2.222   6.081  1.0465 -0.3042 -0.2152
 5309SOL     OW27559   3.041   4.623   2.736 -0.3909  0.6990 -0.4440
 5309SOL    HW127560   3.123   4.652   2.774 -1.3443  2.2928  0.3805
 5309SOL    HW227561   3.014   4.710   2.708  1.9557  1.5156 -0.0674
 5310SOL     OW27562   2.895   4.265   2.228 -0.0299  0.0751  0.0429
 5310SOL    HW127563   2.827   4.325   2.259  1.0675  1.2166  0.2380
 5310SOL    HW227564   2.854   4.216   2.157  0.7873 -0.5916  0.0333
 5311SOL     OW27565   0.053   2.998  10.504 -0.5141  0.2494  0.1566
 5311SOL    HW127566   4.735   2.972  10.579 -0.8804 -1.1579 -0.6010
 5311SOL    HW227567   0.011   3.082  10.484 -0.5342  0.4098  0.8477
 5312SOL     OW27568   3.056   3.076   3.647  0.0907  0.0465  0.1335
 5312SOL    HW127569   2.982   3.027   3.612 -1.0958 -1.6680  5.1003
 5312SOL    HW227570   3.073   3.033   3.730 -1.9666  0.2994  0.6802
 5313SOL     OW27571   2.212   0.088   6.554  0.0594 -0.1850  0.2558
 5313SOL    HW127572   2.206   0.060   6.645  1.6021 -1.3472 -0.0157
 5313SOL    HW227573   2.246   0.176   6.573  1.1123 -0.9258  1.7718
 5314SOL     OW27574   3.153   3.144   2.449 -0.6288 -0.3885  0.3075
 5314SOL    HW127575   3.237   3.172   2.414 -0.2087 -0.5745  1.1813
 5314SOL    HW227576   3.175   3.051   2.459  1.6110 -0.1725 -2.6131
 5315SOL     OW27577   0.545   1.305   3.295  0.6693  0.0921 -0.1326
 5315SOL    HW127578   0.585   1.330   3.379  0.4994 -2.4343  0.6935
 5315SOL    HW227579   0.458   1.341   3.313  1.9889  2.3340  1.7493
 5316SOL     OW27580   3.302   0.189  12.815  0.1486 -0.2360 -0.1186
 5316SOL    HW127581   3.265   0.191  12.727  0.9091 -0.8984 -0.4633
 5316SOL    HW227582   3.222   0.190  12.866  0.7210  1.2053  0.7404
 5317SOL     OW27583   1.466   4.274   9.600  0.4729 -0.2109  0.2903
 5317SOL    HW127584   1.440   4.346   9.658  1.7193  0.5170 -0.0508
 5317SOL    HW227585   1.401   4.292   9.532  2.8178  0.6767 -1.7128
 5318SOL     OW27586   1.571   1.938   4.953  1.1670  0.0142  0.2941
 5318SOL    HW127587   1.527   1.855   4.970  0.0718  0.6997  0.8608
 5318SOL    HW227588   1.664   1.917   4.945  1.0628 -0.3661  0.0779
 5319SOL     OW27589   1.601   2.603   3.332 -0.7634  0.9301  0.2989
 5319SOL    HW127590   1.546   2.679   3.310 -1.8111 -0.1273 -0.6982
 5319SOL    HW227591   1.567   2.590   3.421 -1.5368  0.6971 -0.0375
 5320SOL     OW27592   3.128   4.526   8.032 -0.0743 -0.2815  0.0164
 5320SOL    HW127593   3.052   4.476   8.062 -0.7140  1.3377  1.1026
 5320SOL    HW227594   3.156   4.555   8.119 -1.6730  1.4131 -0.0419
 5321SOL     OW27595   3.348   3.021  15.191 -0.6259  0.0695 -0.3338
 5321SOL    HW127596   3.278   2.974  15.146  0.7544 -0.8064 -1.5656
 5321SOL    HW227597   3.410   2.948  15.196  0.3562  1.0684  2.0857
 5322SOL     OW27598   1.978   2.102   5.674 -0.5552 -0.4104  0.0572
 5322SOL    HW127599   2.073   2.094   5.687 -0.2118 -0.2000 -2.3714
 5322SOL    HW227600   1.974   2.162   5.600  0.4317  0.1860  0.4924
 5323SOL     OW27601   4.463   0.818  12.503  0.7922 -0.2890 -0.3206
 5323SOL    HW127602   4.527   0.826  12.433 -0.4271  2.6781 -1.0909
 5323SOL    HW227603   4.453   0.906  12.539  1.0463 -0.0073 -0.9583
 5324SOL     OW27604   0.055   3.575   7.964 -0.2214  0.1604  0.2092
 5324SOL    HW127605   0.036   3.654   7.915  0.3683  1.1944  1.6538
 5324SOL    HW227606   0.135   3.542   7.923  0.4095  2.4430 -0.3765
 5325SOL     OW27607   4.665   2.807  13.732 -0.1914 -0.4353  0.6545
 5325SOL    HW127608   4.676   2.879  13.795 -1.8574  0.3996  0.0086
 5325SOL    HW227609   4.580   2.823  13.691 -0.9213 -0.4111  2.1678
 5326SOL     OW27610   3.919   3.657   8.344 -0.0559 -0.1595  0.4393
 5326SOL    HW127611   3.862   3.719   8.299 -0.9216 -0.4970  1.0639
 5326SOL    HW227612   3.926   3.590   8.276  0.3785  1.3648 -1.0313
 5327SOL     OW27613   0.378   4.132  11.074  0.2202 -0.1720  0.2176
 5327SOL    HW127614   0.367   4.038  11.064 -0.5980 -0.1610  1.1389
 5327SOL    HW227615   0.304   4.138  11.133 -0.7693 -0.0793 -1.0345
 5328SOL     OW27616   1.205   0.227   2.011  0.0255  0.2348  0.7186
 5328SOL    HW127617   1.255   0.176   1.947 -1.0823  1.0609 -0.8138
 5328SOL    HW227618   1.116   0.229   1.974 -0.0832 -0.8985  0.8939
 5329SOL     OW27619   3.667   0.562  10.246  0.4683 -0.4407 -0.0192
 5329SOL    HW127620   3.702   0.482  10.285  0.2553  0.3823  1.8277
 5329SOL    HW227621   3.638   0.517  10.166 -1.6675  1.5660 -0.3717
 5330SOL     OW27622   0.887   1.299   5.946  0.3751  0.6790 -0.4898
 5330SOL    HW127623   0.870   1.385   5.907  0.6038  0.9145 -0.0692
 5330SOL    HW227624   0.982   1.303   5.956  0.1585 -0.8463  2.2556
 5331SOL     OW27625   1.447   0.263  14.991 -0.1923  0.3288 -0.1872
 5331SOL    HW127626   1.516   0.310  15.038  0.7355 -1.2333  0.0078
 5331SOL    HW227627   1.393   0.342  14.980 -0.5060  0.0113 -0.9257
 5332SOL     OW27628   3.383   0.799   5.704 -0.1963  0.1778  0.2899
 5332SOL    HW127629   3.318   0.813   5.635  0.2609 -0.8485 -0.3387
 5332SOL    HW227630   3.397   0.707   5.682 -1.1512 -0.4620  2.4269
 5333SOL     OW27631   0.520   4.282  10.900  0.4306 -0.1000  0.3429
 5333SOL    HW127632   0.481   4.256  10.983 -3.0439  0.0478 -1.2239
 5333SOL    HW227633   0.522   4.194  10.862  1.3664 -0.0010  0.1609
 5334SOL     OW27634   2.018   0.555   7.953  0.0471 -0.1479  0.3388
 5334SOL    HW127635   2.025   0.482   7.892  0.7658  1.3020 -1.3186
 5334SOL    HW227636   1.956   0.613   7.910 -0.6899 -0.9967  0.2626
 5335SOL     OW27637   1.576   3.505   6.787 -0.1548  0.1135  0.0927
 5335SOL    HW127638   1.595   3.412   6.800  1.9347  0.5886  0.5696
 5335SOL    HW227639   1.568   3.516   6.692  0.0465  1.1229  0.1993
 5336SOL     OW27640   4.224   3.940   3.373  0.0252  0.4952  0.2298
 5336SOL    HW127641   4.221   3.998   3.450  0.5573  0.5263  0.2231
 5336SOL    HW227642   4.207   3.999   3.300  1.0970 -1.4734 -1.5823
 5337SOL     OW27643   0.636   4.046   9.624  0.4201  0.1535  0.1489
 5337SOL    HW127644   0.593   4.131   9.628 -1.5528 -0.9070  1.3997
 5337SOL    HW227645   0.700   4.055   9.695  0.1494  0.6772  0.3246
 5338SOL     OW27646   3.995   4.702   3.947  0.3226 -0.2424 -0.4109
 5338SOL    HW127647   3.967   4.616   3.978 -0.2721  0.0613 -0.1126
 5338SOL    HW227648   3.959   0.022   4.016  0.6671  1.2309 -1.4276
 5339SOL     OW27649   2.194   2.859   8.760 -0.2053  0.3596 -0.2198
 5339SOL    HW127650   2.147   2.785   8.721 -1.1165 -0.0324  1.6543
 5339SOL    HW227651   2.271   2.821   8.802  1.3909  0.4924 -2.9848
 5340SOL     OW27652   4.410   2.461   1.488  0.3063  0.1945 -0.1075
 5340SOL    HW127653   4.328   2.485   1.443 -0.8982 -2.4097  0.6941
 5340SOL    HW227654   4.402   2.526   1.558 -0.9438  2.3797 -2.2618
 5341SOL     OW27655   2.670   0.307   4.617 -0.3052 -0.0994  0.2660
 5341SOL    HW127656   2.589   0.357   4.605  1.4448  2.8702  0.7869
 5341SOL    HW227657   2.700   0.338   4.703 -1.7718 -0.2952  0.8380
 5342SOL     OW27658   1.534   4.609   7.428  0.0246  0.7225  0.3227
 5342SOL    HW127659   1.587   4.589   7.350 -1.0031 -1.4069  0.1695
 5342SOL    HW227660   1.589   4.589   7.504 -0.1274  3.0734  1.0296
 5343SOL     OW27661   1.665   2.952   1.880  0.7042  0.0737  0.1144
 5343SOL    HW127662   1.621   2.868   1.878 -0.3921  0.6429  0.1190
 5343SOL    HW227663   1.692   2.961   1.788 -3.2607 -2.1815 -1.2834
 5344SOL     OW27664   3.449   2.623   8.119  0.2665  0.3537  0.6924
 5344SOL    HW127665   3.389   2.645   8.048  0.8799  0.6355  0.2592
 5344SOL    HW227666   3.447   2.527   8.123  0.7510  0.2679 -0.8437
 5345SOL     OW27667   0.639   0.531   3.451 -0.0703 -0.0529  0.5082
 5345SOL    HW127668   0.692   0.509   3.527 -0.6172 -0.8935  0.6376
 5345SOL    HW227669   0.685   0.495   3.375 -0.4918 -0.4006  0.4203
 5346SOL     OW27670   2.667   1.685  15.889 -0.3542  0.3194  0.4587
 5346SOL    HW127671   2.658   1.771  15.848 -0.3976  0.7502  1.3716
 5346SOL    HW227672   2.699   1.634  15.814 -0.2161 -1.6681  1.9005
 5347SOL     OW27673   3.228   1.157  13.085 -0.2939  0.5352  0.0446
 5347SOL    HW127674   3.296   1.220  13.108 -0.1313  0.4052 -0.0798
 5347SOL    HW227675   3.275   1.073  13.081  1.3377  1.4199  0.7395
 5348SOL     OW27676   4.159   2.724   5.455 -0.1184 -0.1177  0.1636
 5348SOL    HW127677   4.185   2.728   5.363  1.5949  0.2386  0.6654
 5348SOL    HW227678   4.213   2.648   5.478  0.3419 -0.3174 -1.5335
 5349SOL     OW27679   2.391   4.030   1.508 -0.4668 -0.4734 -0.3002
 5349SOL    HW127680   2.327   4.058   1.441 -0.8252 -1.2578 -0.2841
 5349SOL    HW227681   2.381   3.935   1.515 -0.6227 -0.3736  0.8745
 5350SOL     OW27682   0.324   3.063  10.835  0.3906  0.2476 -0.6306
 5350SOL    HW127683   0.388   3.001  10.871  0.7846  0.4920 -0.9042
 5350SOL    HW227684   0.297   3.006  10.763 -2.2689  1.1369 -0.3170
 5351SOL     OW27685   1.938   2.035   3.029 -0.1068 -0.3350  0.3044
 5351SOL    HW127686   1.879   2.110   3.020  1.0218  0.3720 -1.0762
 5351SOL    HW227687   1.874   1.964   3.020  0.4888 -0.6427 -1.5941
 5352SOL     OW27688   3.227   2.888   5.665 -0.3698  0.2189 -0.0720
 5352SOL    HW127689   3.286   2.816   5.643  1.6544  1.6048  0.8899
 5352SOL    HW227690   3.149   2.851   5.622 -0.5580  0.1352  0.3378
 5353SOL     OW27691   3.476   3.931   3.992  0.2855 -0.2448  0.5040
 5353SOL    HW127692   3.572   3.932   3.991  0.2820  2.2599  2.4191
 5353SOL    HW227693   3.456   3.917   3.899 -0.0145 -4.1626  1.1800
 5354SOL     OW27694   3.681   2.894  11.471  0.2501  0.0687 -0.3325
 5354SOL    HW127695   3.632   2.859  11.397 -0.3928 -1.7224  0.9284
 5354SOL    HW227696   3.620   2.879  11.542  0.5107 -1.4507 -0.4216
 5355SOL     OW27697   0.287   1.601  11.071  0.0575  0.0850 -0.0398
 5355SOL    HW127698   0.346   1.667  11.109  0.9938  0.9300 -2.9353
 5355SOL    HW227699   0.346   1.527  11.082 -0.7932 -0.9219 -2.2962
 5356SOL     OW27700   4.135   0.062   1.810 -0.2584  0.7399  0.0021
 5356SOL    HW127701   4.079   0.133   1.842  0.4698  0.6334  1.5137
 5356SOL    HW227702   4.071   4.728   1.799 -0.2393  0.3201  2.5041
 5357SOL     OW27703   3.134   1.072   4.281  0.3540 -0.1220  0.3412
 5357SOL    HW127704   3.103   1.023   4.205 -0.3776 -0.5487  0.8997
 5357SOL    HW227705   3.147   1.158   4.243  2.2988 -0.9918 -0.9235
 5358SOL     OW27706   2.741   2.026   2.544 -0.1466 -0.3576  0.8924
 5358SOL    HW127707   2.740   1.930   2.554 -0.2620 -0.4764 -0.2433
 5358SOL    HW227708   2.707   2.017   2.454 -1.3450  0.1165  1.2987
 5359SOL     OW27709   0.249   2.808   3.270  0.2208  0.1113  0.3333
 5359SOL    HW127710   0.226   2.740   3.333  1.0797 -1.3611 -0.9379
 5359SOL    HW227711   0.297   2.764   3.200 -0.9759  0.2379 -0.5561
 5360SOL     OW27712   0.896   4.547  13.555  0.1239  0.2809  0.3171
 5360SOL    HW127713   0.953   4.595  13.615  1.6965  2.1081 -2.6623
 5360SOL    HW227714   0.914   4.598  13.477  0.7192 -2.2201 -1.1825
 5361SOL     OW27715   2.122   0.477   5.244 -0.2129 -0.0091 -0.2342
 5361SOL    HW127716   2.097   0.566   5.220  1.7536  0.0143 -2.1487
 5361SOL    HW227717   2.041   0.426   5.250 -0.0442  0.0628  2.3672
 5362SOL     OW27718   0.777   2.079   4.141  0.0022 -0.1808 -0.6150
 5362SOL    HW127719   0.745   2.007   4.085  0.8742 -1.0362 -0.0134
 5362SOL    HW227720   0.830   2.031   4.204 -2.1196 -1.5710  0.1336
 5363SOL     OW27721   3.698   4.484   6.644  0.3582 -0.6832 -0.0378
 5363SOL    HW127722   3.750   4.460   6.721 -1.1984 -0.6049  1.0279
 5363SOL    HW227723   3.765   4.485   6.575 -1.5564 -0.5193 -1.9191
 5364SOL     OW27724   2.889   3.174   1.343  0.1344  0.0126  0.5271
 5364SOL    HW127725   2.881   3.096   1.288 -1.0002  0.1265  0.5213
 5364SOL    HW227726   2.822   3.223   1.294  0.7403 -0.8630 -1.1878
 5365SOL     OW27727   3.855   0.902   4.016  0.5938  0.1110 -0.4343
 5365SOL    HW127728   3.911   0.837   4.059  0.6028  0.2071 -0.3021
 5365SOL    HW227729   3.876   0.985   4.059  0.3454 -0.8750  1.6129
 5366SOL     OW27730   2.044   3.956   1.118  0.4007  0.1316  0.2050
 5366SOL    HW127731   2.004   3.886   1.066  1.9158  1.2270 -2.4040
 5366SOL    HW227732   1.978   4.024   1.106  0.2227  0.0284  0.5887
 5367SOL     OW27733   2.638   0.943   3.991 -0.2594 -0.3771 -0.2089
 5367SOL    HW127734   2.666   0.992   4.068 -0.2166 -0.7624  0.0221
 5367SOL    HW227735   2.723   0.939   3.948 -0.1763 -2.0502  0.0844
 5368SOL     OW27736   2.137   3.387  10.904 -0.5092 -0.7464 -0.0964
 5368SOL    HW127737   2.228   3.417  10.893 -2.0263  3.7195 -0.4922
 5368SOL    HW227738   2.118   3.459  10.964 -1.8815 -0.9413 -0.3112
 5369SOL     OW27739   0.347   1.821  17.110  0.7302  0.4272 -0.1431
 5369SOL    HW127740   0.294   1.808  17.188 -0.2940 -0.0373 -0.9203
 5369SOL    HW227741   0.276   1.825  17.045  0.5528 -2.4766 -0.1177
 5370SOL     OW27742   2.895   3.851   7.929 -0.2281 -0.7761 -0.0786
 5370SOL    HW127743   2.986   3.838   7.954  0.2099 -1.4992 -1.9887
 5370SOL    HW227744   2.891   3.764   7.888  1.2884 -0.6380 -0.5203
 5371SOL     OW27745   2.133   3.251   6.326  0.0985 -0.2418  0.1755
 5371SOL    HW127746   2.116   3.163   6.362 -1.5864  0.8310  1.9861
 5371SOL    HW227747   2.147   3.231   6.233  0.8233  0.0852  0.2168
 5372SOL     OW27748   3.812   2.003  16.676 -0.0284 -0.0996  0.0015
 5372SOL    HW127749   3.803   1.908  16.678  1.7638 -0.2480  1.5666
 5372SOL    HW227750   3.906   2.014  16.660  0.1649  1.0296  1.9332
 5373SOL     OW27751   3.618   1.699   2.544 -0.0590  0.0154 -0.3583
 5373SOL    HW127752   3.529   1.706   2.579  0.4041  1.7166  0.4822
 5373SOL    HW227753   3.598   1.680   2.452  0.4115  1.8316 -0.8258
 5374SOL     OW27754   2.137   1.750  12.190 -0.2186 -0.9599 -0.5085
 5374SOL    HW127755   2.171   1.698  12.117 -0.2728  0.0914 -1.2762
 5374SOL    HW227756   2.215   1.801  12.211 -1.7894  0.8963  0.8047
 5375SOL     OW27757   2.113   2.373   8.853 -0.2853  0.0470 -0.2226
 5375SOL    HW127758   2.201   2.373   8.889 -0.2673 -2.7149 -0.2616
 5375SOL    HW227759   2.136   2.398   8.763 -0.1208  2.2900  0.4432
 5376SOL     OW27760   0.446   4.016   6.894  0.6182 -0.3234 -0.1490
 5376SOL    HW127761   0.394   3.993   6.971 -2.3540  0.3163 -1.9585
 5376SOL    HW227762   0.423   4.108   6.879 -1.5143 -0.9695 -0.8461
 5377SOL     OW27763   3.674   1.919   8.810 -0.2056  0.6758  0.1474
 5377SOL    HW127764   3.627   1.910   8.728 -0.2116 -0.3817  0.2682
 5377SOL    HW227765   3.760   1.910   8.771  0.0384 -2.0251  1.3051
 5378SOL     OW27766   0.278   4.026   3.771  0.4614 -0.0906  0.3825
 5378SOL    HW127767   0.312   4.100   3.721 -0.5900 -0.3174 -0.6534
 5378SOL    HW227768   0.276   3.957   3.705 -2.9794  0.5500 -0.1857
 5379SOL     OW27769   4.197   4.074  11.543 -0.3007 -0.0121 -1.0757
 5379SOL    HW127770   4.206   4.156  11.495  2.6265  0.6032  0.5768
 5379SOL    HW227771   4.113   4.049  11.503  0.2613 -0.5596 -1.9260
 5380SOL     OW27772   0.736   1.822   2.039  0.2352 -0.7223 -0.1184
 5380SOL    HW127773   0.818   1.863   2.067 -0.2682 -0.4650  0.9507
 5380SOL    HW227774   0.682   1.900   2.034 -0.3135 -1.1090 -0.3013
 5381SOL     OW27775   4.316   2.938   3.064 -0.2979  0.5386 -0.1776
 5381SOL    HW127776   4.327   2.974   3.152  1.2996  0.9892 -0.5672
 5381SOL    HW227777   4.404   2.953   3.031  0.1520 -0.8726  0.4013
 5382SOL     OW27778   4.639   4.049   6.468 -1.1316  0.0176  0.7291
 5382SOL    HW127779   4.674   4.009   6.388 -0.8013  0.1174  0.8263
 5382SOL    HW227780   4.715   4.037   6.524 -2.0992 -3.1035  1.4175
 5383SOL     OW27781   3.815   2.011   3.680 -0.5482  0.4052  0.0191
 5383SOL    HW127782   3.881   1.954   3.640  0.4552  2.7064 -1.6078
 5383SOL    HW227783   3.740   1.968   3.640  0.5187 -1.7479  0.3531
 5384SOL     OW27784   3.013   3.155  15.418 -0.6250 -0.1408  0.6848
 5384SOL    HW127785   3.087   3.169  15.476 -0.4903 -2.4428  1.0805
 5384SOL    HW227786   2.939   3.198  15.462  1.0484  0.4243  2.9505
 5385SOL     OW27787   1.916   4.724   7.175  0.0218 -0.4073 -0.0335
 5385SOL    HW127788   1.963   4.679   7.246  0.6340  1.2663  0.6199
 5385SOL    HW227789   1.974   4.716   7.099 -0.4104  0.3603 -0.4430
 5386SOL     OW27790   3.176   1.004   1.394  0.6870  0.2105  0.4520
 5386SOL    HW127791   3.155   0.938   1.460  1.7007 -1.0571 -0.4884
 5386SOL    HW227792   3.098   1.059   1.386  0.1280 -0.7151 -0.3335
 5387SOL     OW27793   4.702   2.609  14.323  0.5003  0.1170  0.1523
 5387SOL    HW127794   0.031   2.652  14.379  0.0041  1.2126 -0.1080
 5387SOL    HW227795   4.674   2.693  14.287 -0.0768 -0.3919 -0.5846
 5388SOL     OW27796   2.680   2.966   2.165  0.3055 -0.1630 -0.2300
 5388SOL    HW127797   2.702   2.914   2.087 -1.0871 -2.9072  1.1896
 5388SOL    HW227798   2.757   3.021   2.176  0.1175  0.0758 -0.1161
 5389SOL     OW27799   3.834   3.904   7.528  0.1056  0.0641 -0.7320
 5389SOL    HW127800   3.808   3.923   7.617  1.5755 -3.7750  0.5357
 5389SOL    HW227801   3.748   3.896   7.486 -0.1413 -1.1179  0.0024
 5390SOL     OW27802   3.062   1.729   5.934 -0.3766 -0.4739 -0.0634
 5390SOL    HW127803   3.125   1.796   5.962  0.6332 -1.9646  1.2101
 5390SOL    HW227804   3.070   1.741   5.839 -0.3538 -1.8384 -0.2381
 5391SOL     OW27805   4.572   2.883   9.803  0.6432 -0.0989 -0.0843
 5391SOL    HW127806   4.501   2.842   9.852 -0.2311  0.7385 -0.6405
 5391SOL    HW227807   4.573   2.841   9.717 -0.5892 -0.0502 -0.1266
 5392SOL     OW27808   2.339   4.460   5.321 -0.5877  0.4583  0.1860
 5392SOL    HW127809   2.293   4.503   5.249 -1.2985  0.9938  0.9695
 5392SOL    HW227810   2.427   4.497   5.320 -0.8786  1.1226 -0.9135
 5393SOL     OW27811   1.655   1.919   7.250 -0.6550  0.0623  0.1170
 5393SOL    HW127812   1.613   1.971   7.319 -1.3262  0.2572 -0.4341
 5393SOL    HW227813   1.603   1.951   7.176 -2.5700 -1.1863  0.9261
 5394SOL     OW27814   1.944   4.005  13.256  0.2668  0.3837  0.1267
 5394SOL    HW127815   1.871   4.067  13.265  0.0417  0.2393 -0.7270
 5394SOL    HW227816   1.950   3.981  13.348  1.2010  0.8729  0.1903
 5395SOL     OW27817   1.127   0.726  10.841  0.7652  0.2113 -0.0710
 5395SOL    HW127818   1.182   0.792  10.884 -0.0019  1.4364 -0.9961
 5395SOL    HW227819   1.184   0.652  10.866 -0.2644 -0.6396 -0.2611
 5396SOL     OW27820   2.180   3.016  16.109 -0.2722 -0.5208 -0.4373
 5396SOL    HW127821   2.135   3.092  16.145  0.6520 -1.8672  3.5372
 5396SOL    HW227822   2.236   2.996  16.183  0.7429 -2.4113 -1.7087
 5397SOL     OW27823   0.341   2.359   2.264 -0.1576 -0.3001  0.3174
 5397SOL    HW127824   0.253   2.392   2.248  0.5055  0.6306 -1.4353
 5397SOL    HW227825   0.357   2.403   2.348 -0.9549 -0.6869  0.6682
 5398SOL     OW27826   1.345   0.678   5.245  0.0997 -0.1082 -0.1734
 5398SOL    HW127827   1.426   0.628   5.236  0.0848 -0.5430  2.1598
 5398SOL    HW227828   1.367   0.757   5.195  1.8079  0.6404  1.7632
 5399SOL     OW27829   3.700   2.274   4.294  0.9086  0.5157 -0.0802
 5399SOL    HW127830   3.695   2.321   4.377  1.9515  0.8420 -0.1973
 5399SOL    HW227831   3.613   2.288   4.257 -1.3006 -0.1972  4.8568
 5400SOL     OW27832   0.441   0.233   6.955  0.2507  0.4697 -0.0445
 5400SOL    HW127833   0.466   0.143   6.934 -1.4315 -0.2149  0.8628
 5400SOL    HW227834   0.514   0.277   6.912 -0.4271  0.8149 -0.8496
 5401SOL     OW27835   3.861   2.246   3.582 -0.4272  0.0657 -0.2212
 5401SOL    HW127836   3.873   2.310   3.652 -0.2776 -2.3494  1.9484
 5401SOL    HW227837   3.836   2.167   3.629  3.2767 -0.8710  0.2265
 5402SOL     OW27838   1.225   1.987   9.531  0.4741 -0.0649 -0.8068
 5402SOL    HW127839   1.203   1.992   9.623 -0.3169 -1.3744 -0.9188
 5402SOL    HW227840   1.296   1.923   9.538  1.0529  0.5447 -1.0751
 5403SOL     OW27841   1.842   2.943   1.368 -0.1762  0.1563  0.0258
 5403SOL    HW127842   1.866   3.020   1.317  0.6678 -0.3107 -0.2832
 5403SOL    HW227843   1.810   2.886   1.299  0.9935  0.5436 -0.8312
 5404SOL     OW27844   1.322   0.604   4.514 -0.7469  0.1357  0.3469
 5404SOL    HW127845   1.252   0.539   4.506  0.1596 -0.4226 -2.8969
 5404SOL    HW227846   1.389   0.549   4.554  0.3522 -0.7730 -2.7699
 5405SOL     OW27847   4.204   1.633   0.647  0.2242  0.0689 -0.5865
 5405SOL    HW127848   4.217   1.539   0.635 -1.2390 -0.1168 -0.7411
 5405SOL    HW227849   4.233   1.670   0.563  0.2252  1.6438  0.1181
 5406SOL     OW27850   1.663   0.895   6.838 -0.4063  0.5014 -0.1792
 5406SOL    HW127851   1.681   0.865   6.749 -0.7040 -0.6395  0.1445
 5406SOL    HW227852   1.643   0.988   6.827 -1.1876  0.3344 -0.1932
 5407SOL     OW27853   1.851   1.974   3.841  0.6647 -0.9101  0.2754
 5407SOL    HW127854   1.839   2.035   3.914  0.4785 -0.5919 -0.0167
 5407SOL    HW227855   1.917   1.917   3.880  0.5218 -1.2904 -0.0410
 5408SOL     OW27856   0.981   1.397   8.545  0.0614 -0.1939  0.6600
 5408SOL    HW127857   0.900   1.368   8.587  0.3295 -1.4186  0.3171
 5408SOL    HW227858   0.988   1.326   8.482 -0.9486 -0.4351  0.8208
 5409SOL     OW27859   2.363   3.499   2.341  0.1621  0.0969  0.0379
 5409SOL    HW127860   2.348   3.588   2.309  1.8635  0.0182 -1.0109
 5409SOL    HW227861   2.385   3.455   2.259 -0.6571 -1.4513  0.6604
 5410SOL     OW27862   1.355   1.068  16.306 -0.4198  0.6435  0.0094
 5410SOL    HW127863   1.411   0.997  16.275  0.0755  0.2507  1.8495
 5410SOL    HW227864   1.361   1.045  16.398 -2.2898 -1.8160 -0.4775
 5411SOL     OW27865   4.384   1.886  16.731  0.4849 -0.3063  0.0469
 5411SOL    HW127866   4.370   1.949  16.802 -1.7906 -0.4561 -0.2620
 5411SOL    HW227867   4.432   1.825  16.787  2.1484  1.0369  0.1022
 5412SOL     OW27868   1.781   4.554   8.574 -0.2761  0.0683 -0.1530
 5412SOL    HW127869   1.792   4.610   8.651 -1.8279 -0.4930  0.4822
 5412SOL    HW227870   1.850   4.591   8.519 -0.7894  0.0363 -0.8138
 5413SOL     OW27871   3.391   0.830   8.179 -0.2350 -0.2249  0.4700
 5413SOL    HW127872   3.299   0.803   8.171  0.1617 -1.3921 -0.1967
 5413SOL    HW227873   3.429   0.746   8.153  0.1478  0.1069 -0.0403
 5414SOL     OW27874   1.788   3.398  11.620  0.4504 -0.2428 -0.0141
 5414SOL    HW127875   1.881   3.372  11.619 -0.1351 -2.4271  0.2949
 5414SOL    HW227876   1.778   3.442  11.705  3.1325 -0.3097  0.3437
 5415SOL     OW27877   4.615   1.497   6.942 -0.2984 -0.3292 -0.2614
 5415SOL    HW127878   4.675   1.570   6.925 -1.4735  1.1287  1.8219
 5415SOL    HW227879   4.531   1.534   6.968 -0.3724 -2.4098  2.5173
 5416SOL     OW27880   2.848   2.724  16.594 -0.0337 -0.5888  0.0765
 5416SOL    HW127881   2.851   2.629  16.603  1.1162 -0.7015 -1.4903
 5416SOL    HW227882   2.901   2.737  16.515 -0.4822 -1.7873 -0.4345
 5417SOL     OW27883   2.647   2.198   4.404  0.3410  0.5956  0.0001
 5417SOL    HW127884   2.701   2.130   4.363 -0.4090 -0.1636  0.2656
 5417SOL    HW227885   2.567   2.144   4.410 -0.2581  1.2497 -2.0540
 5418SOL     OW27886   1.156   2.045   1.423 -0.0619  0.0650 -0.8393
 5418SOL    HW127887   1.208   2.022   1.500 -1.1352 -0.9729 -0.4179
 5418SOL    HW227888   1.067   2.014   1.439  0.1092 -0.2725 -0.5295
 5419SOL     OW27889   1.358   3.855   8.177  0.1707 -0.2882  0.1398
 5419SOL    HW127890   1.285   3.903   8.215  1.3621  0.9302  0.8660
 5419SOL    HW227891   1.371   3.909   8.099 -1.0163  0.3079  0.3599
 5420SOL     OW27892   4.714   4.664  10.194  0.0468  0.4718 -0.9526
 5420SOL    HW127893   0.005   4.632  10.280  1.5615 -0.7253 -1.8700
 5420SOL    HW227894   0.053   4.634  10.142  0.3059 -0.2244 -0.1854
 5421SOL     OW27895   2.725   4.250   0.534 -0.0137 -0.1928 -0.2918
 5421SOL    HW127896   2.789   4.231   0.465 -0.0766 -1.7254  0.0794
 5421SOL    HW227897   2.740   4.170   0.583 -2.2039  0.4395  1.3971
 5422SOL     OW27898   4.490   0.342  11.320 -0.7985  0.0387 -0.5965
 5422SOL    HW127899   4.566   0.340  11.377 -0.1698 -0.8761 -1.4802
 5422SOL    HW227900   4.431   0.290  11.375  0.4867 -1.6796 -0.8515
 5423SOL     OW27901   2.521   2.664   2.701  0.0191  0.1207  0.1890
 5423SOL    HW127902   2.468   2.605   2.756 -0.7735  0.2250 -0.4727
 5423SOL    HW227903   2.487   2.649   2.613  2.7270  0.8334 -0.9889
 5424SOL     OW27904   0.522   2.129   2.861 -0.7501 -0.2069 -0.2416
 5424SOL    HW127905   0.448   2.178   2.825  1.3144  2.6347 -0.5872
 5424SOL    HW227906   0.469   2.065   2.908 -1.1097  0.4017  0.1794
 5425SOL     OW27907   2.459   2.907   9.685  0.5817  0.1038 -0.3051
 5425SOL    HW127908   2.432   2.997   9.704  1.3308 -0.1416  1.9193
 5425SOL    HW227909   2.509   2.905   9.603 -0.1290 -1.4687 -0.6922
 5426SOL     OW27910   1.978   1.392   2.010 -0.4781 -0.1333  0.0753
 5426SOL    HW127911   2.013   1.390   1.921 -0.0218  0.6421  0.2455
 5426SOL    HW227912   1.925   1.472   2.007 -2.1928 -1.1255  4.0446
 5427SOL     OW27913   3.854   3.068   3.667 -0.4226  1.3125  0.0225
 5427SOL    HW127914   3.795   3.017   3.723  1.7075 -0.9718  0.1873
 5427SOL    HW227915   3.811   3.153   3.670 -1.1662  0.9374 -0.0771
 5428SOL     OW27916   4.115   2.024   4.688  0.2801 -0.0374  0.5952
 5428SOL    HW127917   4.182   1.999   4.752  1.8207 -0.6455 -1.2493
 5428SOL    HW227918   4.137   2.117   4.681  0.5809 -0.0215  1.6548
 5429SOL     OW27919   2.172   3.461   5.752  0.0726 -0.2597  0.5446
 5429SOL    HW127920   2.212   3.437   5.835  1.3278 -0.9303 -0.2759
 5429SOL    HW227921   2.163   3.373   5.717  0.5219 -0.0798 -0.0236
 5430SOL     OW27922   1.398   2.806  14.344  0.1568  0.2859  0.4887
 5430SOL    HW127923   1.490   2.832  14.337 -0.0535  0.0192 -3.1887
 5430SOL    HW227924   1.356   2.881  14.388  2.1649  0.9077  1.3719
 5431SOL     OW27925   2.327   3.123  15.501  0.8930  0.1551 -0.0869
 5431SOL    HW127926   2.301   3.055  15.439  1.2183  0.9458 -1.0938
 5431SOL    HW227927   2.260   3.185  15.470  2.2329  1.0446 -1.2438
 5432SOL     OW27928   4.509   0.796   3.130  0.2905  0.4344 -0.3262
 5432SOL    HW127929   4.494   0.705   3.106  1.0065  0.0802  0.5690
 5432SOL    HW227930   4.524   0.773   3.222  2.3509 -0.4409 -0.8721
 5433SOL     OW27931   0.095   0.768   4.818  0.1908  0.1811 -0.1735
 5433SOL    HW127932   0.049   0.745   4.738 -0.9029 -0.2359  0.5668
 5433SOL    HW227933   0.183   0.734   4.801  0.3544  0.2122  0.5845
 5434SOL     OW27934   3.418   3.629   8.347 -0.0498 -0.2403  0.0532
 5434SOL    HW127935   3.398   3.659   8.258  1.2299 -1.4422 -0.6354
 5434SOL    HW227936   3.372   3.700   8.392  1.1047  0.3110  0.3438
 5435SOL     OW27937   3.545   3.434   8.877  0.9187 -0.0446  0.2894
 5435SOL    HW127938   3.506   3.384   8.806  0.6909  0.2530  0.2053
 5435SOL    HW227939   3.468   3.451   8.932  1.5626  2.8343  0.3240
 5436SOL     OW27940   3.956   3.285   5.238 -0.1974  0.1271  0.1768
 5436SOL    HW127941   3.881   3.228   5.220  0.0694 -0.3751  0.6413
 5436SOL    HW227942   3.953   3.268   5.333  1.6352 -0.3647  0.1521
 5437SOL     OW27943   4.425   4.624   1.187 -0.0948 -0.3415  0.8230
 5437SOL    HW127944   4.436   4.575   1.268  1.8087 -1.2799  0.0092
 5437SOL    HW227945   4.346   4.671   1.215 -0.6184 -0.8903  0.2772
 5438SOL     OW27946   3.026   1.010   8.266  0.1852  0.3220 -0.0995
 5438SOL    HW127947   3.054   1.068   8.195 -0.6320 -0.0115 -0.6962
 5438SOL    HW227948   2.940   1.047   8.289  0.8758  1.4109  0.7301
 5439SOL     OW27949   1.585   2.957   9.161 -0.2570 -0.7680 -0.2755
 5439SOL    HW127950   1.610   3.006   9.239  0.6579  0.1187 -1.1283
 5439SOL    HW227951   1.649   2.999   9.104 -1.3640  0.8074 -0.3654
 5440SOL     OW27952   2.957   3.836   0.971  0.0291  0.2139 -0.1218
 5440SOL    HW127953   2.968   3.762   0.912 -1.8873 -1.6206  1.7960
 5440SOL    HW227954   3.005   3.901   0.920  0.4065 -0.1990 -0.2884
 5441SOL     OW27955   3.689   2.053   1.834 -0.3619 -0.3073  0.3739
 5441SOL    HW127956   3.662   2.110   1.761  1.6786 -1.9452 -1.6512
 5441SOL    HW227957   3.656   1.974   1.792  2.9681 -0.7507 -1.4625
 5442SOL     OW27958   1.923   3.770   5.435  0.2838  0.4614  0.2687
 5442SOL    HW127959   1.955   3.737   5.519  0.8624  1.6738  0.5324
 5442SOL    HW227960   1.996   3.811   5.389 -0.1362  1.1543  0.2226
 5443SOL     OW27961   2.627   2.490   6.693 -0.6597 -0.9740 -0.5168
 5443SOL    HW127962   2.535   2.514   6.681  0.4427  2.2736 -2.5549
 5443SOL    HW227963   2.616   2.395   6.690  1.8364 -1.2496 -0.3192
 5444SOL     OW27964   1.901   4.577   2.461 -0.3031 -0.0572 -0.0113
 5444SOL    HW127965   1.948   4.494   2.457 -0.7021 -0.3015  0.3476
 5444SOL    HW227966   1.933   4.629   2.387 -0.4195 -0.1649 -0.1386
 5445SOL     OW27967   2.640   1.351   0.801 -0.3841  0.1267  0.8221
 5445SOL    HW127968   2.719   1.315   0.763 -0.8211  1.1658 -1.0441
 5445SOL    HW227969   2.569   1.327   0.742  1.7100 -0.5217 -1.4178
 5446SOL     OW27970   2.809   2.403   2.948  0.5297  0.5976  0.2056
 5446SOL    HW127971   2.733   2.357   2.914  0.7623 -0.1739  0.7190
 5446SOL    HW227972   2.830   2.352   3.026  0.5658  0.1856 -0.0749
 5447SOL     OW27973   4.391   0.545  13.760  0.5247  0.2191 -0.3506
 5447SOL    HW127974   4.477   0.573  13.792  1.4453 -3.2914  0.1479
 5447SOL    HW227975   4.348   0.538  13.845  1.0652 -2.2922 -0.2946
 5448SOL     OW27976   0.582   2.949   7.215  0.4371  0.4973 -0.4636
 5448SOL    HW127977   0.598   2.957   7.309  1.1891 -0.2911 -0.5180
 5448SOL    HW227978   0.672   2.951   7.181  0.4640 -1.1504 -0.5109
 5449SOL     OW27979   1.666   2.590   5.777  0.0713  0.2068  0.4866
 5449SOL    HW127980   1.578   2.592   5.815  0.1487  2.0854  0.5587
 5449SOL    HW227981   1.691   2.498   5.776 -0.9209 -0.0428 -0.9162
 5450SOL     OW27982   0.698   4.188  16.020  0.3939 -0.5232  0.7179
 5450SOL    HW127983   0.690   4.153  15.932 -0.3209  1.4994 -0.0125
 5450SOL    HW227984   0.627   4.136  16.057 -1.2448 -0.1551 -1.9122
 5451SOL     OW27985   1.738   3.340   9.178  0.4479 -0.3076  0.2332
 5451SOL    HW127986   1.647   3.326   9.152 -0.0100  1.6760  0.7730
 5451SOL    HW227987   1.720   3.385   9.260  0.8331  1.3297 -0.5805
 5452SOL     OW27988   4.619   0.774   6.514 -0.5983 -0.0929  0.1991
 5452SOL    HW127989   4.619   0.683   6.486  0.8892 -0.3275  0.9907
 5452SOL    HW227990   4.704   0.796   6.478 -0.4543 -2.2639 -0.7437
 5453SOL     OW27991   2.306   3.016   0.644  0.1278 -0.6618  1.0479
 5453SOL    HW127992   2.324   3.024   0.550 -0.4595  1.4690  1.1156
 5453SOL    HW227993   2.327   3.108   0.656  2.0638 -0.6681 -2.0222
 5454SOL     OW27994   3.823   2.567   2.407  0.0328  0.7829  0.6220
 5454SOL    HW127995   3.812   2.580   2.502  0.8877  0.7637  0.7244
 5454SOL    HW227996   3.837   2.472   2.402 -1.6061  0.6136 -0.6345
 5455SOL     OW27997   1.001   1.820   8.982  0.0119  0.0658 -0.6579
 5455SOL    HW127998   1.024   1.912   8.990 -1.2331  0.2214  1.0943
 5455SOL    HW227999   0.926   1.823   8.923 -2.1434 -1.6784  2.0570
 5456SOL     OW28000   1.041   3.642   3.710 -0.6609  0.1223  0.0036
 5456SOL    HW128001   1.027   3.612   3.800  2.1948 -1.2654  0.0052
 5456SOL    HW228002   1.136   3.633   3.702 -0.4829  0.9969  1.1464
 5457SOL     OW28003   3.135   1.210  14.552 -0.4633 -0.4130  0.1317
 5457SOL    HW128004   3.090   1.142  14.603  1.6487 -2.5183 -0.8175
 5457SOL    HW228005   3.157   1.273  14.621 -1.2438 -0.2419  0.2239
 5458SOL     OW28006   4.185   2.805   1.830  0.1845  0.0897 -0.3644
 5458SOL    HW128007   4.166   2.895   1.803 -0.3352 -0.3810 -1.5880
 5458SOL    HW228008   4.165   2.795   1.923 -3.1305 -0.3133 -1.1233
 5459SOL     OW28009   1.922   4.716   6.591 -0.0510 -0.2525 -0.0983
 5459SOL    HW128010   1.887   4.648   6.533  0.3773  0.6867 -1.4562
 5459SOL    HW228011   1.989   4.660   6.630  0.2879 -1.5777 -2.5812
 5460SOL     OW28012   1.998   0.182  12.376  0.0850  0.8629  0.0699
 5460SOL    HW128013   2.070   0.133  12.416  2.2301  2.5727 -1.6797
 5460SOL    HW228014   1.936   0.208  12.444  0.3196  1.6325 -0.0202
 5461SOL     OW28015   0.139   0.525   9.146  0.1874 -0.5349  0.6288
 5461SOL    HW128016   0.072   0.572   9.096  0.3744 -1.9817 -0.9680
 5461SOL    HW228017   0.113   0.435   9.131  0.7737 -0.3320 -1.6206
 5462SOL     OW28018   4.203   3.739   2.256 -0.3716 -0.0792  0.6525
 5462SOL    HW128019   4.276   3.772   2.204  0.0032 -1.8099  0.0838
 5462SOL    HW228020   4.217   3.779   2.342 -0.4160 -0.6225  0.9125
 5463SOL     OW28021   1.497   1.470   0.588  0.1336  0.0155  0.4604
 5463SOL    HW128022   1.515   1.478   0.494 -0.6722 -1.5100  0.1712
 5463SOL    HW228023   1.417   1.418   0.594 -0.1405  0.6929  2.6285
 5464SOL     OW28024   1.654   2.147   2.864  0.0106  0.2321  0.6032
 5464SOL    HW128025   1.568   2.134   2.904  0.9331 -1.2199  2.1181
 5464SOL    HW228026   1.655   2.240   2.840  0.2380  0.4808  1.5939
 5465SOL     OW28027   1.041   0.146   8.485  0.2631 -0.4206 -0.0301
 5465SOL    HW128028   1.001   0.213   8.541  1.3979 -2.4134  3.1726
 5465SOL    HW228029   0.971   0.125   8.423  0.8395 -1.0739 -0.4652
 5466SOL     OW28030   3.731   2.255   3.320  0.5954  0.1381 -0.2476
 5466SOL    HW128031   3.772   2.262   3.406 -0.8690  3.0822  0.2106
 5466SOL    HW228032   3.782   2.182   3.286 -0.1900 -0.2734 -0.5552
 5467SOL     OW28033   4.127   2.083   5.154  0.3631  0.1462 -0.3265
 5467SOL    HW128034   4.110   1.991   5.175 -0.7183 -0.3842 -3.5847
 5467SOL    HW228035   4.166   2.110   5.237  0.0153  0.5413 -0.2896
 5468SOL     OW28036   0.507   0.033   1.659  1.3232 -0.2879  0.0607
 5468SOL    HW128037   0.591   0.078   1.669 -0.1869  2.6746 -0.7098
 5468SOL    HW228038   0.473   0.034   1.748 -0.0741  0.4690 -0.4827
 5469SOL     OW28039   1.606   1.115  10.907  0.0149 -0.0880  0.0179
 5469SOL    HW128040   1.629   1.094  10.997 -2.5540 -1.8047  0.2603
 5469SOL    HW228041   1.513   1.137  10.906  0.2499  0.9127 -0.4648
 5470SOL     OW28042   3.722   0.715   7.614  0.0915  0.1593  0.2371
 5470SOL    HW128043   3.754   0.628   7.591  0.7084  0.4853 -0.1608
 5470SOL    HW228044   3.691   0.697   7.702 -0.3504  2.8919  0.6501
 5471SOL     OW28045   3.199   1.932  10.946 -0.2582  0.2786 -0.0042
 5471SOL    HW128046   3.279   1.980  10.925 -0.2351  0.4407  0.4591
 5471SOL    HW228047   3.200   1.935  11.041  2.0526  3.2192 -0.1031
 5472SOL     OW28048   0.301   2.855  11.902 -0.2795 -0.5595 -0.1577
 5472SOL    HW128049   0.242   2.892  11.836 -1.1870  0.0273  0.9863
 5472SOL    HW228050   0.386   2.884  11.871 -0.4146  1.2794  1.1639
 5473SOL     OW28051   2.123   4.203   6.218  0.5807  0.6312 -0.3321
 5473SOL    HW128052   2.151   4.165   6.135 -0.4861 -0.0105 -0.3920
 5473SOL    HW228053   2.070   4.134   6.258 -0.7800  1.8998  0.0532
 5474SOL     OW28054   3.125   1.132  16.351  0.3605  0.4919  0.6318
 5474SOL    HW128055   3.218   1.107  16.348 -0.0722 -1.0725  0.8006
 5474SOL    HW228056   3.112   1.183  16.431 -0.4683 -1.1981  1.5540
 5475SOL     OW28057   1.334   0.433   3.206 -0.2646 -0.0320  0.4750
 5475SOL    HW128058   1.339   0.416   3.111 -1.3399 -0.3944  0.4808
 5475SOL    HW228059   1.315   0.527   3.204 -0.9620 -0.1771  0.4542
 5476SOL     OW28060   4.125   3.120   9.835  0.8679  0.3775 -0.9809
 5476SOL    HW128061   4.070   3.058   9.883  1.6545  1.4918  1.3453
 5476SOL    HW228062   4.061   3.186   9.808 -0.9958 -0.8816  0.4391
 5477SOL     OW28063   3.213   0.003   2.257 -0.0772  0.8147 -0.3186
 5477SOL    HW128064   3.186   0.094   2.243  0.0708  1.0637  1.0001
 5477SOL    HW228065   3.277   4.723   2.188 -0.7887 -1.8225 -0.3947
 5478SOL     OW28066   3.575   0.857   4.169 -0.5112  0.5458  0.3813
 5478SOL    HW128067   3.612   0.821   4.089  2.7261  3.1498  0.6983
 5478SOL    HW228068   3.502   0.902   4.126 -0.1955  0.7283  0.0304
 5479SOL     OW28069   4.591   3.273   6.153 -0.0039 -0.1083 -0.0535
 5479SOL    HW128070   4.576   3.225   6.071 -1.4876  0.9580 -0.4068
 5479SOL    HW228071   4.684   3.252   6.165 -0.1930 -1.5787 -1.1264
 5480SOL     OW28072   4.237   1.633   6.827 -0.8847 -0.4721 -0.3281
 5480SOL    HW128073   4.160   1.582   6.800 -0.2008 -0.8701 -1.5246
 5480SOL    HW228074   4.297   1.623   6.753  0.7123  2.3083  0.6044
 5481SOL     OW28075   3.721   0.144   2.905  0.6862 -0.6967 -0.0165
 5481SOL    HW128076   3.729   0.209   2.975  1.5435 -1.2621  0.4243
 5481SOL    HW228077   3.753   0.193   2.829  1.4742 -0.0665  0.7208
 5482SOL     OW28078   4.358   4.043   4.826 -0.1703 -0.0272 -0.4043
 5482SOL    HW128079   4.344   4.006   4.913 -1.1129  0.4028 -0.3767
 5482SOL    HW228080   4.454   4.045   4.825 -0.2060  1.0107 -0.9520
 5483SOL     OW28081   4.096   2.006  12.175 -0.5160 -0.3544 -0.1274
 5483SOL    HW128082   4.104   1.931  12.233  2.9380  0.4007  0.3645
 5483SOL    HW228083   4.013   2.049  12.195  0.0324 -0.1890  1.8202
 5484SOL     OW28084   3.584   3.002   5.454 -0.9109  0.4221 -0.0519
 5484SOL    HW128085   3.640   2.975   5.381 -0.3607 -1.1572  0.9602
 5484SOL    HW228086   3.634   2.967   5.528 -1.1024 -0.2664 -0.2447
 5485SOL     OW28087   3.027   0.343   5.008 -0.8422  0.1531  0.0858
 5485SOL    HW128088   3.060   0.319   5.095 -0.9067  0.1815  0.1176
 5485SOL    HW228089   2.933   0.330   5.019 -1.0408  2.1234  0.6936
 5486SOL     OW28090   0.224   1.482   7.018 -0.2327 -0.1088  0.4458
 5486SOL    HW128091   0.189   1.504   6.932  2.3595  0.9424 -0.3370
 5486SOL    HW228092   0.221   1.386   7.020  1.4162 -0.1476  0.6519
 5487SOL     OW28093   3.323   2.115   7.164 -0.3282 -0.0268 -0.4813
 5487SOL    HW128094   3.276   2.198   7.171 -1.9446 -1.1519  1.9291
 5487SOL    HW228095   3.372   2.122   7.082  0.6400 -1.6172 -0.0472
 5488SOL     OW28096   1.684   1.718   7.816  0.5886  0.1244  0.0581
 5488SOL    HW128097   1.593   1.688   7.817 -0.7685  4.1557 -2.2526
 5488SOL    HW228098   1.719   1.640   7.773 -0.5981  0.4855 -1.5564
 5489SOL     OW28099   0.449   2.927   8.615  0.3693 -0.5352  0.3062
 5489SOL    HW128100   0.360   2.895   8.599 -0.0338 -0.2644  1.9617
 5489SOL    HW228101   0.429   3.009   8.570  1.9774 -0.4514 -0.2313
 5490SOL     OW28102   4.469   0.139   6.454  0.1584  0.6323  0.0023
 5490SOL    HW128103   4.449   0.079   6.526 -1.5832 -0.2684 -1.2224
 5490SOL    HW228104   4.468   0.086   6.374 -3.3506  0.0957  0.3813
 5491SOL     OW28105   2.009   1.168   3.473  0.0961 -0.2224  0.4359
 5491SOL    HW128106   1.937   1.182   3.535  0.3590 -0.5358  0.8190
 5491SOL    HW228107   2.074   1.145   3.539  0.6339 -1.1217 -0.4108
 5492SOL     OW28108   3.083   1.833  14.297  0.0504 -0.1862  0.6708
 5492SOL    HW128109   3.149   1.902  14.311 -0.4843  0.5378 -0.3637
 5492SOL    HW228110   3.126   1.778  14.232  1.9208  1.1966  0.7246
 5493SOL     OW28111   0.212   4.322   4.553  0.5046  0.2884  0.5964
 5493SOL    HW128112   0.301   4.305   4.584 -0.0582  1.4341  2.8064
 5493SOL    HW228113   0.202   4.416   4.568  0.1971  0.5372 -1.1581
 5494SOL     OW28114   4.651   3.573   1.056 -0.2421  0.2766 -0.0344
 5494SOL    HW128115   4.735   3.615   1.073  0.9363 -1.9095 -0.4064
 5494SOL    HW228116   4.668   3.550   0.964  3.6229 -0.3875  0.8374
 5495SOL     OW28117   1.527   4.025   2.908  0.3838  0.4558  0.0439
 5495SOL    HW128118   1.498   4.115   2.891 -0.2995 -0.0040 -1.2199
 5495SOL    HW228119   1.453   3.974   2.875 -0.0419  0.6490  0.7191
 5496SOL     OW28120   4.231   4.633   3.792  0.7079  0.0724 -0.0086
 5496SOL    HW128121   4.155   4.674   3.833 -0.1574  1.4974 -3.0443
 5496SOL    HW228122   4.298   4.696   3.817 -0.8859  2.1230 -0.9011
 5497SOL     OW28123   3.610   0.421   2.357 -0.6833  0.0468  0.6195
 5497SOL    HW128124   3.555   0.375   2.294 -1.9206  0.4248  1.4288
 5497SOL    HW228125   3.607   0.355   2.426  1.1558 -0.7362 -0.0536
 5498SOL     OW28126   2.134   2.366  16.638 -0.3049 -0.2027  0.2065
 5498SOL    HW128127   2.189   2.420  16.695 -0.0304  0.3945 -0.6297
 5498SOL    HW228128   2.198   2.332  16.575 -2.2743  2.0504 -2.9916
 5499SOL     OW28129   3.232   1.439   1.942 -0.2090  0.2215  0.3873
 5499SOL    HW128130   3.182   1.359   1.954  1.2172 -0.8613 -0.8416
 5499SOL    HW228131   3.231   1.446   1.846 -1.4244 -0.1847  0.3642
 5500SOL     OW28132   2.856   3.702   5.579 -0.4394 -0.0902 -0.2027
 5500SOL    HW128133   2.912   3.758   5.632 -0.7716 -0.9591  1.0739
 5500SOL    HW228134   2.916   3.629   5.596  0.1347  0.5651  0.5316
 5501SOL     OW28135   3.846   4.107   1.533 -0.3345 -0.2714  0.5405
 5501SOL    HW128136   3.753   4.123   1.523 -0.3486 -1.1590 -0.8942
 5501SOL    HW228137   3.858   4.013   1.546  1.2513 -0.0822  0.5451
 5502SOL     OW28138   4.196   1.522  11.268 -0.0083 -0.0786 -0.1226
 5502SOL    HW128139   4.110   1.563  11.254  0.4590  0.7681 -0.4832
 5502SOL    HW228140   4.253   1.564  11.203 -2.7227  2.1977 -1.0554
 5503SOL     OW28141   1.697   3.310   7.372 -0.0143 -0.1922 -0.4733
 5503SOL    HW128142   1.655   3.323   7.287 -0.1571  1.7675 -0.0991
 5503SOL    HW228143   1.650   3.236   7.412  1.2030 -1.7698 -1.9645
 5504SOL     OW28144   3.118   0.774   8.527  0.2755 -0.0639  0.7368
 5504SOL    HW128145   3.193   0.725   8.558 -0.7646 -1.8202  0.4595
 5504SOL    HW228146   3.037   0.727   8.547 -0.3369  0.7285  0.1537
 5505SOL     OW28147   1.769   0.237   0.112  0.7058 -0.0512  0.7313
 5505SOL    HW128148   1.739   0.284   0.034  3.0229 -1.5510 -1.0618
 5505SOL    HW228149   1.859   0.213   0.091  0.2575  0.3075 -1.6608
 5506SOL     OW28150   1.638   0.051  12.696 -0.5846 -0.4064  0.7884
 5506SOL    HW128151   1.597   4.703  12.719 -1.6387  0.2882  1.4229
 5506SOL    HW228152   1.614   0.114  12.764  0.7192  0.3817  0.5017
 5507SOL     OW28153   4.601   2.395   5.634 -0.0277  0.5073 -0.0643
 5507SOL    HW128154   4.644   2.481   5.630 -3.6281  2.2768 -0.5488
 5507SOL    HW228155   4.601   2.379   5.539 -1.0102  3.6777 -0.6015
 5508SOL     OW28156   2.125   3.576   8.521 -0.1068 -0.6253  0.7963
 5508SOL    HW128157   2.122   3.577   8.617  0.3891  0.3499  0.8007
 5508SOL    HW228158   2.046   3.626   8.503  1.1735  0.5729 -1.4752
 5509SOL     OW28159   2.561   1.945  16.724  0.3832 -0.4589 -0.3571
 5509SOL    HW128160   2.627   1.925  16.791  2.5618  1.6507 -1.8717
 5509SOL    HW228161   2.619   1.953  16.648  1.3527  0.5925  0.4900
 5510SOL     OW28162   2.744   2.975  14.899 -0.1721  0.0532 -0.1518
 5510SOL    HW128163   2.677   3.043  14.894 -1.2368 -1.1115 -1.5652
 5510SOL    HW228164   2.794   3.012  14.972  0.3101  0.5975 -0.7545
 5511SOL     OW28165   4.143   0.375   7.406  0.1676 -0.3160 -0.2813
 5511SOL    HW128166   4.150   0.414   7.493 -3.6687  2.3822 -1.1975
 5511SOL    HW228167   4.050   0.357   7.391  0.4522 -1.3024 -0.8166
 5512SOL     OW28168   1.055   4.024   5.522 -0.6013  0.0364 -0.8716
 5512SOL    HW128169   1.071   3.982   5.606  1.0685  0.0152 -1.2040
 5512SOL    HW228170   1.142   4.033   5.485  0.1917 -0.2847  0.9347
 5513SOL     OW28171   2.698   2.559   1.304  0.2924  0.2819  0.3997
 5513SOL    HW128172   2.696   2.520   1.217  1.3929  1.0272  0.0331
 5513SOL    HW228173   2.749   2.639   1.290 -0.1013  0.6395  1.0290
 5514SOL     OW28174   4.175   1.167   4.531 -0.0701  0.5287  0.2231
 5514SOL    HW128175   4.118   1.120   4.592 -0.2082  1.1378  0.5641
 5514SOL    HW228176   4.251   1.181   4.587  0.6091 -1.1795 -0.2693
 5515SOL     OW28177   2.578   0.563  11.504 -0.5429 -0.6582  0.1613
 5515SOL    HW128178   2.673   0.570  11.515 -0.6068 -0.5097  0.6375
 5515SOL    HW228179   2.550   0.655  11.511  0.6247 -0.3900  1.3298
 5516SOL     OW28180   2.164   2.788   4.078  0.1170  0.4950  0.7826
 5516SOL    HW128181   2.210   2.849   4.021  1.1592  0.2087  1.3305
 5516SOL    HW228182   2.241   2.745   4.115  0.1372 -0.8605 -0.7858
 5517SOL     OW28183   2.791   3.822   6.589  0.5367 -0.2188 -0.7950
 5517SOL    HW128184   2.861   3.804   6.652 -0.6948 -1.9400  0.0869
 5517SOL    HW228185   2.832   3.899   6.550  0.8476  0.0189  0.0009
 5518SOL     OW28186   4.668   3.932   2.534 -0.0523 -0.5765 -0.3290
 5518SOL    HW128187   4.619   3.851   2.546 -0.7550  0.2457  2.2329
 5518SOL    HW228188   0.022   3.904   2.549 -0.0305 -0.9031 -1.0383
 5519SOL     OW28189   4.268   4.337  11.403  0.0091 -0.5194  0.0076
 5519SOL    HW128190   4.272   4.419  11.353 -1.1397  0.2900  1.2218
 5519SOL    HW228191   4.361   4.316  11.406 -0.1009 -1.0469 -0.3333
 5520SOL     OW28192   1.336   0.115   1.764 -0.4293 -0.5246  0.1159
 5520SOL    HW128193   1.423   0.085   1.739 -0.1118 -0.8546  1.6105
 5520SOL    HW228194   1.278   0.058   1.712  0.7152 -1.4466 -0.1514
 5521SOL     OW28195   0.318   2.089   2.210  0.6727 -0.0235  0.0788
 5521SOL    HW128196   0.233   2.090   2.166  0.9783  0.1669 -0.5199
 5521SOL    HW228197   0.330   2.183   2.227  0.3932  0.3086 -1.5118
 5522SOL     OW28198   0.717   2.820   6.001  0.0615 -0.6484  0.5628
 5522SOL    HW128199   0.685   2.740   6.042 -3.2260  1.0469  1.3166
 5522SOL    HW228200   0.749   2.790   5.916  4.4668  0.6872  1.7200
 5523SOL     OW28201   2.846   4.136  10.665  0.3313  0.0166  0.1075
 5523SOL    HW128202   2.916   4.088  10.708 -0.4451 -1.4874 -0.3056
 5523SOL    HW228203   2.893   4.215  10.636  0.2471 -0.4500 -1.3014
 5524SOL     OW28204   0.042   1.045   2.307 -0.0025 -0.0807  0.7683
 5524SOL    HW128205   0.123   0.995   2.312 -0.0753 -0.3045 -0.3815
 5524SOL    HW228206   0.070   1.131   2.339 -1.9147  1.1168 -0.7815
 5525SOL     OW28207   4.648   3.290   0.702  0.1297  0.0631 -0.5135
 5525SOL    HW128208   4.622   3.257   0.616  0.7050 -1.3558 -0.1499
 5525SOL    HW228209   4.642   3.208   0.751 -1.2957 -0.1410 -1.0287
 5526SOL     OW28210   1.268   0.200   7.181 -0.1356 -0.2226 -0.1489
 5526SOL    HW128211   1.248   0.158   7.097  0.5230 -0.9746  0.0632
 5526SOL    HW228212   1.332   0.141   7.222  0.9986  1.8805  1.0751
 5527SOL     OW28213   1.600   0.051   1.322 -0.3107 -0.0384  0.0040
 5527SOL    HW128214   1.530   0.111   1.296  0.3824  0.4999 -0.6355
 5527SOL    HW228215   1.660   0.071   1.250 -0.3097  0.9382  0.2692
 5528SOL     OW28216   0.848   2.550   9.776 -0.5821  0.4981  0.7048
 5528SOL    HW128217   0.879   2.607   9.706 -1.2872  0.7488  0.5979
 5528SOL    HW228218   0.830   2.465   9.735  1.7785  0.4836 -0.2569
 5529SOL     OW28219   1.034   4.263   4.072 -0.0354  0.0405  0.6773
 5529SOL    HW128220   1.095   4.336   4.083  0.1411 -0.1686  1.0898
 5529SOL    HW228221   1.064   4.203   4.140  1.6411  2.7737  2.3233
 5530SOL     OW28222   1.744   1.597   8.082 -0.3985 -0.2931 -0.3806
 5530SOL    HW128223   1.679   1.633   8.022  0.8104  0.3612 -1.3026
 5530SOL    HW228224   1.821   1.587   8.026 -0.6722 -0.6974 -0.6868
 5531SOL     OW28225   4.308   2.735   6.634  0.3960 -0.0074  0.1361
 5531SOL    HW128226   4.278   2.701   6.719  0.3718 -2.2588 -0.7771
 5531SOL    HW228227   4.242   2.803   6.617  0.9519  0.7328  0.9228
 5532SOL     OW28228   4.369   4.706   9.168 -0.5257 -0.4349 -0.1892
 5532SOL    HW128229   4.379   4.731   9.260 -2.5765  0.8529 -0.3264
 5532SOL    HW228230   4.295   4.645   9.163 -1.0049  0.1803 -0.5287
 5533SOL     OW28231   0.638   3.569   7.245 -0.3567 -0.1203  0.6385
 5533SOL    HW128232   0.721   3.548   7.288 -0.1160 -1.2641 -0.4043
 5533SOL    HW228233   0.585   3.564   7.325 -0.9511  1.0957  0.3213
 5534SOL     OW28234   0.750   0.851   3.794 -0.5241  0.2982  0.1809
 5534SOL    HW128235   0.783   0.843   3.884 -2.1282  0.9375  0.8275
 5534SOL    HW228236   0.676   0.911   3.800 -1.1433 -0.6394  2.3035
 5535SOL     OW28237   2.761   1.612   2.894  0.0387 -0.2573  0.7160
 5535SOL    HW128238   2.711   1.553   2.837  0.9971  0.5710 -0.9759
 5535SOL    HW228239   2.782   1.672   2.823 -1.2790 -1.6774 -0.8907
 5536SOL     OW28240   0.565   2.181   1.796 -0.0377 -0.1320  0.3601
 5536SOL    HW128241   0.495   2.246   1.804 -1.9662 -2.0710 -0.7886
 5536SOL    HW228242   0.633   2.241   1.765 -0.3965  0.2774  0.3595
 5537SOL     OW28243   4.214   4.530  12.093 -0.2325  0.7515  0.3470
 5537SOL    HW128244   4.261   4.448  12.077 -4.1260 -1.4788  0.3796
 5537SOL    HW228245   4.126   4.497  12.111 -0.2376 -0.5968 -2.1497
 5538SOL     OW28246   3.022   0.324   3.712  0.7500  0.7304  0.3915
 5538SOL    HW128247   3.097   0.293   3.661 -0.5661 -0.9045 -0.5168
 5538SOL    HW228248   2.973   0.360   3.638  2.3945 -0.2990 -1.1810
 5539SOL     OW28249   3.323   3.423   6.774 -0.4326 -0.2782  0.2383
 5539SOL    HW128250   3.350   3.508   6.808 -0.0094 -0.0961 -0.5598
 5539SOL    HW228251   3.358   3.359   6.837 -1.2004  0.3721  1.3302
 5540SOL     OW28252   4.531   1.233  12.591  0.2828  0.2920 -0.3520
 5540SOL    HW128253   4.507   1.185  12.670  3.5880  0.9859  1.0682
 5540SOL    HW228254   4.531   1.321  12.629  0.1722  0.4493 -0.7152
 5541SOL     OW28255   3.735   3.371   9.077 -0.6403  0.2088  0.1053
 5541SOL    HW128256   3.676   3.351   9.149 -0.4690  2.9346  0.9893
 5541SOL    HW228257   3.671   3.373   9.006  0.1517 -0.3432 -0.6196
 5542SOL     OW28258   4.059   0.762  14.864 -0.1762 -0.0712  0.3546
 5542SOL    HW128259   4.024   0.848  14.888 -1.9335 -0.9795  1.0461
 5542SOL    HW228260   3.983   0.704  14.862 -0.1696  0.0552 -3.4610
 5543SOL     OW28261   0.787   3.168   5.037 -0.0855  0.4911 -0.3395
 5543SOL    HW128262   0.835   3.098   4.992 -0.4556  1.1626 -1.7585
 5543SOL    HW228263   0.722   3.186   4.969  1.4467  0.0014 -1.9197
 5544SOL     OW28264   0.230   4.621   4.302 -0.0296  0.0501  0.4688
 5544SOL    HW128265   0.201   4.599   4.391  0.5192  0.8865  0.8523
 5544SOL    HW228266   0.282   4.699   4.322  0.2036  0.6872 -2.5523
 5545SOL     OW28267   3.969   3.969  11.434 -0.6399 -0.0919 -0.2892
 5545SOL    HW128268   3.889   4.003  11.394  1.1998  3.6069 -0.8006
 5545SOL    HW228269   3.938   3.890  11.478 -0.6035 -0.6454 -1.2687
 5546SOL     OW28270   2.108   4.093  10.965  0.7082 -0.2589  0.0895
 5546SOL    HW128271   2.120   4.152  11.039 -2.3261 -1.4108  1.5248
 5546SOL    HW228272   2.127   4.148  10.889 -0.0852  0.9500  0.7657
 5547SOL     OW28273   0.996   1.837   2.424  0.9966  0.0845  0.5480
 5547SOL    HW128274   0.985   1.764   2.485 -1.9053 -0.4441 -0.5948
 5547SOL    HW228275   0.942   1.905   2.463  0.8227  0.1240  0.2369
 5548SOL     OW28276   2.769   3.654   7.363 -0.4157  0.1329 -0.0860
 5548SOL    HW128277   2.795   3.724   7.303  0.2184  0.6562  0.8063
 5548SOL    HW228278   2.679   3.638   7.335 -0.3749 -0.6581  0.2510
 5549SOL     OW28279   2.053   3.655  13.148  0.2013 -0.0719  0.8134
 5549SOL    HW128280   2.047   3.563  13.124  2.5076 -0.0500  0.1791
 5549SOL    HW228281   2.014   3.647  13.235  1.1257  0.2098  1.2501
 5550SOL     OW28282   3.777   3.500   9.365  0.1208  0.1986 -0.2631
 5550SOL    HW128283   3.796   3.594   9.367 -1.7602  0.5759 -0.4928
 5550SOL    HW228284   3.840   3.459   9.306 -1.3429 -1.2377 -0.7988
 5551SOL     OW28285   3.432   2.644  13.555 -0.5619 -0.1522  0.8020
 5551SOL    HW128286   3.411   2.723  13.605 -1.0836  0.7492 -0.8175
 5551SOL    HW228287   3.436   2.685  13.468 -1.4090 -0.6913  0.5108
 5552SOL     OW28288   2.631   0.038   0.995 -0.5684 -0.2768  0.2649
 5552SOL    HW128289   2.575   0.039   1.072 -2.9122  0.1392 -1.4475
 5552SOL    HW228290   2.640   4.680   0.976 -0.2354  0.2191 -1.9716
 5553SOL     OW28291   2.834   0.022   5.424 -0.3894  0.1468  0.3259
 5553SOL    HW128292   2.908   4.711   5.463 -1.3542 -2.0169 -0.4808
 5553SOL    HW228293   2.797   4.709   5.352  0.5061 -1.5988  1.0541
 5554SOL     OW28294   4.579   2.575   1.318  0.4102 -0.0617 -0.3825
 5554SOL    HW128295   4.512   2.579   1.250 -1.4363 -0.0871  1.4024
 5554SOL    HW228296   4.519   2.556   1.391 -0.8556 -0.6120 -1.5724
 5555SOL     OW28297   2.393   2.493   2.888 -0.0829 -0.1286  0.0616
 5555SOL    HW128298   2.448   2.454   2.956  0.7103 -1.6180 -1.4315
 5555SOL    HW228299   2.377   2.418   2.830  0.8455 -1.2753  1.2970
 5556SOL     OW28300   3.015   3.148  16.583 -0.0761  0.0873  0.3046
 5556SOL    HW128301   3.086   3.128  16.522 -0.2313 -0.3669  0.2708
 5556SOL    HW228302   3.071   3.176  16.655 -0.7334  1.4465  0.2862
 5557SOL     OW28303   3.392   4.413   6.679 -0.4595  0.3785 -0.1015
 5557SOL    HW128304   3.341   4.462   6.743  0.8723  0.2105  1.0693
 5557SOL    HW228305   3.455   4.372   6.738 -1.5690 -1.1931  0.0056
 5558SOL     OW28306   0.434   0.625  16.072  0.2125  0.3404  0.2935
 5558SOL    HW128307   0.495   0.576  16.128  0.2016 -3.2878 -2.9062
 5558SOL    HW228308   0.350   0.607  16.116 -0.0714  0.0454 -0.3756
 5559SOL     OW28309   0.278   3.102   4.619 -0.4695  0.4058 -0.0874
 5559SOL    HW128310   0.296   3.142   4.534  3.6394 -0.2218  0.4718
 5559SOL    HW228311   0.260   3.183   4.667 -1.6188  1.1251 -1.7534
 5560SOL     OW28312   2.197   4.607  17.538 -0.2713  0.0196  0.3708
 5560SOL    HW128313   2.190   4.593  17.633 -0.3423  3.6454  0.9346
 5560SOL    HW228314   2.153   4.531  17.502  0.3328 -0.1245 -0.0567
 5561SOL     OW28315   3.179   3.377   7.590 -0.2420  0.4302 -0.4356
 5561SOL    HW128316   3.241   3.347   7.523  0.2661  0.3498  0.0717
 5561SOL    HW228317   3.114   3.309   7.571  0.7393 -0.9840  1.1740
 5562SOL     OW28318   4.086   2.265   4.194 -0.3294  0.1205 -0.0223
 5562SOL    HW128319   4.142   2.282   4.118 -1.7565  1.1244 -0.8416
 5562SOL    HW228320   4.021   2.334   4.187 -1.9164 -1.1983  1.7574
 5563SOL     OW28321   3.145   3.753   5.457 -0.7816  0.3739 -0.3305
 5563SOL    HW128322   3.106   3.771   5.543  0.2003 -0.0119  0.1975
 5563SOL    HW228323   3.235   3.727   5.473  0.2943  2.1046 -3.6559
 5564SOL     OW28324   2.814   2.253   8.696 -0.1939  0.3142 -0.2533
 5564SOL    HW128325   2.796   2.242   8.790 -0.1526  1.1602 -0.1480
 5564SOL    HW228326   2.848   2.342   8.686  0.0724  0.4557  1.9414
 5565SOL     OW28327   4.337   4.599   7.179  0.4169  0.2880  0.1790
 5565SOL    HW128328   4.317   4.521   7.232 -1.0855  1.4739  1.3668
 5565SOL    HW228329   4.272   4.605   7.109 -0.1122  0.6803  0.7032
 5566SOL     OW28330   1.755   3.999   5.477  0.6372  0.0068 -0.1553
 5566SOL    HW128331   1.788   4.004   5.388 -0.7825  0.9307 -0.6292
 5566SOL    HW228332   1.838   3.974   5.517 -0.2113  0.8599  2.1347
 5567SOL     OW28333   0.137   3.610  10.657 -0.2867  0.1848 -0.1189
 5567SOL    HW128334   0.099   3.557  10.727 -0.2797 -1.1137 -1.0949
 5567SOL    HW228335   0.128   3.547  10.585  1.8366 -0.2719  0.0011
 5568SOL     OW28336   3.355   3.626   3.700  0.3644  0.5575 -0.6251
 5568SOL    HW128337   3.284   3.594   3.756  1.3828  1.7924  1.3701
 5568SOL    HW228338   3.360   3.717   3.728 -0.7656  0.9945 -1.8227
 5569SOL     OW28339   0.112   3.154   3.431 -0.2959 -0.4237  1.0424
 5569SOL    HW128340   0.161   3.190   3.505  1.9274 -0.0975 -0.5709
 5569SOL    HW228341   0.039   3.213   3.412  1.2743  0.2084 -3.2428
 5570SOL     OW28342   0.105   3.302   2.674 -1.0085  0.5390  0.2040
 5570SOL    HW128343   0.039   3.365   2.701  0.4602  2.1211  0.1501
 5570SOL    HW228344   0.176   3.310   2.739  0.3752  0.5335 -1.3052
 5571SOL     OW28345   4.367   0.472  12.159 -0.1096 -0.3322 -0.1051
 5571SOL    HW128346   4.314   0.417  12.216 -1.9770  1.5764 -0.0049
 5571SOL    HW228347   4.378   0.544  12.221  0.4738 -1.7667  1.4564
 5572SOL     OW28348   2.144   2.781   1.677 -0.1983 -0.1571 -0.4263
 5572SOL    HW128349   2.070   2.812   1.730  1.1218  0.3176  1.1355
 5572SOL    HW228350   2.095   2.753   1.600 -0.5313 -1.4618  0.2663
 5573SOL     OW28351   3.945   2.345   8.855  0.6118 -0.5203 -0.3500
 5573SOL    HW128352   3.905   2.312   8.774  0.3388 -0.0952 -0.3903
 5573SOL    HW228353   3.978   2.427   8.818  1.2439  0.1785  1.7916
 5574SOL     OW28354   2.018   4.328  10.513 -0.2325 -0.0385  0.1892
 5574SOL    HW128355   1.992   4.367  10.430 -2.5858  0.1567  1.0142
 5574SOL    HW228356   2.022   4.238  10.480 -0.1811 -0.3898  1.1284
 5575SOL     OW28357   2.044   2.656   8.646 -0.5288  0.1737  0.0846
 5575SOL    HW128358   2.003   2.661   8.560 -2.0424 -1.9579  0.6792
 5575SOL    HW228359   1.977   2.690   8.705 -0.6350 -0.5284  0.3805
 5576SOL     OW28360   4.360   3.629   7.343  0.4012 -0.5028 -0.0704
 5576SOL    HW128361   4.330   3.711   7.303  0.8661  0.3729  1.3588
 5576SOL    HW228362   4.304   3.626   7.421 -0.4471  0.1922 -0.6537
 5577SOL     OW28363   2.003   1.323   4.483 -0.1219 -0.1002  1.0344
 5577SOL    HW128364   2.063   1.302   4.554  0.3335 -0.8653  0.4282
 5577SOL    HW228365   2.003   1.419   4.484 -1.8926 -0.0739 -0.5894
 5578SOL     OW28366   4.452   2.876   8.445 -0.2430  0.0290 -0.3327
 5578SOL    HW128367   4.401   2.905   8.521 -0.0985  0.5275 -0.4236
 5578SOL    HW228368   4.463   2.781   8.447  0.7764  0.1851  1.5609
 5579SOL     OW28369   1.901   1.171   1.198 -0.2710  0.4817  0.6911
 5579SOL    HW128370   1.915   1.141   1.288 -2.9094  0.1584  1.0124
 5579SOL    HW228371   1.932   1.261   1.198  0.8194  0.0939 -0.4203
 5580SOL     OW28372   1.191   3.082  12.184  0.4090 -0.2483  0.4881
 5580SOL    HW128373   1.142   3.079  12.102 -2.9429 -0.2843  2.4972
 5580SOL    HW228374   1.124   3.087  12.252 -0.6812 -0.0425 -0.5892
 5581SOL     OW28375   1.971   0.721   4.749  0.8505 -0.0864  0.6127
 5581SOL    HW128376   1.914   0.712   4.673  2.9525 -2.4528 -0.6451
 5581SOL    HW228377   2.054   0.723   4.701  0.1844  0.0836 -0.5244
 5582SOL     OW28378   0.278   3.261   6.003 -0.7248  0.4807 -0.0003
 5582SOL    HW128379   0.320   3.334   6.049 -0.6795 -0.1777  1.0104
 5582SOL    HW228380   0.306   3.265   5.912  1.1924 -0.5703  0.5372
 5583SOL     OW28381   0.807   0.729   5.517 -0.1333 -0.4094  0.0338
 5583SOL    HW128382   0.797   0.635   5.535 -0.5859 -0.3312  0.1969
 5583SOL    HW228383   0.864   0.745   5.592 -2.0590  1.6525  1.0582
 5584SOL     OW28384   1.049   0.634  11.506  0.4699 -0.4416  0.2444
 5584SOL    HW128385   1.065   0.682  11.425  1.5807  0.3647  0.9379
 5584SOL    HW228386   1.069   0.691  11.580  3.0604  1.3770 -1.8603
 5585SOL     OW28387   0.856   4.109   9.355 -0.0046 -0.1191  0.5686
 5585SOL    HW128388   0.878   4.051   9.427  1.7809  0.0131  0.1397
 5585SOL    HW228389   0.943   4.144   9.334  0.0939 -1.1860 -0.7736
 5586SOL     OW28390   1.483   4.335  13.520 -0.2689  0.0699 -0.6721
 5586SOL    HW128391   1.477   4.240  13.524 -1.0827  0.1633  0.4711
 5586SOL    HW228392   1.414   4.348  13.584 -0.5958 -0.0663 -1.0011
 5587SOL     OW28393   3.172   1.618  11.794  0.0010  0.0131  0.0084
 5587SOL    HW128394   3.153   1.658  11.709 -1.5635 -0.4159  0.1666
 5587SOL    HW228395   3.260   1.579  11.797  1.5794  3.3478 -2.3210
 5588SOL     OW28396   0.900   3.106   7.568 -0.1203 -0.5194 -0.2385
 5588SOL    HW128397   0.861   3.175   7.515 -1.4940 -0.0266  1.4072
 5588SOL    HW228398   0.835   3.038   7.551 -0.3481 -0.6704  1.2337
 5589SOL     OW28399   2.257   4.219   4.418 -0.0310 -0.0078 -0.6483
 5589SOL    HW128400   2.211   4.292   4.377  0.3747  1.6004  1.7751
 5589SOL    HW228401   2.263   4.256   4.506 -1.9456 -0.2737 -0.4105
 5590SOL     OW28402   0.040   4.192   8.928 -0.0542  0.0370  0.4178
 5590SOL    HW128403   0.113   4.232   8.977 -0.7255 -1.4741  2.6383
 5590SOL    HW228404   4.718   4.268   8.930 -1.0447 -0.6437 -2.2849
 5591SOL     OW28405   3.378   2.373   3.823 -0.1461  0.2672 -0.1152
 5591SOL    HW128406   3.424   2.451   3.793 -1.9940  0.7191 -1.8138
 5591SOL    HW228407   3.285   2.392   3.805  0.1321  1.8832  0.1261
 5592SOL     OW28408   2.769   2.128   1.648 -0.2220  0.1303 -0.2292
 5592SOL    HW128409   2.845   2.174   1.682  0.7936 -0.4874 -1.6497
 5592SOL    HW228410   2.732   2.195   1.590 -1.7652  0.6806  1.4157
 5593SOL     OW28411   4.048   2.951   2.559 -0.3116 -0.0494 -0.3487
 5593SOL    HW128412   3.967   2.909   2.530 -0.9620  1.3878 -0.6406
 5593SOL    HW228413   4.064   3.013   2.488 -0.0243  0.8616  0.5092
 5594SOL     OW28414   2.366   3.122  15.773 -0.4325 -0.3351 -0.2641
 5594SOL    HW128415   2.358   3.098  15.680  1.9963 -1.4874 -0.1586
 5594SOL    HW228416   2.310   3.199  15.781  0.1865  0.3643 -2.6943
 5595SOL     OW28417   0.738   2.746   8.834  0.3485 -0.3631 -0.5581
 5595SOL    HW128418   0.643   2.754   8.822  0.6169  1.5569 -1.2954
 5595SOL    HW228419   0.753   2.812   8.902 -0.7710  0.2841 -0.9427
 5596SOL     OW28420   1.529   2.361   4.635 -0.2369  0.3251 -0.1479
 5596SOL    HW128421   1.579   2.318   4.566 -0.9672  0.7849 -0.9646
 5596SOL    HW228422   1.484   2.425   4.580 -0.3353 -1.1584 -1.8014
 5597SOL     OW28423   3.559   2.841   6.244  1.0206  0.0282  0.1593
 5597SOL    HW128424   3.561   2.755   6.286  1.7390 -0.8684 -1.7247
 5597SOL    HW228425   3.630   2.883   6.293  0.6330 -1.5332  2.0764
 5598SOL     OW28426   0.072   4.417   1.377 -0.4395 -0.2628 -0.3544
 5598SOL    HW128427   0.094   4.329   1.409 -1.7173 -0.4895 -0.1014
 5598SOL    HW228428   0.149   4.468   1.352  0.0034 -0.9836 -0.4473
 5599SOL     OW28429   1.595   3.134   4.958 -0.0168 -0.2909 -0.1165
 5599SOL    HW128430   1.505   3.156   4.936 -0.1015  1.0850  1.5969
 5599SOL    HW228431   1.580   3.081   5.036  2.6340 -2.1244 -0.8277
 5600SOL     OW28432   0.928   3.098   7.005 -0.4318  0.5005 -0.7516
 5600SOL    HW128433   0.871   3.025   6.980 -2.2842  2.2341 -1.5194
 5600SOL    HW228434   0.979   3.057   7.076  0.9262  0.2433 -1.8746
 5601SOL     OW28435   1.432   2.315   8.517  0.4622  0.3187  0.1600
 5601SOL    HW128436   1.368   2.270   8.572  0.6660 -1.2624 -0.9201
 5601SOL    HW228437   1.372   2.383   8.485  0.7483 -0.3930 -1.8420
 5602SOL     OW28438   2.356   0.031   0.232  0.0230  0.1119 -0.5669
 5602SOL    HW128439   2.426   0.059   0.173  2.7377  0.5209  2.8317
 5602SOL    HW228440   2.356   0.104   0.294 -2.0608 -2.1543  2.0661
 5603SOL     OW28441   3.373   2.518  12.916 -0.3434 -0.2614  0.2940
 5603SOL    HW128442   3.301   2.456  12.932  1.6413 -2.6776 -0.1797
 5603SOL    HW228443   3.325   2.567  12.849  0.6732 -0.7176 -0.7614
 5604SOL     OW28444   0.681   1.023   7.101 -0.4216 -0.3986 -0.0274
 5604SOL    HW128445   0.658   0.983   7.017 -2.3073  0.2615  0.1763
 5604SOL    HW228446   0.690   0.944   7.155  1.9325  0.5050  0.9503
 5605SOL     OW28447   4.372   3.342   3.086  0.4416  1.1623  0.6915
 5605SOL    HW128448   4.399   3.303   3.169  1.8550  1.8148  0.5359
 5605SOL    HW228449   4.445   3.314   3.030 -0.3864  0.3142  0.0270
 5606SOL     OW28450   3.591   2.295   5.629 -0.2482  0.0286  0.4064
 5606SOL    HW128451   3.617   2.239   5.557 -0.1736 -1.1214  1.3365
 5606SOL    HW228452   3.653   2.273   5.699 -1.0601  1.2733  1.5007
 5607SOL     OW28453   3.952   4.603  11.299 -0.1905  0.4738 -0.0898
 5607SOL    HW128454   3.951   4.509  11.318 -1.1714  0.7210  1.0816
 5607SOL    HW228455   4.047   4.610  11.290  0.0138 -0.0083  1.7073
 5608SOL     OW28456   4.094   0.771  13.677  0.0204 -0.6465 -0.1474
 5608SOL    HW128457   4.179   0.813  13.662 -0.8628  1.8934  1.9327
 5608SOL    HW228458   4.093   0.700  13.613 -1.0886 -0.0044 -0.8399
 5609SOL     OW28459   4.067   3.310   0.259 -0.4943  0.3009  0.1015
 5609SOL    HW128460   4.074   3.257   0.339 -0.2231 -0.6299 -0.5449
 5609SOL    HW228461   4.054   3.243   0.193 -1.3441 -1.0753  1.6508
 5610SOL     OW28462   3.825   0.696   5.439  0.3664 -0.3995  0.2023
 5610SOL    HW128463   3.729   0.693   5.437  0.3710  1.1707 -1.8985
 5610SOL    HW228464   3.833   0.738   5.525 -0.2360  2.7327 -1.2943
 5611SOL     OW28465   2.694   1.514  16.857 -0.4100  0.4312 -0.4231
 5611SOL    HW128466   2.654   1.478  16.936 -1.8373  3.0716  0.0383
 5611SOL    HW228467   2.616   1.512  16.802  0.5961 -0.0074 -1.8261
 5612SOL     OW28468   2.644   3.905   4.626 -0.3463  0.2052  0.0593
 5612SOL    HW128469   2.648   3.849   4.549  1.7416 -0.8042  0.9170
 5612SOL    HW228470   2.663   3.840   4.694  0.1045  0.1833 -0.0917
 5613SOL     OW28471   0.238   0.656  14.174  0.2588  0.9000 -0.0875
 5613SOL    HW128472   0.305   0.672  14.107  1.5649  0.0638  1.0249
 5613SOL    HW228473   0.301   0.640  14.245  1.5684  0.6108 -1.3094
 5614SOL     OW28474   0.797   0.564   3.675  0.3767  0.0029  0.1658
 5614SOL    HW128475   0.833   0.495   3.731  0.6072 -1.8952 -2.3035
 5614SOL    HW228476   0.784   0.646   3.723  0.1242  0.8579 -1.3731
 5615SOL     OW28477   3.817   0.606   5.012 -0.1804  0.8508  0.3365
 5615SOL    HW128478   3.804   0.519   5.050  2.2162 -0.0450 -0.9480
 5615SOL    HW228479   3.767   0.664   5.070 -0.3530  0.4432  0.5923
 5616SOL     OW28480   1.027   2.080   7.976 -0.0629 -0.0199 -0.3158
 5616SOL    HW128481   1.026   1.985   7.983  1.6579 -0.1072 -1.1360
 5616SOL    HW228482   0.968   2.095   8.050 -0.5456  2.7810 -1.2387
 5617SOL     OW28483   1.526   1.540  12.794  0.5821 -0.6357  0.7346
 5617SOL    HW128484   1.496   1.477  12.859 -1.6010  0.0292  0.3741
 5617SOL    HW228485   1.513   1.628  12.831 -0.1592 -0.2096 -0.5273
 5618SOL     OW28486   1.889   4.733   4.591  0.0454  1.1035  0.3471
 5618SOL    HW128487   1.961   4.712   4.531 -0.6318 -0.5738  0.1106
 5618SOL    HW228488   1.856   4.646   4.611 -2.2327  1.8924  0.0289
 5619SOL     OW28489   1.574   1.338   4.778 -0.5013 -0.6308 -0.3841
 5619SOL    HW128490   1.490   1.336   4.732 -0.8248  0.1297  0.1652
 5619SOL    HW228491   1.610   1.255   4.747  0.3500 -0.8410  1.1260
 5620SOL     OW28492   1.189   4.640   3.290  0.4688 -0.4723 -0.4126
 5620SOL    HW128493   1.242   4.620   3.213 -1.3675 -0.3836 -1.7223
 5620SOL    HW228494   1.226   4.581   3.355 -0.8117 -0.8602 -0.0311
 5621SOL     OW28495   4.189   4.467   6.998  0.1866  0.0156  0.1028
 5621SOL    HW128496   4.215   4.378   7.023 -1.0387 -0.3971 -0.0918
 5621SOL    HW228497   4.098   4.457   6.969  0.1348 -1.3110  0.7004
 5622SOL     OW28498   1.802   1.045   5.123  0.0381 -0.4474 -0.3804
 5622SOL    HW128499   1.825   1.108   5.191 -1.3025 -1.5453  1.0998
 5622SOL    HW228500   1.723   1.093   5.099  0.9856  0.0020 -2.5337
 5623SOL     OW28501   4.227   0.328  12.984  0.9178 -0.4494 -0.1269
 5623SOL    HW128502   4.251   0.379  13.061 -0.0181  1.6196 -1.1930
 5623SOL    HW228503   4.190   0.255  13.032 -0.7030  1.1027  0.9956
 5624SOL     OW28504   1.097   0.805   0.740 -0.0599  0.1327  0.1942
 5624SOL    HW128505   1.119   0.761   0.659  1.9841 -1.7770  1.8018
 5624SOL    HW228506   1.126   0.894   0.719 -1.5766 -0.1122 -2.8953
 5625SOL     OW28507   0.095   0.776  12.980  0.1953 -0.1858 -0.3704
 5625SOL    HW128508   0.057   0.801  13.064  0.2959  2.3226 -1.0769
 5625SOL    HW228509   0.182   0.747  13.005 -0.0311  0.2848  0.9584
 5626SOL     OW28510   1.487   1.425   2.492 -0.1523 -0.1172  0.1497
 5626SOL    HW128511   1.494   1.466   2.578 -1.9882 -0.0970  0.2994
 5626SOL    HW228512   1.415   1.363   2.509  0.0898 -0.8414 -1.4924
 5627SOL     OW28513   4.521   4.226   2.189 -0.6088  0.3477 -0.3134
 5627SOL    HW128514   4.433   4.239   2.223 -0.3942 -0.2772  0.4740
 5627SOL    HW228515   4.512   4.171   2.111  2.4064 -2.3235  1.2108
 5628SOL     OW28516   0.965   2.647   9.515  0.1578 -0.2405  0.0198
 5628SOL    HW128517   0.933   2.625   9.427 -0.1531 -1.1825  0.3618
 5628SOL    HW228518   1.049   2.686   9.491 -1.2103  0.4035 -3.6352
 5629SOL     OW28519   2.793   2.541  14.743 -0.0825  0.3829  1.0439
 5629SOL    HW128520   2.717   2.526  14.799 -1.5295 -2.3715 -1.6348
 5629SOL    HW228521   2.829   2.618  14.786  1.5645  1.0656 -1.5455
 5630SOL     OW28522   1.123   4.000   2.292 -0.3255  0.2257 -0.4664
 5630SOL    HW128523   1.136   3.929   2.229 -1.1331  0.7149 -1.1945
 5630SOL    HW228524   1.046   4.044   2.254  0.0389 -1.0716 -2.7229
 5631SOL     OW28525   0.823   0.493   7.432  0.1378 -0.3791  0.0775
 5631SOL    HW128526   0.896   0.513   7.374  0.7474 -1.6612  0.4137
 5631SOL    HW228527   0.780   0.579   7.438  0.6537 -0.0507 -0.9144
 5632SOL     OW28528   1.059   3.481   3.196  0.7786 -0.7064 -0.0638
 5632SOL    HW128529   1.113   3.483   3.275  1.4588  0.3505 -0.5488
 5632SOL    HW228530   0.992   3.414   3.210  1.4591 -1.0691  1.4750
 5633SOL     OW28531   3.575   0.476   4.418 -0.1609 -0.2703 -0.0103
 5633SOL    HW128532   3.560   0.568   4.438 -0.8762 -0.4797  0.4229
 5633SOL    HW228533   3.509   0.435   4.474  0.1758  0.1100  0.6780
 5634SOL     OW28534   0.648   1.777  13.065  0.1052  0.2854 -0.0378
 5634SOL    HW128535   0.737   1.773  13.100  0.2852  3.2260 -0.1843
 5634SOL    HW228536   0.659   1.750  12.974 -1.2073  1.0533 -0.4261
 5635SOL     OW28537   4.289   2.230   2.399  0.4040 -0.0931  0.0628
 5635SOL    HW128538   4.274   2.214   2.492  2.7588 -0.8480  0.3183
 5635SOL    HW228539   4.288   2.140   2.368 -1.9897 -0.2415  0.5947
 5636SOL     OW28540   2.049   1.356   2.540 -0.3488 -0.0048  0.1718
 5636SOL    HW128541   2.090   1.443   2.535  0.4943 -0.3603  0.7713
 5636SOL    HW228542   1.955   1.367   2.551 -0.5837  0.3222 -2.3139
 5637SOL     OW28543   4.294   2.264   4.725  0.4062 -0.0633 -0.0292
 5637SOL    HW128544   4.305   2.292   4.634 -1.2241 -0.4569 -0.3376
 5637SOL    HW228545   4.367   2.204   4.737 -1.5472 -1.8269  3.0760
 5638SOL     OW28546   4.491   3.895   3.404 -0.0343 -0.0459 -0.1450
 5638SOL    HW128547   4.512   3.987   3.425 -2.4287  0.5078 -0.2017
 5638SOL    HW228548   4.396   3.889   3.395  0.0962  1.8755 -3.2100
 5639SOL     OW28549   0.540   1.178  13.626  0.1656  0.2747  0.3278
 5639SOL    HW128550   0.563   1.157  13.535 -0.8118 -2.2154  0.6627
 5639SOL    HW228551   0.560   1.094  13.667 -3.0174 -0.7546 -0.2459
 5640SOL     OW28552   1.573   3.887   3.585 -0.7004  0.2880  0.5435
 5640SOL    HW128553   1.523   3.968   3.589  1.4105  1.6092  0.1934
 5640SOL    HW228554   1.511   3.838   3.531 -1.7998  1.2715  0.9116
 5641SOL     OW28555   1.955   2.999   2.377 -0.0336 -0.5559  0.2924
 5641SOL    HW128556   1.889   3.055   2.418  0.0204 -0.7688  0.6696
 5641SOL    HW228557   1.996   2.977   2.460 -0.9973  0.8057  1.1150
 5642SOL     OW28558   2.924   0.699   4.344  0.4444 -0.1072  0.0780
 5642SOL    HW128559   2.918   0.645   4.265  3.2470 -1.3080  0.6708
 5642SOL    HW228560   3.016   0.695   4.370  1.0306  1.3378 -1.8140
 5643SOL     OW28561   0.644   4.728  11.311 -0.3146  0.2058 -0.1501
 5643SOL    HW128562   0.573   0.013  11.250 -1.3419 -1.3780  0.4901
 5643SOL    HW228563   0.674   0.077  11.345 -1.3274  1.3085 -2.0425
 5644SOL     OW28564   2.317   3.897   4.906  0.1847  0.0414 -0.1424
 5644SOL    HW128565   2.390   3.955   4.885 -0.2484  0.5682 -0.1948
 5644SOL    HW228566   2.367   3.828   4.948 -0.1764 -0.5207 -0.6382
 5645SOL     OW28567   2.879   1.170   2.213 -0.1956  0.2819 -0.7154
 5645SOL    HW128568   2.891   1.224   2.135 -0.4325 -0.0324 -0.9702
 5645SOL    HW228569   2.784   1.163   2.211 -0.2092 -0.0646  0.8442
 5646SOL     OW28570   1.793   0.599   5.727  1.0586 -0.0410  0.0788
 5646SOL    HW128571   1.825   0.591   5.817 -1.4370 -0.0077  0.9949
 5646SOL    HW228572   1.838   0.531   5.678 -0.0269 -2.0099  1.8253
 5647SOL     OW28573   4.094   1.564  16.711 -0.6381 -0.3649  0.2725
 5647SOL    HW128574   4.176   1.590  16.670 -1.0662 -1.2410 -1.1544
 5647SOL    HW228575   4.031   1.580  16.641  1.9218 -0.3855 -2.0424
 5648SOL     OW28576   0.711   2.061   7.874 -0.0687  0.5591 -0.3402
 5648SOL    HW128577   0.653   2.109   7.815 -0.4561  1.0069  0.3990
 5648SOL    HW228578   0.658   2.041   7.952 -0.8480  0.2086 -0.9592
 5649SOL     OW28579   2.500   1.382   7.749 -0.2930  0.2706 -0.2785
 5649SOL    HW128580   2.550   1.430   7.683 -0.3059  0.9675  0.2111
 5649SOL    HW228581   2.477   1.451   7.812  0.2620 -0.8171  1.1246
 5650SOL     OW28582   1.022   3.949   1.597 -0.4841 -0.4863  0.3828
 5650SOL    HW128583   1.002   3.878   1.536 -1.8061 -0.5041  0.8394
 5650SOL    HW228584   1.071   4.012   1.543 -1.4782 -0.0086  0.0230
 5651SOL     OW28585   1.464   3.017   5.186 -0.3559 -0.2851  0.1488
 5651SOL    HW128586   1.399   2.950   5.208  0.3196 -0.6473  1.0283
 5651SOL    HW228587   1.541   2.970   5.220  0.6443  0.8159 -0.5907
 5652SOL     OW28588   1.508   1.733   8.404 -0.2981  0.3342 -0.2232
 5652SOL    HW128589   1.596   1.753   8.371 -0.5263 -0.2633 -1.1852
 5652SOL    HW228590   1.527   1.722   8.497  1.0017  1.8205 -0.3071
 5653SOL     OW28591   1.130   0.429   2.482  0.1625  0.9050 -1.1046
 5653SOL    HW128592   1.034   0.423   2.479  0.2074 -0.0748 -0.4251
 5653SOL    HW228593   1.154   0.382   2.403 -0.5603 -2.2201  0.5476
 5654SOL     OW28594   1.969   2.467   7.187 -0.1397 -0.2575 -0.6306
 5654SOL    HW128595   1.917   2.532   7.234  2.4727  1.3965 -0.0292
 5654SOL    HW228596   1.945   2.390   7.238 -0.1159 -0.4182 -0.8628
 5655SOL     OW28597   1.440   4.629   7.904 -0.1801 -0.1754  0.0444
 5655SOL    HW128598   1.492   4.549   7.899 -0.8875 -0.5870 -0.6376
 5655SOL    HW228599   1.471   4.674   7.826 -1.4792 -2.2149 -1.6490
 5656SOL     OW28600   0.036   0.284   9.088 -0.0695 -0.1611 -0.2486
 5656SOL    HW128601   0.052   0.229   9.011 -0.4911 -1.5492  0.6626
 5656SOL    HW228602   4.678   0.300   9.091 -0.4913 -2.7520  0.9518
 5657SOL     OW28603   4.351   4.358   5.054  0.0317 -0.1767 -0.5063
 5657SOL    HW128604   4.362   4.438   5.106 -1.5274  0.0340 -0.4978
 5657SOL    HW228605   4.436   4.316   5.068  0.6163  1.1745  0.0139
 5658SOL     OW28606   1.661   4.344   7.611  0.4711  0.1434 -0.5411
 5658SOL    HW128607   1.702   4.299   7.537 -0.8121  0.2429 -1.3145
 5658SOL    HW228608   1.568   4.322   7.608  0.0343  1.8346  0.4994
 5659SOL     OW28609   3.481   1.094  15.814 -0.3987  1.0020  0.0410
 5659SOL    HW128610   3.525   1.015  15.846 -1.5177  0.9211  1.4072
 5659SOL    HW228611   3.508   1.097  15.723  0.0817 -0.0782  0.1533
 5660SOL     OW28612   3.585   3.446   3.105 -0.2102 -0.4106  0.1574
 5660SOL    HW128613   3.543   3.366   3.072 -0.8632 -0.0558  0.1341
 5660SOL    HW228614   3.514   3.506   3.083 -1.1415 -1.8069 -0.6381
 5661SOL     OW28615   0.321   3.497   5.786  0.1653  0.1504  0.1555
 5661SOL    HW128616   0.320   3.502   5.691  0.2375  0.4316  0.1687
 5661SOL    HW228617   0.413   3.503   5.811  0.4045 -0.1198 -0.6834
 5662SOL     OW28618   3.901   2.403   5.146 -0.7279 -0.2278  0.4300
 5662SOL    HW128619   3.995   2.394   5.129 -0.8045 -1.2415  0.5666
 5662SOL    HW228620   3.888   2.496   5.165 -0.3252 -0.2929  0.9950
 5663SOL     OW28621   0.750   3.255   6.835 -0.3809  0.0132 -0.0064
 5663SOL    HW128622   0.715   3.318   6.898  0.7687  0.7455 -0.1001
 5663SOL    HW228623   0.787   3.185   6.889 -0.0082 -0.5550 -0.9915
 5664SOL     OW28624   3.898   4.238   6.514 -0.1964  0.1217 -0.1467
 5664SOL    HW128625   3.911   4.168   6.451 -1.0778 -1.7413  1.7190
 5664SOL    HW228626   3.936   4.200   6.594  2.9226  1.2733 -1.0778
 5665SOL     OW28627   4.639   4.204  13.498  0.2675 -0.1080 -0.4935
 5665SOL    HW128628   4.666   4.253  13.421  1.5463  0.4939  0.3447
 5665SOL    HW228629   4.573   4.141  13.467  1.7203 -1.5900 -0.5877
 5666SOL     OW28630   0.432   3.855   2.311  0.2316 -0.4888  0.2817
 5666SOL    HW128631   0.416   3.770   2.351 -0.0400 -0.0827  1.0353
 5666SOL    HW228632   0.386   3.838   2.229 -3.1782  0.0515  2.0522
 5667SOL     OW28633   3.579   2.374   7.147  0.3074 -0.0439 -0.2290
 5667SOL    HW128634   3.609   2.461   7.173  1.4304 -0.8351  1.1292
 5667SOL    HW228635   3.554   2.380   7.055 -0.5384  0.1412  0.0188
 5668SOL     OW28636   0.017   1.594  12.267 -0.5617  0.5502 -0.4139
 5668SOL    HW128637   0.011   1.537  12.344  0.0053  0.4141 -0.4658
 5668SOL    HW228638   0.077   1.655  12.310  0.2284 -0.0384 -0.6619
 5669SOL     OW28639   0.502   3.525  12.630 -0.3081  0.2232  0.7015
 5669SOL    HW128640   0.488   3.544  12.723  0.5887 -0.9031  1.0755
 5669SOL    HW228641   0.551   3.445  12.649  1.4447  0.6991 -1.8074
 5670SOL     OW28642   2.875   2.103  14.136 -0.2507 -0.0834 -0.1686
 5670SOL    HW128643   2.874   2.193  14.102  1.2232  0.0979  0.2443
 5670SOL    HW228644   2.888   2.117  14.230 -0.5305 -0.2031 -0.1148
 5671SOL     OW28645   0.934   1.810   9.620 -0.2583  0.7505 -0.2973
 5671SOL    HW128646   0.969   1.828   9.533 -0.5626  1.0449 -0.3605
 5671SOL    HW228647   0.864   1.750   9.596  1.3849 -1.4555  0.5021
 5672SOL     OW28648   3.211   0.741   4.335  0.0266  0.2349  0.3548
 5672SOL    HW128649   3.256   0.660   4.308  1.0207  0.8509  0.1418
 5672SOL    HW228650   3.281   0.799   4.365  0.4398  1.0179 -2.1182
 5673SOL     OW28651   2.692   1.550   7.986  0.5689 -0.1649 -0.4322
 5673SOL    HW128652   2.761   1.569   8.049 -0.3857  1.0405  0.2353
 5673SOL    HW228653   2.755   1.535   7.915  0.5920 -0.8561 -0.2673
 5674SOL     OW28654   3.709   4.548   0.938 -0.1327  0.0316  0.6886
 5674SOL    HW128655   3.733   4.555   1.030  0.6132  0.4868  0.4604
 5674SOL    HW228656   3.619   4.582   0.940  0.6163  2.1238 -1.1146
 5675SOL     OW28657   4.067   2.743  15.562 -0.4589 -0.6057  0.6083
 5675SOL    HW128658   4.144   2.732  15.506 -0.7165 -2.7731  0.6895
 5675SOL    HW228659   4.076   2.672  15.625  0.6934 -1.8030 -0.9217
 5676SOL     OW28660   1.565   0.324   4.405  0.3190  0.2871  0.0419
 5676SOL    HW128661   1.595   0.349   4.317  0.9705  1.0202  0.4753
 5676SOL    HW228662   1.639   0.285   4.451 -0.5045 -0.1568  0.9769
 5677SOL     OW28663   2.816   1.742   2.648  0.3679 -0.1514 -0.2280
 5677SOL    HW128664   2.849   1.655   2.623 -1.3894 -1.4223  1.9164
 5677SOL    HW228665   2.882   1.801   2.613 -1.7213  2.1078 -0.3303
 5678SOL     OW28666   0.996   3.988   7.562  0.5860 -0.0578 -0.7040
 5678SOL    HW128667   0.934   3.959   7.495 -1.6019  1.2553  0.7341
 5678SOL    HW228668   0.987   4.083   7.554 -1.3422 -0.0756  1.2324
 5679SOL     OW28669   1.288   4.688   4.403  0.1894  0.2636  0.8575
 5679SOL    HW128670   1.327   4.635   4.473  0.9564 -2.5109 -1.6531
 5679SOL    HW228671   1.217   4.630   4.374 -1.4497  2.3901  0.6545
 5680SOL     OW28672   0.798   2.357   7.300  0.3095  0.4642 -0.4832
 5680SOL    HW128673   0.759   2.279   7.259 -0.7948  1.7169 -1.7878
 5680SOL    HW228674   0.843   2.319   7.376  1.2752 -0.2348 -1.4049
 5681SOL     OW28675   2.088   2.188   6.047  0.2402  0.1230 -0.0751
 5681SOL    HW128676   1.999   2.191   6.014  0.3111  1.7312 -0.1226
 5681SOL    HW228677   2.086   2.093   6.050  0.6997  0.0865 -0.8953
 5682SOL     OW28678   1.285   1.939   9.261 -0.0891  0.0103  0.5437
 5682SOL    HW128679   1.259   1.952   9.352  2.9445 -2.6277  1.7849
 5682SOL    HW228680   1.210   1.962   9.206  0.4585  1.4879  0.3999
 5683SOL     OW28681   0.328   3.787   3.314 -0.4436 -0.4078  0.1558
 5683SOL    HW128682   0.249   3.732   3.317 -0.6661 -0.1361 -0.7947
 5683SOL    HW228683   0.295   3.860   3.365  0.2975 -1.0565  1.5534
 5684SOL     OW28684   3.934   1.427   5.552  0.0189  0.8771 -0.2676
 5684SOL    HW128685   4.003   1.369   5.519 -0.7679 -1.4922  2.2555
 5684SOL    HW228686   3.956   1.497   5.490 -0.5061  0.7308 -0.6207
 5685SOL     OW28687   2.069   0.415   1.207  0.4955  0.1096  0.5722
 5685SOL    HW128688   1.985   0.396   1.249 -0.9631  2.7767 -1.0812
 5685SOL    HW228689   2.125   0.374   1.272 -1.7044 -2.8000  0.6218
 5686SOL     OW28690   1.605   0.829   2.368  0.0680  0.2061 -0.1447
 5686SOL    HW128691   1.566   0.890   2.304  0.0475 -1.1296 -1.4108
 5686SOL    HW228692   1.603   0.754   2.309 -0.3964 -0.8214  1.1817
 5687SOL     OW28693   1.003   0.386   8.629 -0.1080  0.9267 -0.1788
 5687SOL    HW128694   1.091   0.415   8.606 -0.8569  3.1630 -0.3191
 5687SOL    HW228695   0.954   0.468   8.618 -0.9705  0.6321  1.4391
 5688SOL     OW28696   1.687   0.939   1.455 -0.6773 -0.3145  0.2421
 5688SOL    HW128697   1.684   0.846   1.480 -1.7387 -0.0709  1.0564
 5688SOL    HW228698   1.662   0.929   1.363 -1.2926  0.7945  0.2947
 5689SOL     OW28699   0.500   2.231   8.510 -0.6496 -0.1929  0.2192
 5689SOL    HW128700   0.503   2.319   8.547 -2.0072 -0.0273 -0.0966
 5689SOL    HW228701   0.469   2.181   8.586 -0.6115 -1.2193 -0.4393
 5690SOL     OW28702   2.693   1.705   8.611 -0.0358  0.2259 -0.2703
 5690SOL    HW128703   2.632   1.669   8.546 -0.9249  0.6375  0.3459
 5690SOL    HW228704   2.631   1.752   8.666  0.9701  1.2660 -0.0244
 5691SOL     OW28705   2.378   0.649   5.825 -0.1736  0.0359  0.0407
 5691SOL    HW128706   2.439   0.692   5.764 -1.0056  0.1128 -0.7463
 5691SOL    HW228707   2.404   0.683   5.910  1.2756  3.0385 -1.5772
 5692SOL     OW28708   2.248   2.241  11.436  0.1382 -0.5407  0.1948
 5692SOL    HW128709   2.274   2.150  11.444 -0.4825 -0.7357 -0.0061
 5692SOL    HW228710   2.235   2.265  11.528  0.2349  0.6975 -0.1140
 5693SOL     OW28711   1.500   0.445   4.030 -0.1018 -0.9875  0.1375
 5693SOL    HW128712   1.552   0.525   4.027  0.4612 -1.3604 -0.0927
 5693SOL    HW228713   1.545   0.393   4.096  0.2993 -1.1057 -0.2280
 5694SOL     OW28714   2.784   3.828   4.317 -0.2847  0.0191  0.1638
 5694SOL    HW128715   2.822   3.885   4.251  1.9086  0.4267  1.7792
 5694SOL    HW228716   2.846   3.834   4.390  1.0330  0.8015 -1.0149
 5695SOL     OW28717   3.830   2.304  16.636 -0.1854  0.2939  0.2816
 5695SOL    HW128718   3.912   2.270  16.601 -1.4722  0.9537 -3.3676
 5695SOL    HW228719   3.832   2.398  16.618 -0.3945 -0.1460 -1.9687
 5696SOL     OW28720   4.166   2.017   2.199  0.4890 -0.0413 -0.0973
 5696SOL    HW128721   4.085   2.025   2.149 -1.0951  1.0109  2.6456
 5696SOL    HW228722   4.220   2.080   2.152  1.8775 -1.7199 -0.7444
 5697SOL     OW28723   2.058   4.312   3.768 -0.0749  0.1192 -0.0717
 5697SOL    HW128724   2.020   4.332   3.683  0.0825  0.8583  0.0351
 5697SOL    HW228725   2.065   4.216   3.773 -0.7060 -0.0469 -2.3619
 5698SOL     OW28726   2.910   0.483   0.781  0.4859  0.1158 -0.1722
 5698SOL    HW128727   2.834   0.524   0.823 -1.1369 -2.5998 -0.4920
 5698SOL    HW228728   2.867   0.425   0.719 -0.9243 -0.3405  1.2324
 5699SOL     OW28729   0.877   2.385   2.642  0.1849  0.0492  0.3104
 5699SOL    HW128730   0.819   2.336   2.700  0.6490 -0.9688 -0.0856
 5699SOL    HW228731   0.932   2.316   2.606 -0.2653 -0.1754  0.0556
 5700SOL     OW28732   3.103   3.294   3.857  0.4421  0.2421  0.6653
 5700SOL    HW128733   3.119   3.388   3.848  3.2459 -0.4550 -1.5235
 5700SOL    HW228734   3.180   3.271   3.805  0.1305  1.7484 -0.4758
 5701SOL     OW28735   2.151   4.033   9.217  0.1984  0.2410  1.0337
 5701SOL    HW128736   2.112   3.956   9.259 -1.7711  0.0093 -1.2592
 5701SOL    HW228737   2.233   3.998   9.182 -0.6193  1.9087 -2.5345
 5702SOL     OW28738   1.437   1.403  12.561  0.6071 -0.6345  0.0747
 5702SOL    HW128739   1.482   1.455  12.628  2.0028 -2.2741  0.3943
 5702SOL    HW228740   1.419   1.466  12.491  2.0416 -0.2378  0.0482
 5703SOL     OW28741   2.415   2.272   7.136 -0.2782 -0.3530  0.5811
 5703SOL    HW128742   2.406   2.367   7.139  1.1100 -0.2378  1.2816
 5703SOL    HW228743   2.328   2.240   7.160 -0.8392  1.3558  0.8084
 5704SOL     OW28744   1.653   3.028   3.191 -0.6506 -0.4855 -0.2455
 5704SOL    HW128745   1.677   3.029   3.284 -0.4925  1.8752 -0.3249
 5704SOL    HW228746   1.620   3.117   3.179 -0.5281 -0.4724 -0.4826
 5705SOL     OW28747   3.814   3.576  11.783  0.0483 -0.5364 -0.5064
 5705SOL    HW128748   3.798   3.483  11.768  2.3055 -0.8661 -0.9141
 5705SOL    HW228749   3.865   3.572  11.864  2.1587 -0.1512 -1.8137
 5706SOL     OW28750   3.543   0.270  16.149  0.1985  0.0954  0.1789
 5706SOL    HW128751   3.578   0.283  16.237 -1.3704 -0.7905  0.9436
 5706SOL    HW228752   3.532   0.362  16.124 -1.5978 -0.7300 -2.0576
 5707SOL     OW28753   2.721   4.205   4.089  0.6757 -0.4278  0.7210
 5707SOL    HW128754   2.732   4.277   4.026  1.8479 -1.4863 -0.2788
 5707SOL    HW228755   2.627   4.203   4.109 -0.0872  0.2438 -2.6914
 5708SOL     OW28756   3.385   0.866   7.880  0.1480 -0.2897 -0.1707
 5708SOL    HW128757   3.346   0.941   7.834 -1.3570 -1.7638 -1.2840
 5708SOL    HW228758   3.465   0.905   7.915  0.5788 -2.1479  0.9058
 5709SOL     OW28759   3.999   0.053   2.674 -0.0871  0.3242 -0.4458
 5709SOL    HW128760   3.934   0.030   2.608 -0.1561 -0.7812 -0.0049
 5709SOL    HW228761   3.975   4.717   2.734 -1.7130  1.9563  0.8667
 5710SOL     OW28762   1.372   0.056   2.373 -0.1739 -0.0565 -0.2983
 5710SOL    HW128763   1.334   4.709   2.402  0.0713 -0.3503 -0.8217
 5710SOL    HW228764   1.451   0.018   2.333  1.0800  1.7642  0.4436
 5711SOL     OW28765   0.082   2.945   4.201 -0.3568  0.1710  0.1727
 5711SOL    HW128766   0.090   3.026   4.251 -2.7852  0.0591  0.7350
 5711SOL    HW228767   0.132   2.881   4.252  0.5490 -1.3188 -2.5614
 5712SOL     OW28768   0.087   3.938   6.912  0.4373 -0.8199  0.2810
 5712SOL    HW128769   0.086   4.028   6.945 -0.9483 -0.7241 -0.0049
 5712SOL    HW228770   0.158   3.898   6.962  0.4056 -0.6895  0.4306
 5713SOL     OW28771   2.710   4.310   5.252  0.0360  0.0613  0.9210
 5713SOL    HW128772   2.726   4.385   5.308  0.4827  0.3010  0.4715
 5713SOL    HW228773   2.642   4.258   5.296 -0.2614 -1.2288 -1.0662
 5714SOL     OW28774   3.352   3.361   1.565  0.0438  0.6330  0.9178
 5714SOL    HW128775   3.309   3.447   1.573  0.0978  0.8217 -0.8223
 5714SOL    HW228776   3.284   3.313   1.517  1.2982 -0.6381  0.4224
 5715SOL     OW28777   3.472   2.804  11.653  0.3958 -0.3851 -0.5731
 5715SOL    HW128778   3.382   2.787  11.682  0.7803  0.0162  0.8903
 5715SOL    HW228779   3.515   2.811  11.739  0.9979  2.3381 -1.1240
 5716SOL     OW28780   0.569   2.089   7.392 -0.1205 -0.2539 -0.1174
 5716SOL    HW128781   0.636   2.093   7.324 -2.3977  1.1141 -2.2601
 5716SOL    HW228782   0.602   2.011   7.437  1.1807  1.1809  1.4156
 5717SOL     OW28783   0.695   2.343   4.054 -0.2300 -0.1105 -0.2433
 5717SOL    HW128784   0.729   2.258   4.083  1.8883  1.1709  1.0216
 5717SOL    HW228785   0.619   2.320   4.000  0.6009  0.1967 -1.5311
 5718SOL     OW28786   3.628   0.508   9.504  0.1946  0.7233 -0.4641
 5718SOL    HW128787   3.570   0.500   9.428  1.2561  0.6205 -1.2554
 5718SOL    HW228788   3.651   0.416   9.521 -0.7666  0.4832 -0.4412
 5719SOL     OW28789   1.476   0.884   5.102  0.0171  0.2753 -0.1538
 5719SOL    HW128790   1.529   0.962   5.119 -0.8580  0.5141  1.4996
 5719SOL    HW228791   1.548   0.828   5.072 -1.6082 -1.8733 -0.0056
 5720SOL     OW28792   1.175   1.577   5.196  0.4736  0.1280 -0.0726
 5720SOL    HW128793   1.217   1.653   5.238  1.2166  0.9888 -2.3921
 5720SOL    HW228794   1.160   1.605   5.106 -1.1911  1.6255  0.6706
 5721SOL     OW28795   1.883   3.655   6.370 -0.3621 -0.3264  0.3430
 5721SOL    HW128796   1.807   3.628   6.318 -0.4018 -0.2057  0.3391
 5721SOL    HW228797   1.896   3.568   6.408 -1.0040 -2.0522 -3.4355
 5722SOL     OW28798   4.636   3.308   9.224  0.6637 -0.4548 -0.2248
 5722SOL    HW128799   4.691   3.384   9.243 -0.5629  0.2799  0.4303
 5722SOL    HW228800   4.695   3.236   9.248  0.8234 -0.2650 -0.0542
 5723SOL     OW28801   2.488   3.427   2.110  0.0800 -0.1733  0.8554
 5723SOL    HW128802   2.509   3.389   2.025  0.6590 -0.9888  1.3659
 5723SOL    HW228803   2.566   3.401   2.159  1.3332  1.2496 -0.3775
 5724SOL     OW28804   3.554   1.516   7.630  0.3173 -0.1190  0.4603
 5724SOL    HW128805   3.593   1.493   7.546 -1.5819  2.9523 -1.2775
 5724SOL    HW228806   3.552   1.610   7.613 -1.7618  0.0469  1.5940
 5725SOL     OW28807   2.660   4.312   5.883 -0.3409 -0.2989 -0.1942
 5725SOL    HW128808   2.665   4.369   5.960 -1.4006 -1.0119  0.3846
 5725SOL    HW228809   2.754   4.333   5.874 -0.9716  1.7937 -2.1021
 5726SOL     OW28810   0.177   2.980  10.163 -0.5540  0.0735  0.2942
 5726SOL    HW128811   0.162   2.943  10.076 -0.3352 -1.2768  0.8258
 5726SOL    HW228812   0.100   3.036  10.162  0.8976  1.9858 -4.2282
 5727SOL     OW28813   3.951   4.241   8.872 -0.5819 -0.0198 -0.5509
 5727SOL    HW128814   3.985   4.214   8.786  0.0645 -1.6820  0.2179
 5727SOL    HW228815   3.861   4.264   8.853 -0.4763 -0.4277 -1.5652
 5728SOL     OW28816   0.403   4.397   3.140  0.0144 -0.2424 -0.0840
 5728SOL    HW128817   0.467   4.344   3.093 -0.5843 -2.1102  1.2468
 5728SOL    HW228818   0.335   4.334   3.161 -0.0996  0.0365  0.3732
 5729SOL     OW28819   2.049   1.359   4.166  0.6605  0.1968 -0.0395
 5729SOL    HW128820   1.974   1.313   4.204  0.6678 -0.0271 -0.2988
 5729SOL    HW228821   2.063   1.321   4.080  0.4915 -2.3480  1.0449
 5730SOL     OW28822   1.751   0.904   2.881  0.2822 -0.2578  0.4506
 5730SOL    HW128823   1.727   0.897   2.788  0.5242  2.8010  0.1448
 5730SOL    HW228824   1.808   0.980   2.892 -1.2634  1.4051 -3.0025
 5731SOL     OW28825   4.001   4.677   8.726  0.0808  0.3404  0.0920
 5731SOL    HW128826   3.994   4.651   8.634 -2.8044 -1.6315  0.8492
 5731SOL    HW228827   3.959   0.028   8.731  1.0544  0.8671 -0.8488
 5732SOL     OW28828   1.196   4.498   4.087 -0.5621  0.1729  0.2232
 5732SOL    HW128829   1.153   4.539   4.162  1.0226  1.3268  0.4894
 5732SOL    HW228830   1.288   4.506   4.109 -0.4365 -0.0445 -0.2107
 5733SOL     OW28831   0.997   2.216   4.406  0.2756 -0.1042 -0.4392
 5733SOL    HW128832   0.908   2.245   4.427  0.2240 -0.2396 -0.4702
 5733SOL    HW228833   0.999   2.227   4.311  1.2058 -0.3414 -0.4459
 5734SOL     OW28834   1.014   1.012   6.758  0.1324  0.0918  0.0973
 5734SOL    HW128835   0.991   1.032   6.849 -1.1871 -0.3353 -0.1317
 5734SOL    HW228836   1.076   0.940   6.766  1.0745  0.5853 -2.7523
 5735SOL     OW28837   2.483   0.335   0.715 -0.0105  0.0887  0.1953
 5735SOL    HW128838   2.534   0.345   0.795 -0.1300 -1.8104  0.5196
 5735SOL    HW228839   2.535   0.387   0.654 -0.7287  0.6578  0.0740
 5736SOL     OW28840   4.456   3.793   1.808 -0.6256  0.0261 -0.2510
 5736SOL    HW128841   4.424   3.790   1.717  1.4878 -1.4563 -0.9465
 5736SOL    HW228842   4.538   3.841   1.800  0.1159 -1.0409  0.9779
 5737SOL     OW28843   0.471   3.264   2.031  0.2801 -0.4062  0.0164
 5737SOL    HW128844   0.386   3.221   2.025 -0.1204  0.5484 -1.0461
 5737SOL    HW228845   0.473   3.318   1.952  0.6138  1.0570  1.0224
 5738SOL     OW28846   4.276   1.375   0.658 -0.0936  0.1280  0.2948
 5738SOL    HW128847   4.308   1.372   0.748 -2.7236  1.3510  1.2708
 5738SOL    HW228848   4.206   1.310   0.662 -0.5487  0.6419  0.6720
 5739SOL     OW28849   0.723   3.049  15.694 -0.7878 -0.1683 -1.2829
 5739SOL    HW128850   0.669   3.125  15.670 -1.3080  0.1414  0.8757
 5739SOL    HW228851   0.768   3.039  15.610  3.0518  2.1931  0.5071
 5740SOL     OW28852   2.269   2.935  15.337 -0.4399  0.1719  0.2959
 5740SOL    HW128853   2.270   2.861  15.397 -1.7576 -0.4320 -0.4200
 5740SOL    HW228854   2.217   2.893  15.269  1.6167 -0.9588 -0.5849
 5741SOL     OW28855   4.404   1.807   4.108 -0.1514  0.1251 -0.3521
 5741SOL    HW128856   4.380   1.900   4.106 -2.8478 -0.5942 -0.6766
 5741SOL    HW228857   4.383   1.788   4.017  0.6516  1.3156 -0.7891
 5742SOL     OW28858   1.751   2.409   9.814 -0.1333  0.1392  0.6483
 5742SOL    HW128859   1.777   2.337   9.757  1.4072  0.9750  0.2960
 5742SOL    HW228860   1.787   2.488   9.774  0.9163 -0.2357  0.8236
 5743SOL     OW28861   1.999   1.398   5.910 -0.6871  0.2953 -0.1561
 5743SOL    HW128862   2.047   1.376   5.989 -1.3680  2.8795  0.9699
 5743SOL    HW228863   1.981   1.311   5.872  0.2791 -1.0469  2.4843
 5744SOL     OW28864   2.422   2.835   5.476  0.8944 -0.1619  0.1603
 5744SOL    HW128865   2.455   2.760   5.527  0.0081  0.0921  1.1246
 5744SOL    HW228866   2.456   2.809   5.391 -1.6984 -0.0884 -0.9244
 5745SOL     OW28867   4.195   4.562   4.836  0.0948  0.0844 -0.2953
 5745SOL    HW128868   4.181   4.560   4.742 -1.8085  2.4627 -0.0670
 5745SOL    HW228869   4.216   4.471   4.854 -0.0076 -0.8679 -4.9909
 5746SOL     OW28870   2.287   3.684  11.063  0.6002  0.4598 -0.2412
 5746SOL    HW128871   2.208   3.630  11.065  0.4729  0.7829  2.8935
 5746SOL    HW228872   2.273   3.767  11.108 -1.1148 -0.5146  0.9701
 5747SOL     OW28873   2.874   4.520   6.276  0.0339  0.2298  0.0652
 5747SOL    HW128874   2.895   4.495   6.366 -1.4633 -0.1007  0.3159
 5747SOL    HW228875   2.785   4.555   6.281  0.2182  0.5099  1.4430
 5748SOL     OW28876   1.973   3.976  15.211  0.2824 -0.3389  0.1113
 5748SOL    HW128877   1.886   3.956  15.177 -0.2125  1.3256  0.3696
 5748SOL    HW228878   2.030   3.906  15.180  0.8972 -0.5424  1.6959
 5749SOL     OW28879   3.457   1.360   3.701  0.0774  0.0599  0.2356
 5749SOL    HW128880   3.432   1.365   3.609 -0.4500 -0.5010  0.3450
 5749SOL    HW228881   3.374   1.399   3.730 -0.0294  1.8431 -2.5128
 5750SOL     OW28882   0.213   4.126  15.268  0.3312  0.4951  0.1174
 5750SOL    HW128883   0.179   4.202  15.316 -1.4574 -0.7303  0.8231
 5750SOL    HW228884   0.303   4.129  15.300  0.0486 -0.4832  0.9928
 5751SOL     OW28885   3.448   4.176   4.186  0.2803 -0.0556 -0.5981
 5751SOL    HW128886   3.424   4.111   4.121  2.4190 -1.2310 -0.2296
 5751SOL    HW228887   3.389   4.248   4.165  1.7258  1.2456 -0.2461
 5752SOL     OW28888   3.411   1.704   6.702 -0.3487  0.6195  0.1487
 5752SOL    HW128889   3.387   1.701   6.794  1.3001 -0.8012  0.5333
 5752SOL    HW228890   3.485   1.644   6.708 -1.6793 -1.0674 -0.2767
 5753SOL     OW28891   3.935   2.469   1.406 -0.0803 -0.0043 -0.0018
 5753SOL    HW128892   3.954   2.562   1.418 -0.9465  0.2023 -0.2077
 5753SOL    HW228893   4.025   2.445   1.386 -0.0222 -1.9366  2.5102
 5754SOL     OW28894   1.464   4.125  11.736  0.2725  0.0358  0.6537
 5754SOL    HW128895   1.464   4.043  11.687 -0.1746 -1.1578  2.6603
 5754SOL    HW228896   1.505   4.176  11.666 -1.6294  2.5858  1.3867
 5755SOL     OW28897   4.194   4.311   5.917  0.4514  0.1192 -0.2921
 5755SOL    HW128898   4.156   4.281   6.000  1.6355  0.4636  0.3828
 5755SOL    HW228899   4.140   4.256   5.861  1.5622 -0.8857 -0.3816
 5756SOL     OW28900   0.620   1.747   4.709  0.3692 -0.1669 -0.4404
 5756SOL    HW128901   0.693   1.767   4.766  1.9642 -3.8545 -1.1986
 5756SOL    HW228902   0.583   1.834   4.692  0.0903 -0.3155 -0.5984
 5757SOL     OW28903   3.345   2.721   7.606 -0.0321  0.4184 -0.2145
 5757SOL    HW128904   3.324   2.808   7.572  0.4920  0.4878 -0.3544
 5757SOL    HW228905   3.439   2.725   7.590  0.3349 -2.4012  1.2630
 5758SOL     OW28906   4.734   0.324   3.867  0.0216 -0.1869 -0.1340
 5758SOL    HW128907   4.690   0.262   3.809 -0.0125 -1.5688  1.3784
 5758SOL    HW228908   4.659   0.373   3.898 -0.3654 -0.5137 -0.5581
 5759SOL     OW28909   4.370   3.326   1.380  0.0423 -0.3270 -0.2808
 5759SOL    HW128910   4.377   3.410   1.334 -2.6801 -0.4573 -0.9630
 5759SOL    HW228911   4.275   3.327   1.395  0.5598 -0.6002  2.8877
 5760SOL     OW28912   0.055   1.036   7.320 -0.6482  0.3446 -0.4303
 5760SOL    HW128913   0.121   1.071   7.261  0.6798  0.0589  0.8897
 5760SOL    HW228914   4.712   1.083   7.292  0.0677  0.7171 -1.8222
 5761SOL     OW28915   0.422   1.967   7.187 -0.1005 -0.3426 -0.3612
 5761SOL    HW128916   0.492   1.939   7.246 -0.5112  3.0308  1.7429
 5761SOL    HW228917   0.374   2.020   7.251  1.8981 -0.8879  1.5689
 5762SOL     OW28918   4.204   1.832  12.758 -0.3927  0.3156  0.1820
 5762SOL    HW128919   4.237   1.881  12.683 -0.6169  2.1517  1.2726
 5762SOL    HW228920   4.147   1.898  12.797  0.0507 -0.2936  1.8812
 5763SOL     OW28921   0.957   4.519   9.261 -0.2657  0.2186  0.3857
 5763SOL    HW128922   1.038   4.473   9.237 -0.2552  0.5079 -0.1312
 5763SOL    HW228923   0.990   4.609   9.248 -1.8033  0.7884  0.4900
 5764SOL     OW28924   2.985   0.440   7.134 -0.2150 -0.0935 -0.4943
 5764SOL    HW128925   2.957   0.531   7.130 -0.6680 -0.2373 -0.5796
 5764SOL    HW228926   2.996   0.436   7.229 -0.6453  1.0737 -0.4060
 5765SOL     OW28927   2.121   2.983   7.507  0.3031 -0.7533  0.6350
 5765SOL    HW128928   2.157   2.894   7.512 -3.3050 -2.3028 -0.3817
 5765SOL    HW228929   2.029   2.969   7.528  0.3257 -1.2325  0.4214
 5766SOL     OW28930   2.537   1.203   7.009 -0.1393 -0.0683  0.4491
 5766SOL    HW128931   2.621   1.172   7.042 -0.3844 -3.1082 -1.7819
 5766SOL    HW228932   2.493   1.119   6.998 -0.7003 -0.0095  2.1646
 5767SOL     OW28933   0.871   3.331   3.976  0.8626 -0.5715 -0.4425
 5767SOL    HW128934   0.875   3.249   4.025  1.2952  0.4422  1.2174
 5767SOL    HW228935   0.777   3.348   3.981  0.7838 -1.0810 -0.2551
 5768SOL     OW28936   0.146   2.732   2.134 -0.1582 -0.4601 -0.2027
 5768SOL    HW128937   0.138   2.791   2.060  2.2569  0.8402  0.5644
 5768SOL    HW228938   0.231   2.760   2.170 -0.4791  2.8688 -2.1236
 5769SOL     OW28939   2.356   3.827  10.144 -0.2196 -0.2723  0.0196
 5769SOL    HW128940   2.429   3.773  10.175  1.0719  0.6768 -1.3589
 5769SOL    HW228941   2.407   3.898  10.104 -0.6376  1.1702  2.0494
 5770SOL     OW28942   0.257   3.468   6.880  0.0124  0.3241 -0.6192
 5770SOL    HW128943   0.323   3.519   6.927 -1.0195  1.5919 -0.5446
 5770SOL    HW228944   0.308   3.444   6.803 -0.4055 -0.7589 -0.5613
 5771SOL     OW28945   1.029   1.396   4.207 -0.5624  0.3871  0.1837
 5771SOL    HW128946   1.075   1.410   4.124  1.5475  0.3800  1.3528
 5771SOL    HW228947   1.023   1.301   4.214  1.0945  0.3216  0.6152
 5772SOL     OW28948   1.571   0.106   8.608 -0.1640 -0.1209  0.2755
 5772SOL    HW128949   1.636   0.082   8.675  0.0823  2.1570  0.8693
 5772SOL    HW228950   1.623   0.167   8.556 -0.5845 -2.0753 -2.3874
 5773SOL     OW28951   2.681   4.101   6.474 -0.4581  0.0679 -0.3282
 5773SOL    HW128952   2.777   4.103   6.479 -0.4996 -0.3010  0.6079
 5773SOL    HW228953   2.652   4.191   6.458 -1.7907 -0.3169 -0.0811
 5774SOL     OW28954   0.028   0.697   1.862 -0.6169  0.2040 -0.1232
 5774SOL    HW128955   0.099   0.676   1.803 -1.0625  0.0986 -0.6198
 5774SOL    HW228956   0.061   0.683   1.951  0.8628 -1.2086 -0.9235
 5775SOL     OW28957   0.587   2.151   3.842  0.0475  0.0497  0.7425
 5775SOL    HW128958   0.627   2.101   3.771 -1.2543 -0.6056  0.4743
 5775SOL    HW228959   0.516   2.091   3.863 -0.1838  0.4343  1.0624
 5776SOL     OW28960   4.498   4.357   1.043  0.9910 -0.2175 -0.0994
 5776SOL    HW128961   4.474   4.448   1.058  1.2322  0.0008 -1.0450
 5776SOL    HW228962   4.542   4.323   1.122 -1.2622  0.9683  1.6819
 5777SOL     OW28963   3.217   0.262   2.164 -0.4947 -0.2783 -0.3114
 5777SOL    HW128964   3.212   0.354   2.190  1.3201 -0.3807  0.3721
 5777SOL    HW228965   3.231   0.274   2.070  1.4758 -1.1274 -0.1212
 5778SOL     OW28966   1.733   4.437  11.707 -0.0086 -0.0659  0.6840
 5778SOL    HW128967   1.759   4.372  11.772 -0.3713 -0.4337  0.4635
 5778SOL    HW228968   1.652   4.468  11.749 -0.5311  1.0621 -1.1560
 5779SOL     OW28969   3.270   1.140  10.944  0.6910  0.1704 -0.2563
 5779SOL    HW128970   3.243   1.070  11.004 -1.9067  1.0885 -0.3616
 5779SOL    HW228971   3.196   1.198  10.962 -0.0189 -1.5615  2.4736
 5780SOL     OW28972   4.579   2.566   3.900 -0.2321 -0.4519 -0.8204
 5780SOL    HW128973   4.645   2.603   3.958  0.1147 -1.0106 -0.8587
 5780SOL    HW228974   4.541   2.509   3.966 -1.1212  0.5216 -0.4952
 5781SOL     OW28975   1.405   3.319   6.264 -0.1022  0.8305 -0.0174
 5781SOL    HW128976   1.478   3.311   6.202  0.9156  1.5550  1.0851
 5781SOL    HW228977   1.332   3.305   6.205  2.4655  0.7981 -3.1705
 5782SOL     OW28978   4.640   1.134   8.279  0.2002  0.7913  0.4252
 5782SOL    HW128979   4.652   1.061   8.340  2.2157  1.4265  0.7900
 5782SOL    HW228980   4.545   1.124   8.268  0.5686 -0.2723 -1.9330
 5783SOL     OW28981   3.318   4.087  16.309  0.4754  0.3578 -0.6909
 5783SOL    HW128982   3.293   4.077  16.400  0.4004  2.2634 -0.4908
 5783SOL    HW228983   3.350   4.177  16.323 -2.1421  1.5144 -2.1386
 5784SOL     OW28984   1.044   2.666   8.200  0.3653 -0.1187 -0.1694
 5784SOL    HW128985   1.131   2.628   8.185  0.5380 -0.0566  0.6720
 5784SOL    HW228986   0.989   2.590   8.216  0.2620 -0.1965 -0.8929
 5785SOL     OW28987   2.389   2.986   2.152 -0.2849  0.1114  0.3458
 5785SOL    HW128988   2.481   2.963   2.167 -0.5223 -0.6741  0.6062
 5785SOL    HW228989   2.387   2.997   2.057 -1.3753  0.0269  0.3569
 5786SOL     OW28990   3.156   2.084   3.760  0.0641  0.1479 -0.1778
 5786SOL    HW128991   3.230   2.048   3.809 -0.0674 -1.4277 -1.1244
 5786SOL    HW228992   3.147   2.159   3.819 -0.8252 -1.5144  1.8154
 5787SOL     OW28993   1.042   2.980   0.887 -0.8327 -0.6116  0.1401
 5787SOL    HW128994   1.051   3.075   0.882  0.4079 -0.8070 -1.5563
 5787SOL    HW228995   0.969   2.964   0.827  0.0392  0.2156 -1.1624
 5788SOL     OW28996   4.356   0.590   7.342  0.4777  0.7596 -0.4712
 5788SOL    HW128997   4.276   0.558   7.383  1.4128 -2.0841 -0.8601
 5788SOL    HW228998   4.333   0.682   7.336 -0.4039  0.5899  0.3713
 5789SOL     OW28999   4.630   3.668   3.496  0.0190 -0.1616  0.0520
 5789SOL    HW129000   4.551   3.616   3.511  0.0541  0.4667  2.3444
 5789SOL    HW229001   4.602   3.758   3.475 -2.6266 -0.7704  0.9010
 5790SOL     OW29002   4.204   2.060   2.993 -0.4360  0.3071 -0.1357
 5790SOL    HW129003   4.130   2.119   2.979 -0.9941  0.1253  2.0914
 5790SOL    HW229004   4.261   2.083   2.919  0.5088 -2.5166 -0.2652
 5791SOL     OW29005   3.860   0.732  14.164 -0.5194  0.4217  0.1874
 5791SOL    HW129006   3.805   0.763  14.092  0.6222  3.8349  0.7859
 5791SOL    HW229007   3.933   0.795  14.168  0.0593 -0.1078 -1.7710
 5792SOL     OW29008   1.780   2.814   8.482  0.0499  0.1819 -0.1658
 5792SOL    HW129009   1.847   2.881   8.489 -1.0118  1.3391 -1.0117
 5792SOL    HW229010   1.755   2.807   8.389 -1.6933  1.8906  0.1827
 5793SOL     OW29011   2.888   2.499   1.551  0.3807  0.1170  0.2772
 5793SOL    HW129012   2.873   2.576   1.497  0.0863 -0.8651 -1.0409
 5793SOL    HW229013   2.802   2.456   1.550  0.1767  0.5354 -0.1429
 5794SOL     OW29014   1.508   2.008  14.896  0.4926 -0.3940  0.2850
 5794SOL    HW129015   1.568   1.943  14.934  1.3209  0.8748  1.1382
 5794SOL    HW229016   1.475   1.957  14.822 -1.4819  1.5942 -0.1909
 5795SOL     OW29017   1.653   2.054  12.425 -0.6578  0.2370  0.0174
 5795SOL    HW129018   1.737   2.092  12.451 -0.9890  0.0116  1.4414
 5795SOL    HW229019   1.605   2.078  12.504  0.4888  0.4332  0.6557
 5796SOL     OW29020   4.591   4.270   7.303  0.2034  0.0195  0.2008
 5796SOL    HW129021   4.556   4.275   7.393  0.5403  0.5382  0.3056
 5796SOL    HW229022   4.679   4.295   7.331  0.5366 -0.5191 -0.3819
 5797SOL     OW29023   2.017   0.634  14.586 -0.2286 -0.1975 -0.1713
 5797SOL    HW129024   1.961   0.569  14.628 -0.0462 -0.0337  0.3294
 5797SOL    HW229025   2.018   0.701  14.654  1.4540 -0.8053  0.4016
 5798SOL     OW29026   2.732   0.611  12.100  0.1395  0.5449 -0.0143
 5798SOL    HW129027   2.732   0.689  12.156 -1.7733  1.4144 -1.2126
 5798SOL    HW229028   2.722   0.641  12.010 -0.0607  0.6215  0.0323
 5799SOL     OW29029   0.771   0.833  10.168  0.6473  0.2067  0.0368
 5799SOL    HW129030   0.825   0.763  10.205  2.9535  1.4503 -0.9740
 5799SOL    HW229031   0.698   0.780  10.135  1.0734 -1.6195  2.0167
 5800SOL     OW29032   0.026   1.869   2.372 -0.2023  0.4013  0.4383
 5800SOL    HW129033   4.713   1.835   2.298 -0.4608  1.2642  0.2173
 5800SOL    HW229034   0.117   1.847   2.350 -1.0180 -0.6898 -1.8213
 5801SOL     OW29035   3.614   1.176  11.697  0.0448  0.2397 -0.0491
 5801SOL    HW129036   3.543   1.164  11.760 -0.1627  2.0672  0.0549
 5801SOL    HW229037   3.691   1.182  11.753 -0.1269  0.0384  0.2079
 5802SOL     OW29038   2.436   1.918   6.661  0.1876  0.0784 -0.1359
 5802SOL    HW129039   2.355   1.961   6.686  1.0069  2.0559 -0.9118
 5802SOL    HW229040   2.398   1.834   6.633 -0.1402 -0.0123  0.5807
 5803SOL     OW29041   3.143   0.203  16.560 -0.1130 -0.2926 -0.6314
 5803SOL    HW129042   3.111   0.118  16.590 -1.2831  1.4155  2.9754
 5803SOL    HW229043   3.199   0.226  16.635 -1.3224 -0.7652  0.4174
 5804SOL     OW29044   4.315   4.501   5.401 -0.1109 -0.0216 -0.1205
 5804SOL    HW129045   4.317   4.562   5.476  1.0701  1.2559 -1.1835
 5804SOL    HW229046   4.325   4.563   5.329 -0.4836 -0.0113 -0.1624
 5805SOL     OW29047   3.533   0.033   4.531  0.3045 -0.5732  0.2369
 5805SOL    HW129048   3.626   0.055   4.538  0.3525 -0.3645 -1.0583
 5805SOL    HW229049   3.517   4.708   4.603 -0.2442 -2.1072 -1.1839
 5806SOL     OW29050   2.578   0.834   8.452 -0.0408  0.0673  0.3384
 5806SOL    HW129051   2.546   0.855   8.365  2.3436 -0.8341 -0.7791
 5806SOL    HW229052   2.534   0.750   8.465  0.0866 -0.2503 -1.2194
 5807SOL     OW29053   0.228   0.511   3.041  0.7445  0.4408 -0.2498
 5807SOL    HW129054   0.214   0.432   2.987 -0.2348  0.8433 -0.5844
 5807SOL    HW229055   0.183   0.574   2.985  0.5811 -1.9600 -2.8844
 5808SOL     OW29056   1.878   0.530   5.980 -0.3590 -0.3875 -0.3637
 5808SOL    HW129057   1.916   0.443   5.976 -0.6608 -0.6281  1.8705
 5808SOL    HW229058   1.807   0.518   6.044 -1.3744  2.4518 -0.9210
 5809SOL     OW29059   0.038   3.772   5.331  0.3941  0.3121 -0.6358
 5809SOL    HW129060   0.107   3.806   5.274 -0.8534 -0.0333 -2.3427
 5809SOL    HW229061   0.042   3.677   5.333  2.4475  0.4033 -0.1183
 5810SOL     OW29062   0.758   4.591   6.701 -0.3829 -0.0338  0.5177
 5810SOL    HW129063   0.830   4.541   6.739  1.0836  0.9241 -1.0127
 5810SOL    HW229064   0.775   4.570   6.609 -0.1883  1.2178  0.2728
 5811SOL     OW29065   2.080   4.112  16.186 -0.0570  0.2998  0.8909
 5811SOL    HW129066   2.061   4.085  16.276 -1.2391 -0.8518  0.2820
 5811SOL    HW229067   2.054   4.039  16.131 -0.8527  2.0757 -1.0865
 5812SOL     OW29068   3.943   2.851   4.372 -0.4953  0.5762  0.1047
 5812SOL    HW129069   4.020   2.897   4.407 -0.6725  0.3581  0.7940
 5812SOL    HW229070   3.875   2.905   4.412 -1.4883  0.2943 -1.1997
 5813SOL     OW29071   4.035   1.407   6.771  0.6556 -0.2794  0.1363
 5813SOL    HW129072   4.118   1.361   6.782  0.9837  0.3035  0.0829
 5813SOL    HW229073   4.001   1.336   6.718  0.5756 -1.2697  1.5035
 5814SOL     OW29074   4.347   3.769  15.591 -0.4045 -0.2024 -0.2371
 5814SOL    HW129075   4.267   3.809  15.557 -1.3474 -2.1132 -0.2707
 5814SOL    HW229076   4.393   3.725  15.520  0.3128 -0.5543  0.4357
 5815SOL     OW29077   4.091   3.479   1.615  0.2847 -0.5774  0.2021
 5815SOL    HW129078   4.112   3.559   1.568  0.8238 -2.5360 -2.9585
 5815SOL    HW229079   4.093   3.417   1.541 -2.9346 -0.9326  0.4222
 5816SOL     OW29080   1.826   1.620   1.993 -0.0955  0.6663 -0.0479
 5816SOL    HW129081   1.752   1.578   1.949 -1.2854  2.1160  0.5695
 5816SOL    HW229082   1.878   1.658   1.922 -0.9767  1.9730  0.0177
 5817SOL     OW29083   0.786   3.871   2.009  0.3799 -0.4106  0.4722
 5817SOL    HW129084   0.835   3.804   2.057  0.1554  0.3005  1.6844
 5817SOL    HW229085   0.862   3.902   1.959 -0.3604  0.2025 -0.2658
 5818SOL     OW29086   3.536   0.435   1.466 -0.6110 -0.1448  0.2757
 5818SOL    HW129087   3.496   0.459   1.383 -0.3886 -4.0730 -0.9749
 5818SOL    HW229088   3.613   0.404   1.419 -1.3761 -0.1895 -0.9398
 5819SOL     OW29089   3.877   2.912   8.319  0.2233  0.1257  0.3973
 5819SOL    HW129090   3.835   2.834   8.282  1.5159 -0.5617  0.4001
 5819SOL    HW229091   3.961   2.877   8.346 -0.2547 -0.7697  0.7253
 5820SOL     OW29092   0.571   4.546  10.951  0.1359 -0.2174  0.1851
 5820SOL    HW129093   0.547   4.454  10.940 -0.9275  0.0516  0.3072
 5820SOL    HW229094   0.619   4.558  10.869 -1.2673 -0.3152 -0.6531
 5821SOL     OW29095   4.295   3.095   4.861 -0.1931 -0.2668 -0.0903
 5821SOL    HW129096   4.233   3.164   4.834  0.7787  0.0725 -1.4524
 5821SOL    HW229097   4.361   3.085   4.793  0.3458  0.6569  0.2941
 5822SOL     OW29098   0.513   3.430   4.996 -0.4948  0.0713  0.4424
 5822SOL    HW129099   0.484   3.514   4.961  0.8160 -0.3640 -1.6869
 5822SOL    HW229100   0.596   3.420   4.949 -0.9648  0.2806 -0.4297
 5823SOL     OW29101   3.085   2.315   7.245 -0.0201  0.2599  0.1790
 5823SOL    HW129102   3.163   2.369   7.228  0.8050 -0.9974 -0.0700
 5823SOL    HW229103   3.023   2.351   7.182 -2.0459 -1.8463  0.9817
 5824SOL     OW29104   2.523   3.099   3.456  0.2539 -0.5452 -0.0816
 5824SOL    HW129105   2.561   3.103   3.543 -0.5582  0.1048  0.2504
 5824SOL    HW229106   2.601   3.128   3.409 -2.2588  3.7879 -1.6947
 5825SOL     OW29107   0.293   4.579   5.510 -0.1630 -0.0343 -0.5694
 5825SOL    HW129108   0.378   4.619   5.490 -0.7086  0.1827 -2.4711
 5825SOL    HW229109   0.237   4.629   5.452 -2.0127  0.5177  1.6783
 5826SOL     OW29110   1.948   1.994   3.431  0.1029  0.1944 -0.3728
 5826SOL    HW129111   1.954   2.061   3.500 -3.2877  0.4717 -0.3607
 5826SOL    HW229112   1.882   2.029   3.372 -1.7980 -0.5050  1.3718
 5827SOL     OW29113   0.644   0.952   5.492 -0.1533  0.5188 -0.1253
 5827SOL    HW129114   0.564   0.926   5.538  0.2636  0.0244  0.3154
 5827SOL    HW229115   0.669   0.863   5.469 -0.0361  0.6412 -0.4654
 5828SOL     OW29116   2.797   2.303   3.444  0.0150 -0.1639 -0.1001
 5828SOL    HW129117   2.755   2.345   3.519  3.2965  1.1700  1.0026
 5828SOL    HW229118   2.874   2.267   3.489 -0.9288 -1.2640  0.6342
 5829SOL     OW29119   2.232   3.209   6.070 -0.0102 -0.3354 -0.3374
 5829SOL    HW129120   2.221   3.302   6.050 -2.2446 -0.5882 -0.2859
 5829SOL    HW229121   2.327   3.208   6.057 -0.4138  0.5104 -3.3278
 5830SOL     OW29122   3.307   1.838   1.573 -0.2187 -0.0957  0.1103
 5830SOL    HW129123   3.289   1.932   1.579  1.8995  0.3000  0.1764
 5830SOL    HW229124   3.391   1.836   1.527  0.7275 -1.0055  1.8726
 5831SOL     OW29125   3.144   4.014  12.140 -0.1859  0.1936 -0.2776
 5831SOL    HW129126   3.169   4.014  12.233  2.2290  1.4191 -0.9550
 5831SOL    HW229127   3.050   4.013  12.160  0.3148  1.9525  2.1738
 5832SOL     OW29128   0.880   1.227   3.436 -0.1026  0.3280 -0.2506
 5832SOL    HW129129   0.796   1.240   3.481  0.5170  1.6606  0.5213
 5832SOL    HW229130   0.848   1.178   3.360 -1.2400  1.2339 -0.3610
 5833SOL     OW29131   2.372   1.985   2.026 -0.2037  0.2167  0.0951
 5833SOL    HW129132   2.321   1.904   2.035  0.1895 -0.1047 -0.5953
 5833SOL    HW229133   2.376   1.998   1.932  2.1845 -2.7643 -0.2006
 5834SOL     OW29134   2.161   0.723   3.769 -0.0536  0.2076  0.2000
 5834SOL    HW129135   2.245   0.728   3.813  0.9415  0.1846 -1.6783
 5834SOL    HW229136   2.100   0.779   3.818  0.1325 -0.2573  0.9590
 5835SOL     OW29137   4.167   3.948   6.503 -0.4694  0.5743 -0.0961
 5835SOL    HW129138   4.174   3.925   6.595  1.9654 -0.4750 -0.5412
 5835SOL    HW229139   4.230   3.881   6.476 -2.0434 -0.9164 -0.0530
 5836SOL     OW29140   1.283   3.110   1.844 -0.1940 -0.2109 -0.3332
 5836SOL    HW129141   1.287   3.109   1.940 -1.7006  0.3017 -0.2538
 5836SOL    HW229142   1.337   3.187   1.827 -1.3939  1.0140  1.3753
 5837SOL     OW29143   0.637   0.249   7.357 -0.2956  0.4142  0.1100
 5837SOL    HW129144   0.689   0.326   7.381  1.3718 -1.1350  1.5008
 5837SOL    HW229145   0.596   0.290   7.281 -0.4572  1.3845  0.7166
 5838SOL     OW29146   2.929   3.336  16.274  0.7184  0.4066 -0.1598
 5838SOL    HW129147   2.843   3.372  16.253 -0.0561 -1.4145 -0.1140
 5838SOL    HW229148   2.911   3.244  16.290  0.3541  0.2266 -1.6333
 5839SOL     OW29149   3.999   4.177   6.139  0.2308 -0.0507  0.0294
 5839SOL    HW129150   3.989   4.082   6.143  2.4929 -0.2636  1.1287
 5839SOL    HW229151   4.030   4.180   6.230 -1.1741 -1.2230  0.5488
 5840SOL     OW29152   1.354   1.991   5.404  0.4825 -0.3504 -0.4416
 5840SOL    HW129153   1.363   2.084   5.426 -1.5128 -0.7891  2.2044
 5840SOL    HW229154   1.420   1.981   5.335  0.7871  0.2765 -0.2461
 5841SOL     OW29155   2.229   1.403  12.123 -0.3658 -0.3672  0.9471
 5841SOL    HW129156   2.150   1.412  12.071 -0.3553  1.4104  1.2328
 5841SOL    HW229157   2.291   1.409  12.050 -1.0517 -0.4415  0.3680
 5842SOL     OW29158   0.637   3.368   9.272 -0.3656 -0.0885 -0.6654
 5842SOL    HW129159   0.553   3.372   9.227 -0.1229 -0.2818 -1.1454
 5842SOL    HW229160   0.656   3.462   9.279 -1.0218 -0.0208  0.1360
 5843SOL     OW29161   4.366   1.166   3.219 -0.0388  0.6904 -0.4661
 5843SOL    HW129162   4.347   1.073   3.232  2.4640  0.0482 -1.3870
 5843SOL    HW229163   4.391   1.209   3.301 -1.0046  2.7015 -1.2518
 5844SOL     OW29164   0.504   2.556  11.560 -0.6239  0.3356  0.3343
 5844SOL    HW129165   0.451   2.621  11.515 -0.4851  0.8991  0.9835
 5844SOL    HW229166   0.558   2.613  11.615  0.7752 -1.9772  1.3376
 5845SOL     OW29167   2.012   4.076  12.034 -0.1080  0.3020  0.1895
 5845SOL    HW129168   2.091   4.119  12.066 -0.6398  2.7273 -1.8135
 5845SOL    HW229169   1.945   4.105  12.096 -1.0530  2.1409 -1.7334
 5846SOL     OW29170   3.841   4.691   2.481  0.0148  0.0826  0.1832
 5846SOL    HW129171   3.864   4.598   2.477  0.5291  0.2188 -0.0591
 5846SOL    HW229172   3.850   4.713   2.388  0.4427 -0.6575  0.0472
 5847SOL     OW29173   3.015   0.200   8.895  0.2981  0.2657  0.1551
 5847SOL    HW129174   3.009   0.105   8.884  0.0302  0.1310  1.5721
 5847SOL    HW229175   3.054   0.217   8.980 -2.1082 -1.2128  1.5484
 5848SOL     OW29176   0.601   2.031   6.118 -0.1767  0.1706  0.0260
 5848SOL    HW129177   0.696   2.044   6.125  0.1138 -2.2853  0.6993
 5848SOL    HW229178   0.569   2.109   6.162  0.8986  0.2576  0.6533
 5849SOL     OW29179   4.565   3.233   2.902  0.1183 -0.5821  0.1115
 5849SOL    HW129180   4.659   3.229   2.920 -0.1002 -0.5365  1.3148
 5849SOL    HW229181   4.544   3.140   2.905  1.8916 -0.9439  1.7539
 5850SOL     OW29182   1.083   1.048   1.285  0.1920 -0.2799 -0.0762
 5850SOL    HW129183   1.054   1.050   1.194  0.4512  0.2036 -0.1517
 5850SOL    HW229184   1.100   1.142   1.296 -1.3609  0.1471 -1.2729
 5851SOL     OW29185   1.734   3.294  12.681 -0.6874  0.3808  0.3078
 5851SOL    HW129186   1.667   3.356  12.652  1.7198  1.9324 -1.9323
 5851SOL    HW229187   1.689   3.233  12.740 -0.2972 -0.6391 -0.4476
 5852SOL     OW29188   2.867   3.883   3.831 -0.4149 -0.3585  0.5145
 5852SOL    HW129189   2.854   3.964   3.782 -1.3324 -0.6368  0.3069
 5852SOL    HW229190   2.887   3.827   3.757 -1.0877 -1.3359  1.0732
 5853SOL     OW29191   1.901   0.082   5.816  0.5922  0.3303 -0.2866
 5853SOL    HW129192   1.944   0.071   5.731  0.9387 -0.8989  0.0387
 5853SOL    HW229193   1.928   0.002   5.862 -0.9171  0.9734  1.6950
 5854SOL     OW29194   4.232   0.095   8.177  0.1929 -0.2915  0.2980
 5854SOL    HW129195   4.257   0.073   8.267 -2.4679  0.6003  1.2763
 5854SOL    HW229196   4.266   0.183   8.163 -2.1371  0.9139  2.0350
 5855SOL     OW29197   0.462   0.683  12.246  0.6603 -0.2864  0.3238
 5855SOL    HW129198   0.404   0.641  12.310  0.0092 -0.3677 -0.3234
 5855SOL    HW229199   0.526   0.612  12.244  0.7881 -0.1939  0.8829
 5856SOL     OW29200   1.296   0.244   8.769 -0.2873 -0.1762  0.5305
 5856SOL    HW129201   1.390   0.257   8.787  0.1625  0.9584 -2.6590
 5856SOL    HW229202   1.277   0.331   8.733 -0.1530 -0.8119 -1.0669
 5857SOL     OW29203   0.669   1.599   9.108 -0.3562  0.1411 -0.4478
 5857SOL    HW129204   0.661   1.690   9.134 -2.1279  0.5865 -2.5652
 5857SOL    HW229205   0.579   1.586   9.079 -0.7479  0.2871  0.7288
 5858SOL     OW29206   4.697   4.384   3.143 -0.5262 -0.2345 -0.6574
 5858SOL    HW129207   4.660   4.456   3.092 -0.6175  0.1498 -0.0489
 5858SOL    HW229208   4.636   4.368   3.216 -1.6713 -1.0532 -1.7891
 5859SOL     OW29209   1.950   0.670   1.169 -0.6213 -0.3295  0.4125
 5859SOL    HW129210   1.947   0.623   1.252 -1.8452 -0.2459  0.4280
 5859SOL    HW229211   2.036   0.711   1.180  0.0783 -1.8155  0.4355
 5860SOL     OW29212   4.268   2.836   7.068 -0.2908  0.6178  0.0321
 5860SOL    HW129213   4.215   2.912   7.045  1.0033  1.3988 -0.3766
 5860SOL    HW229214   4.256   2.767   7.003 -2.1939  0.5119  0.5079
 5861SOL     OW29215   1.250   0.355   4.838  0.3150 -0.2355  0.3990
 5861SOL    HW129216   1.298   0.363   4.756 -1.0436  0.9465 -0.2719
 5861SOL    HW229217   1.213   0.268   4.830  0.1235 -0.1930  0.8228
 5862SOL     OW29218   1.748   0.598   6.376  0.0866 -0.2140  0.3127
 5862SOL    HW129219   1.762   0.544   6.454 -0.0120 -0.3173  0.2575
 5862SOL    HW229220   1.741   0.525   6.314 -0.4319  0.2252 -0.1461
 5863SOL     OW29221   0.895   0.069   4.781  0.3124 -0.1037 -0.1727
 5863SOL    HW129222   0.851   0.006   4.724 -1.1062  0.8305 -0.1069
 5863SOL    HW229223   0.829   0.138   4.785  1.5204  1.0639 -0.2692
 5864SOL     OW29224   2.551   1.003   2.080  0.3681  0.1354 -0.6522
 5864SOL    HW129225   2.576   1.079   2.132  1.6212 -0.5885 -0.1841
 5864SOL    HW229226   2.468   1.036   2.048  0.3681 -0.2136 -1.0217
 5865SOL     OW29227   3.225   0.074  14.868 -0.0528  0.4647  0.8635
 5865SOL    HW129228   3.283   0.107  14.937  1.5062  0.5524 -0.4890
 5865SOL    HW229229   3.163   0.026  14.923 -0.7928  1.8005  1.2059
 5866SOL     OW29230   0.716   2.570   8.232  1.0940 -0.5041  0.0074
 5866SOL    HW129231   0.693   2.603   8.319 -0.0559  1.3867 -1.0116
 5866SOL    HW229232   0.631   2.539   8.202  1.6501 -2.8175  0.7784
 5867SOL     OW29233   1.412   3.115  14.454 -0.8228  0.8144  0.1222
 5867SOL    HW129234   1.319   3.132  14.469 -0.6518  0.9985  0.9705
 5867SOL    HW229235   1.452   3.128  14.540 -1.8521  0.7768  0.6039
 5868SOL     OW29236   2.111   1.194   7.966 -0.2706  0.2283 -0.3581
 5868SOL    HW129237   2.133   1.102   7.950 -0.5694 -0.1250  1.3308
 5868SOL    HW229238   2.166   1.240   8.028 -0.1794  0.4177 -0.5779
 5869SOL     OW29239   2.276   3.833  16.249  0.5343  0.3108 -0.0468
 5869SOL    HW129240   2.309   3.785  16.325 -1.1749 -2.0278 -0.7696
 5869SOL    HW229241   2.182   3.814  16.241  0.7970 -1.4576  0.9430
 5870SOL     OW29242   0.603   2.595   4.998 -0.3649  0.3526 -0.0667
 5870SOL    HW129243   0.605   2.555   5.085 -0.0193 -0.6451 -0.5409
 5870SOL    HW229244   0.624   2.686   5.021  0.7148  0.7096 -2.5129
 5871SOL     OW29245   0.181   4.607  16.843 -0.4235 -0.0944  0.0249
 5871SOL    HW129246   0.210   4.599  16.752 -0.8387  0.8670 -0.1918
 5871SOL    HW229247   0.181   4.703  16.846  0.4699 -0.0704 -0.8116
 5872SOL     OW29248   0.796   4.379   5.858 -0.1895  0.5665  0.4661
 5872SOL    HW129249   0.758   4.464   5.841 -2.8403 -1.1376 -2.0547
 5872SOL    HW229250   0.849   4.394   5.937  1.4826  0.2249 -0.5850
 5873SOL     OW29251   2.358   1.382   4.353 -0.2031  0.1566  0.3918
 5873SOL    HW129252   2.314   1.421   4.428 -1.2838  0.9751 -0.6651
 5873SOL    HW229253   2.450   1.407   4.367  0.4517 -1.3302 -1.2768
 5874SOL     OW29254   3.224   1.164   1.831  0.5717  0.2082  0.1658
 5874SOL    HW129255   3.261   1.155   1.743 -1.8877  1.3607 -0.9631
 5874SOL    HW229256   3.304   1.166   1.883  0.2341 -0.1842  0.7000
 5875SOL     OW29257   3.765   2.756   3.994 -0.1340  0.5993 -0.2178
 5875SOL    HW129258   3.855   2.783   4.012 -0.9187  2.9406  0.1282
 5875SOL    HW229259   3.706   2.806   4.050  0.6206 -0.5122  1.5728
 5876SOL     OW29260   1.362   1.670   4.354  0.0422 -0.3454  0.4070
 5876SOL    HW129261   1.322   1.591   4.318  0.1856 -0.6596  0.9353
 5876SOL    HW229262   1.455   1.646   4.355 -0.0083 -0.5488  0.1055
 5877SOL     OW29263   2.920   4.118   1.955  0.1767  0.0394  0.1964
 5877SOL    HW129264   2.856   4.054   1.987 -2.6150  2.8371  0.2631
 5877SOL    HW229265   2.905   4.114   1.861 -1.2569  0.2773  0.4114
 5878SOL     OW29266   3.181   2.260   3.536  0.1339 -0.0798  0.4709
 5878SOL    HW129267   3.235   2.332   3.568  1.9818 -1.3980  0.2910
 5878SOL    HW229268   3.159   2.204   3.611  1.6934 -2.2780 -0.6864
 5879SOL     OW29269   0.691   0.183   4.510  0.4783 -0.1922 -0.3154
 5879SOL    HW129270   0.732   0.173   4.424 -1.8526  1.9616 -1.6955
 5879SOL    HW229271   0.664   0.274   4.496 -0.4044 -0.4086 -0.0307
 5880SOL     OW29272   4.571   0.524   2.192  0.8141  0.1994  0.2212
 5880SOL    HW129273   4.647   0.567   2.233  0.9670  1.6352 -1.5891
 5880SOL    HW229274   4.607   0.439   2.167 -0.4313  0.2829 -1.8012
 5881SOL     OW29275   2.401   0.673  14.114 -0.0762 -0.3129 -0.2469
 5881SOL    HW129276   2.332   0.608  14.121  0.3641 -0.7177  0.4116
 5881SOL    HW229277   2.405   0.683  14.019  3.1160  0.6054 -0.0431
 5882SOL     OW29278   2.629   0.694   1.947 -0.2434  0.1443 -0.0582
 5882SOL    HW129279   2.538   0.709   1.920  0.0979 -0.4623 -1.5393
 5882SOL    HW229280   2.646   0.788   1.936 -2.8917  0.6090 -0.2487
 5883SOL     OW29281   1.244   4.511   7.765  0.0459 -0.2735  0.4259
 5883SOL    HW129282   1.309   4.557   7.818  1.6378 -0.5086 -1.3203
 5883SOL    HW229283   1.161   4.538   7.803  0.1770 -0.0501  0.5471
 5884SOL     OW29284   4.523   2.839  10.183  0.0635  0.7048 -0.1211
 5884SOL    HW129285   4.567   2.758  10.208  0.1070  0.9278  0.5293
 5884SOL    HW229286   4.461   2.814  10.114  0.0388  1.2543 -0.3021
 5885SOL     OW29287   1.357   3.181  14.963 -0.3182  0.6572 -0.3861
 5885SOL    HW129288   1.263   3.179  14.945 -0.0576 -2.5732 -1.2888
 5885SOL    HW229289   1.373   3.088  14.947 -0.6033  0.4414  0.5871
 5886SOL     OW29290   1.448   4.532   4.154  0.4785  0.7580 -0.3103
 5886SOL    HW129291   1.498   4.458   4.119  2.1228  0.4919  2.5549
 5886SOL    HW229292   1.512   4.577   4.209 -0.4613 -0.5439  1.8335
 5887SOL     OW29293   1.033   3.253  12.541  0.1726  0.6473 -0.0847
 5887SOL    HW129294   1.016   3.174  12.490  0.3777  1.0196 -0.7177
 5887SOL    HW229295   1.015   3.219  12.629  0.9926  1.4812  0.3955
 5888SOL     OW29296   3.068   2.377   5.389  0.0146  0.3784 -0.1198
 5888SOL    HW129297   3.002   2.392   5.457 -0.5681  0.0622 -0.6166
 5888SOL    HW229298   3.012   2.340   5.320  0.2275  2.4353 -1.3649
 5889SOL     OW29299   1.633   0.489   9.237 -0.1303  0.3482  0.0091
 5889SOL    HW129300   1.542   0.515   9.223 -0.4567 -0.5143  0.5145
 5889SOL    HW229301   1.688   0.539   9.177  1.4871 -0.3053  0.9231
 5890SOL     OW29302   0.365   2.641   9.541 -0.1130  0.3556 -0.2889
 5890SOL    HW129303   0.420   2.586   9.484 -1.8421 -1.2938 -0.3817
 5890SOL    HW229304   0.435   2.697   9.574 -1.9061  1.0467  2.3315
 5891SOL     OW29305   0.536   0.588   7.616 -0.3005  0.4035  0.2667
 5891SOL    HW129306   0.537   0.663   7.676  1.5292  0.3038  0.3786
 5891SOL    HW229307   0.572   0.631   7.539  2.7027  1.0769  2.0231
 5892SOL     OW29308   1.046   1.377  12.594  0.1064 -0.0561 -0.2775
 5892SOL    HW129309   1.053   1.285  12.622 -0.6465 -0.3924 -1.1993
 5892SOL    HW229310   0.974   1.365  12.532  0.1619 -0.4255 -0.2704
 5893SOL     OW29311   1.506   2.160   9.671 -0.1746 -0.5163  0.3829
 5893SOL    HW129312   1.461   2.244   9.661  1.1359  0.0614 -0.6480
 5893SOL    HW229313   1.595   2.177   9.639 -0.4080 -0.9180 -0.4659
 5894SOL     OW29314   0.465   1.213   4.416  0.0077  0.1035  0.5988
 5894SOL    HW129315   0.446   1.167   4.497  1.3387  2.8254  2.4419
 5894SOL    HW229316   0.548   1.256   4.437  0.4603 -0.8725  0.7829
 5895SOL     OW29317   4.527   3.170   7.549  0.2185 -0.9942 -0.2530
 5895SOL    HW129318   4.590   3.243   7.548 -2.0542  0.9916  2.4787
 5895SOL    HW229319   4.513   3.151   7.456 -2.9186  0.1731 -0.0135
 5896SOL     OW29320   3.364   3.783  13.717 -0.5704 -0.1021 -0.1988
 5896SOL    HW129321   3.382   3.775  13.811 -1.3197  0.4415 -0.0074
 5896SOL    HW229322   3.279   3.827  13.710  0.1319  1.3883  0.3758
 5897SOL     OW29323   4.052   4.119   8.645 -0.1227  0.2404 -0.0034
 5897SOL    HW129324   4.059   4.142   8.552 -0.3968  1.3915  0.2574
 5897SOL    HW229325   4.080   4.028   8.649 -0.2554  0.2208  0.4186
 5898SOL     OW29326   2.717   3.826   5.371 -0.0263 -0.4444  0.1579
 5898SOL    HW129327   2.778   3.899   5.380 -0.6754  0.0306  0.6913
 5898SOL    HW229328   2.762   3.777   5.440  1.2270  0.8965  0.2898
 5899SOL     OW29329   2.942   0.024  15.913 -0.5675  0.2502  0.0924
 5899SOL    HW129330   2.994   4.682  15.890 -2.9122 -0.5662 -2.4323
 5899SOL    HW229331   2.882   0.031  15.839  0.2087 -1.3174 -0.6947
 5900SOL     OW29332   4.556   1.213   4.146 -0.6097  0.8927 -0.6218
 5900SOL    HW129333   4.605   1.291   4.172  0.9745 -0.1904 -0.3494
 5900SOL    HW229334   4.467   1.242   4.129 -1.2812 -1.6598 -1.4998
 5901SOL     OW29335   3.370   0.301   8.540  0.1613 -0.5101 -0.9583
 5901SOL    HW129336   3.361   0.394   8.561 -0.0846 -0.5723 -0.7897
 5901SOL    HW229337   3.289   0.269   8.579 -0.6896  0.9499 -1.5356
 5902SOL     OW29338   2.774   1.888  10.277  0.4260 -0.4173  0.2631
 5902SOL    HW129339   2.850   1.874  10.333 -0.1726 -0.4100  1.0656
 5902SOL    HW229340   2.810   1.946  10.209 -0.3542 -0.3737 -0.1112
 5903SOL     OW29341   1.972   4.260  16.533  0.1477 -0.2784  0.2791
 5903SOL    HW129342   1.952   4.172  16.499 -0.6946  0.8435 -2.1224
 5903SOL    HW229343   2.052   4.244  16.582  0.7436 -0.4098 -0.7441
 5904SOL     OW29344   0.754   2.966   1.894  0.6663 -0.2047  0.1067
 5904SOL    HW129345   0.707   2.957   1.811  1.4011 -1.3391 -0.1856
 5904SOL    HW229346   0.821   2.898   1.884 -0.4839 -1.5384  1.3901
 5905SOL     OW29347   3.982   0.134  10.674 -0.7357  0.3942 -0.1219
 5905SOL    HW129348   4.003   0.189  10.750 -0.6804 -2.6108  2.0696
 5905SOL    HW229349   3.986   0.050  10.721  0.3492  1.3684  1.5070
 5906SOL     OW29350   1.639   1.007  14.905 -0.3694  0.7972 -0.1713
 5906SOL    HW129351   1.690   1.087  14.920  2.6373 -1.3314  0.8959
 5906SOL    HW229352   1.551   1.043  14.894 -0.4455  0.3562 -1.0469
 5907SOL     OW29353   1.682   0.126   3.230  0.2832  0.2394  0.0468
 5907SOL    HW129354   1.776   0.135   3.214  0.5891 -2.1550  0.4859
 5907SOL    HW229355   1.643   0.180   3.161 -1.3409  0.1939  0.9314
 5908SOL     OW29356   0.290   0.106   3.456 -0.4797 -0.0378 -0.4141
 5908SOL    HW129357   0.314   0.195   3.483  0.6630 -0.5047  0.1133
 5908SOL    HW229358   0.284   0.052   3.535 -1.1745  2.2705  1.1275
 5909SOL     OW29359   3.668   4.657   0.306  0.2116 -0.3675 -0.2957
 5909SOL    HW129360   3.588   4.697   0.271  1.9354  2.6310 -0.8397
 5909SOL    HW229361   3.649   4.644   0.399  0.5905  1.0402 -0.0159
 5910SOL     OW29362   1.573   2.226   8.751 -0.0163 -0.0748  0.1163
 5910SOL    HW129363   1.582   2.288   8.679 -0.9516 -0.6851 -0.5308
 5910SOL    HW229364   1.502   2.175   8.713  0.1663  0.1976 -0.5952
 5911SOL     OW29365   4.689   1.372   3.598 -0.8530  0.1427 -0.5367
 5911SOL    HW129366   4.695   1.335   3.686 -0.1018 -1.2403 -1.1763
 5911SOL    HW229367   4.664   1.464   3.608 -2.6760 -0.6087  2.0073
 5912SOL     OW29368   0.911   1.497  11.021  0.2053 -0.1163 -0.5906
 5912SOL    HW129369   0.950   1.434  10.961  0.0890  0.7628 -1.5830
 5912SOL    HW229370   0.979   1.494  11.089 -2.1578  1.3841  1.8230
 5913SOL     OW29371   3.142   1.453  15.026 -0.0993 -0.0504  0.7149
 5913SOL    HW129372   3.116   1.523  15.086 -1.1412 -1.4125  1.8465
 5913SOL    HW229373   3.065   1.397  15.022 -2.9818  3.6446  3.7725
 5914SOL     OW29374   0.452   2.015  10.182 -0.1319  0.0067 -0.2826
 5914SOL    HW129375   0.464   1.962  10.103 -0.9816 -2.9238  1.5713
 5914SOL    HW229376   0.518   2.084  10.171 -2.0960  1.3037 -3.6877
 5915SOL     OW29377   4.314   4.125  11.795 -0.3295  0.0551 -0.6248
 5915SOL    HW129378   4.391   4.083  11.757 -0.3759 -0.3887 -0.2199
 5915SOL    HW229379   4.250   4.128  11.724  0.3561 -0.3206 -1.2505
 5916SOL     OW29380   3.795   1.308   8.624  0.1110 -0.1475 -0.7795
 5916SOL    HW129381   3.740   1.385   8.608  0.0835 -0.3553 -1.6667
 5916SOL    HW229382   3.839   1.312   8.539  1.6175 -1.6264 -0.0886
 5917SOL     OW29383   2.058   1.773  10.377  0.3652 -0.0026 -0.1184
 5917SOL    HW129384   2.025   1.690  10.342  2.0411 -0.6559 -0.1547
 5917SOL    HW229385   1.982   1.822  10.407  0.4004 -0.6993  1.0816
 5918SOL     OW29386   1.094   2.453   3.663  0.1420 -0.2170  0.2112
 5918SOL    HW129387   1.128   2.403   3.589 -0.8344  0.3167 -0.5962
 5918SOL    HW229388   1.032   2.393   3.705 -1.6116  1.2610 -0.2557
 5919SOL     OW29389   3.622   2.618   7.232  0.2280  0.2210  0.4158
 5919SOL    HW129390   3.683   2.674   7.281  1.5541 -1.9560  1.3070
 5919SOL    HW229391   3.587   2.684   7.173  0.5908 -0.2254 -0.3020
 5920SOL     OW29392   4.506   4.560   9.449 -0.6931  0.1815 -0.0705
 5920SOL    HW129393   4.471   4.496   9.512 -2.1229  0.3736 -0.6776
 5920SOL    HW229394   4.461   4.639   9.478  0.5657  1.1910 -0.8977
 5921SOL     OW29395   2.061   3.888   6.090  0.1733  0.2679  0.5131
 5921SOL    HW129396   2.142   3.929   6.060 -0.2179  1.1111  0.5946
 5921SOL    HW229397   2.091   3.835   6.163 -0.5004  0.0304  0.6167
 5922SOL     OW29398   2.037   1.656  15.299  0.1325  0.3391  0.1230
 5922SOL    HW129399   2.076   1.668  15.386  2.0560  2.6225 -1.0701
 5922SOL    HW229400   2.055   1.742  15.263  4.0546  0.1194  1.5474
 5923SOL     OW29401   4.480   3.439   5.415  0.1019 -0.2007 -0.4051
 5923SOL    HW129402   4.479   3.353   5.374 -0.4291  0.1555 -1.1456
 5923SOL    HW229403   4.396   3.429   5.459  0.3542  2.1069  0.5819
 5924SOL     OW29404   2.490   2.191   8.799 -0.0057 -0.0211  0.3682
 5924SOL    HW129405   2.527   2.185   8.711 -0.0309  0.1124  0.3472
 5924SOL    HW229406   2.547   2.125   8.837 -0.2164  0.2680  1.1740
 5925SOL     OW29407   2.314   4.145   8.197 -0.1549 -0.3169  0.5021
 5925SOL    HW129408   2.256   4.143   8.273 -1.0977  2.0536 -0.1335
 5925SOL    HW229409   2.260   4.193   8.133 -1.8583  0.8430  2.7839
 5926SOL     OW29410   0.251   1.857   2.975 -0.0985  0.4324 -0.2783
 5926SOL    HW129411   0.312   1.835   3.045  0.3680  0.7480 -0.5872
 5926SOL    HW229412   0.292   1.819   2.898 -1.0159  0.8077 -0.9640
 5927SOL     OW29413   4.151   2.553   4.558 -0.5577  0.5778 -0.0348
 5927SOL    HW129414   4.107   2.577   4.477  0.5881 -0.2634 -0.9008
 5927SOL    HW229415   4.189   2.469   4.532  1.0019  1.5721 -0.9526
 5928SOL     OW29416   3.721   1.402   3.033 -0.1134  0.0258 -0.0402
 5928SOL    HW129417   3.658   1.471   3.056  1.0562  1.3571 -0.8267
 5928SOL    HW229418   3.676   1.352   2.964 -2.6257  2.1370  0.0459
 5929SOL     OW29419   4.734   0.772   2.160 -0.1002 -0.4673 -0.2727
 5929SOL    HW129420   0.048   0.789   2.240 -1.4504 -0.5844  0.5961
 5929SOL    HW229421   4.728   0.858   2.119  1.2449 -0.3261 -0.1814
 5930SOL     OW29422   1.819   3.481   3.489 -0.5364 -0.2927  0.1641
 5930SOL    HW129423   1.912   3.461   3.483  0.3101  3.4805  0.8429
 5930SOL    HW229424   1.788   3.444   3.406 -4.5117  0.5763  1.2680
 5931SOL     OW29425   1.840   2.816   8.746 -0.4823  0.2048  0.0502
 5931SOL    HW129426   1.804   2.830   8.659  1.1273  0.2437 -0.6206
 5931SOL    HW229427   1.771   2.770   8.794 -1.2507  0.6650 -0.6301
 5932SOL     OW29428   0.406   3.466  12.268  0.1902 -0.7918  0.0558
 5932SOL    HW129429   0.392   3.527  12.195  1.8577  0.7032  0.9768
 5932SOL    HW229430   0.500   3.448  12.270  0.0994 -1.4715 -2.8799
 5933SOL     OW29431   2.856   1.713   4.456  0.6130 -0.1718  0.0318
 5933SOL    HW129432   2.875   1.622   4.433 -2.1939 -1.5575  3.0817
 5933SOL    HW229433   2.933   1.759   4.424  0.2544  0.6297  0.3164
 5934SOL     OW29434   3.997   3.443   5.581 -0.1783 -0.3863 -0.4018
 5934SOL    HW129435   3.987   3.494   5.501  2.8547  0.4908 -0.1945
 5934SOL    HW229436   3.920   3.466   5.633  0.5945  1.3234 -0.0482
 5935SOL     OW29437   0.593   2.313   2.131 -0.1383  0.0314  0.2025
 5935SOL    HW129438   0.509   2.327   2.173 -0.6687 -2.0801 -0.1387
 5935SOL    HW229439   0.599   2.377   2.060 -2.2032 -0.2167 -0.1785
 5936SOL     OW29440   0.299   4.333   3.709 -0.3103 -0.4164 -0.3830
 5936SOL    HW129441   0.329   4.397   3.644 -2.9894  1.7120  0.4849
 5936SOL    HW229442   0.299   4.396   3.781  1.5284  0.7335 -1.3977
 5937SOL     OW29443   1.728   2.091   7.022  0.5274  0.5428  0.8062
 5937SOL    HW129444   1.637   2.119   7.014  0.7760  1.2505  0.4446
 5937SOL    HW229445   1.736   2.138   7.105  0.0830  0.0615  1.1129
 5938SOL     OW29446   0.522   4.610   8.204  0.2519 -0.4717 -0.6025
 5938SOL    HW129447   0.532   4.595   8.298 -0.9519 -4.3177 -1.0802
 5938SOL    HW229448   0.583   4.681   8.185  2.0423 -1.8631  0.0275
 5939SOL     OW29449   4.708   1.619   4.018  0.1973  0.0676 -0.6861
 5939SOL    HW129450   4.723   1.713   4.017 -1.6084  0.3520 -2.3654
 5939SOL    HW229451   4.658   1.599   3.938 -1.6151  0.5307  0.3273
 5940SOL     OW29452   2.640   1.033   4.866 -0.3732 -0.1243  0.1476
 5940SOL    HW129453   2.728   1.059   4.839 -0.6454 -0.6138 -1.2076
 5940SOL    HW229454   2.648   0.938   4.879  2.5016  0.1036 -0.1303
 5941SOL     OW29455   2.779   2.786   5.106  0.4497  0.0489 -0.1721
 5941SOL    HW129456   2.870   2.760   5.119  0.5809  1.2199  1.2771
 5941SOL    HW229457   2.792   2.833   5.024 -1.3786  0.2556 -0.3500
 5942SOL     OW29458   3.799   1.863   7.313  0.1550  0.2162 -0.1137
 5942SOL    HW129459   3.742   1.929   7.275  0.8855  1.5321  1.0920
 5942SOL    HW229460   3.862   1.858   7.242 -0.0902  0.7365 -0.3588
 5943SOL     OW29461   0.848   4.529   8.198 -0.3305  0.1621 -0.3547
 5943SOL    HW129462   0.837   4.461   8.132 -0.5718  0.4468 -0.6058
 5943SOL    HW229463   0.818   4.491   8.281 -2.3138  0.8651 -0.7665
 5944SOL     OW29464   3.796   0.859   4.338  0.1250 -0.2322  0.2323
 5944SOL    HW129465   3.827   0.774   4.306 -0.8756 -0.7572  0.6573
 5944SOL    HW229466   3.715   0.856   4.288  1.8497  0.5109 -2.6335
 5945SOL     OW29467   4.246   1.057   1.526  0.2587 -0.1208 -0.3801
 5945SOL    HW129468   4.222   1.148   1.546 -0.6969 -0.6021  0.6020
 5945SOL    HW229469   4.217   1.060   1.435 -1.0388  0.1748  0.0514
 5946SOL     OW29470   0.580   2.619   6.171  0.0636 -0.2528 -0.0563
 5946SOL    HW129471   0.536   2.544   6.132 -0.4498  0.0223 -0.0081
 5946SOL    HW229472   0.560   2.618   6.265 -0.3956 -0.6800 -0.1582
 5947SOL     OW29473   0.127   2.645   3.486  0.2612  0.0109 -0.2722
 5947SOL    HW129474   0.057   2.595   3.527  1.0462 -0.6361  0.2788
 5947SOL    HW229475   0.204   2.588   3.489 -0.7761 -1.3847 -0.4426
 5948SOL     OW29476   2.531   3.736   8.035 -0.5216  0.3439  0.1146
 5948SOL    HW129477   2.535   3.654   8.084 -0.3523  0.9829  1.1831
 5948SOL    HW229478   2.597   3.791   8.078  0.6091 -1.6295  0.9101
 5949SOL     OW29479   0.791   4.246   6.181 -0.0112 -0.1225  0.3857
 5949SOL    HW129480   0.874   4.206   6.152 -1.3433 -1.0300 -2.1956
 5949SOL    HW229481   0.745   4.265   6.099 -0.6368  0.0292  0.7800
 5950SOL     OW29482   2.576   2.360   9.144 -0.0328 -0.5963 -0.7737
 5950SOL    HW129483   2.570   2.376   9.238  0.7880 -1.4785 -0.5721
 5950SOL    HW229484   2.607   2.441   9.104  0.7932  0.2080  1.5171
 5951SOL     OW29485   1.571   0.885  17.094  1.0481  0.1458  0.7274
 5951SOL    HW129486   1.610   0.814  17.042  0.3446 -0.4213  0.9686
 5951SOL    HW229487   1.578   0.957  17.032 -1.2809 -0.7355 -0.5528
 5952SOL     OW29488   3.755   2.053   8.317  0.4182 -0.4667  0.1165
 5952SOL    HW129489   3.717   1.970   8.288 -0.0546 -0.7360  1.4583
 5952SOL    HW229490   3.744   2.037   8.411 -1.5826  2.1578  0.3463
 5953SOL     OW29491   4.202   4.357   3.743  0.6510 -0.0683 -0.4228
 5953SOL    HW129492   4.212   4.360   3.838 -0.6537  0.6456 -0.3001
 5953SOL    HW229493   4.239   4.444   3.728 -1.2141  1.0519  1.4726
 5954SOL     OW29494   0.057   1.875   7.833  0.1217 -0.3201  0.1015
 5954SOL    HW129495   4.728   1.902   7.898  0.1770 -0.3163  0.1551
 5954SOL    HW229496   0.135   1.897   7.884 -1.8120  1.0340  2.4793
 5955SOL     OW29497   2.067   0.782  16.275 -0.0874  0.2661  0.7174
 5955SOL    HW129498   2.116   0.858  16.243  0.1600 -0.2502 -0.1561
 5955SOL    HW229499   2.101   0.769  16.363  1.5678  0.4794  0.1180
 5956SOL     OW29500   2.018   1.989   2.236 -0.3535  0.1082 -0.1561
 5956SOL    HW129501   2.065   1.908   2.216  0.4133  0.8331 -1.2089
 5956SOL    HW229502   1.954   1.990   2.165  0.0497 -0.8127 -0.5364
 5957SOL     OW29503   3.168   3.989   4.701  0.1880  0.3611  0.7380
 5957SOL    HW129504   3.192   3.946   4.783 -0.7855  1.0373  1.3817
 5957SOL    HW229505   3.240   4.052   4.701 -0.1148  0.7197  3.1320
 5958SOL     OW29506   3.420   1.521  14.704 -0.5525 -0.2982 -0.4634
 5958SOL    HW129507   3.485   1.591  14.711 -1.5810  0.4902  1.2882
 5958SOL    HW229508   3.393   1.523  14.613  0.5679 -1.7411 -0.8276
 5959SOL     OW29509   3.452   0.930   2.230 -0.3179 -0.4243 -0.4861
 5959SOL    HW129510   3.492   1.017   2.229  1.0939 -1.0462  0.7371
 5959SOL    HW229511   3.457   0.907   2.323  2.3459 -0.2906 -0.5954
 5960SOL     OW29512   2.248   2.214   3.502  0.0249 -0.0747  0.0963
 5960SOL    HW129513   2.291   2.170   3.428  0.8468 -1.3395  1.3283
 5960SOL    HW229514   2.157   2.186   3.492  0.5446 -2.0244  0.8806
 5961SOL     OW29515   1.655   3.845  17.352  0.6862  0.3673  0.3237
 5961SOL    HW129516   1.718   3.818  17.419 -2.2695 -1.6445  2.2737
 5961SOL    HW229517   1.575   3.806  17.387  1.1703  0.8111  1.9448
 5962SOL     OW29518   0.746   0.138   7.581  0.1353 -0.4308  0.0119
 5962SOL    HW129519   0.703   0.171   7.501 -0.3338 -0.0195  0.4346
 5962SOL    HW229520   0.697   0.181   7.651 -0.9290 -0.3563 -0.7776
 5963SOL     OW29521   4.079   0.496   4.377  0.4295 -0.4440  0.6600
 5963SOL    HW129522   4.016   0.447   4.324  0.6816 -0.2269  0.1636
 5963SOL    HW229523   4.063   0.589   4.361  3.1315 -0.0219  0.4352
 5964SOL     OW29524   0.836   0.077   8.312  0.3678 -0.1600  0.0375
 5964SOL    HW129525   0.792   0.085   8.227  1.7877 -0.9379 -0.7611
 5964SOL    HW229526   0.825   4.721   8.337  4.2993 -0.6221 -0.0253
 5965SOL     OW29527   3.326   3.732  14.449  0.0442 -0.3189  0.2830
 5965SOL    HW129528   3.365   3.736  14.361 -0.9511  0.9071 -0.0953
 5965SOL    HW229529   3.232   3.724  14.435 -0.0738 -0.1774  0.9976
 5966SOL     OW29530   4.126   1.516   4.046  0.0279 -0.3244  0.0328
 5966SOL    HW129531   4.075   1.461   3.988  0.2681  0.4023 -0.8711
 5966SOL    HW229532   4.091   1.502   4.134 -1.5752 -1.4064 -0.8013
 5967SOL     OW29533   2.918   0.449  10.922  0.4646 -0.2150 -0.1301
 5967SOL    HW129534   2.994   0.421  10.972  0.0996 -1.0078 -0.0172
 5967SOL    HW229535   2.950   0.536  10.898 -1.0022  0.5652  0.6841
 5968SOL     OW29536   0.935   4.079   5.214  0.5428  0.1332  0.3312
 5968SOL    HW129537   1.027   4.086   5.191  0.3607  2.1543  0.2097
 5968SOL    HW229538   0.934   4.003   5.272 -1.2702  0.0823  0.2418
 5969SOL     OW29539   0.138   2.037   3.152  0.3180 -0.2935 -0.7080
 5969SOL    HW129540   0.158   1.956   3.106  2.9452  0.0801 -0.2234
 5969SOL    HW229541   0.051   2.017   3.185  0.9608  1.3191  1.9664
 5970SOL     OW29542   3.812   0.361   5.155  0.1376  0.1528  0.5167
 5970SOL    HW129543   3.853   0.275   5.155 -1.4679 -0.6266 -2.4294
 5970SOL    HW229544   3.828   0.384   5.247 -3.2401 -1.4362  1.5003
 5971SOL     OW29545   4.259   1.302   9.685  0.1890 -0.2177  0.2626
 5971SOL    HW129546   4.177   1.314   9.733  0.1037  3.0405 -0.6693
 5971SOL    HW229547   4.290   1.391   9.666 -0.3915 -0.0370  0.1627
 5972SOL     OW29548   0.508   0.477   2.561 -0.3642 -0.3834  0.4035
 5972SOL    HW129549   0.420   0.515   2.569 -0.2110  0.4592 -1.9209
 5972SOL    HW229550   0.532   0.466   2.653  1.5919 -1.7205 -0.2842
 5973SOL     OW29551   1.651   1.252   2.085 -0.8878 -0.1224 -0.3431
 5973SOL    HW129552   1.642   1.325   2.024  1.8406  1.3479  1.0471
 5973SOL    HW229553   1.680   1.301   2.162 -1.5839  0.0883 -0.2175
 5974SOL     OW29554   4.318   0.392   8.201 -0.0395 -0.2729 -0.2596
 5974SOL    HW129555   4.263   0.429   8.270 -3.1343 -0.4045 -2.6209
 5974SOL    HW229556   4.405   0.409   8.237 -0.2599 -1.5928  0.8671
 5975SOL     OW29557   2.046   0.168   6.347 -0.2223 -0.3198 -0.6388
 5975SOL    HW129558   2.045   0.264   6.352 -0.6465 -0.5303  3.1624
 5975SOL    HW229559   2.116   0.143   6.407 -0.4324  2.7254  0.8664
 5976SOL     OW29560   0.266   4.144  16.127  0.5632  0.3179  0.0601
 5976SOL    HW129561   0.282   4.167  16.219  1.6215 -2.1406  0.5011
 5976SOL    HW229562   0.357   4.123  16.106  0.0499 -1.9131  0.1385
 5977SOL     OW29563   4.624   0.581  16.549 -0.8876  0.2042  0.2361
 5977SOL    HW129564   4.685   0.509  16.566 -0.9949  0.1257  0.2842
 5977SOL    HW229565   4.675   0.646  16.597 -0.8618 -1.5669  2.6075
 5978SOL     OW29566   0.169   0.655  17.482 -0.6762 -0.1489  0.1825
 5978SOL    HW129567   0.078   0.683  17.489 -1.2030 -1.6771 -0.6105
 5978SOL    HW229568   0.180   0.672  17.388 -0.7858 -3.9252 -0.5034
 5979SOL     OW29569   3.831   3.555   2.996 -0.3827 -0.0849 -0.2187
 5979SOL    HW129570   3.830   3.475   2.943 -1.6847 -1.2494  1.5667
 5979SOL    HW229571   3.743   3.550   3.034  0.7320  1.6732  2.5563
 5980SOL     OW29572   1.458   4.001   2.056  0.4301  0.1139 -0.0416
 5980SOL    HW129573   1.544   3.996   2.015 -0.1413 -1.4733 -1.0214
 5980SOL    HW229574   1.440   4.093   2.077 -2.4496 -0.8918  1.9173
 5981SOL     OW29575   3.560   1.363  10.974 -0.0842  0.5375  0.6635
 5981SOL    HW129576   3.584   1.297  10.909  0.1582 -0.2838  1.6013
 5981SOL    HW229577   3.592   1.323  11.054 -1.1443 -1.0460  0.2796
 5982SOL     OW29578   1.987   1.567  12.312 -0.1070  0.2826  0.3182
 5982SOL    HW129579   2.044   1.611  12.248 -3.6951  0.7358 -2.5398
 5982SOL    HW229580   2.039   1.566  12.392  1.1306  1.2967 -0.4685
 5983SOL     OW29581   3.273   3.578   2.716 -0.2062  0.7746  0.2244
 5983SOL    HW129582   3.259   3.552   2.806 -1.0106 -0.8668 -0.3870
 5983SOL    HW229583   3.213   3.651   2.701 -0.3683 -0.1281 -3.5814
 5984SOL     OW29584   3.899   1.133  13.963  0.1949  0.5442 -0.3396
 5984SOL    HW129585   3.852   1.202  14.009  0.0647  0.1382  0.1331
 5984SOL    HW229586   3.987   1.156  13.992  0.8930 -0.4675 -1.6620
 5985SOL     OW29587   4.474   2.105   5.976  0.4841 -0.3949 -0.7585
 5985SOL    HW129588   4.408   2.152   5.924  2.6173  1.2285 -2.0351
 5985SOL    HW229589   4.531   2.068   5.909  0.0967  2.2317 -2.5764
 5986SOL     OW29590   0.791   3.144   9.185 -0.7957  0.1921 -0.0672
 5986SOL    HW129591   0.866   3.139   9.245  2.5416 -0.5445 -4.3055
 5986SOL    HW229592   0.749   3.224   9.216 -0.5037  0.6356 -0.8216
 5987SOL     OW29593   1.055   1.548   1.911 -0.4526  0.0787 -0.6862
 5987SOL    HW129594   1.087   1.461   1.935  0.7852  1.1145  1.3679
 5987SOL    HW229595   0.963   1.547   1.936  0.3740 -1.7607  2.2413
 5988SOL     OW29596   4.523   0.097   2.757 -0.4115  0.0347 -0.6232
 5988SOL    HW129597   4.531   0.099   2.853  2.4873  2.0234 -0.9134
 5988SOL    HW229598   4.432   0.075   2.740 -0.3343 -0.4468 -0.4188
 5989SOL     OW29599   1.993   0.673   3.223  0.8363 -0.3592  0.2670
 5989SOL    HW129600   2.080   0.634   3.217  1.1550  0.7354 -2.1118
 5989SOL    HW229601   2.009   0.748   3.280 -2.2212  1.1358 -0.9027
 5990SOL     OW29602   1.203   1.426   2.747 -0.8432  0.2803  0.4003
 5990SOL    HW129603   1.286   1.460   2.781 -1.0040  0.5167  0.5510
 5990SOL    HW229604   1.214   1.336   2.715  0.2950  0.8308 -0.7662
 5991SOL     OW29605   4.540   0.137   4.177 -0.5982  0.3935 -0.1810
 5991SOL    HW129606   4.454   0.100   4.154 -1.0346  0.7944  0.8063
 5991SOL    HW229607   4.525   0.187   4.257 -2.3281  0.4682 -0.5527
 5992SOL     OW29608   3.230   4.088  11.844  0.2482 -0.1417  0.2535
 5992SOL    HW129609   3.279   4.038  11.909 -0.4512 -1.9155 -0.5703
 5992SOL    HW229610   3.158   4.112  11.902 -0.3123 -0.8940 -0.1302
 5993SOL     OW29611   2.091   2.314  11.650  0.0856 -0.8039  0.1501
 5993SOL    HW129612   2.129   2.385  11.701 -2.1678 -0.1369  0.9368
 5993SOL    HW229613   1.999   2.316  11.678 -0.1852 -2.2662 -0.6275
 5994SOL     OW29614   0.409   4.617   9.182 -0.1328 -0.0661 -0.1118
 5994SOL    HW129615   0.400   4.600   9.276  1.3593  1.8793  0.3954
 5994SOL    HW229616   0.423   4.712   9.189 -1.1061  0.2343 -2.1539
 5995SOL     OW29617   1.395   4.702   4.793  0.0075  0.3587 -0.2145
 5995SOL    HW129618   1.390   4.652   4.712  2.0362 -0.9438  0.4864
 5995SOL    HW229619   1.318   0.023   4.788 -0.8715 -1.0420 -2.4693
 5996SOL     OW29620   3.927   2.700   9.497  0.7201 -0.0985  0.4389
 5996SOL    HW129621   3.997   2.697   9.432  0.9550 -1.7110  0.7660
 5996SOL    HW229622   3.966   2.689   9.584  1.0402 -1.2908  0.1520
 5997SOL     OW29623   3.191   2.169   5.617  0.7241 -0.1978  0.1088
 5997SOL    HW129624   3.255   2.101   5.596  0.4500 -0.1027 -1.0602
 5997SOL    HW229625   3.182   2.146   5.709  1.1044 -0.7299  0.0124
 5998SOL     OW29626   0.477   1.198   3.645 -0.2881 -0.0400 -0.0331
 5998SOL    HW129627   0.501   1.156   3.727  0.0958 -1.1323 -0.7053
 5998SOL    HW229628   0.405   1.141   3.617  1.2487 -1.3246 -1.3611
 5999SOL     OW29629   4.478   0.966   7.219 -0.2552 -0.0536  0.1539
 5999SOL    HW129630   4.415   0.967   7.147 -0.5906  0.6000  0.4630
 5999SOL    HW229631   4.420   0.937   7.289 -2.0867  3.5538  0.1239
 6000SOL     OW29632   4.217   2.272   3.937 -0.1856  0.1442 -0.1108
 6000SOL    HW129633   4.214   2.340   3.868  1.4421  0.0422 -0.2838
 6000SOL    HW229634   4.123   2.261   3.941 -0.0396 -1.0789 -0.1140
 6001SOL     OW29635   4.375   0.722  13.153  0.7098  0.6184  0.5391
 6001SOL    HW129636   4.385   0.813  13.180  0.2742  0.9329 -0.3643
 6001SOL    HW229637   4.283   0.700  13.166  1.0126 -1.1784 -0.4496
 6002SOL     OW29638   4.288   3.175   7.659  0.0124 -0.2284 -0.7913
 6002SOL    HW129639   4.287   3.261   7.701 -1.3561 -0.9037  0.5343
 6002SOL    HW229640   4.379   3.159   7.635  0.1390  0.1000 -0.5250
 6003SOL     OW29641   2.069   4.141  11.437 -0.0835  0.1755 -0.5245
 6003SOL    HW129642   2.128   4.144  11.512  0.1696 -1.2234 -0.6520
 6003SOL    HW229643   1.986   4.183  11.458  0.4567 -0.0847  2.1130
 6004SOL     OW29644   2.168   4.268   2.021 -0.3107 -0.0856  0.2440
 6004SOL    HW129645   2.180   4.347   2.074 -0.9291 -0.5155  1.0205
 6004SOL    HW229646   2.257   4.231   2.018  0.5447  1.7803  2.6832
 6005SOL     OW29647   3.791   4.357   2.875 -0.1763  0.2398  0.3661
 6005SOL    HW129648   3.713   4.380   2.824  0.1246 -1.4407 -0.8953
 6005SOL    HW229649   3.866   4.341   2.818 -0.0982 -1.8957  1.0627
 6006SOL     OW29650   0.446   0.455   2.225 -0.2172 -0.1261 -0.2442
 6006SOL    HW129651   0.382   0.390   2.253 -1.2203  0.7227 -0.5751
 6006SOL    HW229652   0.489   0.479   2.307  1.0736 -0.6651 -0.7610
 6007SOL     OW29653   2.701   0.636  17.492  0.5368  0.0376 -0.0034
 6007SOL    HW129654   2.694   0.697  17.419  0.7184 -0.6008 -0.5517
 6007SOL    HW229655   2.639   0.567  17.469  0.6623  0.9502 -3.1002
 6008SOL     OW29656   1.967   2.936   2.682 -0.0882 -0.5967  0.0431
 6008SOL    HW129657   1.944   2.881   2.756 -3.1847  2.4170  1.2935
 6008SOL    HW229658   1.953   3.022   2.721  0.8096  0.4540 -1.9332
 6009SOL     OW29659   4.201   1.392   5.851 -0.0078  0.0750  0.1338
 6009SOL    HW129660   4.275   1.370   5.795 -0.8593  1.9868 -1.7520
 6009SOL    HW229661   4.215   1.314   5.904 -1.7352  0.3431  0.9836
 6010SOL     OW29662   4.728   1.632   2.544 -0.3035 -0.0934 -0.0285
 6010SOL    HW129663   0.080   1.612   2.578  0.1872  0.2557 -1.0911
 6010SOL    HW229664   0.007   1.724   2.524 -0.9071  0.2212  0.9587
 6011SOL     OW29665   3.808   3.436   0.250  0.3490 -0.2958  0.3208
 6011SOL    HW129666   3.817   3.521   0.294  0.2725  1.7165 -3.5696
 6011SOL    HW229667   3.900   3.408   0.248  0.2594 -0.6112  0.5588
 6012SOL     OW29668   2.487   1.947   8.403 -0.4135  0.1550 -0.2444
 6012SOL    HW129669   2.534   2.021   8.442  0.2626  0.6375 -1.9720
 6012SOL    HW229670   2.396   1.976   8.414 -0.2012  1.2338 -1.2929
 6013SOL     OW29671   4.278   3.855  11.969  0.4054  0.3994 -0.2662
 6013SOL    HW129672   4.221   3.851  11.893  1.2247 -1.3943 -0.7889
 6013SOL    HW229673   4.354   3.868  11.913 -0.2056  3.5391 -0.3669
 6014SOL     OW29674   2.019   3.558   8.779 -0.4705  0.1085 -0.1603
 6014SOL    HW129675   1.931   3.591   8.761  0.4840  1.5038 -2.2838
 6014SOL    HW229676   1.986   3.486   8.833 -2.1762  0.6624 -0.4662
 6015SOL     OW29677   3.329   1.448  13.557  0.3690 -0.1147 -0.4705
 6015SOL    HW129678   3.309   1.368  13.509 -1.9739  0.3241 -0.2198
 6015SOL    HW229679   3.383   1.418  13.630 -1.3034 -1.9737  0.0050
 6016SOL     OW29680   0.945   4.044   6.597 -0.5994  0.0268 -0.1706
 6016SOL    HW129681   0.978   3.984   6.530  0.4764 -0.5538  0.8771
 6016SOL    HW229682   0.976   4.004   6.678  2.1250 -3.1237 -2.7288
 6017SOL     OW29683   1.675   2.285   6.634  0.2218  0.1621 -0.2049
 6017SOL    HW129684   1.753   2.335   6.655 -0.1472  0.3607  0.6862
 6017SOL    HW229685   1.716   2.199   6.622  1.3280  0.5053  1.0953
 6018SOL     OW29686   0.550   2.349   4.316 -0.2234 -0.3030  0.0790
 6018SOL    HW129687   0.606   2.352   4.238  1.7818 -0.6465  1.5011
 6018SOL    HW229688   0.477   2.296   4.284  0.3216  0.0191 -1.7048
 6019SOL     OW29689   0.020   0.644   1.484  0.3336  0.1452 -0.0317
 6019SOL    HW129690   0.014   0.604   1.397  0.9146  1.6055 -0.7299
 6019SOL    HW229691   4.731   0.568   1.537 -0.5696  1.2099  1.0430
 6020SOL     OW29692   4.080   2.769   8.439 -0.1848 -0.0867  0.1569
 6020SOL    HW129693   4.113   2.758   8.528 -0.8558  0.0344  0.4154
 6020SOL    HW229694   4.166   2.753   8.399  0.2961 -2.1008  2.0092
 6021SOL     OW29695   1.835   1.634   4.889  0.1433 -0.4337  0.3802
 6021SOL    HW129696   1.762   1.639   4.950 -1.1184  0.3554 -1.2019
 6021SOL    HW229697   1.861   1.725   4.872  0.2870 -0.5359  0.0458
 6022SOL     OW29698   0.993   4.266   3.784 -0.0967 -0.3090 -0.2456
 6022SOL    HW129699   1.054   4.283   3.855  0.7572 -2.4469 -0.4594
 6022SOL    HW229700   0.942   4.347   3.787  2.0633  1.0576 -0.6809
 6023SOL     OW29701   2.681   0.413  16.043  0.1506  0.1865  0.0121
 6023SOL    HW129702   2.644   0.493  16.005  0.1720  0.5529  0.7679
 6023SOL    HW229703   2.628   0.351  15.992 -2.1665  0.2809  2.2837
 6024SOL     OW29704   4.553   3.188   5.822 -0.2390  0.2707 -0.1663
 6024SOL    HW129705   4.537   3.110   5.770 -0.9733  0.1088  0.2976
 6024SOL    HW229706   4.476   3.194   5.879  0.0664 -1.9219  0.4504
 6025SOL     OW29707   0.930   2.549   4.875 -0.8036  0.7404 -0.0391
 6025SOL    HW129708   0.953   2.479   4.937 -0.7122 -1.0565 -2.1063
 6025SOL    HW229709   0.901   2.614   4.940  1.0765  1.7511 -0.2165
 6026SOL     OW29710   2.123   4.561  12.131 -0.7208 -0.1096 -0.7036
 6026SOL    HW129711   2.196   4.604  12.085 -0.2666  1.4438  1.4768
 6026SOL    HW229712   2.140   4.591  12.220 -1.2787 -2.2201  0.1029
 6027SOL     OW29713   2.410   3.167   6.740  0.1643 -0.0934  0.3207
 6027SOL    HW129714   2.475   3.098   6.728  0.9557  0.6966  0.1050
 6027SOL    HW229715   2.445   3.228   6.676  1.0545  0.3851  1.2660
 6028SOL     OW29716   4.627   2.086   2.491 -0.2454 -0.7977  0.4802
 6028SOL    HW129717   4.554   2.033   2.523 -1.0230 -0.0260 -0.0215
 6028SOL    HW229718   4.674   2.019   2.441 -0.5014 -0.4536 -0.2170
 6029SOL     OW29719   1.891   0.071   6.867  0.4916  0.6722 -0.2523
 6029SOL    HW129720   1.899   0.049   6.774 -2.0812  2.0143 -0.7708
 6029SOL    HW229721   1.799   0.054   6.884  0.3508  1.8274  0.1225
 6030SOL     OW29722   3.838   2.711   9.092 -0.2358  0.8440  0.0771
 6030SOL    HW129723   3.787   2.780   9.133 -3.1492 -1.0022 -0.4009
 6030SOL    HW229724   3.909   2.765   9.057  0.8297  0.6955  2.0203
 6031SOL     OW29725   0.136   3.059   8.004  0.2756  0.3272 -0.4960
 6031SOL    HW129726   0.228   3.065   7.978  0.7376  0.1053  1.0939
 6031SOL    HW229727   0.121   2.966   8.023  0.6149  0.7640  1.8238
 6032SOL     OW29728   0.321   1.217  16.558  0.2052 -0.5416  0.2141
 6032SOL    HW129729   0.308   1.281  16.489  0.1401 -0.1583  0.5824
 6032SOL    HW229730   0.331   1.138  16.505  0.2559 -0.8312  0.6548
 6033SOL     OW29731   4.631   3.675   4.035  0.9473  0.9631 -0.3225
 6033SOL    HW129732   4.559   3.737   4.025 -0.3132 -0.5596 -0.7839
 6033SOL    HW229733   4.705   3.735   4.036  1.2326  0.5726  1.8327
 6034SOL     OW29734   2.597   1.285  15.649  0.8360 -0.6374 -0.1120
 6034SOL    HW129735   2.567   1.232  15.723  1.2776 -1.6647 -0.6506
 6034SOL    HW229736   2.604   1.219  15.580  1.2883  0.4103 -1.0678
 6035SOL     OW29737   0.835   1.513   6.256 -0.0178  0.0957 -0.3957
 6035SOL    HW129738   0.885   1.585   6.217  2.5274  0.4627  3.5731
 6035SOL    HW229739   0.839   1.546   6.345 -1.5804  0.8286 -0.5868
 6036SOL     OW29740   1.766   3.914   5.862  0.4409  0.3703  0.5500
 6036SOL    HW129741   1.716   3.876   5.790  1.8799 -0.5826  0.0673
 6036SOL    HW229742   1.841   3.953   5.816  0.0346 -0.0014 -0.4314
 6037SOL     OW29743   1.185   2.978   7.960 -0.3615 -0.0628  0.4208
 6037SOL    HW129744   1.248   3.047   7.939  0.9558 -1.1764  0.7719
 6037SOL    HW229745   1.150   3.007   8.045  4.0611  2.3711  1.4015
 6038SOL     OW29746   2.705   3.219   2.360 -0.1609 -0.0367 -0.2886
 6038SOL    HW129747   2.719   3.293   2.301  0.3069 -0.2396 -0.4339
 6038SOL    HW229748   2.763   3.233   2.435  2.1513 -2.8546 -1.5671
 6039SOL     OW29749   1.736   3.825  15.125 -0.0069 -0.8254  0.1604
 6039SOL    HW129750   1.752   3.735  15.155  0.3700 -0.7140  0.2861
 6039SOL    HW229751   1.721   3.810  15.032 -0.1142 -0.2461  0.0859
 6040SOL     OW29752   2.027   0.658  15.086 -0.2530  0.1715 -0.3123
 6040SOL    HW129753   2.051   0.700  15.169 -1.7543 -0.1039  0.2633
 6040SOL    HW229754   1.942   0.702  15.086 -0.4952 -0.2959  0.8371
 6041SOL     OW29755   1.014   3.185   1.214 -0.4134  0.1191  0.0744
 6041SOL    HW129756   0.971   3.266   1.242 -0.8524 -0.9025  2.3944
 6041SOL    HW229757   1.042   3.227   1.133  0.2220 -1.9640 -0.7995
 6042SOL     OW29758   4.539   0.681   5.509 -0.3041  0.0645 -0.3706
 6042SOL    HW129759   4.614   0.656   5.456  1.3222  1.0462  1.4805
 6042SOL    HW229760   4.487   0.600   5.514  1.0934 -0.7153  1.2432
 6043SOL     OW29761   2.198   3.314   8.469  0.2521 -0.1005  0.0380
 6043SOL    HW129762   2.173   3.278   8.554  1.3816  0.4844  0.6040
 6043SOL    HW229763   2.208   3.401   8.506 -0.3441 -0.8159  1.8759
 6044SOL     OW29764   3.833   0.818  10.908  0.0645  0.5538  0.1011
 6044SOL    HW129765   3.786   0.865  10.977  0.2569  0.0672  0.5587
 6044SOL    HW229766   3.807   0.868  10.831 -1.2670 -0.4405 -0.0875
 6045SOL     OW29767   0.919   2.833  15.726 -0.4392  0.1397  0.3509
 6045SOL    HW129768   0.960   2.864  15.646 -0.5099 -1.4477 -0.3069
 6045SOL    HW229769   0.995   2.821  15.782  0.3567 -0.8053 -0.9352
 6046SOL     OW29770   4.675   4.621   5.244  0.2436  0.5088 -0.2641
 6046SOL    HW129771   4.640   4.550   5.298 -0.9861  1.2725 -0.0669
 6046SOL    HW229772   0.032   4.599   5.238  0.1960  0.5915 -1.3523
 6047SOL     OW29773   3.714   1.806   4.545  0.2587  0.7364 -0.0795
 6047SOL    HW129774   3.752   1.801   4.633 -0.6723 -1.3874  0.1880
 6047SOL    HW229775   3.734   1.895   4.517  1.8744  0.2444 -0.4704
 6048SOL     OW29776   0.389   4.251   2.083  0.0561  0.1885  0.3781
 6048SOL    HW129777   0.326   4.219   2.147  0.0655 -1.3865 -0.4209
 6048SOL    HW229778   0.455   4.278   2.147 -1.0052  1.0027  1.1398
 6049SOL     OW29779   0.634   3.398   7.032  0.1816 -0.3388 -0.6176
 6049SOL    HW129780   0.651   3.466   7.098  2.7184  0.8759 -2.5370
 6049SOL    HW229781   0.559   3.364   7.081 -0.8808 -0.0018 -2.0005
 6050SOL     OW29782   0.791   3.129   8.013 -0.6919 -0.6695  0.2180
 6050SOL    HW129783   0.783   3.067   7.940 -2.1836 -0.3469  0.1008
 6050SOL    HW229784   0.703   3.129   8.052 -0.3759 -1.8724  0.9272
 6051SOL     OW29785   2.097   3.088   1.869  0.6210 -0.1451 -0.7710
 6051SOL    HW129786   2.045   3.027   1.922  3.0499  0.8858  2.7563
 6051SOL    HW229787   2.184   3.049   1.874  0.4213 -0.5323 -0.2355
 6052SOL     OW29788   0.585   3.752   3.750 -0.3460  0.4274  0.0040
 6052SOL    HW129789   0.595   3.800   3.832  0.2574  0.0508  0.1535
 6052SOL    HW229790   0.537   3.806   3.687 -0.4674  0.2330 -0.0729
 6053SOL     OW29791   2.082   4.467   7.839 -0.0552 -0.0813 -0.7518
 6053SOL    HW129792   1.995   4.482   7.875  1.3209  1.0508  2.0455
 6053SOL    HW229793   2.088   4.371   7.835 -0.6129 -0.2081  1.5227
 6054SOL     OW29794   0.745   2.414  14.588  0.0888  0.0900 -0.4349
 6054SOL    HW129795   0.813   2.405  14.654 -1.5809  0.6894  1.3593
 6054SOL    HW229796   0.778   2.357  14.518 -1.6883  0.9212 -1.9622
 6055SOL     OW29797   0.810   4.379   7.986  0.3235 -0.4367  0.2457
 6055SOL    HW129798   0.820   4.302   7.931  1.1035  0.8759 -1.4545
 6055SOL    HW229799   0.714   4.378   7.987  0.3392 -2.1412  0.4806
 6056SOL     OW29800   3.395   1.058   8.778  0.8987  0.2069  0.0743
 6056SOL    HW129801   3.343   1.131   8.745  2.2445  1.2194  0.2010
 6056SOL    HW229802   3.460   1.106   8.829 -1.1621  1.4717  1.4895
 6057SOL     OW29803   2.437   2.670   9.827  0.3364 -0.3661 -0.3239
 6057SOL    HW129804   2.447   2.737   9.759  2.0983  0.7191  1.0102
 6057SOL    HW229805   2.507   2.610   9.801  1.2074 -0.5528  2.5007
 6058SOL     OW29806   3.813   3.135   0.311  0.2367  0.0388  0.4039
 6058SOL    HW129807   3.727   3.173   0.293  0.5258 -1.0524 -3.3064
 6058SOL    HW229808   3.836   3.187   0.388  0.3676  0.0430  0.3628
 6059SOL     OW29809   0.364   0.687   2.103 -0.1893  0.1043 -0.8160
 6059SOL    HW129810   0.357   0.769   2.152 -0.7327 -0.9084  0.7957
 6059SOL    HW229811   0.399   0.617   2.159 -1.1770 -0.4913 -0.9333
 6060SOL     OW29812   4.264   3.704   9.378 -0.0288  0.2382  0.6879
 6060SOL    HW129813   4.330   3.772   9.396 -0.5984  1.6419 -2.5513
 6060SOL    HW229814   4.254   3.669   9.467 -0.1693 -0.3291  0.4463
 6061SOL     OW29815   2.648   3.706   6.174  0.0953 -0.5901  0.0478
 6061SOL    HW129816   2.620   3.765   6.104  1.7316  1.1773  0.8603
 6061SOL    HW229817   2.710   3.761   6.222  0.1770 -3.2406  2.9886
 6062SOL     OW29818   3.587   4.062  13.786  0.2017 -0.4731  0.0163
 6062SOL    HW129819   3.676   4.043  13.816 -0.6484 -1.6256  1.8133
 6062SOL    HW229820   3.607   4.057  13.693  0.5609 -0.7148  0.1017
 6063SOL     OW29821   0.329   0.304   5.360 -0.3734  0.4505 -0.4709
 6063SOL    HW129822   0.282   0.300   5.277 -0.2917 -1.8170 -0.3962
 6063SOL    HW229823   0.418   0.282   5.333  0.0155  0.9356  0.4159
 6064SOL     OW29824   4.107   0.449   3.346 -0.1610 -0.4735  0.1512
 6064SOL    HW129825   4.175   0.516   3.352 -1.4930  0.9427 -0.5753
 6064SOL    HW229826   4.073   0.468   3.258  0.5973  0.3185  0.0282
 6065SOL     OW29827   2.685   4.205   3.110  0.5681  0.4562  0.2665
 6065SOL    HW129828   2.688   4.154   3.191  0.1312 -0.7927 -0.4968
 6065SOL    HW229829   2.767   4.184   3.065  0.0967 -0.6182 -0.0988
 6066SOL     OW29830   3.377   4.304  10.393 -0.1964 -0.2992 -0.4124
 6066SOL    HW129831   3.372   4.358  10.314  1.5794  0.0747 -0.2809
 6066SOL    HW229832   3.286   4.301  10.422  0.6034 -0.7226  2.0309
 6067SOL     OW29833   0.430   2.658  10.579  0.1093 -0.2098 -0.5494
 6067SOL    HW129834   0.463   2.748  10.587  0.3086 -0.5007  1.8884
 6067SOL    HW229835   0.500   2.609  10.622  0.6001  0.1402 -0.9534
 6068SOL     OW29836   0.628   1.138   5.276  0.7073 -0.3673  0.0743
 6068SOL    HW129837   0.543   1.117   5.239  0.3831  0.4229  0.3608
 6068SOL    HW229838   0.632   1.072   5.345  0.0339 -0.7753 -0.2861
 6069SOL     OW29839   4.273   0.618  12.451  0.0908  0.3399  0.0008
 6069SOL    HW129840   4.247   0.614  12.543 -1.5703 -2.9219 -0.5797
 6069SOL    HW229841   4.333   0.692  12.456  0.2292  0.1532  1.1738
 6070SOL     OW29842   2.329   4.294   2.375 -0.2201  0.4457  0.1655
 6070SOL    HW129843   2.399   4.357   2.358 -1.0643  1.4112  0.2449
 6070SOL    HW229844   2.369   4.208   2.386 -1.4964  0.2938  3.7632
 6071SOL     OW29845   4.711   3.478   6.811  1.0895 -0.0655  0.5189
 6071SOL    HW129846   4.708   3.382   6.808 -0.1820  0.0410 -1.0741
 6071SOL    HW229847   0.069   3.485   6.833  1.0920 -0.4720  0.6412
 6072SOL     OW29848   0.678   0.718   6.188  0.2188 -0.0362  0.1964
 6072SOL    HW129849   0.722   0.681   6.264 -0.4392  0.2749  0.7215
 6072SOL    HW229850   0.587   0.708   6.215  0.5283 -0.0355  1.2125
 6073SOL     OW29851   0.793   1.565  10.120 -0.2147  0.4809 -0.4973
 6073SOL    HW129852   0.747   1.619  10.185  2.6982  3.0179 -0.4880
 6073SOL    HW229853   0.879   1.560  10.162 -0.2550 -0.0533 -0.4779
 6074SOL     OW29854   1.189   2.229   5.323  0.3232 -0.6516 -0.0041
 6074SOL    HW129855   1.123   2.161   5.312 -0.4525 -0.2809  2.3903
 6074SOL    HW229856   1.218   2.227   5.232 -0.1476  2.1651 -0.2423
 6075SOL     OW29857   4.598   3.089   4.990  0.3474 -0.1561 -0.2490
 6075SOL    HW129858   4.669   3.024   4.996 -1.7944 -2.6450 -1.6673
 6075SOL    HW229859   4.589   3.116   4.898 -0.3375  2.8216  0.7223
 6076SOL     OW29860   2.527   1.619   0.386 -0.1301  0.0970  0.1071
 6076SOL    HW129861   2.565   1.608   0.473 -1.2796  0.5416  0.6659
 6076SOL    HW229862   2.484   1.705   0.382 -1.1948 -0.4648 -0.5219
 6077SOL     OW29863   4.403   2.961   1.642 -0.2966 -0.5506  0.8492
 6077SOL    HW129864   4.386   2.895   1.709 -1.3447 -0.8240  0.3223
 6077SOL    HW229865   4.326   3.011   1.670 -1.2658 -1.3382 -0.3649
 6078SOL     OW29866   3.524   2.000  10.184 -0.0381 -0.0211 -0.5666
 6078SOL    HW129867   3.552   1.935  10.120 -0.0474  1.7024 -2.3193
 6078SOL    HW229868   3.605   2.014  10.233  0.6393 -0.6934 -1.5132
 6079SOL     OW29869   3.190   0.104   2.554  0.0882  0.6369 -0.5445
 6079SOL    HW129870   3.211   0.023   2.508 -0.7268  0.1504 -0.0570
 6079SOL    HW229871   3.264   0.163   2.540  0.6910  0.1609  0.6385
 6080SOL     OW29872   1.126   3.571   7.576 -0.5230  0.4387 -0.1072
 6080SOL    HW129873   1.128   3.645   7.636  0.9856  1.1874 -1.0879
 6080SOL    HW229874   1.154   3.620   7.499  0.5525 -1.1352 -0.7134
 6081SOL     OW29875   2.678   4.132  12.012  0.9156  0.3977  0.5028
 6081SOL    HW129876   2.645   4.217  12.039  0.0027  0.5713 -1.1860
 6081SOL    HW229877   2.624   4.092  11.943  1.7862  0.0827 -0.0008
 6082SOL     OW29878   3.987   1.851   3.535  0.3422  0.2705 -0.7179
 6082SOL    HW129879   3.996   1.916   3.465 -2.2219  2.5568  1.0649
 6082SOL    HW229880   3.927   1.797   3.482 -0.4398  2.8668 -2.4893
 6083SOL     OW29881   1.541   0.876   7.256  0.0750 -0.1289  0.3077
 6083SOL    HW129882   1.573   0.965   7.263 -0.3341  0.0551 -0.1317
 6083SOL    HW229883   1.606   0.828   7.307  1.8866 -1.8895 -3.6405
 6084SOL     OW29884   1.234   3.979   8.819 -0.4495 -0.0685  0.5770
 6084SOL    HW129885   1.264   3.905   8.871 -0.2572 -1.2537 -1.2230
 6084SOL    HW229886   1.235   4.060   8.869 -0.8135  1.3003 -1.6232
 6085SOL     OW29887   4.169   1.408   5.385 -0.4351 -0.2193 -0.5276
 6085SOL    HW129888   4.163   1.313   5.376  0.3509 -0.4367  1.2304
 6085SOL    HW229889   4.242   1.420   5.446 -0.4242  1.1142 -0.8024
 6086SOL     OW29890   0.804   2.948   7.821 -0.4471  0.4342 -0.3938
 6086SOL    HW129891   0.832   2.884   7.887 -1.3784 -0.8293 -1.2242
 6086SOL    HW229892   0.723   2.909   7.790 -0.5924  1.0580 -0.7785
 6087SOL     OW29893   2.307   4.173   1.063 -0.0455  0.2468 -0.3617
 6087SOL    HW129894   2.342   4.104   1.008 -1.0742 -0.5351 -0.0350
 6087SOL    HW229895   2.257   4.126   1.130  0.3839  0.8520  0.3845
 6088SOL     OW29896   1.246   0.831   4.042  0.1305 -0.3736 -0.4848
 6088SOL    HW129897   1.202   0.784   3.971 -0.4900 -0.9762  0.2979
 6088SOL    HW229898   1.309   0.773   4.086  1.1024  1.1043  0.0586
 6089SOL     OW29899   1.448   1.789   2.095 -0.1930  0.1811 -0.1731
 6089SOL    HW129900   1.355   1.799   2.076 -0.3637 -2.2570 -0.5650
 6089SOL    HW229901   1.463   1.699   2.068 -3.1672 -0.0246 -1.1205
 6090SOL     OW29902   0.311   1.271   7.983 -0.3145  0.3719  0.2017
 6090SOL    HW129903   0.232   1.251   8.032 -0.2843  2.3252  1.0442
 6090SOL    HW229904   0.282   1.326   7.910 -1.2734  0.9672  1.0419
 6091SOL     OW29905   1.313   1.328   4.614  0.6890  0.7164 -0.3366
 6091SOL    HW129906   1.283   1.250   4.568  0.2336  0.3956  0.4970
 6091SOL    HW229907   1.228   1.356   4.647 -0.4683 -0.8276 -2.0261
 6092SOL     OW29908   3.612   1.143  12.592  0.3148 -0.6644  0.0456
 6092SOL    HW129909   3.636   1.051  12.604  0.6275 -0.6589 -0.5447
 6092SOL    HW229910   3.608   1.151  12.497  2.2498  0.6596  0.0788
 6093SOL     OW29911   3.008   1.341   5.460 -0.0233  0.0678 -0.2019
 6093SOL    HW129912   2.946   1.412   5.477 -0.9659 -0.6330 -0.8120
 6093SOL    HW229913   3.004   1.293   5.543 -1.4342 -3.1529 -2.1585
 6094SOL     OW29914   3.762   3.799   5.178 -0.0450  0.3250  0.4704
 6094SOL    HW129915   3.816   3.743   5.123  0.2395  0.3901  0.6831
 6094SOL    HW229916   3.825   3.858   5.220 -0.0748  0.3981  0.4110
 6095SOL     OW29917   2.393   0.975   6.963 -0.3276  0.1728 -0.7764
 6095SOL    HW129918   2.340   0.963   7.043  0.7491  1.7572  0.1777
 6095SOL    HW229919   2.396   0.884   6.935 -1.0378  0.0275 -0.3957
 6096SOL     OW29920   2.043   4.089   3.000  0.2185  0.5873  0.5714
 6096SOL    HW129921   2.035   4.159   2.935 -1.1340  0.3387  0.4733
 6096SOL    HW229922   1.967   4.032   2.985  0.3844  0.7024 -0.6557
 6097SOL     OW29923   3.964   3.154  16.526  0.8481 -0.4921  0.3666
 6097SOL    HW129924   3.990   3.142  16.435 -1.5568  0.7085 -0.4976
 6097SOL    HW229925   3.962   3.249  16.531 -2.4150 -0.4017 -2.7875
 6098SOL     OW29926   4.321   1.480   1.189 -0.5887  0.1196  0.5434
 6098SOL    HW129927   4.368   1.415   1.241 -0.7665  0.5450  1.2395
 6098SOL    HW229928   4.365   1.562   1.211  0.9928 -0.0105 -2.1464
 6099SOL     OW29929   1.530   1.205  15.223 -0.3437  0.0524 -0.3062
 6099SOL    HW129930   1.529   1.188  15.129 -0.1088  1.6795 -0.5962
 6099SOL    HW229931   1.621   1.190  15.247 -0.5191 -0.4995  0.0124
 6100SOL     OW29932   1.114   2.709  16.415  0.1037  1.3239  0.3911
 6100SOL    HW129933   1.064   2.787  16.389 -2.1727 -0.3006 -0.1198
 6100SOL    HW229934   1.123   2.710  16.510 -1.7452 -0.0775  0.5726
 6101SOL     OW29935   1.815   1.775   3.177  0.1713  0.2232 -0.2482
 6101SOL    HW129936   1.734   1.824   3.190 -0.9210 -1.4980 -0.6257
 6101SOL    HW229937   1.785   1.728   3.100  2.0295  1.4245 -1.7048
 6102SOL     OW29938   3.625   3.220   8.278  0.5417  0.4661  0.2511
 6102SOL    HW129939   3.598   3.230   8.370  0.6400  0.7172  0.2502
 6102SOL    HW229940   3.543   3.204   8.231  1.9568 -1.4316 -1.5436
 6103SOL     OW29941   1.170   4.601   5.801 -0.0572 -0.0131 -0.6803
 6103SOL    HW129942   1.080   4.622   5.776  0.0272 -0.1865 -1.1412
 6103SOL    HW229943   1.171   4.606   5.896  2.6064 -2.2669 -0.5875
 6104SOL     OW29944   1.663   3.526   6.246  0.3501  0.4588 -0.9092
 6104SOL    HW129945   1.581   3.534   6.294  0.3737 -1.8673 -0.4714
 6104SOL    HW229946   1.637   3.563   6.161  1.1770 -0.7080 -1.6693
 6105SOL     OW29947   2.711   4.409   1.211 -0.1681 -0.0256 -0.3069
 6105SOL    HW129948   2.748   4.433   1.296  0.2637  0.5139 -0.6463
 6105SOL    HW229949   2.646   4.346   1.244  0.7752 -0.5604  0.5312
 6106SOL     OW29950   4.192   4.697  11.613  0.2386  0.0659  0.3828
 6106SOL    HW129951   4.245   4.622  11.639 -1.4135 -1.4305 -0.6763
 6106SOL    HW229952   4.129   4.710  11.684  1.5147 -1.7557  1.8276
 6107SOL     OW29953   3.628   4.723   6.976  0.0063  0.3106  0.0923
 6107SOL    HW129954   3.623   0.065   6.921 -1.5239  0.3675  0.3164
 6107SOL    HW229955   3.550   4.676   6.946 -0.6079 -0.7746  3.3654
 6108SOL     OW29956   3.928   3.500  16.784 -0.1398 -0.4028  0.4425
 6108SOL    HW129957   3.941   3.591  16.812  1.2742 -0.9290  1.5124
 6108SOL    HW229958   3.975   3.459  16.857  0.5486 -1.8917 -0.8632
 6109SOL     OW29959   0.425   2.841   4.049 -0.0630 -0.0062 -0.3305
 6109SOL    HW129960   0.436   2.799   3.964  0.0963 -0.7076  0.0349
 6109SOL    HW229961   0.363   2.785   4.095  0.0742  1.1816  1.2885
 6110SOL     OW29962   0.767   1.598   2.897  0.0455 -0.8055 -0.2562
 6110SOL    HW129963   0.834   1.539   2.863 -0.7650 -1.6114 -0.4497
 6110SOL    HW229964   0.699   1.531   2.903 -0.7123  0.0319  0.6310
 6111SOL     OW29965   2.157   0.821   8.354  0.9970 -0.1384  0.0236
 6111SOL    HW129966   2.199   0.901   8.322  0.1887  0.1376 -0.3411
 6111SOL    HW229967   2.183   0.759   8.285  0.3959 -0.3530 -0.0060
 6112SOL     OW29968   4.366   1.119   8.288 -0.2694  0.2213  0.0592
 6112SOL    HW129969   4.310   1.170   8.229 -1.2486 -1.8143 -0.7645
 6112SOL    HW229970   4.321   1.036   8.273  2.1628 -1.1207  0.2298
 6113SOL     OW29971   1.847   3.808  11.362  0.2064 -0.0536  0.1645
 6113SOL    HW129972   1.849   3.731  11.305  0.6363 -0.4118  0.6671
 6113SOL    HW229973   1.939   3.832  11.362  0.6225 -1.6619 -1.3892
 6114SOL     OW29974   1.062   3.321  17.033 -0.1461 -0.3733  0.5863
 6114SOL    HW129975   1.093   3.340  17.121  1.1494 -1.1691  0.3017
 6114SOL    HW229976   1.038   3.411  17.011  0.3703 -0.0794  1.2269
 6115SOL     OW29977   3.783   3.885   3.073  0.0874 -0.1589 -0.0359
 6115SOL    HW129978   3.706   3.837   3.042  1.7643 -0.5803 -3.5787
 6115SOL    HW229979   3.800   3.937   2.994  1.0002 -2.2509 -1.2088
 6116SOL     OW29980   4.168   0.163   6.778 -0.2329 -0.2615  0.6426
 6116SOL    HW129981   4.228   0.103   6.735  0.8980 -0.2146  2.1480
 6116SOL    HW229982   4.178   0.134   6.869  1.9855  2.1990  1.1599
 6117SOL     OW29983   1.806   0.141   8.455 -0.1763 -0.2052 -0.3968
 6117SOL    HW129984   1.861   0.145   8.533 -2.1862  2.2487  0.8842
 6117SOL    HW229985   1.847   0.202   8.394 -0.7298  0.4256 -0.1356
 6118SOL     OW29986   1.591   1.350   6.863  0.4859 -0.4012  0.1799
 6118SOL    HW129987   1.521   1.285   6.872  0.6934 -0.8316 -1.3568
 6118SOL    HW229988   1.567   1.418   6.927 -1.5116  0.9727 -2.0286
 6119SOL     OW29989   1.506   2.353   7.926 -0.0394  0.4171  0.0189
 6119SOL    HW129990   1.599   2.346   7.946  0.2412 -0.1569 -1.5170
 6119SOL    HW229991   1.480   2.261   7.914  0.7314  0.1884  0.1416
 6120SOL     OW29992   0.669   3.787   5.419 -0.0840  0.4184 -0.4226
 6120SOL    HW129993   0.707   3.701   5.401  0.0563  0.0816  1.4928
 6120SOL    HW229994   0.644   3.803   5.328  1.0739 -2.0404 -1.1734
 6121SOL     OW29995   4.612   0.784   1.259 -0.4156 -0.5646 -0.1180
 6121SOL    HW129996   4.646   0.827   1.337  0.1696  0.0555 -0.7261
 6121SOL    HW229997   4.683   0.721   1.248  1.3149  1.0220  1.9704
 6122SOL     OW29998   1.213   0.125  15.542  0.4207 -0.3490  0.7641
 6122SOL    HW129999   1.135   0.104  15.492  0.4247  2.3684 -0.3736
 6122SOL    HW230000   1.186   0.092  15.628  1.6386  1.5081  1.8870
 6123SOL     OW30001   0.021   4.708   8.428  0.3370 -0.3225  0.2505
 6123SOL    HW130002   4.717   4.649   8.364 -1.7937  1.2435  0.1477
 6123SOL    HW230003   4.684   4.695   8.489 -1.1313  3.1717 -0.7873
 6124SOL     OW30004   1.511   3.522   7.702 -0.3148 -0.1924 -0.1588
 6124SOL    HW130005   1.591   3.496   7.747 -0.3021  2.0055  1.0837
 6124SOL    HW230006   1.458   3.442   7.701 -0.4506 -0.0708 -2.6049
 6125SOL     OW30007   4.680   2.876   1.322  0.5658 -0.4236 -0.0395
 6125SOL    HW130008   4.618   2.939   1.359  2.0800  1.6927 -1.1176
 6125SOL    HW230009   4.622   2.802   1.311  0.5198 -0.4028  0.0633
 6126SOL     OW30010   3.145   2.537   5.765 -0.5393  0.1575  0.2984
 6126SOL    HW130011   3.193   2.495   5.694  0.7874 -1.9309  2.4337
 6126SOL    HW230012   3.221   2.569   5.813  1.4716 -1.7563 -1.6110
 6127SOL     OW30013   1.030   1.973   7.502  0.0935 -0.2318 -0.3971
 6127SOL    HW130014   1.031   1.926   7.419  1.5596 -3.3831  1.4388
 6127SOL    HW230015   0.940   1.955   7.529  0.7343 -0.3192  1.6860
 6128SOL     OW30016   3.201   1.982   5.899 -0.0187  0.3248  0.2224
 6128SOL    HW130017   3.288   1.942   5.895 -0.5515 -1.0771  3.2033
 6128SOL    HW230018   3.212   2.078   5.897  1.9794  0.0949 -0.3996
 6129SOL     OW30019   3.342   1.694  11.124  0.6243  0.1594  0.0548
 6129SOL    HW130020   3.414   1.668  11.067 -0.1737 -0.0841 -0.8524
 6129SOL    HW230021   3.389   1.748  11.188 -1.0536  0.5364  0.9869
 6130SOL     OW30022   1.174   2.292   1.266  0.3817 -0.3538 -0.1169
 6130SOL    HW130023   1.264   2.280   1.234  0.6126  0.6152  0.1829
 6130SOL    HW230024   1.166   2.210   1.316  0.5056 -1.2203 -1.5161
 6131SOL     OW30025   4.696   1.235   8.958 -0.4418  0.0760 -0.2034
 6131SOL    HW130026   0.013   1.306   8.995  1.1078 -1.1821  0.0241
 6131SOL    HW230027   4.618   1.284   8.935 -0.1893 -1.9459 -5.3083
 6132SOL     OW30028   0.790   0.952   5.825  0.0475 -0.2977  0.1506
 6132SOL    HW130029   0.774   0.862   5.853  2.9701 -0.1332  2.3450
 6132SOL    HW230030   0.697   0.976   5.825  0.1100 -0.0828  1.9814
 6133SOL     OW30031   4.148   2.576   2.645  0.4000  0.0213 -0.6491
 6133SOL    HW130032   4.052   2.579   2.648  0.3923 -1.8668  1.8362
 6133SOL    HW230033   4.175   2.511   2.711 -0.7313 -0.7058 -0.8849
 6134SOL     OW30034   1.443   1.586  14.320 -0.1715 -0.5597  0.7799
 6134SOL    HW130035   1.403   1.673  14.316  0.7825 -0.1539 -0.0533
 6134SOL    HW230036   1.429   1.561  14.411 -0.6032  2.0380  1.4399
 6135SOL     OW30037   0.081   2.788   6.227 -0.1293 -0.0294 -0.4762
 6135SOL    HW130038   0.010   2.840   6.263 -0.2499  0.0981 -0.9046
 6135SOL    HW230039   0.144   2.852   6.193  2.9167 -2.5016  0.4466
 6136SOL     OW30040   0.181   1.647  16.232  0.0842 -0.2610 -0.4105
 6136SOL    HW130041   0.163   1.740  16.241  1.5191 -0.1752  1.6083
 6136SOL    HW230042   0.096   1.611  16.208 -1.1952  2.1193  0.6020
 6137SOL     OW30043   4.482   1.210   7.971 -0.9390 -0.4057  0.5787
 6137SOL    HW130044   4.387   1.217   7.983 -0.9009 -1.2684  1.3536
 6137SOL    HW230045   4.490   1.304   7.986 -1.8484 -0.4153  1.1124
 6138SOL     OW30046   2.941   2.691   2.884 -0.2504 -0.4309  0.0815
 6138SOL    HW130047   2.944   2.609   2.933 -2.6975 -1.1600 -0.9902
 6138SOL    HW230048   2.885   2.667   2.810 -1.6917 -1.1567  1.4111
 6139SOL     OW30049   3.938   4.055  13.074 -0.4937  0.0804 -0.4477
 6139SOL    HW130050   3.861   4.039  13.019  0.9335  0.3698 -2.5484
 6139SOL    HW230051   3.994   4.092  13.006 -0.9538 -1.4380 -1.6650
 6140SOL     OW30052   0.279   1.982   3.623  0.2635 -0.7087 -0.5899
 6140SOL    HW130053   0.186   1.992   3.603  0.3333 -0.6510 -0.8995
 6140SOL    HW230054   0.282   1.982   3.718 -1.1631 -0.1151 -0.5404
 6141SOL     OW30055   0.710   3.461   1.219  0.4095  0.5231 -0.7312
 6141SOL    HW130056   0.792   3.450   1.268  0.0546 -1.0450 -0.4738
 6141SOL    HW230057   0.674   3.548   1.235  1.7210  0.7027  1.2528
 6142SOL     OW30058   1.164   3.348   8.199  0.4208 -0.1227 -0.2052
 6142SOL    HW130059   1.192   3.440   8.201 -0.4092  0.0684  3.3894
 6142SOL    HW230060   1.123   3.348   8.286  1.4811  0.4216  0.2990
 6143SOL     OW30061   2.401   0.038   8.573 -0.2960 -0.3373 -0.1854
 6143SOL    HW130062   2.376   0.127   8.550 -1.3397 -0.3366  0.9597
 6143SOL    HW230063   2.479   0.026   8.518  0.6657  1.2260  0.8642
 6144SOL     OW30064   1.829   0.715  14.360  0.5712 -0.2112 -0.3531
 6144SOL    HW130065   1.789   0.692  14.444  0.2517  1.2000 -0.1168
 6144SOL    HW230066   1.919   0.724  14.391  1.4447 -2.7501 -2.1380
 6145SOL     OW30067   1.217   2.873   5.557 -0.3878  0.3663  0.0216
 6145SOL    HW130068   1.260   2.796   5.594  0.0837  0.3515 -0.5605
 6145SOL    HW230069   1.256   2.880   5.470  0.4301 -0.7222  0.3079
 6146SOL     OW30070   4.342   3.636   0.979  0.4586 -0.3880 -0.0970
 6146SOL    HW130071   4.432   3.648   1.012  0.8551 -0.4309 -1.1471
 6146SOL    HW230072   4.303   3.722   0.997 -1.1697 -1.2212  0.2989
 6147SOL     OW30073   4.185   3.540   4.758  0.3500  0.3093  0.2048
 6147SOL    HW130074   4.244   3.616   4.760  1.5102 -0.5711 -0.7005
 6147SOL    HW230075   4.209   3.493   4.837 -1.2225 -3.5841 -1.6512
 6148SOL     OW30076   4.658   0.086  16.311  0.2396  0.0079 -0.0550
 6148SOL    HW130077   4.648   0.091  16.216  0.0737  1.8698  0.0585
 6148SOL    HW230078   4.578   0.125  16.347  0.2629 -2.1628  2.3426
 6149SOL     OW30079   2.239   3.211   4.968  0.2101 -0.2651 -0.3685
 6149SOL    HW130080   2.232   3.228   4.874  1.8990  0.4335 -0.3529
 6149SOL    HW230081   2.266   3.295   5.005  0.5460 -0.2697 -0.6089
 6150SOL     OW30082   2.330   3.794   1.626  0.2857 -0.3022 -0.3295
 6150SOL    HW130083   2.333   3.749   1.711 -2.1409  2.5088  1.2868
 6150SOL    HW230084   2.359   3.728   1.564 -0.8663  1.0042 -2.2635
 6151SOL     OW30085   4.577   2.463   6.391 -0.2309 -0.5480 -0.0297
 6151SOL    HW130086   4.668   2.487   6.413 -0.6170  0.1426  0.8038
 6151SOL    HW230087   4.519   2.529   6.427 -0.5339 -0.5524 -0.5198
 6152SOL     OW30088   0.440   2.616   1.712 -0.6590 -0.3032  0.2001
 6152SOL    HW130089   0.448   2.698   1.761 -0.3234 -0.1989 -0.0247
 6152SOL    HW230090   0.499   2.637   1.640  0.7755 -2.0711  0.8743
 6153SOL     OW30091   0.382   2.232   5.582  0.3848 -0.3875 -0.6207
 6153SOL    HW130092   0.340   2.156   5.541 -2.2663  0.6631  0.1930
 6153SOL    HW230093   0.475   2.214   5.569  0.2501  0.2036 -2.3074
 6154SOL     OW30094   0.336   4.118  10.551 -0.1221 -0.0785  0.1902
 6154SOL    HW130095   0.285   4.177  10.495  0.0753  0.4641  0.5853
 6154SOL    HW230096   0.321   4.028  10.522  0.9260 -1.0574  2.7550
 6155SOL     OW30097   1.884   0.931   8.004  0.1045  0.6840 -0.7765
 6155SOL    HW130098   1.968   0.892   7.980 -0.0988  0.3530 -0.9554
 6155SOL    HW230099   1.846   0.951   7.919 -0.4324  0.0312 -0.6864
 6156SOL     OW30100   4.452   0.323   3.473  0.8435 -0.5924  0.1846
 6156SOL    HW130101   4.534   0.274   3.484  0.9529 -0.5372 -0.4155
 6156SOL    HW230102   4.472   0.403   3.521 -0.4286 -0.6145  0.7497
 6157SOL     OW30103   1.918   0.712   8.411 -0.1485  0.3388  0.3790
 6157SOL    HW130104   1.885   0.782   8.468 -0.1374 -0.0179  0.8242
 6157SOL    HW230105   2.001   0.745   8.377  0.1292 -0.7433  0.0240
 6158SOL     OW30106   0.244   1.454  10.550  0.4506  0.3666  0.6445
 6158SOL    HW130107   0.284   1.485  10.469  0.8376 -0.4076  0.5334
 6158SOL    HW230108   0.310   1.483  10.613  0.3514  2.5924 -0.3012
 6159SOL     OW30109   3.484   1.263   4.353 -0.7353 -0.2777  0.2657
 6159SOL    HW130110   3.469   1.349   4.391  1.0591  0.8945 -1.6873
 6159SOL    HW230111   3.438   1.197   4.406 -0.5892 -0.4134  0.2237
 6160SOL     OW30112   4.556   4.008  11.721 -0.2568  0.3517  0.3661
 6160SOL    HW130113   4.646   4.038  11.728 -0.4323  0.8751  0.4037
 6160SOL    HW230114   4.554   3.919  11.757 -1.2546  0.3823  0.3859
 6161SOL     OW30115   0.506   4.593   5.257  0.3053 -0.1952  0.0710
 6161SOL    HW130116   0.529   4.618   5.168  0.0001 -2.2822 -0.6031
 6161SOL    HW230117   0.590   4.564   5.291  0.4400 -1.6448 -1.4987
 6162SOL     OW30118   0.268   1.533   2.666 -0.0134 -0.1227  0.8586
 6162SOL    HW130119   0.310   1.466   2.612  0.8002 -0.2807  1.6910
 6162SOL    HW230120   0.251   1.477   2.742  1.8931 -1.0473  0.6126
 6163SOL     OW30121   0.733   2.781   0.166 -0.3076  0.0264 -0.8065
 6163SOL    HW130122   0.767   2.692   0.164 -0.9668 -0.2664  0.9428
 6163SOL    HW230123   0.732   2.806   0.073 -3.1382 -0.3449 -0.8746
 6164SOL     OW30124   3.289   2.657   6.506 -0.2730  0.6393  0.2291
 6164SOL    HW130125   3.266   2.659   6.414 -0.0070 -0.9728  0.1167
 6164SOL    HW230126   3.347   2.581   6.518 -0.8714  0.0646 -0.5441
 6165SOL     OW30127   3.150   3.430   8.647  0.2595  0.9629 -0.4738
 6165SOL    HW130128   3.101   3.406   8.725 -0.4475  1.1325 -0.8720
 6165SOL    HW230129   3.207   3.500   8.680  0.4671 -0.2950  1.8486
 6166SOL     OW30130   0.663   3.727   1.389 -0.0345 -0.7163  0.0887
 6166SOL    HW130131   0.631   3.813   1.362 -0.8554 -1.0231  0.0758
 6166SOL    HW230132   0.628   3.719   1.477 -1.5902 -1.3209 -0.5895
 6167SOL     OW30133   0.105   1.835   9.215 -0.0503 -0.3907 -0.3687
 6167SOL    HW130134   0.171   1.777   9.178 -1.6956 -2.5844  0.1190
 6167SOL    HW230135   0.097   1.890   9.138  2.3051 -0.2105 -0.4903
 6168SOL     OW30136   1.800   3.242   8.412  0.3492  0.0881  0.2606
 6168SOL    HW130137   1.827   3.166   8.463 -1.3612 -0.4355  0.3759
 6168SOL    HW230138   1.741   3.201   8.349  1.6609  1.6422 -2.0354
 6169SOL     OW30139   4.712   3.236  14.872 -0.1211  0.3513 -0.0780
 6169SOL    HW130140   4.722   3.140  14.871  0.8980  0.4719 -1.9667
 6169SOL    HW230141   0.068   3.254  14.852  0.2250  0.0223  1.2295
 6170SOL     OW30142   0.067   4.017   3.085  0.2030  0.0628 -0.5810
 6170SOL    HW130143   0.083   3.990   2.994  1.0029  2.5338 -1.1828
 6170SOL    HW230144   4.728   3.958   3.094  1.0441 -0.6297  1.7478
 6171SOL     OW30145   4.055   0.270   3.041  0.2397 -0.3434 -0.2384
 6171SOL    HW130146   4.051   0.365   3.033  0.5744 -0.3588 -0.5979
 6171SOL    HW230147   3.989   0.249   3.106  0.8519  0.1889  0.5463
 6172SOL     OW30148   3.722   1.957   2.830  0.1244 -0.2826  0.3330
 6172SOL    HW130149   3.809   1.943   2.867 -0.0502 -1.3940  0.3094
 6172SOL    HW230150   3.717   1.900   2.754 -0.0799  1.6238 -1.0929
 6173SOL     OW30151   2.310   1.488   3.384  0.0448 -0.4465 -0.2135
 6173SOL    HW130152   2.400   1.520   3.375 -0.7925  2.4998  1.7584
 6173SOL    HW230153   2.260   1.552   3.333 -1.3251 -1.3638 -0.0021
 6174SOL     OW30154   4.715   2.553   5.030 -0.3046  0.1055  0.0873
 6174SOL    HW130155   4.663   2.633   5.029 -2.0224 -0.9784  1.1466
 6174SOL    HW230156   4.689   2.503   4.952 -2.1122 -0.3257  0.9719
 6175SOL     OW30157   4.225   3.361   9.136 -0.1845  0.0236  0.5206
 6175SOL    HW130158   4.230   3.391   9.226  1.4660 -0.2543  0.5131
 6175SOL    HW230159   4.295   3.297   9.133 -1.1634 -1.0160 -0.1595
 6176SOL     OW30160   2.657   2.982   1.284  0.1956  0.3608  0.2632
 6176SOL    HW130161   2.615   2.923   1.222 -0.9088  0.3171  1.0487
 6176SOL    HW230162   2.742   2.938   1.277 -0.5607 -1.1272  0.4914
 6177SOL     OW30163   3.892   4.399   7.088 -0.2714 -0.0518  1.0577
 6177SOL    HW130164   3.874   4.492   7.085  1.8653  0.4110  2.1131
 6177SOL    HW230165   3.822   4.375   7.149 -1.9321  0.8358 -0.5090
 6178SOL     OW30166   0.332   2.953  10.574 -0.6260  0.0697  0.1730
 6178SOL    HW130167   0.245   2.937  10.539 -0.7876  1.0945  0.1026
 6178SOL    HW230168   0.392   2.920  10.507 -1.2005  0.8820 -0.7493
 6179SOL     OW30169   2.109   2.437   2.788 -0.4149  0.2688  0.3938
 6179SOL    HW130170   2.059   2.444   2.870 -0.9515 -0.0761  0.1001
 6179SOL    HW230171   2.188   2.486   2.809 -1.3620  1.1984  1.8326
 6180SOL     OW30172   1.269   2.438   1.560 -0.2076 -0.2296 -0.6501
 6180SOL    HW130173   1.265   2.492   1.481 -0.7346 -0.2663 -0.6448
 6180SOL    HW230174   1.328   2.371   1.524 -0.1844 -0.6860  0.2352
 6181SOL     OW30175   0.038   0.475   7.295 -0.1701 -0.4063  0.5408
 6181SOL    HW130176   4.702   0.531   7.266 -1.9784 -3.2828 -0.5536
 6181SOL    HW230177   0.078   0.537   7.355  0.4223  0.2544 -0.5392
 6182SOL     OW30178   2.399   0.828   0.173 -0.2724 -0.0860  0.5100
 6182SOL    HW130179   2.418   0.921   0.158  0.2258  0.0989  2.2858
 6182SOL    HW230180   2.476   0.787   0.134  0.0440 -1.1014  2.1970
 6183SOL     OW30181   1.911   4.548   5.968  0.2831 -0.2012  0.0233
 6183SOL    HW130182   1.947   4.488   5.903 -0.6752  0.1173 -0.7981
 6183SOL    HW230183   1.968   4.523   6.041  1.1241  0.1478 -0.5105
 6184SOL     OW30184   2.899   3.042   4.163 -0.4325  0.0506 -0.0804
 6184SOL    HW130185   2.885   3.046   4.258 -0.2351  1.1083 -0.0977
 6184SOL    HW230186   2.948   3.123   4.151 -0.9398  0.4315  0.4367
 6185SOL     OW30187   3.626   1.832   8.218 -0.1084  0.1201 -0.0703
 6185SOL    HW130188   3.552   1.789   8.260  0.8555  1.3423  2.8946
 6185SOL    HW230189   3.638   1.767   8.149 -2.0804 -0.9870  0.6273
 6186SOL     OW30190   4.682   3.376   3.448  0.4582 -0.5528 -0.6018
 6186SOL    HW130191   4.667   3.452   3.393  1.2642 -1.1003 -1.5721
 6186SOL    HW230192   4.726   3.418   3.521  0.3376 -0.2510 -0.7029
 6187SOL     OW30193   3.968   4.008   3.532 -0.2349 -0.0505 -0.5056
 6187SOL    HW130194   4.053   4.030   3.494 -0.0300 -0.7851 -0.4643
 6187SOL    HW230195   3.911   4.038   3.461  1.2895  1.5540 -1.0576
 6188SOL     OW30196   1.619   3.857   0.417 -0.1417 -0.0784  0.1535
 6188SOL    HW130197   1.659   3.941   0.440  0.4043 -0.0460 -0.9113
 6188SOL    HW230198   1.645   3.855   0.325 -2.5138 -0.9272 -0.4991
 6189SOL     OW30199   1.597   2.882   3.882  0.1622 -0.1106  0.5401
 6189SOL    HW130200   1.633   2.872   3.970 -1.2435 -2.2199  0.8849
 6189SOL    HW230201   1.599   2.791   3.852  0.1429  0.1682 -0.3122
 6190SOL     OW30202   4.635   3.849   7.122 -0.1064  0.1227 -0.1942
 6190SOL    HW130203   4.680   3.788   7.179 -1.9207 -0.0565  1.0636
 6190SOL    HW230204   4.699   3.914   7.095  0.7814  0.1687  2.0531
 6191SOL     OW30205   2.164   4.195   8.406 -0.0556  0.2973 -0.6947
 6191SOL    HW130206   2.143   4.145   8.485 -0.5552  1.2282 -0.2409
 6191SOL    HW230207   2.125   4.279   8.429 -0.6759 -0.3962  0.7768
 6192SOL     OW30208   1.094   1.606   7.583  0.1107 -0.6271 -0.0921
 6192SOL    HW130209   1.101   1.512   7.597  2.0029 -0.8235 -2.3235
 6192SOL    HW230210   1.042   1.617   7.503  0.1249  0.2941  0.0224
 6193SOL     OW30211   1.379   1.178   2.179  0.0804  0.0709  0.6028
 6193SOL    HW130212   1.387   1.086   2.202  0.4598  0.1395  0.7443
 6193SOL    HW230213   1.470   1.203   2.164 -0.7979  2.0273 -1.4548
 6194SOL     OW30214   3.880   0.884  13.805  0.0915  0.0468  0.0193
 6194SOL    HW130215   3.906   0.946  13.873 -0.1984 -1.3093  1.3473
 6194SOL    HW230216   3.960   0.846  13.769 -0.5537 -0.7623 -0.5767
 6195SOL     OW30217   0.758   3.447   4.863  0.0918 -0.6557 -0.1402
 6195SOL    HW130218   0.735   3.506   4.791  1.6504  0.5729  0.3588
 6195SOL    HW230219   0.844   3.487   4.876  0.6678 -1.4036 -1.5554
 6196SOL     OW30220   2.250   0.035   3.263 -0.4792 -0.0426  0.5630
 6196SOL    HW130221   2.181   0.081   3.216  0.1504  0.5191  0.1887
 6196SOL    HW230222   2.317   0.104   3.263  1.6986 -2.1528  0.3207
 6197SOL     OW30223   3.386   3.411   7.791 -0.4720  0.3835 -0.7323
 6197SOL    HW130224   3.302   3.384   7.754 -1.8210  3.9110 -0.2326
 6197SOL    HW230225   3.352   3.498   7.811  1.0082  0.1645  2.7451
 6198SOL     OW30226   1.151   3.589   1.101  0.1061  0.1494 -0.9192
 6198SOL    HW130227   1.072   3.596   1.046 -1.4219  0.9079  1.3772
 6198SOL    HW230228   1.223   3.613   1.042 -0.6076  2.7119 -0.7427
 6199SOL     OW30229   0.525   4.430   6.821  0.1557 -0.1187 -0.5616
 6199SOL    HW130230   0.439   4.466   6.845 -0.6676 -0.2634 -3.3333
 6199SOL    HW230231   0.570   4.493   6.765  1.6118  0.1054  0.8728
 6200SOL     OW30232   4.405   2.828   3.839 -0.4306  0.6056 -0.3123
 6200SOL    HW130233   4.471   2.795   3.901 -0.6703  0.8584  0.0735
 6200SOL    HW230234   4.440   2.783   3.762  0.2560  0.2951  0.1772
 6201SOL     OW30235   4.460   1.298  15.208  0.3660 -0.1862 -0.0773
 6201SOL    HW130236   4.365   1.295  15.198  0.4544 -0.9354 -0.7035
 6201SOL    HW230237   4.489   1.302  15.118 -2.2904 -0.3718 -0.9547
 6202SOL     OW30238   4.244   3.528   1.932  0.1119  0.5825  0.2684
 6202SOL    HW130239   4.247   3.599   1.869  1.9917 -0.2351 -0.5724
 6202SOL    HW230240   4.326   3.486   1.904 -0.0688 -0.8502  1.8421
 6203SOL     OW30241   3.498   1.691  13.507  0.5743  0.2622  0.2159
 6203SOL    HW130242   3.543   1.637  13.571 -0.5909 -0.0365  0.7818
 6203SOL    HW230243   3.435   1.628  13.474  1.7658 -0.7331 -0.1453
 6204SOL     OW30244   2.378   4.198   2.820 -0.3996  0.4723 -0.0456
 6204SOL    HW130245   2.373   4.160   2.907 -1.7723  3.5845  1.2284
 6204SOL    HW230246   2.303   4.257   2.822 -0.5818  0.2208  0.3918
 6205SOL     OW30247   0.779   0.831  11.299 -0.3202  0.1027  0.1861
 6205SOL    HW130248   0.688   0.861  11.297 -0.6059 -0.8458 -1.2556
 6205SOL    HW230249   0.822   0.895  11.356  0.5579 -0.2738 -0.0543
 6206SOL     OW30250   2.624   1.653  14.146 -0.2095  0.0964 -0.2987
 6206SOL    HW130251   2.565   1.726  14.127  0.3811  0.6619  0.0173
 6206SOL    HW230252   2.696   1.690  14.198 -0.0105 -1.4978  0.5579
 6207SOL     OW30253   2.979   0.653  14.916 -0.2524 -0.3844 -0.6406
 6207SOL    HW130254   3.009   0.743  14.906 -2.1118  0.5398  2.2399
 6207SOL    HW230255   3.061   0.610  14.938 -0.2119  0.2906  0.5078
 6208SOL     OW30256   3.441   2.011   2.832 -0.3951 -0.0069  0.3434
 6208SOL    HW130257   3.421   1.920   2.809 -0.2156  0.2696 -0.8892
 6208SOL    HW230258   3.536   2.000   2.836  0.1864  3.9032 -2.8865
 6209SOL     OW30259   0.683   2.740   2.708 -0.1069  0.3945 -0.2479
 6209SOL    HW130260   0.734   2.811   2.746  1.2513 -0.0544 -1.2480
 6209SOL    HW230261   0.644   2.786   2.634 -1.6641 -0.1680  0.2219
 6210SOL     OW30262   0.057   1.264  12.249 -0.6230  0.6347  0.7414
 6210SOL    HW130263   0.148   1.293  12.239 -0.0985 -1.4081 -0.4688
 6210SOL    HW230264   0.048   1.219  12.333 -0.8097  2.3741  1.6584
 6211SOL     OW30265   2.958   2.203   5.917  0.0526 -0.7470  0.0267
 6211SOL    HW130266   3.022   2.274   5.907  0.1379 -0.7717  0.3996
 6211SOL    HW230267   2.967   2.193   6.012  0.2691 -0.2861  0.0563
 6212SOL     OW30268   3.649   2.900   3.777 -0.6647  0.0653  0.0485
 6212SOL    HW130269   3.674   2.837   3.844  1.1654  1.1800  0.3987
 6212SOL    HW230270   3.561   2.918   3.809  0.3697  0.6605  2.5442
 6213SOL     OW30271   0.549   3.883   4.681 -0.4503 -0.0805 -0.1538
 6213SOL    HW130272   0.629   3.831   4.690  0.0801  0.8797  0.5970
 6213SOL    HW230273   0.543   3.872   4.586 -1.8845 -0.1925 -0.0405
 6214SOL     OW30274   1.064   1.824  16.648 -0.4170  0.0321  0.0695
 6214SOL    HW130275   1.098   1.911  16.628 -0.9349  0.7200  2.1709
 6214SOL    HW230276   0.973   1.840  16.622 -0.8870  0.9672  2.3229
 6215SOL     OW30277   2.622   4.310  14.629 -0.6421 -0.1284 -0.2283
 6215SOL    HW130278   2.574   4.227  14.626 -2.4086  0.8380  1.1159
 6215SOL    HW230279   2.560   4.381  14.643 -0.0022  0.4013 -0.0992
 6216SOL     OW30280   3.940   3.665   1.784 -0.0755 -0.4045  0.2623
 6216SOL    HW130281   3.998   3.622   1.722 -1.6384  0.9385 -2.1096
 6216SOL    HW230282   3.907   3.592   1.837 -1.0813 -0.9649 -1.1609
 6217SOL     OW30283   1.206   0.685   2.504 -0.0968  0.2163 -0.2627
 6217SOL    HW130284   1.186   0.595   2.530  0.0716  0.4461  0.6649
 6217SOL    HW230285   1.122   0.715   2.469 -0.9469 -0.9179  0.8051
 6218SOL     OW30286   2.725   2.382   8.055 -0.3477 -0.3485  0.1782
 6218SOL    HW130287   2.740   2.427   7.972  1.7561 -1.0250  0.2054
 6218SOL    HW230288   2.775   2.434   8.118 -1.9482 -1.7254  2.5905
 6219SOL     OW30289   3.942   1.332   8.388  0.3547  0.1901  0.4727
 6219SOL    HW130290   3.928   1.412   8.337  0.5308  0.3496  0.6754
 6219SOL    HW230291   3.876   1.277   8.345  0.9201 -0.5176  0.4979
 6220SOL     OW30292   2.249   0.588   5.499 -0.0328 -0.2803 -0.2846
 6220SOL    HW130293   2.343   0.603   5.487 -0.2939  1.5909  0.0294
 6220SOL    HW230294   2.222   0.549   5.416 -0.6499 -2.6699  1.0346
 6221SOL     OW30295   0.477   3.146   6.317 -0.2940  0.1946  0.3366
 6221SOL    HW130296   0.464   3.073   6.378 -0.7259 -0.4296 -0.5176
 6221SOL    HW230297   0.546   3.112   6.260  1.1626  1.3266  1.3957
 6222SOL     OW30298   2.572   4.126  13.187 -0.3018 -0.5824  0.2248
 6222SOL    HW130299   2.636   4.070  13.144  0.5298 -0.7700  1.6871
 6222SOL    HW230300   2.566   4.082  13.272 -1.4886 -0.6662  0.0882
 6223SOL     OW30301   1.965   3.203   4.619  0.1081 -0.0579 -0.1286
 6223SOL    HW130302   1.987   3.247   4.702 -0.7288 -0.0058  0.0669
 6223SOL    HW230303   2.027   3.131   4.626  0.1861 -0.0508 -0.7795
 6224SOL     OW30304   1.470   3.727   7.550  0.4857  0.0581 -0.2397
 6224SOL    HW130305   1.471   3.652   7.610 -1.1633  1.1358  1.1526
 6224SOL    HW230306   1.536   3.781   7.594  1.1637 -0.9912  0.0326
 6225SOL     OW30307   3.276   4.508   6.155 -0.6801  0.3199  0.5167
 6225SOL    HW130308   3.345   4.514   6.088 -0.5478 -0.2187  0.5986
 6225SOL    HW230309   3.317   4.530   6.239 -0.8043  1.0606  0.3806
 6226SOL     OW30310   2.333   4.561   8.749 -0.3126 -0.4020 -0.3795
 6226SOL    HW130311   2.370   4.476   8.724  0.3109  0.1285 -1.2661
 6226SOL    HW230312   2.373   4.622   8.687  1.9768 -0.4098  1.1147
 6227SOL     OW30313   3.964   3.602   6.781  0.3690  0.3223  0.1575
 6227SOL    HW130314   3.939   3.513   6.757  0.7621  0.0731  0.6713
 6227SOL    HW230315   4.041   3.592   6.837 -1.7981  0.9773  3.2326
 6228SOL     OW30316   3.635   0.641   7.869 -0.0532  0.1323  0.7835
 6228SOL    HW130317   3.699   0.613   7.934  2.3920  1.0347 -1.2221
 6228SOL    HW230318   3.552   0.608   7.901  0.7561 -0.7589  1.9541
 6229SOL     OW30319   2.558   2.676   4.908  0.2311 -0.3012 -0.3545
 6229SOL    HW130320   2.502   2.616   4.958 -0.8595  1.3360  0.3921
 6229SOL    HW230321   2.622   2.708   4.971 -0.5056  3.0215 -1.3352
 6230SOL     OW30322   2.008   4.096   2.156 -0.4767  0.2166  0.0726
 6230SOL    HW130323   2.080   4.044   2.190 -1.1550  0.5028  1.9956
 6230SOL    HW230324   2.044   4.128   2.074  0.0458  1.2226  0.6944
 6231SOL     OW30325   0.950   3.108   2.732  0.1003 -0.1569  0.0866
 6231SOL    HW130326   0.943   3.052   2.809  1.1806  1.0265  1.0562
 6231SOL    HW230327   1.010   3.177   2.762  0.9883 -0.3699 -1.2011
 6232SOL     OW30328   0.558   4.101   7.958 -0.2517  0.2483  0.3181
 6232SOL    HW130329   0.485   4.162   7.969  1.1514  2.6484 -3.4938
 6232SOL    HW230330   0.595   4.106   8.047  1.0541 -1.1316 -0.1511
 6233SOL     OW30331   2.351   3.657   2.071  0.3731 -0.2876  0.6550
 6233SOL    HW130332   2.264   3.640   2.036 -0.1343  0.2566  1.6379
 6233SOL    HW230333   2.392   3.572   2.089 -0.3459 -0.8383 -0.3132
 6234SOL     OW30334   4.147   4.374   8.433  0.0331 -0.0587 -0.1366
 6234SOL    HW130335   4.172   4.288   8.398 -2.4209  0.1358 -2.3469
 6234SOL    HW230336   4.230   4.410   8.463  0.1881  0.9877 -1.8225
 6235SOL     OW30337   0.127   2.682   9.041  0.6225  0.4639  0.3185
 6235SOL    HW130338   0.141   2.652   9.131 -0.1216  2.2540  1.0309
 6235SOL    HW230339   0.113   2.595   9.004 -0.0953  1.2699 -1.3193
 6236SOL     OW30340   2.248   0.455  17.279 -0.1780  0.1637  0.1568
 6236SOL    HW130341   2.193   0.441  17.202 -0.5362 -0.8134  0.5883
 6236SOL    HW230342   2.185   0.449  17.352 -1.4778  1.3100 -0.8763
 6237SOL     OW30343   4.256   3.637   2.617  0.2679  0.2150 -0.0441
 6237SOL    HW130344   4.200   3.586   2.558 -1.5296 -0.7224  2.4283
 6237SOL    HW230345   4.267   3.574   2.689 -1.0180 -1.8062 -1.5849
 6238SOL     OW30346   0.006   4.674   6.662  1.0251  0.0128  0.3373
 6238SOL    HW130347   0.047   4.723   6.591  0.9862 -1.5409 -0.7435
 6238SOL    HW230348   4.648   4.689   6.659  1.4089  1.7675 -2.5590
 6239SOL     OW30349   0.839   4.417   9.500  0.2844 -1.0544  0.0544
 6239SOL    HW130350   0.797   4.335   9.475 -2.4491  0.4534 -0.2954
 6239SOL    HW230351   0.887   4.441   9.421  1.3487 -0.3183  0.9158
 6240SOL     OW30352   3.620   1.606   8.056 -0.6454  0.1708 -0.5797
 6240SOL    HW130353   3.558   1.579   7.989  0.2227 -2.2829 -0.3843
 6240SOL    HW230354   3.694   1.621   7.996  1.4892 -0.6062  1.8262
 6241SOL     OW30355   3.728   2.135   7.218  0.2387  0.1743  0.2323
 6241SOL    HW130356   3.693   2.136   7.307  1.6871  1.0584  0.7882
 6241SOL    HW230357   3.688   2.216   7.186  1.1890 -0.5719 -2.8439
 6242SOL     OW30358   0.347   0.200  10.891  0.6051  0.1287  0.7321
 6242SOL    HW130359   0.307   0.287  10.896 -1.2027 -0.5874 -1.1013
 6242SOL    HW230360   0.412   0.216  10.823 -1.4790  1.1558 -1.0386
 6243SOL     OW30361   1.561   4.535  10.074 -0.5412  0.3232 -0.7759
 6243SOL    HW130362   1.610   4.454  10.058 -1.5045 -0.2428 -0.8395
 6243SOL    HW230363   1.587   4.596  10.004 -2.3888  1.4467 -0.4755
 6244SOL     OW30364   3.833   2.488   3.750  0.3866  0.0338  0.0917
 6244SOL    HW130365   3.888   2.546   3.802 -0.5445 -0.1868  1.3248
 6244SOL    HW230366   3.782   2.554   3.703  1.6250  0.7130 -0.2967
 6245SOL     OW30367   3.295   3.230   3.566  0.0554 -0.4083  0.2102
 6245SOL    HW130368   3.351   3.154   3.581  0.6008 -0.0585 -0.0517
 6245SOL    HW230369   3.210   3.188   3.579 -1.5986  2.8411 -0.1577
 6246SOL     OW30370   2.937   1.388  12.600 -0.0152 -0.2791 -0.3856
 6246SOL    HW130371   2.982   1.344  12.528 -2.3719 -0.3794 -1.8111
 6246SOL    HW230372   3.014   1.415  12.650 -0.8621 -1.3435  1.4854
 6247SOL     OW30373   2.909   1.096   5.344 -0.2337 -0.1975  0.0752
 6247SOL    HW130374   2.956   1.172   5.378  0.8753 -0.5148 -0.7424
 6247SOL    HW230375   2.921   1.029   5.411 -0.8857  0.1929  0.5768
 6248SOL     OW30376   2.217   1.243  11.017 -0.5960 -0.0188 -0.0794
 6248SOL    HW130377   2.284   1.307  10.995 -1.1440  0.3796 -0.5792
 6248SOL    HW230378   2.138   1.291  10.993 -0.3740 -0.8240 -2.4700
 6249SOL     OW30379   4.230   1.076   8.717  0.0141 -0.1918  0.1149
 6249SOL    HW130380   4.194   1.134   8.650  3.1976  3.8837  2.0149
 6249SOL    HW230381   4.233   0.998   8.660 -2.1876  0.0035 -0.2887
 6250SOL     OW30382   4.592   3.733   6.092  0.6646  0.0506  0.1604
 6250SOL    HW130383   4.593   3.714   5.998 -2.9245  0.3452  0.0520
 6250SOL    HW230384   4.616   3.648   6.127  1.1716 -1.0527 -2.8548
 6251SOL     OW30385   3.642   2.339  13.025 -0.3048 -0.0696  0.3734
 6251SOL    HW130386   3.720   2.288  13.050  0.4382  1.1907  0.6171
 6251SOL    HW230387   3.576   2.276  13.055 -1.1426 -0.2849 -1.9719
 6252SOL     OW30388   0.442   0.163   5.636  0.4938  0.1297  0.5095
 6252SOL    HW130389   0.518   0.215   5.611 -1.3527  1.8569 -1.5248
 6252SOL    HW230390   0.484   0.082   5.666  1.0141  0.9596  1.9778
 6253SOL     OW30391   0.104   4.221   1.599  0.4503  0.3637 -0.0038
 6253SOL    HW130392   0.170   4.183   1.656  1.3698  0.8934 -0.7036
 6253SOL    HW230393   0.027   4.166   1.608  1.8901 -1.6341  0.0658
 6254SOL     OW30394   0.786   0.597  11.156  0.0293  0.6588 -0.3299
 6254SOL    HW130395   0.784   0.679  11.205  0.4421  0.2622  0.3523
 6254SOL    HW230396   0.695   0.592  11.129  1.1655 -3.8377 -3.1859
 6255SOL     OW30397   1.464   4.033  11.996  0.3100 -0.6356  0.4296
 6255SOL    HW130398   1.551   3.996  12.005  0.2599 -1.6139 -2.9889
 6255SOL    HW230399   1.463   4.066  11.905  0.1019  1.9264  1.3537
 6256SOL     OW30400   1.074   3.359   8.447 -0.9590  0.4929 -0.4347
 6256SOL    HW130401   1.080   3.437   8.502  1.6332 -0.0064 -0.0071
 6256SOL    HW230402   1.087   3.301   8.521 -2.2222 -1.1854 -1.5172
 6257SOL     OW30403   4.244   3.519   3.735 -0.4236 -0.1017 -0.2810
 6257SOL    HW130404   4.236   3.607   3.771 -2.2669 -0.3921  0.0627
 6257SOL    HW230405   4.269   3.472   3.815 -0.8879  0.3777  0.1461
 6258SOL     OW30406   0.126   3.266  12.328  0.6031  0.0142  0.4147
 6258SOL    HW130407   0.179   3.279  12.406  1.5088 -0.8115 -0.0656
 6258SOL    HW230408   0.133   3.173  12.305  1.7903  0.6578 -1.7545
 6259SOL     OW30409   2.272   2.218   3.078 -0.5206 -0.3728 -0.4836
 6259SOL    HW130410   2.207   2.277   3.115  1.5059  0.7446  1.2500
 6259SOL    HW230411   2.229   2.135   3.099 -1.3390  0.3548  0.6651
 6260SOL     OW30412   1.786   2.277   2.530 -0.0453 -0.4068 -0.3775
 6260SOL    HW130413   1.842   2.286   2.607 -0.1228  2.4476 -0.6474
 6260SOL    HW230414   1.728   2.353   2.538 -1.2074 -0.9876 -3.4930
 6261SOL     OW30415   0.483   1.619   5.446  0.2855  0.2487  0.6776
 6261SOL    HW130416   0.512   1.575   5.366  1.4738  1.7545  0.2737
 6261SOL    HW230417   0.510   1.557   5.513  1.5030  2.7825  2.5162
 6262SOL     OW30418   4.214   0.859   4.610  0.4536 -0.5898  0.1760
 6262SOL    HW130419   4.168   0.940   4.633  0.1687 -0.7867  0.3038
 6262SOL    HW230420   4.137   0.822   4.567  0.1804 -1.5343  1.4558
 6263SOL     OW30421   4.582   4.318   4.471  0.2204 -0.3805  0.0545
 6263SOL    HW130422   4.529   4.241   4.455  1.4490 -0.9663 -1.2386
 6263SOL    HW230423   4.661   4.303   4.418  1.0461  1.6139  0.7345
 6264SOL     OW30424   2.589   4.140   8.037 -0.1189 -0.0035 -0.2939
 6264SOL    HW130425   2.501   4.145   8.075  0.3497 -2.3030  1.0895
 6264SOL    HW230426   2.566   4.167   7.948 -2.1013  0.2447  0.3028
 6265SOL     OW30427   3.232   2.905   7.414  0.2768  0.0216  0.5625
 6265SOL    HW130428   3.175   2.977   7.444  0.4838  1.3315 -2.1633
 6265SOL    HW230429   3.174   2.833   7.388  0.3439  0.2884 -0.3260
 6266SOL     OW30430   1.544   2.710   2.355 -0.2503  0.3918 -0.0384
 6266SOL    HW130431   1.512   2.801   2.353 -1.0120  0.1309  0.2149
 6266SOL    HW230432   1.628   2.729   2.397 -0.3661  1.2919 -0.2027
 6267SOL     OW30433   0.228   0.590  16.273 -0.3879  0.1368 -0.0425
 6267SOL    HW130434   0.305   0.628  16.316  0.8855 -2.3081 -0.1468
 6267SOL    HW230435   0.249   0.501  16.302 -1.9701 -0.0168  0.6309
 6268SOL     OW30436   4.718   4.637   4.080 -0.3285 -0.3043  0.2511
 6268SOL    HW130437   0.066   4.675   4.105 -0.0919 -0.4995 -0.2332
 6268SOL    HW230438   4.661   4.651   4.156 -2.0910  0.4600 -1.2178
 6269SOL     OW30439   0.816   2.819  17.617  0.7779  0.5375 -0.4857
 6269SOL    HW130440   0.903   2.783  17.631  1.5575  2.3844 -0.5174
 6269SOL    HW230441   0.810   2.850  17.527 -2.3372 -1.4518 -0.9630
 6270SOL     OW30442   3.212   0.812   1.616 -0.2231  0.2154 -0.0550
 6270SOL    HW130443   3.259   0.840   1.695  1.3668  1.7421 -1.5490
 6270SOL    HW230444   3.274   0.743   1.593  0.4341  1.1664 -1.1117
 6271SOL     OW30445   2.515   2.646   4.530 -0.2609 -0.3158 -0.7477
 6271SOL    HW130446   2.545   2.737   4.538  0.4300 -0.6370  0.2963
 6271SOL    HW230447   2.573   2.616   4.460 -1.4655 -0.1317 -1.8387
 6272SOL     OW30448   1.946   4.158   7.981 -0.4078 -0.5621 -0.5344
 6272SOL    HW130449   1.904   4.191   8.060 -0.8031  2.7091 -2.1177
 6272SOL    HW230450   1.910   4.069   7.982  0.7984 -1.0506  0.1420
 6273SOL     OW30451   4.326   3.471   3.469 -0.6964 -0.1139  0.1179
 6273SOL    HW130452   4.299   3.511   3.552  1.0554  2.8603 -0.7720
 6273SOL    HW230453   4.271   3.524   3.411  0.3035  1.1563  0.3414
 6274SOL     OW30454   1.198   4.020  14.288  0.1320  0.0215 -0.4042
 6274SOL    HW130455   1.113   4.000  14.248 -0.4672 -0.8035  1.2855
 6274SOL    HW230456   1.210   3.936  14.332  0.8376  1.6198  2.4790
 6275SOL     OW30457   3.293   4.544   4.610  0.7114  0.4794 -0.1853
 6275SOL    HW130458   3.255   4.628   4.586 -2.0703 -0.9661 -0.7461
 6275SOL    HW230459   3.342   4.516   4.533  0.5462  1.4638 -0.6395
 6276SOL     OW30460   2.907   4.442   7.351 -0.0973 -0.4942  0.8077
 6276SOL    HW130461   2.953   4.384   7.411 -0.6102 -1.3148  0.4098
 6276SOL    HW230462   2.834   4.470   7.405 -2.5552 -0.0949 -2.7482
 6277SOL     OW30463   0.180   4.044   8.211  0.4311 -0.5311 -0.1740
 6277SOL    HW130464   0.097   4.048   8.164 -0.2363  0.9047  1.1200
 6277SOL    HW230465   0.205   3.954   8.189 -0.2519 -1.0786  1.2758
 6278SOL     OW30466   3.532   0.812   4.533  0.6810  0.4252  0.7842
 6278SOL    HW130467   3.483   0.881   4.489 -0.6521 -2.5603 -2.4247
 6278SOL    HW230468   3.605   0.857   4.576  2.0546  0.2456 -1.3213
 6279SOL     OW30469   1.305   4.285   2.425 -0.2209 -0.1835 -0.1732
 6279SOL    HW130470   1.228   4.239   2.458 -0.3473 -0.4227 -0.7996
 6279SOL    HW230471   1.379   4.236   2.460 -1.3438 -1.2747  0.6802
 6280SOL     OW30472   3.241   3.937   4.105  0.3907 -0.5851 -0.4002
 6280SOL    HW130473   3.188   3.871   4.061 -0.0913 -0.8206  0.5466
 6280SOL    HW230474   3.329   3.916   4.074  0.3549 -3.1850  1.2953
 6281SOL     OW30475   4.429   4.104   7.148  0.2438  0.0746 -0.2564
 6281SOL    HW130476   4.515   4.069   7.124 -1.0742 -1.7746 -2.2368
 6281SOL    HW230477   4.461   4.168   7.211 -2.3691  0.2934  0.8177
 6282SOL     OW30478   2.135   1.573  12.517  0.2200 -0.4841 -0.5233
 6282SOL    HW130479   2.182   1.651  12.548 -0.3441  0.5663 -2.3165
 6282SOL    HW230480   2.102   1.537  12.599 -0.9148  1.8333  0.0303
 6283SOL     OW30481   0.388   2.719   2.333 -0.3267  0.6560  1.0272
 6283SOL    HW130482   0.339   2.738   2.413 -2.4027 -1.0269  0.1459
 6283SOL    HW230483   0.388   2.623   2.335  1.9650  0.6124 -2.7302
 6284SOL     OW30484   4.585   1.092   6.828  0.2391 -0.0065 -0.0938
 6284SOL    HW130485   4.664   1.051   6.792  0.5022 -2.3348  3.1248
 6284SOL    HW230486   4.519   1.057   6.769  1.0953  0.9996 -1.6307
 6285SOL     OW30487   4.659   3.393   1.449 -1.0447  0.4797 -0.6624
 6285SOL    HW130488   4.579   3.347   1.475  1.0062 -2.3841  0.5375
 6285SOL    HW230489   4.654   3.459   1.518  0.4707 -1.6767  1.4748
 6286SOL     OW30490   0.935   4.490   6.095 -0.4548 -0.4089  0.5117
 6286SOL    HW130491   0.989   4.527   6.025  2.5085 -3.2225  1.3482
 6286SOL    HW230492   1.003   4.464   6.156 -0.5792 -0.6852  0.5331
 6287SOL     OW30493   3.002   4.158   1.177 -0.0855 -0.0669 -0.2095
 6287SOL    HW130494   2.995   4.196   1.264 -1.2379 -0.5682 -0.0756
 6287SOL    HW230495   2.916   4.116   1.173 -0.3957  1.0948 -5.2351
 6288SOL     OW30496   0.006   4.313   3.958 -0.3459 -0.4172  0.4109
 6288SOL    HW130497   4.687   4.316   3.879  0.2503 -0.3228 -0.0037
 6288SOL    HW230498   4.683   4.327   4.031 -1.3884  0.0164 -0.5083
 6289SOL     OW30499   1.188   3.571   0.468  0.1223 -0.2085 -0.6546
 6289SOL    HW130500   1.275   3.611   0.463  0.6105 -1.3470 -1.0501
 6289SOL    HW230501   1.134   3.650   0.471  1.3645  0.6259  0.0153
 6290SOL     OW30502   1.705   0.432   2.683 -0.0890 -0.5669 -0.0325
 6290SOL    HW130503   1.659   0.383   2.614 -1.8979  3.5249 -1.7592
 6290SOL    HW230504   1.715   0.371   2.755 -0.8636 -1.2620 -0.5121
 6291SOL     OW30505   0.524   3.140   7.603 -0.3678  0.4920 -0.5233
 6291SOL    HW130506   0.466   3.103   7.536  0.6588 -0.5568 -0.8339
 6291SOL    HW230507   0.604   3.146   7.550 -0.2351  0.2807 -0.3445
 6292SOL     OW30508   1.196   2.459  15.962  0.2496  0.0824  0.0065
 6292SOL    HW130509   1.238   2.406  16.029  2.5656  0.0844 -1.4522
 6292SOL    HW230510   1.108   2.476  15.996  0.0824  0.6369 -0.7014
 6293SOL     OW30511   3.380   3.647   7.411 -1.0888  0.0395 -0.1076
 6293SOL    HW130512   3.315   3.664   7.479 -1.1813 -0.5363 -0.0544
 6293SOL    HW230513   3.398   3.553   7.422  1.6991  0.8052  1.9168
 6294SOL     OW30514   1.008   4.112   0.328 -0.3399 -0.1817  0.5505
 6294SOL    HW130515   0.992   4.188   0.273  3.5047 -0.0417 -0.3810
 6294SOL    HW230516   1.024   4.153   0.413  2.2780 -0.8170  0.3833
 6295SOL     OW30517   0.659   1.187   2.057 -0.3773 -0.4864  0.0270
 6295SOL    HW130518   0.709   1.173   1.976  0.2823  0.0594  0.3457
 6295SOL    HW230519   0.644   1.095   2.077  0.4420 -0.2910  1.5300
 6296SOL     OW30520   4.489   3.502  10.488 -0.0388  0.4707 -0.7619
 6296SOL    HW130521   4.476   3.595  10.507 -0.6068  0.1143  0.5939
 6296SOL    HW230522   4.451   3.502  10.400  1.4188 -0.0953 -1.3857
 6297SOL     OW30523   3.748   1.715   9.567 -0.4764 -0.3471 -0.7891
 6297SOL    HW130524   3.807   1.783   9.598  0.6575 -0.8503 -1.8510
 6297SOL    HW230525   3.782   1.699   9.479  0.1978 -2.4501 -0.1512
 6298SOL     OW30526   3.153   2.339   6.483  0.4146  0.2710 -0.5404
 6298SOL    HW130527   3.099   2.417   6.497 -0.8141 -0.5348 -0.7798
 6298SOL    HW230528   3.193   2.329   6.570  1.3209 -0.2431 -1.0206
 6299SOL     OW30529   3.614   1.756   1.420 -0.3851  0.2073 -0.3539
 6299SOL    HW130530   3.708   1.750   1.405 -0.0534  1.9805  0.9503
 6299SOL    HW230531   3.589   1.674   1.378  0.5382 -0.7810  1.0306
 6300SOL     OW30532   3.484   2.883  11.099 -0.3248  0.3615  0.0231
 6300SOL    HW130533   3.545   2.838  11.041 -2.3578 -0.5901 -1.3919
 6300SOL    HW230534   3.474   2.966  11.053 -1.6869 -0.4777 -1.1816
 6301SOL     OW30535   0.050   1.121  12.496  0.4909 -0.0574  0.0589
 6301SOL    HW130536   0.115   1.157  12.557  0.2027 -0.5765  0.6691
 6301SOL    HW230537   4.700   1.145  12.529  1.3457  1.9602  0.8423
 6302SOL     OW30538   1.642   1.937   5.626  0.4664  0.0423  0.0356
 6302SOL    HW130539   1.569   1.993   5.598  0.4713 -0.5181 -1.1071
 6302SOL    HW230540   1.691   1.988   5.691 -0.7019 -0.2014  1.1090
 6303SOL     OW30541   1.126   3.399  12.855  0.2303  0.6560 -0.3512
 6303SOL    HW130542   1.058   3.332  12.865 -0.8367  2.1049  1.9535
 6303SOL    HW230543   1.189   3.369  12.920 -2.4617 -0.5923  1.6941
 6304SOL     OW30544   0.378   2.371   1.808  0.2384  0.0875 -0.0964
 6304SOL    HW130545   0.297   2.395   1.855  1.2725  0.5700  1.4394
 6304SOL    HW230546   0.381   2.449   1.753 -0.8731  0.4321  0.3258
 6305SOL     OW30547   0.321   3.069   5.223 -0.3847 -0.1545 -0.6894
 6305SOL    HW130548   0.233   3.104   5.210 -1.1410 -2.3055 -1.3620
 6305SOL    HW230549   0.343   3.081   5.316 -0.3173 -1.1163 -0.5705
 6306SOL     OW30550   3.193   1.513   5.982 -0.0751  0.7855 -0.1941
 6306SOL    HW130551   3.131   1.453   5.941  1.8548 -1.7349  0.5448
 6306SOL    HW230552   3.141   1.591   5.968 -0.9661 -0.0040 -1.2266
 6307SOL     OW30553   3.490   0.269   1.679  0.4028  0.1293 -0.5772
 6307SOL    HW130554   3.435   0.206   1.634  1.1996 -1.0050  0.0479
 6307SOL    HW230555   3.506   0.335   1.612  0.5642  1.3222  0.6180
 6308SOL     OW30556   2.476   1.530  16.662  0.8489 -0.1622 -0.3885
 6308SOL    HW130557   2.395   1.486  16.636  0.7757  0.5428 -1.3671
 6308SOL    HW230558   2.507   1.565  16.578 -0.7631  0.6269 -0.6553
 6309SOL     OW30559   4.649   2.918   9.403 -0.2299 -0.1700 -0.1647
 6309SOL    HW130560   4.579   2.979   9.424 -0.7901 -0.6669 -0.6089
 6309SOL    HW230561   4.623   2.886   9.317 -1.5797 -5.0246  2.0465
 6310SOL     OW30562   2.168   0.081   7.427 -0.1526  0.2016  0.1186
 6310SOL    HW130563   2.115   0.002   7.410 -0.2686  0.0219  1.3463
 6310SOL    HW230564   2.219   0.053   7.503 -0.6527 -0.3496  0.2502
 6311SOL     OW30565   4.019   2.022   8.262 -0.2273 -0.7533 -0.2110
 6311SOL    HW130566   3.923   2.031   8.265 -0.1726 -1.1659  2.2344
 6311SOL    HW230567   4.048   2.083   8.329 -3.0408 -1.3741  1.5759
 6312SOL     OW30568   4.731   2.374  17.704 -0.0891 -0.4398  0.4054
 6312SOL    HW130569   4.680   2.444   0.004 -0.7011  0.7235 -2.2372
 6312SOL    HW230570   4.682   2.342  17.628 -1.9746  0.4744  1.2094
 6313SOL     OW30571   2.394   3.951   4.172 -0.2570 -0.7507 -0.3910
 6313SOL    HW130572   2.299   3.961   4.181 -0.1415 -1.3815  1.4759
 6313SOL    HW230573   2.434   4.035   4.194 -1.6889  0.4757 -2.4406
 6314SOL     OW30574   0.754   2.008   3.619 -0.3566 -0.0033  0.5631
 6314SOL    HW130575   0.738   2.092   3.576 -0.8701 -0.8079 -0.7967
 6314SOL    HW230576   0.794   1.959   3.548 -1.7668  0.9593 -0.8966
 6315SOL     OW30577   0.160   2.741   5.848 -0.3613 -0.5060  0.3228
 6315SOL    HW130578   0.169   2.746   5.943  2.3302 -1.0553  0.1018
 6315SOL    HW230579   0.115   2.821   5.822  1.8133  0.7794  0.5047
 6316SOL     OW30580   0.364   3.266   4.389 -0.2479 -0.2690 -0.3069
 6316SOL    HW130581   0.396   3.354   4.369 -0.4344 -0.7877 -3.0063
 6316SOL    HW230582   0.446   3.218   4.387 -1.0047 -1.5405 -0.7954
 6317SOL     OW30583   4.524   0.946   2.398  0.0486 -0.2358  0.1800
 6317SOL    HW130584   4.606   0.988   2.373 -0.4331  1.0020  0.6778
 6317SOL    HW230585   4.493   1.014   2.459 -2.2785 -2.1401  1.0905
 6318SOL     OW30586   0.690   3.942   4.177 -0.5933  0.2111 -0.3256
 6318SOL    HW130587   0.667   3.869   4.120  0.0789 -0.3634  0.1443
 6318SOL    HW230588   0.633   4.004   4.132 -1.8998  0.2648  1.4133
 6319SOL     OW30589   4.368   0.716   6.021 -0.1903  0.1430  0.3641
 6319SOL    HW130590   4.336   0.626   6.033  3.3958 -0.8191  2.4874
 6319SOL    HW230591   4.446   0.717   6.076  0.7996 -3.7526 -0.9871
 6320SOL     OW30592   2.629   3.490   3.657 -0.1493  0.6213  0.3532
 6320SOL    HW130593   2.689   3.489   3.583  1.2118 -0.2248  1.4540
 6320SOL    HW230594   2.691   3.458   3.723  1.9202  1.2214 -1.3367
 6321SOL     OW30595   2.925   0.861  10.550 -0.3054  0.5883  0.2313
 6321SOL    HW130596   3.000   0.912  10.581 -1.7401  1.9485  1.4879
 6321SOL    HW230597   2.869   0.923  10.502 -0.8439 -0.1417 -0.0790
 6322SOL     OW30598   3.307   2.051  14.525 -0.2765  0.8930  0.0183
 6322SOL    HW130599   3.360   2.044  14.605 -2.0867 -1.6602  1.0047
 6322SOL    HW230600   3.367   2.011  14.462 -0.3223 -1.8858  1.7416
 6323SOL     OW30601   4.516   2.976   2.558 -0.5694  0.2414 -0.2813
 6323SOL    HW130602   4.517   2.946   2.467 -0.5210 -1.8108  0.4161
 6323SOL    HW230603   4.452   2.916   2.596  0.2274 -0.8342 -0.6292
 6324SOL     OW30604   2.151   1.054   3.694  0.1556 -0.4778  0.2933
 6324SOL    HW130605   2.223   1.016   3.743  0.1015  2.4098  2.6015
 6324SOL    HW230606   2.081   0.999   3.729 -0.6252  1.2222  1.4422
 6325SOL     OW30607   3.383   3.080  15.467 -0.6581  0.2079  0.4216
 6325SOL    HW130608   3.440   3.021  15.517 -0.3722 -1.4210 -1.7945
 6325SOL    HW230609   3.368   3.030  15.386 -1.3356 -0.1042  0.7382
 6326SOL     OW30610   3.446   4.734   2.082  0.3192  0.2799  0.0027
 6326SOL    HW130611   3.490   0.041   2.009 -1.6772  1.2597 -0.6468
 6326SOL    HW230612   3.496   4.652   2.085 -0.9682 -0.4456  1.4967
 6327SOL     OW30613   3.796   0.311   2.714 -0.1960  0.3284 -0.2551
 6327SOL    HW130614   3.717   0.299   2.661 -0.2005  1.0959 -0.4292
 6327SOL    HW230615   3.856   0.312   2.639  0.2580  0.8785  0.1123
 6328SOL     OW30616   2.341   4.693   9.009 -0.1213  0.1071 -0.0003
 6328SOL    HW130617   2.359   4.651   8.925  1.3390  0.6774  0.0305
 6328SOL    HW230618   2.424   4.735   9.033 -0.6404  0.6246  0.8887
 6329SOL     OW30619   1.558   3.037   7.437 -0.0786 -0.6378 -0.1208
 6329SOL    HW130620   1.509   3.012   7.359 -0.4519  0.8295 -0.3628
 6329SOL    HW230621   1.586   2.955   7.478 -0.5169 -1.9944 -2.5539
 6330SOL     OW30622   3.232   0.221   7.623  0.9064  0.1421 -0.3965
 6330SOL    HW130623   3.198   0.240   7.535  0.8817 -1.4991 -0.7396
 6330SOL    HW230624   3.228   0.126   7.623 -2.0619  0.2628 -0.0393
 6331SOL     OW30625   0.848   2.815   7.020  0.3015  0.0371 -0.3697
 6331SOL    HW130626   0.918   2.850   7.076  0.2878  0.6700 -0.7541
 6331SOL    HW230627   0.854   2.720   7.035  0.2013 -0.1755 -1.7131
 6332SOL     OW30628   3.182   3.020   6.042 -0.2233 -0.2876 -0.2413
 6332SOL    HW130629   3.170   2.926   6.025 -0.0351 -0.3760  0.1246
 6332SOL    HW230630   3.231   3.014   6.124 -0.6571  0.0791  0.0428
 6333SOL     OW30631   1.363   2.399   7.049 -0.0223  0.3825  0.1029
 6333SOL    HW130632   1.377   2.470   7.111  1.5727  0.7718 -0.7149
 6333SOL    HW230633   1.277   2.428   7.017  0.8237 -0.1165 -2.6480
 6334SOL     OW30634   2.618   3.789   3.723 -0.7643 -0.2306  0.0011
 6334SOL    HW130635   2.660   3.710   3.687  0.2280  1.3279 -2.3167
 6334SOL    HW230636   2.539   3.755   3.763  0.5244 -2.4307  0.7248
 6335SOL     OW30637   3.403   3.892  16.152 -0.4646  0.1358 -0.3426
 6335SOL    HW130638   3.384   3.970  16.204  1.3489 -1.6986  3.1091
 6335SOL    HW230639   3.426   3.825  16.217  0.3564 -0.0449 -0.8147
 6336SOL     OW30640   0.233   2.338   5.300 -0.2361  0.0775 -0.0584
 6336SOL    HW130641   0.220   2.276   5.372 -2.6592  0.6053 -0.0323
 6336SOL    HW230642   0.252   2.413   5.356 -1.8420 -1.2156  2.2383
 6337SOL     OW30643   0.901   3.841   4.323 -0.3510 -0.0990 -0.3419
 6337SOL    HW130644   0.824   3.876   4.277 -2.1287 -2.2794  1.0085
 6337SOL    HW230645   0.953   3.833   4.243  0.9068  1.2543  0.3453
 6338SOL     OW30646   0.007   1.522  14.028 -0.0298  0.1798  0.6397
 6338SOL    HW130647   0.007   1.578  13.951 -1.6936 -0.6618  0.0350
 6338SOL    HW230648   0.075   1.458  14.009  1.3126  1.7109  0.2356
 6339SOL     OW30649   4.239   4.457   9.188  0.0926 -0.2020  0.7090
 6339SOL    HW130650   4.246   4.399   9.112 -0.3893  1.3120 -0.4968
 6339SOL    HW230651   4.147   4.482   9.183  0.7491  1.9622 -0.9347
 6340SOL     OW30652   1.529   2.412   3.994  0.6254  0.1525 -0.9332
 6340SOL    HW130653   1.437   2.426   3.971  0.9213  0.0290 -2.2067
 6340SOL    HW230654   1.553   2.353   3.922 -0.6194 -0.4078 -0.8838
 6341SOL     OW30655   0.257   0.073   9.014  0.2455  0.7248  0.6261
 6341SOL    HW130656   0.227   0.013   9.082 -0.3873  0.2434 -0.0738
 6341SOL    HW230657   0.323   0.123   9.062  1.7964 -1.3065  0.6328
 6342SOL     OW30658   4.658   2.474   8.358  0.3401  0.3037 -0.1801
 6342SOL    HW130659   0.002   2.499   8.312 -0.6061 -1.6015 -2.8689
 6342SOL    HW230660   4.630   2.391   8.320 -2.2916  0.9194  0.3780
 6343SOL     OW30661   1.967   3.267  13.755  0.3212  0.1106 -0.1874
 6343SOL    HW130662   1.996   3.357  13.775  1.5963 -0.6319  1.2973
 6343SOL    HW230663   1.986   3.278  13.662 -2.2576 -0.2274 -0.7628
 6344SOL     OW30664   3.980   0.896   8.572 -0.5378  0.5830  0.1780
 6344SOL    HW130665   4.042   0.897   8.645  1.5744  1.9831 -1.6272
 6344SOL    HW230666   3.918   0.960   8.605  0.1636  1.3000  0.1106
 6345SOL     OW30667   4.475   0.462   7.786 -0.0574 -0.7128  0.3907
 6345SOL    HW130668   4.431   0.544   7.809 -2.3641 -1.3602 -1.7420
 6345SOL    HW230669   4.481   0.460   7.691  0.4063  2.5049  0.3537
 6346SOL     OW30670   3.489   0.195  14.357  0.3849 -0.0744 -0.4390
 6346SOL    HW130671   3.555   0.242  14.306  0.6518 -1.4979 -1.4081
 6346SOL    HW230672   3.420   0.209  14.294 -1.3375 -1.7458  1.0732
 6347SOL     OW30673   4.638   3.162   9.661  0.2232 -0.3856  0.1109
 6347SOL    HW130674   4.574   3.091   9.670  0.4102 -0.7074 -1.0407
 6347SOL    HW230675   4.724   3.121   9.666  0.4287  0.0743  0.3198
 6348SOL     OW30676   1.660   2.764   4.528 -0.7549 -0.0542 -0.6621
 6348SOL    HW130677   1.628   2.723   4.608 -1.5854 -0.8102 -1.3759
 6348SOL    HW230678   1.755   2.760   4.539 -0.8941 -0.1267  0.5422
 6349SOL     OW30679   3.928   2.234  10.967 -0.0509 -0.2286  0.4342
 6349SOL    HW130680   4.017   2.268  10.975 -0.0424 -0.2803  0.5692
 6349SOL    HW230681   3.905   2.253  11.058 -2.7515  1.0043 -0.5355
 6350SOL     OW30682   3.497   2.781   1.678 -0.0805 -0.6781 -0.6312
 6350SOL    HW130683   3.541   2.696   1.677  0.3193 -0.4749 -0.0230
 6350SOL    HW230684   3.415   2.760   1.633 -0.0711  0.7496 -1.3004
 6351SOL     OW30685   4.016   1.991  12.886 -0.0980 -0.5338 -0.2272
 6351SOL    HW130686   4.004   2.017  12.977  2.0020 -1.8471  0.4107
 6351SOL    HW230687   3.931   1.958  12.856 -0.7750  1.8414 -0.9172
 6352SOL     OW30688   1.706   2.519  14.168  0.0198  0.0873  0.1142
 6352SOL    HW130689   1.761   2.517  14.246 -0.1761  1.3071  0.2872
 6352SOL    HW230690   1.710   2.612  14.144 -0.6394  0.0060 -0.3154
 6353SOL     OW30691   4.149   3.843   8.653 -0.1628 -0.4122 -0.1125
 6353SOL    HW130692   4.127   3.750   8.651  0.1404 -0.4373 -2.4981
 6353SOL    HW230693   4.223   3.842   8.593 -0.4615 -0.9071 -0.4758
 6354SOL     OW30694   2.001   1.854   5.586  0.0635 -0.0718 -0.0686
 6354SOL    HW130695   1.970   1.779   5.637 -1.7587  1.3411  0.8848
 6354SOL    HW230696   1.978   1.929   5.639  0.4881 -0.4150  0.6049
 6355SOL     OW30697   1.716   3.053   4.121 -0.2181  0.2384 -0.5111
 6355SOL    HW130698   1.761   3.105   4.054 -0.4865  0.8490 -0.2234
 6355SOL    HW230699   1.625   3.067   4.096 -0.2173  2.6929  0.8597
 6356SOL     OW30700   1.721   4.428  13.446  0.4030 -0.5598 -0.1084
 6356SOL    HW130701   1.762   4.442  13.531  0.4721 -0.0537 -0.2245
 6356SOL    HW230702   1.632   4.400  13.463 -0.4397  1.5281 -1.0617
 6357SOL     OW30703   2.633   3.233   4.215 -0.0671  0.0152  0.2592
 6357SOL    HW130704   2.632   3.320   4.174  0.7134 -0.3252 -0.4952
 6357SOL    HW230705   2.719   3.244   4.256 -0.4536  0.7342  0.8607
 6358SOL     OW30706   3.236   4.573   3.381  0.2549  0.3760 -0.9688
 6358SOL    HW130707   3.213   4.617   3.463 -0.7149 -1.1611 -0.4188
 6358SOL    HW230708   3.275   4.491   3.411  1.2179  0.8299 -0.9619
 6359SOL     OW30709   3.601   0.740   7.370  0.9137  0.1719 -0.1905
 6359SOL    HW130710   3.513   0.769   7.395  0.9670 -0.1083  0.3197
 6359SOL    HW230711   3.649   0.766   7.449  0.2304  1.4899 -0.2129
 6360SOL     OW30712   2.919   4.029   2.543  0.4410 -0.3226  0.4764
 6360SOL    HW130713   2.841   4.080   2.565  0.5700 -0.4801  1.2805
 6360SOL    HW230714   2.988   4.091   2.565  0.2899 -0.1580  0.4827
 6361SOL     OW30715   2.361   3.747   3.816 -0.5779 -0.2687 -0.2856
 6361SOL    HW130716   2.330   3.736   3.906 -1.3293  0.2483 -0.4834
 6361SOL    HW230717   2.302   3.695   3.761  0.9986 -0.5479 -1.7178
 6362SOL     OW30718   2.949   1.916   6.261 -0.5086 -0.0191 -0.1764
 6362SOL    HW130719   3.039   1.905   6.292 -0.4513 -0.0114 -0.3383
 6362SOL    HW230720   2.906   1.875   6.336  0.5709 -1.2856 -0.2502
 6363SOL     OW30721   2.323   1.226  10.635  0.7702  0.3803  0.4142
 6363SOL    HW130722   2.257   1.157  10.641 -0.7710  1.8748  0.3234
 6363SOL    HW230723   2.280   1.281  10.699  1.8156  2.7418 -0.9076
 6364SOL     OW30724   3.898   3.471   1.235  0.0891 -0.1857 -0.3433
 6364SOL    HW130725   3.915   3.476   1.141 -0.7008  1.0514 -0.4292
 6364SOL    HW230726   3.821   3.415   1.241  1.0530 -1.5610 -0.9118
 6365SOL     OW30727   3.578   4.697  16.108 -0.0662 -0.4528  0.5198
 6365SOL    HW130728   3.566   0.041  16.057 -0.9304 -2.1975 -1.9605
 6365SOL    HW230729   3.663   4.709  16.152 -0.4863  0.5229  1.0836
 6366SOL     OW30730   2.716   0.787   8.853  0.0286  0.3022 -0.3886
 6366SOL    HW130731   2.807   0.809   8.874 -0.0185  0.3723 -0.2538
 6366SOL    HW230732   2.669   0.822   8.929  0.0555  0.9415 -0.6698
 6367SOL     OW30733   3.771   0.777   3.463 -0.0272  0.3106 -0.0173
 6367SOL    HW130734   3.820   0.858   3.481  0.1226  0.1656  0.2202
 6367SOL    HW230735   3.697   0.784   3.524 -0.4649 -2.1794 -0.2843
 6368SOL     OW30736   0.794   0.983   0.336 -0.3326 -0.1600 -0.7922
 6368SOL    HW130737   0.837   0.899   0.317  1.4597  1.2885 -3.1365
 6368SOL    HW230738   0.760   1.011   0.251 -0.1243  1.4148 -0.3591
 6369SOL     OW30739   2.123   3.639  11.705 -0.0785  0.5795 -0.3975
 6369SOL    HW130740   2.056   3.572  11.716  2.2934 -2.1290 -2.5659
 6369SOL    HW230741   2.196   3.584  11.679  1.1448  2.2423 -0.4390
 6370SOL     OW30742   3.786   3.884   2.465  1.0394 -0.4526 -0.2642
 6370SOL    HW130743   3.828   3.904   2.382 -0.0494  1.2805 -0.4087
 6370SOL    HW230744   3.810   3.792   2.475 -3.3208 -1.3363  2.0612
 6371SOL     OW30745   3.692   1.664   2.919 -0.1135  0.2904 -0.1583
 6371SOL    HW130746   3.630   1.677   2.847 -0.4767  0.2963  0.1574
 6371SOL    HW230747   3.715   1.572   2.905 -0.1431  0.0744  1.2838
 6372SOL     OW30748   2.828   0.244   1.742  0.8339  0.5437 -0.2306
 6372SOL    HW130749   2.827   0.337   1.720 -1.1097  1.4377  3.6543
 6372SOL    HW230750   2.912   0.233   1.786  0.2262 -3.0011  0.0389
 6373SOL     OW30751   3.902   0.733  10.272  0.1870  0.1600 -0.1841
 6373SOL    HW130752   3.834   0.667  10.254  1.1606 -1.3487  1.6650
 6373SOL    HW230753   3.923   0.769  10.185  2.1499  3.3100  1.6097
 6374SOL     OW30754   4.305   4.683  17.681  0.2098  0.2349  0.1433
 6374SOL    HW130755   4.240   4.683  17.611  0.9895  2.0715 -0.5860
 6374SOL    HW230756   4.318   0.042  17.689  0.9618  0.2752 -1.4523
 6375SOL     OW30757   2.933   2.504   8.787 -0.2095  0.3672 -0.4178
 6375SOL    HW130758   2.918   2.585   8.837 -1.3089 -1.6078  2.4934
 6375SOL    HW230759   2.954   2.441   8.856  2.3552  1.7061  0.0349
 6376SOL     OW30760   2.578   1.907   5.027  0.2319 -0.2498  0.2805
 6376SOL    HW130761   2.500   1.915   5.083 -1.0711  0.1097 -1.5958
 6376SOL    HW230762   2.573   1.995   4.989 -2.5562  0.5005  2.3803
 6377SOL     OW30763   4.444   2.973  13.720 -0.1967 -0.3759  0.6929
 6377SOL    HW130764   4.363   3.022  13.734  0.9949  1.6774  0.3333
 6377SOL    HW230765   4.511   3.031  13.757 -1.7083  2.5855 -1.2620
 6378SOL     OW30766   1.870   1.451   7.236  0.2759 -0.3034 -0.3594
 6378SOL    HW130767   1.841   1.360   7.232 -0.1355 -0.1480 -0.9430
 6378SOL    HW230768   1.817   1.507   7.180 -0.8782 -1.0824 -0.0336
 6379SOL     OW30769   0.186   3.056   9.660  0.2273 -0.2157  0.1248
 6379SOL    HW130770   0.263   3.097   9.699  1.5413 -0.8414 -1.7952
 6379SOL    HW230771   0.190   2.972   9.706 -0.2223 -0.2810  0.0473
 6380SOL     OW30772   4.189   4.724   7.506  0.1345  0.1946 -0.4775
 6380SOL    HW130773   4.279   0.014   7.528  0.2983  0.5945 -1.6157
 6380SOL    HW230774   4.172   0.049   7.434  0.7035 -0.7465 -1.4067
 6381SOL     OW30775   2.264   4.114   6.019 -0.1654 -0.7272 -0.3637
 6381SOL    HW130776   2.356   4.123   6.044 -0.8132  1.8514  1.1011
 6381SOL    HW230777   2.279   4.088   5.928  1.7587 -0.6068 -0.0821
 6382SOL     OW30778   0.996   0.052   0.197 -0.4170 -0.0126  0.4025
 6382SOL    HW130779   1.006   4.701   0.237  0.2446  0.6469  1.6519
 6382SOL    HW230780   1.020   0.104   0.274  0.9396 -2.8406  1.8664
 6383SOL     OW30781   1.487   2.198   2.290 -0.1598  0.0434 -0.3501
 6383SOL    HW130782   1.563   2.143   2.309 -1.1016 -1.8417 -2.0414
 6383SOL    HW230783   1.495   2.273   2.348 -0.7722 -0.0263 -0.1794
 6384SOL     OW30784   1.256   0.089   6.943 -0.4795  0.0883  0.4328
 6384SOL    HW130785   1.307   0.022   6.899 -0.6008  0.1495  0.1976
 6384SOL    HW230786   1.236   0.147   6.869 -1.8359  0.1063  0.8195
 6385SOL     OW30787   2.928   1.271   6.204 -0.8535 -0.6362  0.0053
 6385SOL    HW130788   2.921   1.220   6.285  0.4961  0.6910  0.9599
 6385SOL    HW230789   2.935   1.360   6.238  0.4487  0.5869 -3.5658
 6386SOL     OW30790   2.856   0.606   7.811 -0.0352 -0.1946  0.3339
 6386SOL    HW130791   2.893   0.592   7.723  0.0304 -2.1765  0.6719
 6386SOL    HW230792   2.928   0.646   7.859  1.3984 -0.8318 -1.2585
 6387SOL     OW30793   4.490   2.626   9.088 -0.1915 -0.3859 -0.3289
 6387SOL    HW130794   4.576   2.588   9.105 -0.6110 -0.6261  1.2780
 6387SOL    HW230795   4.468   2.601   8.998  2.4569 -1.0380 -0.7807
 6388SOL     OW30796   2.468   3.082   5.593 -0.6162  1.0278 -0.4249
 6388SOL    HW130797   2.446   3.006   5.539  0.3994 -1.1263  2.2216
 6388SOL    HW230798   2.418   3.067   5.673 -0.5437 -0.8793 -0.7345
 6389SOL     OW30799   0.318   0.577  12.018 -0.1674  0.1385 -0.6601
 6389SOL    HW130800   0.353   0.615  12.098  0.0248 -1.1803 -0.1074
 6389SOL    HW230801   0.266   0.652  11.990  1.3078  0.2380 -3.1698
 6390SOL     OW30802   3.523   4.579   3.180  0.2477 -0.4319  0.4421
 6390SOL    HW130803   3.515   4.574   3.275 -1.2553 -0.7563  0.3044
 6390SOL    HW230804   3.597   4.639   3.172  1.1784 -1.4958  1.1717
 6391SOL     OW30805   4.414   4.023  14.358  0.0607  0.6300 -0.2362
 6391SOL    HW130806   4.335   4.076  14.370 -0.3878  0.0272 -0.5570
 6391SOL    HW230807   4.435   3.986  14.444  2.1184  1.7121 -0.2788
 6392SOL     OW30808   2.295   1.872   6.179 -0.6010 -0.1802  0.8086
 6392SOL    HW130809   2.236   1.921   6.237 -1.5193 -0.0861 -0.2138
 6392SOL    HW230810   2.381   1.878   6.221 -0.4643  0.7211  0.3995
 6393SOL     OW30811   3.520   2.225  14.086 -0.1369 -0.2524 -0.2864
 6393SOL    HW130812   3.462   2.301  14.093 -0.3942 -0.6891  2.1828
 6393SOL    HW230813   3.470   2.152  14.121 -0.2413 -0.6213 -1.1986
 6394SOL     OW30814   3.977   1.300   7.732  0.3311  0.1602 -0.2870
 6394SOL    HW130815   3.916   1.359   7.688 -0.0746  0.3879  0.5819
 6394SOL    HW230816   4.000   1.359   7.803 -0.4765 -1.0374  0.9871
 6395SOL     OW30817   3.537   2.597   8.465  0.1515 -0.2394 -0.0855
 6395SOL    HW130818   3.523   2.621   8.373  1.9520  1.5136  0.1242
 6395SOL    HW230819   3.613   2.540   8.453  1.0480  0.4808  2.2001
 6396SOL     OW30820   2.363   0.191  17.260  0.3118 -0.5245  0.0976
 6396SOL    HW130821   2.332   0.280  17.281 -1.9754 -1.2777 -0.1073
 6396SOL    HW230822   2.281   0.142  17.260  0.3067 -0.5165  0.2728
 6397SOL     OW30823   4.411   3.000  16.476  0.6497 -0.0574  0.3205
 6397SOL    HW130824   4.397   3.082  16.428  1.0655 -0.0873  0.1453
 6397SOL    HW230825   4.331   2.987  16.526 -0.5899  0.9156 -1.4074
 6398SOL     OW30826   0.940   3.239   3.240 -0.2318 -0.4231  0.5494
 6398SOL    HW130827   0.844   3.239   3.244 -0.2598 -1.6354 -0.3358
 6398SOL    HW230828   0.966   3.194   3.321 -0.4794  2.5106  2.2836
 6399SOL     OW30829   4.497   0.356   9.014 -0.0949 -0.1915  0.0812
 6399SOL    HW130830   4.492   0.303   8.935 -1.7719 -0.2288  0.2205
 6399SOL    HW230831   4.430   0.316   9.069 -1.8445 -1.9950 -3.3295
 6400SOL     OW30832   0.816   4.362   2.673  0.3483 -0.4575 -0.3664
 6400SOL    HW130833   0.787   4.270   2.668  1.8363 -0.9456 -0.0291
 6400SOL    HW230834   0.876   4.361   2.598 -0.0505 -1.7226 -0.6740
 6401SOL     OW30835   3.150   3.117   9.610  0.4824  0.3976 -0.4576
 6401SOL    HW130836   3.126   3.185   9.546  2.0595 -0.6677 -2.1809
 6401SOL    HW230837   3.198   3.161   9.679 -1.3472 -1.5188  2.0441
 6402SOL     OW30838   0.337   2.953   7.485  0.1150  0.6363  0.3987
 6402SOL    HW130839   0.366   2.868   7.453 -2.5161 -0.3267  0.5982
 6402SOL    HW230840   0.311   2.929   7.574  1.6633 -1.3159  0.3171
 6403SOL     OW30841   4.037   2.079   3.412  0.3730 -0.3487  0.3514
 6403SOL    HW130842   4.095   2.133   3.357  0.9639  0.5597  1.8734
 6403SOL    HW230843   3.987   2.145   3.459  1.0151  1.9058 -2.1161
 6404SOL     OW30844   4.445   4.008   5.110  0.1837  0.2998  0.1483
 6404SOL    HW130845   4.468   4.085   5.161 -0.9695  1.1914 -0.6683
 6404SOL    HW230846   4.530   3.970   5.089  0.0255  1.0502 -1.9176
 6405SOL     OW30847   0.112   3.551  15.640  0.4498  1.1275 -0.2127
 6405SOL    HW130848   0.031   3.519  15.679  0.9717 -0.6097 -0.5843
 6405SOL    HW230849   0.091   3.634  15.597  3.1583  1.2141 -1.3699
 6406SOL     OW30850   1.416   0.547  13.155 -0.2746  0.0012 -0.4002
 6406SOL    HW130851   1.491   0.605  13.168  0.4449 -1.6668  2.8207
 6406SOL    HW230852   1.426   0.539  13.060 -1.0996  1.2225 -0.5973
 6407SOL     OW30853   0.254   3.983   5.121  0.0404 -0.4656  0.1565
 6407SOL    HW130854   0.296   4.044   5.061  1.2651 -0.2959  1.1836
 6407SOL    HW230855   0.322   3.975   5.188  1.0404 -0.6075 -0.8644
 6408SOL     OW30856   3.226   2.669   6.245 -0.7809  0.0083  0.6703
 6408SOL    HW130857   3.307   2.655   6.195 -1.3508  1.0717 -0.5588
 6408SOL    HW230858   3.165   2.707   6.181  0.7216 -1.3519 -1.5597
 6409SOL     OW30859   1.370   3.320   4.908  0.6081  0.2158 -0.4358
 6409SOL    HW130860   1.317   3.395   4.880  2.3554  1.5941 -0.0470
 6409SOL    HW230861   1.316   3.306   4.987  0.3089 -0.4958 -0.7649
 6410SOL     OW30862   4.272   3.238  16.657 -0.1924 -0.6406  0.3190
 6410SOL    HW130863   4.232   3.309  16.707  1.2268  0.1707  0.2976
 6410SOL    HW230864   4.351   3.225  16.709 -0.8766 -1.8302  1.0485
 6411SOL     OW30865   2.201   2.527  16.314 -0.0610 -0.0100  0.7516
 6411SOL    HW130866   2.275   2.536  16.374  1.4505 -0.2858 -1.0663
 6411SOL    HW230867   2.159   2.610  16.336  1.0602  1.0034 -0.8377
 6412SOL     OW30868   2.674   0.612   4.454  0.5623  0.1438 -0.4147
 6412SOL    HW130869   2.756   0.640   4.412  1.6479  0.7061  2.1065
 6412SOL    HW230870   2.617   0.592   4.380 -0.8986  0.7533  0.5557
 6413SOL     OW30871   0.296   1.578  12.494 -0.2756 -0.5485  0.1487
 6413SOL    HW130872   0.208   1.540  12.496 -0.8536  0.8487  0.9698
 6413SOL    HW230873   0.288   1.627  12.412 -1.6665 -0.7376  0.1787
 6414SOL     OW30874   1.053   3.832   6.460  0.2381  0.5218 -0.3706
 6414SOL    HW130875   1.126   3.842   6.399  1.3690 -1.2895  0.6861
 6414SOL    HW230876   1.074   3.750   6.505  0.2635 -1.1176 -3.4101
 6415SOL     OW30877   0.776   1.762  12.309 -0.3905  0.1595  0.3253
 6415SOL    HW130878   0.737   1.846  12.286 -3.0895 -1.7615 -1.9729
 6415SOL    HW230879   0.824   1.784  12.389  1.8706 -0.4285 -0.8856
 6416SOL     OW30880   1.097   1.864   9.831  0.2940 -0.8652 -0.6746
 6416SOL    HW130881   1.118   1.785   9.881  0.0037 -0.4791  0.0520
 6416SOL    HW230882   1.039   1.829   9.764 -0.9506 -0.8564  0.4027
 6417SOL     OW30883   4.588   3.893   5.658 -0.2307  0.4797  0.4682
 6417SOL    HW130884   4.679   3.868   5.672 -0.5437 -0.5425  0.6850
 6417SOL    HW230885   4.566   3.845   5.578  0.8281  0.2152  0.3292
 6418SOL     OW30886   0.036   0.222   7.165  0.4664  0.4431  0.2953
 6418SOL    HW130887   0.116   0.214   7.217 -0.1552  0.5424  1.2631
 6418SOL    HW230888   0.008   0.308   7.197  1.4634  0.7358  0.3750
 6419SOL     OW30889   2.778   0.753   0.322 -0.0203  0.2707 -0.1114
 6419SOL    HW130890   2.752   0.836   0.361  2.0523 -0.2587  2.4007
 6419SOL    HW230891   2.817   0.712   0.400 -0.4363  0.1032  0.0073
 6420SOL     OW30892   0.924   4.619   3.208 -0.3109  0.3547  0.3615
 6420SOL    HW130893   1.008   4.614   3.254  0.3608 -1.0917 -1.0250
 6420SOL    HW230894   0.876   4.542   3.236 -2.1974  1.2879 -0.3268
 6421SOL     OW30895   1.421   4.401   9.019  0.2678 -0.0887  0.1564
 6421SOL    HW130896   1.507   4.361   9.006 -0.9332 -2.1175 -1.6236
 6421SOL    HW230897   1.452   4.489   9.041 -0.0055 -0.1006  0.5940
 6422SOL     OW30898   3.758   3.651   8.995 -0.1015  0.4710  0.0258
 6422SOL    HW130899   3.803   3.596   9.059  0.9537 -0.8394 -1.8452
 6422SOL    HW230900   3.694   3.594   8.951  1.4701 -0.8829 -0.4731
 6423SOL     OW30901   2.341   1.486   2.781  0.2411 -0.0864  0.4810
 6423SOL    HW130902   2.295   1.557   2.825  0.4732  0.0625  0.4812
 6423SOL    HW230903   2.431   1.516   2.781  0.7440 -1.5848  0.0153
 6424SOL     OW30904   1.642   4.088  15.129 -0.3385  0.3628 -0.2383
 6424SOL    HW130905   1.568   4.105  15.187  0.3461  0.9917  0.4575
 6424SOL    HW230906   1.667   3.996  15.143 -1.5628  0.1837  0.8318
 6425SOL     OW30907   1.910   3.926  11.736  0.9145  0.3584  0.7701
 6425SOL    HW130908   1.902   4.021  11.733 -0.1069  0.2743  0.8659
 6425SOL    HW230909   1.971   3.912  11.664 -1.3885 -0.0815 -1.0792
 6426SOL     OW30910   4.179   3.740   3.880  0.0502  0.3161 -0.4404
 6426SOL    HW130911   4.177   3.708   3.970 -2.7099  1.0768 -0.2379
 6426SOL    HW230912   4.090   3.774   3.877 -1.2410 -3.0540 -0.2109
 6427SOL     OW30913   0.882   0.367   6.575 -0.3895 -0.5300  0.1575
 6427SOL    HW130914   0.947   0.415   6.525  0.0025 -1.1637  0.0501
 6427SOL    HW230915   0.912   0.399   6.660  0.8474  0.1127 -0.5193
 6428SOL     OW30916   2.331   1.304   1.999 -0.3236 -0.0554 -0.1251
 6428SOL    HW130917   2.289   1.331   2.081 -0.0430  0.7041 -0.2241
 6428SOL    HW230918   2.392   1.376   1.981 -1.3741  1.2695  1.5818
 6429SOL     OW30919   0.091   1.902  16.185  0.5354  0.1357  0.0145
 6429SOL    HW130920   0.071   1.986  16.227 -0.5162 -0.2870  0.3657
 6429SOL    HW230921   0.127   1.950  16.111  1.4449  0.9307  0.9834
 6430SOL     OW30922   2.496   0.795   4.925  0.4796  0.3913  0.0257
 6430SOL    HW130923   2.479   0.713   4.879 -1.2531  1.8874 -1.9969
 6430SOL    HW230924   2.410   0.806   4.967 -0.4334 -0.3810 -1.6377
 6431SOL     OW30925   3.904   1.487   3.555 -0.3355  0.0171 -0.4261
 6431SOL    HW130926   3.838   1.482   3.624 -0.4140  0.3002 -0.4780
 6431SOL    HW230927   3.859   1.465   3.473 -1.6302 -1.4965  0.6934
 6432SOL     OW30928   2.426   1.774   2.450 -0.0091  0.1923  0.0025
 6432SOL    HW130929   2.393   1.863   2.469 -0.3087 -0.5086  2.7552
 6432SOL    HW230930   2.471   1.767   2.534 -1.7163  2.5884  1.1311
 6433SOL     OW30931   3.809   3.609   4.673  0.1025 -0.1104 -0.4632
 6433SOL    HW130932   3.850   3.691   4.648 -2.3301  0.6139 -2.0731
 6433SOL    HW230933   3.798   3.614   4.768  0.4094  2.1600 -0.5691
 6434SOL     OW30934   0.865   2.653   5.134  0.5197  0.5714 -0.1914
 6434SOL    HW130935   0.848   2.594   5.207  0.6370 -0.3441 -0.9028
 6434SOL    HW230936   0.895   2.731   5.180  1.1497 -0.1091  0.5462
 6435SOL     OW30937   1.181   1.745   7.031  0.1028 -0.4201 -0.2062
 6435SOL    HW130938   1.223   1.665   6.997  0.0201 -0.9609  0.9787
 6435SOL    HW230939   1.172   1.725   7.124  0.7270 -1.3073 -0.3277
 6436SOL     OW30940   1.482   0.192  10.800  0.1385  0.8797  0.2881
 6436SOL    HW130941   1.483   0.283  10.830 -0.0492  1.7598 -2.3688
 6436SOL    HW230942   1.392   0.184  10.767  0.4008  0.4386 -0.3344
 6437SOL     OW30943   1.885   1.230   1.610  0.3908 -0.0241 -0.5463
 6437SOL    HW130944   1.863   1.159   1.550 -0.7412  3.2299 -3.9859
 6437SOL    HW230945   1.924   1.175   1.678  1.4713  0.1300 -1.0282
 6438SOL     OW30946   3.601   4.464  12.653  0.3196  0.1521  0.4624
 6438SOL    HW130947   3.562   4.523  12.717  3.5535  2.7199  0.0473
 6438SOL    HW230948   3.675   4.517  12.624  0.4519 -0.2026  0.1487
 6439SOL     OW30949   1.855   3.569   4.305 -0.4315  0.2156  0.2750
 6439SOL    HW130950   1.856   3.484   4.259  0.3533  0.6719 -0.5429
 6439SOL    HW230951   1.759   3.575   4.313 -0.1779  3.1665  0.9530
 6440SOL     OW30952   3.625   3.272   1.802  0.0773  0.8146 -0.3125
 6440SOL    HW130953   3.536   3.308   1.808  0.7478  2.2569  0.8059
 6440SOL    HW230954   3.598   3.183   1.778  0.1947  1.1865 -1.8368
 6441SOL     OW30955   4.019   1.361   3.040  0.2097  0.2349  0.3087
 6441SOL    HW130956   3.947   1.300   3.026  0.0778  0.2767  0.8068
 6441SOL    HW230957   3.999   1.421   2.968  0.3725 -0.1089 -0.0252
 6442SOL     OW30958   4.343   2.263   8.762 -0.1139 -0.0667  0.1917
 6442SOL    HW130959   4.317   2.306   8.681 -1.5143 -0.1772  0.5935
 6442SOL    HW230960   4.268   2.210   8.788 -1.0143  1.0144 -0.1816
 6443SOL     OW30961   4.458   3.181   5.376 -0.0791  0.6827  0.6690
 6443SOL    HW130962   4.484   3.118   5.444 -0.8686  0.7395  1.0234
 6443SOL    HW230963   4.405   3.127   5.317  0.6720  0.1566  0.4681
 6444SOL     OW30964   4.522   2.487   2.626  0.9277  0.3736 -0.0399
 6444SOL    HW130965   4.527   2.409   2.680  1.9859 -0.2258 -1.0213
 6444SOL    HW230966   4.515   2.555   2.693 -2.6876  1.6260 -1.6296
 6445SOL     OW30967   3.428   3.242   5.416  0.1300  0.1157 -0.6936
 6445SOL    HW130968   3.468   3.155   5.405  2.3083  1.1518 -0.9662
 6445SOL    HW230969   3.364   3.217   5.483  2.3555 -1.1748  0.9637
 6446SOL     OW30970   0.236   3.752   3.001 -0.0837 -0.3109  0.0361
 6446SOL    HW130971   0.292   3.820   3.038 -0.6392  0.6186 -0.8263
 6446SOL    HW230972   0.185   3.741   3.081  1.9678 -1.6900  1.1715
 6447SOL     OW30973   3.942   4.502   5.119  0.1162 -0.3059 -0.0009
 6447SOL    HW130974   3.934   4.555   5.039  2.3194  1.2367  0.8163
 6447SOL    HW230975   3.896   4.427   5.080 -0.0043 -0.5767  0.6618
 6448SOL     OW30976   1.106   2.887   3.168 -0.2174  0.0387  0.4595
 6448SOL    HW130977   1.163   2.929   3.232 -1.3470 -1.4487  2.4328
 6448SOL    HW230978   1.032   2.849   3.216  2.1411 -0.3749  3.7791
 6449SOL     OW30979   4.451   3.884  12.977 -0.1496 -0.4201 -0.4280
 6449SOL    HW130980   4.507   3.816  12.941  1.8601 -0.0803  2.0960
 6449SOL    HW230981   4.487   3.914  13.060 -1.9793  2.5127 -0.6872
 6450SOL     OW30982   2.284   2.580  11.955 -0.1074 -0.2951 -0.0064
 6450SOL    HW130983   2.355   2.600  12.016 -1.4438  2.2805  0.7015
 6450SOL    HW230984   2.326   2.506  11.911 -1.4904  0.6177 -2.8478
 6451SOL     OW30985   1.632   1.226  12.537  0.2440 -0.9288 -0.1422
 6451SOL    HW130986   1.718   1.266  12.548 -0.8062  0.8934  1.3789
 6451SOL    HW230987   1.572   1.300  12.535 -0.7438 -1.8100 -3.2996
 6452SOL     OW30988   3.991   2.191   7.296 -0.5326  0.2553 -0.3507
 6452SOL    HW130989   3.903   2.187   7.258 -0.6344  2.6344 -0.4061
 6452SOL    HW230990   3.980   2.274   7.343 -0.3728 -0.6252  1.2103
 6453SOL     OW30991   4.482   0.513   4.546 -0.0119  0.0580  0.0254
 6453SOL    HW130992   4.462   0.542   4.635 -0.2506 -0.9570  0.2940
 6453SOL    HW230993   4.464   0.593   4.497  1.0142 -0.4657 -1.1953
 6454SOL     OW30994   0.581   2.065   3.232 -0.1323  0.2244  0.1833
 6454SOL    HW130995   0.541   1.983   3.205  1.2888 -0.9638  1.6689
 6454SOL    HW230996   0.650   2.079   3.168  0.7129  2.3080  1.5563
 6455SOL     OW30997   0.300   3.803   5.534  0.3621 -0.1915 -0.4824
 6455SOL    HW130998   0.240   3.872   5.563 -0.6518 -0.7418 -1.2530
 6455SOL    HW230999   0.253   3.726   5.564 -0.0129  0.3787  0.4090
 6456SOL     OW31000   1.725   2.243   5.186  0.6384 -0.0648 -0.0198
 6456SOL    HW131001   1.685   2.157   5.202 -0.0404 -0.0214 -1.4586
 6456SOL    HW231002   1.784   2.251   5.261 -3.6796 -1.1279  3.4842
 6457SOL     OW31003   0.241   2.945   9.232  0.1204 -0.2183  0.3507
 6457SOL    HW131004   0.158   2.948   9.280  0.3253  0.5208  0.6603
 6457SOL    HW231005   0.302   2.990   9.291  1.0100 -1.2212  0.1793
 6458SOL     OW31006   3.034   4.177  15.514 -0.7247 -0.0751 -0.2799
 6458SOL    HW131007   2.996   4.134  15.437  1.9194  0.1108 -1.7268
 6458SOL    HW231008   3.017   4.121  15.589 -2.4125 -0.8801 -1.2540
 6459SOL     OW31009   4.030   4.698  16.524 -0.0008  0.1978 -0.6061
 6459SOL    HW131010   4.001   0.048  16.492 -3.7032 -1.4929 -1.7049
 6459SOL    HW231011   4.118   4.717  16.558  0.7954  0.6470 -2.9480
 6460SOL     OW31012   3.197   1.799   6.555 -0.1831  0.0318 -0.8840
 6460SOL    HW131013   3.270   1.745   6.583  0.5771  0.8166 -1.3431
 6460SOL    HW231014   3.128   1.734   6.546 -0.8671  0.0925  3.8088
 6461SOL     OW31015   3.977   1.204   2.018 -0.3141 -0.1028 -0.5511
 6461SOL    HW131016   3.887   1.217   2.048 -0.0710  1.0696 -0.3463
 6461SOL    HW231017   4.030   1.247   2.086 -1.9824  0.2103  0.5394
 6462SOL     OW31018   3.571   0.803  16.210 -0.5104  0.1403 -0.1120
 6462SOL    HW131019   3.569   0.895  16.181  0.0587  0.1611 -0.0727
 6462SOL    HW231020   3.622   0.761  16.141 -2.5424 -2.3743 -0.0830
 6463SOL     OW31021   1.413   4.099   3.562  0.3501 -0.3252  0.0298
 6463SOL    HW131022   1.321   4.117   3.582 -0.3510 -2.5405 -1.1470
 6463SOL    HW231023   1.410   4.075   3.470  0.4710 -1.0093  0.2012
 6464SOL     OW31024   0.132   0.258   5.552  0.3685 -0.4366  0.6164
 6464SOL    HW131025   0.094   0.205   5.482 -2.1281  0.6071  1.1975
 6464SOL    HW231026   0.218   0.267   5.510  1.4760  1.1797  3.2481
 6465SOL     OW31027   1.301   2.583   8.530  0.0283  0.3518 -0.3608
 6465SOL    HW131028   1.395   2.601   8.533 -0.2785  1.7933  0.9920
 6465SOL    HW231029   1.299   2.538   8.446  0.9653 -0.2790 -0.0350
 6466SOL     OW31030   4.037   3.738   7.923 -0.0673 -0.5914  0.1014
 6466SOL    HW131031   4.102   3.699   7.981 -0.1465 -0.3126  0.3798
 6466SOL    HW231032   4.024   3.668   7.860  0.1954 -0.7064  0.1741
 6467SOL     OW31033   4.095   1.797  10.355 -0.4629 -0.2352 -0.6480
 6467SOL    HW131034   4.077   1.879  10.308  1.6983  1.7671  1.9897
 6467SOL    HW231035   4.060   1.736  10.290  0.4142 -1.2386 -0.1706
 6468SOL     OW31036   0.780   1.523   5.505 -0.1720  0.4080  0.2045
 6468SOL    HW131037   0.692   1.485   5.500 -0.7311  1.5818  0.9848
 6468SOL    HW231038   0.821   1.484   5.428 -0.1712 -1.5327  1.1798
 6469SOL     OW31039   2.005   3.888   6.844 -0.4327 -0.3105  0.6962
 6469SOL    HW131040   1.983   3.858   6.756  0.1969  1.3529 -0.0307
 6469SOL    HW231041   2.092   3.925   6.826 -0.5612 -0.4445 -0.1966
 6470SOL     OW31042   1.949   2.143   6.852  0.5426  0.2176 -0.1291
 6470SOL    HW131043   1.942   2.229   6.810 -1.3918 -0.1532 -0.5551
 6470SOL    HW231044   1.884   2.161   6.920  0.6893 -0.2448  0.1260
 6471SOL     OW31045   3.797   3.578   2.256  0.0845  0.1036  0.3555
 6471SOL    HW131046   3.825   3.488   2.276 -1.4361  0.0304  2.2063
 6471SOL    HW231047   3.829   3.622   2.335  2.7436 -0.5353 -0.3667
 6472SOL     OW31048   1.430   0.653  13.442  0.1124  0.1880  0.3370
 6472SOL    HW131049   1.514   0.610  13.456  0.2007 -0.5242 -2.3979
 6472SOL    HW231050   1.451   0.701  13.362 -0.0161 -1.3702 -0.6400
 6473SOL     OW31051   3.503   3.153   2.662  0.6283  0.3172  0.5853
 6473SOL    HW131052   3.477   3.066   2.632  1.4147  0.4209 -0.4226
 6473SOL    HW231053   3.423   3.202   2.641  1.4425  0.3951 -2.4049
 6474SOL     OW31054   4.104   1.238  14.071 -0.1599 -0.2478  0.1540
 6474SOL    HW131055   4.166   1.309  14.054  0.7862 -1.2477 -0.5264
 6474SOL    HW231056   4.103   1.221  14.165  0.3777  0.9430  0.3726
 6475SOL     OW31057   0.695   0.917  11.634  0.4514  0.4448 -0.3836
 6475SOL    HW131058   0.630   0.979  11.601  0.3547  0.5954  0.0990
 6475SOL    HW231059   0.763   0.929  11.567  0.6152 -0.7050 -0.4269
 6476SOL     OW31060   3.942   3.226   4.166  0.0099 -0.2311 -0.0291
 6476SOL    HW131061   4.022   3.277   4.170  1.8548 -3.2593  1.6501
 6476SOL    HW231062   3.901   3.263   4.245  3.2221  1.1682  0.9926
 6477SOL     OW31063   1.827   3.970   7.593  0.2081 -0.6133 -0.6638
 6477SOL    HW131064   1.772   3.942   7.666  0.5553  0.2595 -0.0688
 6477SOL    HW231065   1.892   3.900   7.601  2.4946  1.4301 -1.5737
 6478SOL     OW31066   1.508   1.987   7.457  0.1940 -0.0886 -0.4195
 6478SOL    HW131067   1.434   2.046   7.472 -0.7917 -0.6316 -3.1101
 6478SOL    HW231068   1.493   1.907   7.507  1.2653  0.5301  0.9083
 6479SOL     OW31069   0.170   4.493   9.823 -0.4179  0.5781  0.5784
 6479SOL    HW131070   0.099   4.555   9.809 -0.3438  0.3536 -0.7940
 6479SOL    HW231071   0.186   4.514   9.915  0.0954  0.5432  0.4983
 6480SOL     OW31072   4.687   2.209   6.113 -0.2059  0.2753 -0.3631
 6480SOL    HW131073   4.607   2.172   6.076  0.2634 -1.0858  0.0024
 6480SOL    HW231074   4.682   2.292   6.065  2.7824  0.0824 -1.0271
 6481SOL     OW31075   0.222   1.949  11.162 -0.6890  0.0690 -0.8847
 6481SOL    HW131076   0.147   1.890  11.156 -1.0666  0.6192 -1.6652
 6481SOL    HW231077   0.190   2.018  11.220  0.0004 -1.1485  0.9254
 6482SOL     OW31078   0.083   2.951   5.005  0.3851  0.2070 -0.0105
 6482SOL    HW131079   0.117   2.971   5.092 -2.9645 -1.6161  1.7366
 6482SOL    HW231080   0.137   2.874   4.989  2.3087  2.0388 -2.3710
 6483SOL     OW31081   2.757   1.887   3.356  0.0361 -0.0372 -0.0612
 6483SOL    HW131082   2.779   1.816   3.416 -0.5976 -0.5729 -0.4544
 6483SOL    HW231083   2.774   1.836   3.277 -1.9821 -1.6961  0.5717
 6484SOL     OW31084   3.596   1.286  16.492  0.3912 -0.0070  0.0629
 6484SOL    HW131085   3.543   1.366  16.489 -0.3238 -0.5057 -0.7034
 6484SOL    HW231086   3.655   1.299  16.418 -0.6275 -0.2118 -0.7860
 6485SOL     OW31087   4.642   4.337  11.681  0.1125  0.6975  0.0455
 6485SOL    HW131088   4.715   4.382  11.723  0.1954  2.2026 -1.7301
 6485SOL    HW231089   4.572   4.370  11.737  0.4650  1.2019  0.1894
 6486SOL     OW31090   3.493   2.535  11.461  0.3558 -0.5959 -0.5990
 6486SOL    HW131091   3.476   2.619  11.418  3.7171  0.8490  0.8706
 6486SOL    HW231092   3.558   2.560  11.527  0.8559 -0.0447 -1.2954
 6487SOL     OW31093   2.895   1.471   4.296  0.1313 -0.1940 -0.1223
 6487SOL    HW131094   2.867   1.390   4.339 -0.0511 -1.6037 -2.8779
 6487SOL    HW231095   2.991   1.464   4.295  0.0529 -1.1501 -0.7590
 6488SOL     OW31096   1.068   2.696   7.885  0.2335  0.3412 -0.0354
 6488SOL    HW131097   1.039   2.723   7.797 -1.3886 -1.5310 -0.0589
 6488SOL    HW231098   1.119   2.768   7.922 -0.5643  1.2061 -0.6014
 6489SOL     OW31099   2.288   2.072  15.953  0.3232  0.2625 -0.4843
 6489SOL    HW131100   2.355   2.141  15.955 -0.1870  0.7194  0.6962
 6489SOL    HW231101   2.338   2.003  15.996 -1.3444 -0.8601 -0.3542
 6490SOL     OW31102   1.578   3.828   5.655  0.2253 -0.4172  0.0606
 6490SOL    HW131103   1.607   3.857   5.569  0.8136  0.2399  0.4778
 6490SOL    HW231104   1.589   3.733   5.653 -0.7400 -0.5529  0.8871
 6491SOL     OW31105   3.124   3.499   2.165  0.2296 -0.3242  0.1253
 6491SOL    HW131106   3.211   3.531   2.143  0.5206 -0.9966  0.3089
 6491SOL    HW231107   3.130   3.503   2.260  0.4988 -3.1148  0.2329
 6492SOL     OW31108   4.353   0.157  11.499 -0.2924 -0.2803  0.4543
 6492SOL    HW131109   4.432   0.103  11.507  0.7509  0.8616 -2.1662
 6492SOL    HW231110   4.297   0.089  11.537 -0.0501  0.2891  1.8367
 6493SOL     OW31111   0.097   4.669   6.911  0.0265  0.2039  0.0107
 6493SOL    HW131112   0.053   4.681   6.827 -0.7206  3.0552  0.8076
 6493SOL    HW231113   0.025   4.705   6.962 -0.7487  1.3792 -1.9066
 6494SOL     OW31114   0.884   0.427   7.692  0.1923  0.1688 -0.0305
 6494SOL    HW131115   0.821   0.434   7.620  1.0610 -0.8476 -0.8948
 6494SOL    HW231116   0.931   0.509   7.679  0.4666 -0.1701 -1.1605
 6495SOL     OW31117   3.232   1.418   6.243 -0.2713 -0.2782  0.1249
 6495SOL    HW131118   3.214   1.458   6.158 -1.5818  2.6425  1.7711
 6495SOL    HW231119   3.294   1.351   6.214 -0.4617 -0.6331  0.5323
 6496SOL     OW31120   1.584   1.397   1.583  0.2238 -0.2200 -0.0039
 6496SOL    HW131121   1.631   1.379   1.502 -0.4613  0.1996 -0.4986
 6496SOL    HW231122   1.565   1.304   1.598 -0.8328  0.0382  0.2971
 6497SOL     OW31123   2.913   2.026  10.079 -0.7033 -0.0642 -0.2024
 6497SOL    HW131124   2.914   2.114  10.042  2.4971  0.5818  1.4847
 6497SOL    HW231125   3.003   2.009  10.105 -0.6953 -0.0230 -0.2037
 6498SOL     OW31126   2.646   1.783   4.312 -0.4871 -0.1991 -0.1650
 6498SOL    HW131127   2.723   1.784   4.368 -0.2210  0.8429 -0.5389
 6498SOL    HW231128   2.652   1.708   4.253  0.6710 -0.7140  0.6099
 6499SOL     OW31129   2.454   0.227   1.470 -0.3123  0.4179 -0.1568
 6499SOL    HW131130   2.491   0.172   1.539 -2.2072  1.0132  1.3299
 6499SOL    HW231131   2.510   0.305   1.477  0.8661 -0.4352 -0.0794
 6500SOL     OW31132   1.434   2.286   5.395 -0.1067 -0.1247 -0.5199
 6500SOL    HW131133   1.342   2.286   5.371 -0.4160 -2.1456  0.7591
 6500SOL    HW231134   1.469   2.327   5.315  0.0096  0.7876  0.0017
 6501SOL     OW31135   2.478   1.964   4.413  0.2483  0.3431  0.2293
 6501SOL    HW131136   2.387   1.945   4.389  0.2542 -2.3099  2.2400
 6501SOL    HW231137   2.524   1.896   4.363 -1.4835 -0.3676 -0.3816
 6502SOL     OW31138   0.682   4.423  12.654 -0.2635 -0.2617 -0.0484
 6502SOL    HW131139   0.770   4.440  12.621 -0.0980 -2.6406 -0.8822
 6502SOL    HW231140   0.668   4.333  12.622  0.4969 -0.7812  1.0685
 6503SOL     OW31141   0.315   1.624   5.059  0.6548 -0.1826  0.5438
 6503SOL    HW131142   0.291   1.535   5.083 -0.9438  0.4489  1.3268
 6503SOL    HW231143   0.240   1.667   5.101 -0.2904 -0.9516 -0.3457
 6504SOL     OW31144   1.815   0.298   1.311  0.1484 -0.1471  0.4049
 6504SOL    HW131145   1.791   0.243   1.236  0.3650  2.1787 -1.3663
 6504SOL    HW231146   1.739   0.274   1.363 -0.8663  2.5178  0.1560
 6505SOL     OW31147   1.924   3.346   8.937 -0.2117  0.0673  0.5959
 6505SOL    HW131148   1.847   3.290   8.932  0.5415 -0.8853 -0.3049
 6505SOL    HW231149   1.921   3.371   9.030 -2.2648  1.1817  0.2249
 6506SOL     OW31150   4.011   2.566   8.725  0.2822  0.3591 -0.2812
 6506SOL    HW131151   3.984   2.656   8.744  2.1761  0.7980  0.3413
 6506SOL    HW231152   3.947   2.544   8.657 -0.7378  0.0187  0.7975
 6507SOL     OW31153   1.122   1.009   2.963 -0.4795 -0.3499 -0.1190
 6507SOL    HW131154   1.144   1.102   2.953 -2.0224  0.0856  0.5179
 6507SOL    HW231155   1.190   0.974   2.905 -0.2144 -2.9377  1.7265
 6508SOL     OW31156   2.011   2.776   6.600  0.1644  0.5410  0.2744
 6508SOL    HW131157   2.083   2.830   6.633 -0.2335  1.7145 -0.7656
 6508SOL    HW231158   1.940   2.804   6.657  0.4413 -1.8866  1.8103
 6509SOL     OW31159   2.556   0.240  10.720 -0.0885 -0.4566 -0.3452
 6509SOL    HW131160   2.544   0.280  10.806 -1.1570 -0.8149 -0.3221
 6509SOL    HW231161   2.623   0.295  10.679  2.3570 -1.3965  2.4180
 6510SOL     OW31162   3.055   0.315  15.945 -0.4176  0.5725  0.5338
 6510SOL    HW131163   3.028   0.402  15.977 -1.9083  0.1796  0.3614
 6510SOL    HW231164   3.029   0.271  16.026 -1.2041 -1.2662 -0.7181
 6511SOL     OW31165   0.282   1.334   3.408  0.0982  0.6370 -0.1224
 6511SOL    HW131166   0.189   1.333   3.386 -0.2737  2.5504  1.4035
 6511SOL    HW231167   0.284   1.265   3.473 -0.7529  0.1258 -0.6331
 6512SOL     OW31168   0.008   4.204  16.122 -0.8407  0.5515 -0.1303
 6512SOL    HW131169   0.097   4.170  16.106  0.1938  2.3183  1.9392
 6512SOL    HW231170   4.725   4.239  16.035 -2.4591  1.9974  0.8101
 6513SOL     OW31171   1.084   4.459   4.981 -0.2560 -0.2213 -0.4730
 6513SOL    HW131172   1.171   4.446   4.942  0.3666  1.1839  0.4350
 6513SOL    HW231173   1.106   4.539   5.029 -0.0367 -0.0486 -0.8609
 6514SOL     OW31174   0.055   1.464   4.830 -0.5170 -0.4391  0.0866
 6514SOL    HW131175   0.067   1.557   4.852  0.3695 -0.8154  1.1864
 6514SOL    HW231176   4.697   1.454   4.810 -0.4067  2.6290 -2.0400
 6515SOL     OW31177   2.217   0.692   0.866 -0.3154 -0.1367  0.3022
 6515SOL    HW131178   2.280   0.705   0.795 -0.9558  1.4431  0.0201
 6515SOL    HW231179   2.227   0.774   0.914  0.5618 -0.0641 -0.0029
 6516SOL     OW31180   1.093   3.277   9.000 -0.2995  0.4430 -0.1282
 6516SOL    HW131181   1.003   3.286   8.971  0.9253  2.5469 -3.2529
 6516SOL    HW231182   1.097   3.352   9.059 -0.0155  0.2423  0.1130
 6517SOL     OW31183   1.489   4.628   1.634  0.3319  0.6026 -0.2487
 6517SOL    HW131184   1.516   4.572   1.707  1.4847 -1.9743 -2.6678
 6517SOL    HW231185   1.508   4.567   1.562 -1.4249 -0.8395  0.4991
 6518SOL     OW31186   3.301   2.900   4.463 -0.4777 -0.6765  0.0083
 6518SOL    HW131187   3.345   2.827   4.507 -3.8926  0.3513  5.1724
 6518SOL    HW231188   3.316   2.863   4.377 -0.3196 -1.3203  0.3115
 6519SOL     OW31189   3.128   0.015   3.173 -0.3710 -0.2794 -0.1709
 6519SOL    HW131190   3.046   4.704   3.155 -1.5727  1.6207  0.3508
 6519SOL    HW231191   3.156   4.710   3.254 -1.3133 -1.3787 -0.3936
 6520SOL     OW31192   0.228   1.220   4.719  0.9430 -0.4824 -0.3712
 6520SOL    HW131193   0.151   1.210   4.776  0.5271  0.7372 -0.7216
 6520SOL    HW231194   0.238   1.315   4.712  1.6991 -0.5667 -0.3529
 6521SOL     OW31195   4.031   4.218   9.128  0.1789 -0.0028  0.2473
 6521SOL    HW131196   4.119   4.255   9.137 -0.5817  0.9385  3.8731
 6521SOL    HW231197   4.014   4.228   9.034 -2.7859  0.0927  0.8039
 6522SOL     OW31198   3.614   4.135   9.733  0.0923  0.4325  0.0592
 6522SOL    HW131199   3.549   4.136   9.803  0.1542 -0.4572  0.1181
 6522SOL    HW231200   3.697   4.168   9.769 -1.9787  3.3462  2.1552
 6523SOL     OW31201   0.946   1.597   4.405 -0.7175  0.0747 -0.1059
 6523SOL    HW131202   0.994   1.538   4.348 -1.8657 -0.1824 -0.8081
 6523SOL    HW231203   0.895   1.646   4.340  0.9648 -1.4233 -2.5462
 6524SOL     OW31204   3.906   1.505   8.902 -0.0614 -0.2508 -0.0326
 6524SOL    HW131205   3.876   1.462   8.821 -0.3935  1.9399 -1.0728
 6524SOL    HW231206   3.871   1.443   8.966  1.1452 -1.5227 -0.5964
 6525SOL     OW31207   2.853   3.207   5.757  0.2524  0.1539  0.2726
 6525SOL    HW131208   2.949   3.217   5.755  0.3219 -0.6270 -0.3322
 6525SOL    HW231209   2.847   3.230   5.850  0.4555 -2.6534  0.9924
 6526SOL     OW31210   0.375   1.773   2.765  1.0647 -0.4244  0.6973
 6526SOL    HW131211   0.360   1.690   2.719 -1.7459  0.1367  0.5539
 6526SOL    HW231212   0.429   1.819   2.700 -0.6572  0.6192 -0.0066
 6527SOL     OW31213   4.338   3.687   4.357 -0.3788  0.7098  0.2121
 6527SOL    HW131214   4.319   3.685   4.263  0.3467  1.6225  0.0529
 6527SOL    HW231215   4.266   3.734   4.399 -0.0760  1.6988 -0.3910
 6528SOL     OW31216   2.553   4.331   5.480 -0.2909 -0.2090 -0.4950
 6528SOL    HW131217   2.466   4.304   5.451 -0.1799 -2.1403  1.0235
 6528SOL    HW231218   2.529   4.398   5.544  1.2467  1.4256 -1.6035
 6529SOL     OW31219   3.304   4.020   7.018  0.5090  0.9364 -0.2030
 6529SOL    HW131220   3.391   4.049   7.047  1.2008 -0.6985 -0.6063
 6529SOL    HW231221   3.297   3.942   7.074  2.8334  2.2716  1.9352
 6530SOL     OW31222   0.157   0.194   3.168 -0.2822  0.4547  0.2939
 6530SOL    HW131223   0.162   0.101   3.146  0.6764  0.4576  0.5073
 6530SOL    HW231224   0.238   0.193   3.218 -0.8254 -2.5516  1.1120
 6531SOL     OW31225   3.910   0.727   0.855 -0.1215  0.4035 -0.2721
 6531SOL    HW131226   3.938   0.779   0.931  1.7198 -1.3048  0.2167
 6531SOL    HW231227   3.836   0.687   0.900  0.4680 -0.2297  0.1257
 6532SOL     OW31228   0.741   0.157  14.408  0.0853 -0.3536  0.2720
 6532SOL    HW131229   0.800   0.218  14.363 -1.1374 -0.0815 -0.9500
 6532SOL    HW231230   0.740   0.176  14.502 -0.3017  1.9553 -0.2007
 6533SOL     OW31231   2.428   3.325   6.479 -0.0238 -0.8142 -0.5378
 6533SOL    HW131232   2.364   3.262   6.445 -0.3404  0.8746 -3.0147
 6533SOL    HW231233   2.386   3.409   6.459  0.5173 -0.0468  1.4889
 6534SOL     OW31234   2.082   2.743   3.349 -0.1927 -0.1348  0.4186
 6534SOL    HW131235   2.113   2.659   3.382 -1.5088  0.5858  3.5661
 6534SOL    HW231236   2.004   2.721   3.298  0.3602  0.8245 -0.8442
 6535SOL     OW31237   4.336   3.200   6.660 -0.0884 -0.6054  0.3420
 6535SOL    HW131238   4.310   3.292   6.667  0.0018 -0.5251 -0.2983
 6535SOL    HW231239   4.355   3.176   6.750 -0.8683 -0.1281  0.6315
 6536SOL     OW31240   2.374   0.716   4.395 -0.5565 -0.2373 -0.0894
 6536SOL    HW131241   2.336   0.758   4.318 -0.3837  1.5992  0.8395
 6536SOL    HW231242   2.460   0.753   4.374 -0.9527  0.2501 -0.8386
 6537SOL     OW31243   2.346   2.893  13.559  0.7529  0.4680 -0.4085
 6537SOL    HW131244   2.371   2.810  13.600 -2.4008 -1.9237 -3.3595
 6537SOL    HW231245   2.282   2.926  13.621 -1.1118 -1.6243 -1.2244
 6538SOL     OW31246   0.799   4.062   2.614  0.0236  0.2409 -0.5867
 6538SOL    HW131247   0.870   4.002   2.593  0.2532  0.6051 -0.8511
 6538SOL    HW231248   0.765   4.071   2.525 -0.3414 -3.3788 -0.8086
 6539SOL     OW31249   3.892   3.024  13.652  0.1653 -0.4679 -0.3366
 6539SOL    HW131250   3.940   2.949  13.616  0.0146 -0.8642  0.2891
 6539SOL    HW231251   3.815   3.020  13.596 -0.3601  2.3721  0.1940
 6540SOL     OW31252   2.327   4.573   6.265 -0.4379  0.1810  0.2643
 6540SOL    HW131253   2.354   4.570   6.357  1.1936 -2.0692 -0.2781
 6540SOL    HW231254   2.346   4.665   6.251 -1.6476  0.4561  0.4238
 6541SOL     OW31255   1.977   4.698  16.955  0.3952 -0.4114 -0.3463
 6541SOL    HW131256   1.973   4.604  16.938 -1.4347 -0.3168 -0.4475
 6541SOL    HW231257   1.907   4.733  16.901  0.6226  0.7560  0.1092
 6542SOL     OW31258   3.809   4.193   9.272  0.2092  0.3637  0.2527
 6542SOL    HW131259   3.747   4.211   9.202 -0.6162 -0.5077  0.7632
 6542SOL    HW231260   3.891   4.200   9.223 -0.3463 -2.4707 -1.0339
 6543SOL     OW31261   1.648   3.304   0.427  0.7618 -0.1011 -0.3000
 6543SOL    HW131262   1.737   3.313   0.395 -0.0422  0.5748 -2.3063
 6543SOL    HW231263   1.626   3.383   0.478  0.3486 -1.0772  1.0575
 6544SOL     OW31264   1.771   2.653   9.663 -0.0503 -0.4957  0.5416
 6544SOL    HW131265   1.862   2.624   9.665  0.1005 -0.1208 -0.5328
 6544SOL    HW231266   1.745   2.631   9.574 -0.7867 -1.9012  1.1137
 6545SOL     OW31267   0.752   3.519   1.697  0.1447 -0.5329 -0.5669
 6545SOL    HW131268   0.834   3.567   1.709 -0.7186  0.9536 -0.5353
 6545SOL    HW231269   0.728   3.513   1.789 -0.8955  1.7511 -0.6850
 6546SOL     OW31270   0.173   0.576   7.043 -0.0735 -0.3228 -0.2165
 6546SOL    HW131271   0.175   0.554   7.136 -0.2364  1.3140  0.1675
 6546SOL    HW231272   0.125   0.659   7.044  0.4275 -0.0714  2.4705
 6547SOL     OW31273   1.482   3.790   0.129 -0.0607  0.1474  0.2003
 6547SOL    HW131274   1.573   3.764   0.116 -0.4069 -0.9670 -0.0376
 6547SOL    HW231275   1.462   3.831   0.045 -0.2736 -2.0906 -0.8657
 6548SOL     OW31276   0.173   4.455   8.075 -0.0966  0.0062  0.2646
 6548SOL    HW131277   0.171   4.477   7.981  0.3346 -2.3006 -0.2778
 6548SOL    HW231278   0.078   4.443   8.080 -0.1912  0.3407 -0.5540
 6549SOL     OW31279   3.392   3.298  13.440  0.0752 -0.1661 -0.5505
 6549SOL    HW131280   3.368   3.221  13.492  1.2171  0.1917  0.4861
 6549SOL    HW231281   3.462   3.338  13.491  0.4646 -2.0225  0.3972
 6550SOL     OW31282   0.537   3.142   9.069 -0.1656  0.4691 -0.1379
 6550SOL    HW131283   0.467   3.086   9.103 -0.2834 -0.2027 -1.4810
 6550SOL    HW231284   0.601   3.122   9.137  0.0098  0.9314 -0.1653
 6551SOL     OW31285   1.734   0.319   7.847  0.3446  0.0148 -0.2436
 6551SOL    HW131286   1.654   0.330   7.796  0.6575  0.3918 -0.6553
 6551SOL    HW231287   1.763   0.238   7.805  0.9219  0.4556 -0.6950
 6552SOL     OW31288   0.014   0.274   7.912 -0.0621  0.3319 -0.5797
 6552SOL    HW131289   0.058   0.279   7.828  1.9020  3.0402  0.6203
 6552SOL    HW231290   4.659   0.296   7.889 -0.7804  0.0774  1.9748
 6553SOL     OW31291   1.747   0.809  14.735  0.2812  0.0106  0.4429
 6553SOL    HW131292   1.824   0.795  14.790  1.8947  3.2134 -0.9855
 6553SOL    HW231293   1.708   0.887  14.777 -1.1458 -0.4129 -0.1022
 6554SOL     OW31294   1.985   1.475   1.697 -0.3597  0.2709 -0.1495
 6554SOL    HW131295   1.988   1.505   1.606 -1.2361 -1.9094 -0.8939
 6554SOL    HW231296   1.933   1.397   1.678  0.3544 -0.1690 -0.2623
 6555SOL     OW31297   2.389   4.280   6.628 -0.0255  0.0566 -0.0550
 6555SOL    HW131298   2.462   4.342   6.627  0.2421 -0.2404  0.9699
 6555SOL    HW231299   2.402   4.238   6.543  1.2246  1.7429 -0.6916
 6556SOL     OW31300   3.631   3.849   9.597 -0.5361 -0.2360  0.6627
 6556SOL    HW131301   3.724   3.874   9.597 -0.3745 -0.8330  1.0244
 6556SOL    HW231302   3.627   3.796   9.676 -1.6683  2.8104  2.6394
 6557SOL     OW31303   1.761   3.616   8.738 -0.2136  0.2913 -0.1364
 6557SOL    HW131304   1.689   3.676   8.722 -0.1691 -0.4552 -3.1214
 6557SOL    HW231305   1.737   3.534   8.694  1.1684 -0.1327 -0.1056
 6558SOL     OW31306   0.049   0.730  16.716 -0.0331 -0.3414  0.1774
 6558SOL    HW131307   0.138   0.761  16.700 -0.4945  1.0448  0.2703
 6558SOL    HW231308   0.059   0.685  16.800  1.5014 -0.4610 -0.0694
 6559SOL     OW31309   4.138   0.474   7.673 -0.4700 -0.2186  0.0888
 6559SOL    HW131310   4.117   0.567   7.668 -1.0349 -0.3530 -0.1393
 6559SOL    HW231311   4.140   0.459   7.767 -1.7354 -1.2437 -0.0429
 6560SOL     OW31312   4.579   1.794   5.308 -0.2084 -0.5925 -0.5076
 6560SOL    HW131313   4.622   1.788   5.393  0.2550  1.2668 -0.6018
 6560SOL    HW231314   4.634   1.731   5.262  1.1419 -0.4210  0.9066
 6561SOL     OW31315   4.548   3.214   0.435  0.1201 -0.4411 -0.1620
 6561SOL    HW131316   4.594   3.289   0.399  0.1167 -1.0776 -1.4948
 6561SOL    HW231317   4.584   3.146   0.379 -0.5064  0.0205 -1.1224
 6562SOL     OW31318   1.676   2.619  15.068  0.0383 -0.3775  0.3850
 6562SOL    HW131319   1.670   2.701  15.019  0.1258 -0.5191  0.1389
 6562SOL    HW231320   1.602   2.569  15.036  0.4016 -0.5355 -0.1939
 6563SOL     OW31321   1.616   1.384   6.600 -1.4181 -0.2709 -0.1866
 6563SOL    HW131322   1.599   1.377   6.694  1.4949 -2.3489  0.2157
 6563SOL    HW231323   1.600   1.292   6.576 -0.6813 -0.7018  0.9437
 6564SOL     OW31324   0.773   1.407   4.712  0.3924  0.5540  0.0245
 6564SOL    HW131325   0.802   1.327   4.755  1.5676  1.1860  0.4026
 6564SOL    HW231326   0.726   1.452   4.782  0.8374 -0.5254  1.0210
 6565SOL     OW31327   0.525   0.028   2.215  0.3554 -0.1379 -0.6415
 6565SOL    HW131328   0.431   0.011   2.209  0.4148 -0.5192 -0.4359
 6565SOL    HW231329   0.556   4.682   2.255 -0.0507 -0.4659 -0.9969
 6566SOL     OW31330   1.947   0.088  17.461  0.3340 -0.3063 -0.3641
 6566SOL    HW131331   1.960   0.115  17.551 -0.7082 -1.0820  0.0274
 6566SOL    HW231332   2.028   0.043  17.437  0.5681 -0.7682  1.3369
 6567SOL     OW31333   1.725   0.390  10.815  0.5326  0.9850  0.0511
 6567SOL    HW131334   1.770   0.307  10.827 -1.7846  0.1740  3.0158
 6567SOL    HW231335   1.782   0.439  10.754 -0.0582  0.4805 -0.9026
 6568SOL     OW31336   1.601   2.509   8.713 -0.3519  0.7230 -0.0582
 6568SOL    HW131337   1.576   2.529   8.623 -0.1756  0.4983 -0.1569
 6568SOL    HW231338   1.523   2.467   8.749 -1.2677  1.2534 -1.4538
 6569SOL     OW31339   3.619   0.694   2.358 -0.0694 -0.1510  0.3030
 6569SOL    HW131340   3.657   0.709   2.272 -3.1005  0.2624 -0.9803
 6569SOL    HW231341   3.615   0.599   2.364 -0.9832 -0.0185  1.9260
 6570SOL     OW31342   2.858   1.617   7.296 -0.1900 -0.1744  0.1520
 6570SOL    HW131343   2.833   1.670   7.373 -2.2891 -2.8336  1.3081
 6570SOL    HW231344   2.798   1.649   7.229 -2.2124 -0.2765  1.8981
 6571SOL     OW31345   3.238   1.674  13.701 -0.1638  0.4604  0.3876
 6571SOL    HW131346   3.216   1.639  13.787 -1.7444 -2.0084 -0.9701
 6571SOL    HW231347   3.280   1.604  13.651 -0.9677  0.9574 -0.9910
 6572SOL     OW31348   3.101   2.229   6.876  0.2030 -0.4286  0.1207
 6572SOL    HW131349   3.061   2.315   6.861 -0.8641 -0.8990  0.2599
 6572SOL    HW231350   3.027   2.182   6.915 -0.5349 -1.5944 -2.7102
 6573SOL     OW31351   0.351   3.876  15.103  0.0902 -0.2969 -0.0982
 6573SOL    HW131352   0.276   3.913  15.148  1.5426  1.9870  0.4625
 6573SOL    HW231353   0.302   3.799  15.075  1.1126 -0.5351 -1.2393
 6574SOL     OW31354   1.638   0.658   8.767  0.3141 -0.4080 -0.3832
 6574SOL    HW131355   1.616   0.745   8.735  1.9770  0.1906  0.1510
 6574SOL    HW231356   1.731   0.669   8.786 -0.6371  1.5538  3.2563
 6575SOL     OW31357   0.167   1.056   8.845 -0.6547 -0.1829 -0.2959
 6575SOL    HW131358   0.244   1.104   8.816  0.2823 -0.3095  1.9438
 6575SOL    HW231359   0.100   1.122   8.864  0.7837  1.6176 -1.5613
 6576SOL     OW31360   1.329   0.466   7.052 -0.3356  0.4180  0.2303
 6576SOL    HW131361   1.359   0.387   7.096 -0.9199  1.7244  3.0008
 6576SOL    HW231362   1.404   0.521   7.077 -0.2313  1.0777 -1.5291
 6577SOL     OW31363   0.275   4.396   4.131  0.1214 -0.3283 -1.3541
 6577SOL    HW131364   0.223   4.469   4.164  0.7923 -0.3473 -0.2541
 6577SOL    HW231365   0.335   4.442   4.071 -1.6971  2.3595 -1.1166
 6578SOL     OW31366   2.014   4.036   3.802 -0.9669  0.7844 -0.3183
 6578SOL    HW131367   1.950   3.992   3.746  1.1706 -1.7716 -0.7945
 6578SOL    HW231368   2.005   3.990   3.886  0.4936 -0.4974 -0.8649
 6579SOL     OW31369   1.793   3.105   3.810  0.2522 -0.5629 -0.9420
 6579SOL    HW131370   1.861   3.070   3.752  0.2080 -0.1926 -1.2164
 6579SOL    HW231371   1.716   3.049   3.798  1.1145 -2.3791  2.1297
 6580SOL     OW31372   3.061   1.934   2.894 -0.5229 -0.0590  0.1198
 6580SOL    HW131373   3.038   1.937   2.801 -1.1891  0.4457  0.3010
 6580SOL    HW231374   3.097   1.845   2.904  0.4780  0.2325 -0.9596
 6581SOL     OW31375   0.980   3.049   2.998 -0.0347 -0.1870 -0.0081
 6581SOL    HW131376   1.023   2.993   3.063  0.7329 -1.1742 -1.3497
 6581SOL    HW231377   0.984   3.134   3.042 -0.4962 -0.1974  0.0483
 6582SOL     OW31378   0.555   0.811   3.088  0.3996  0.2366  0.8940
 6582SOL    HW131379   0.555   0.721   3.121  0.6047 -0.4254 -0.9112
 6582SOL    HW231380   0.646   0.832   3.065  0.1455 -0.4027 -0.7263
 6583SOL     OW31381   4.208   2.477   4.861  0.1451  0.2074  0.2056
 6583SOL    HW131382   4.235   2.394   4.823  1.0880 -0.5565  2.5255
 6583SOL    HW231383   4.195   2.526   4.780  0.6702 -1.6405 -0.9883
 6584SOL     OW31384   2.389   1.434   3.831 -0.0178 -0.3970  0.7263
 6584SOL    HW131385   2.424   1.493   3.765  1.1339 -1.2134  0.6133
 6584SOL    HW231386   2.317   1.393   3.783 -0.4000  0.8318  0.2350
 6585SOL     OW31387   2.270   0.895   1.004 -0.6518  0.1287 -0.0492
 6585SOL    HW131388   2.251   0.942   1.085 -1.4431 -0.3128  0.0201
 6585SOL    HW231389   2.301   0.974   0.960 -0.3835  0.6977  1.1683
 6586SOL     OW31390   0.618   0.051   6.397 -0.2184 -0.6305  0.1052
 6586SOL    HW131391   0.693   0.039   6.339 -0.0315 -0.8664  0.3945
 6586SOL    HW231392   0.575   0.129   6.363 -1.6557 -1.8263 -0.8054
 6587SOL     OW31393   0.733   2.785   2.294 -0.1592 -0.0173 -0.4115
 6587SOL    HW131394   0.714   2.710   2.350  3.3497  1.2317  2.4644
 6587SOL    HW231395   0.829   2.785   2.290 -0.0811  0.6371  1.4220
 6588SOL     OW31396   0.843   1.941  14.497 -0.0894 -0.9373  0.0269
 6588SOL    HW131397   0.844   1.886  14.576  2.1648  0.5681  1.0638
 6588SOL    HW231398   0.795   1.879  14.443  0.1444 -1.8339  0.8487
 6589SOL     OW31399   2.332   2.146   8.047  0.3624 -0.3477 -0.2432
 6589SOL    HW131400   2.381   2.204   8.107 -0.4972  0.4510 -0.3188
 6589SOL    HW231401   2.395   2.148   7.975  1.0001 -0.7819  0.3070
 6590SOL     OW31402   1.555   0.223   2.534 -0.1705 -0.6023  0.0212
 6590SOL    HW131403   1.462   0.200   2.527 -0.2881 -0.1666  0.1349
 6590SOL    HW231404   1.599   0.138   2.535 -0.2688 -0.6438  2.1588
 6591SOL     OW31405   4.336   1.107  11.574 -0.2234 -0.5222 -0.1880
 6591SOL    HW131406   4.284   1.172  11.526  0.5739  2.7741  3.4732
 6591SOL    HW231407   4.341   1.140  11.663  1.3985  0.0785 -0.5112
 6592SOL     OW31408   0.606   3.118  12.220 -0.2517  0.5443  0.3161
 6592SOL    HW131409   0.609   3.211  12.198  3.5271  0.4718  0.5752
 6592SOL    HW231410   0.595   3.135  12.313  1.6248  0.1107  0.6097
 6593SOL     OW31411   0.427   2.156  13.825 -0.1278 -0.1620  0.4222
 6593SOL    HW131412   0.498   2.196  13.876 -0.5000 -0.0098  0.8245
 6593SOL    HW231413   0.362   2.224  13.806 -0.9704 -1.2321 -0.5131
 6594SOL     OW31414   2.972   3.041   2.090 -0.1290  0.0777  0.2875
 6594SOL    HW131415   2.903   3.073   2.031 -0.6667  0.3665  1.0637
 6594SOL    HW231416   3.055   3.084   2.067 -0.2879  0.1669 -0.1220
 6595SOL     OW31417   1.008   3.777   4.560 -0.3106 -0.2829  0.0827
 6595SOL    HW131418   0.955   3.796   4.483 -0.2664 -0.4108  0.0205
 6595SOL    HW231419   1.094   3.754   4.524 -1.0097  1.1451 -2.4521
 6596SOL     OW31420   4.711   3.412  10.062 -0.1296 -0.2202  0.1469
 6596SOL    HW131421   0.065   3.444  10.077 -0.7267  1.8224 -0.6477
 6596SOL    HW231422   0.009   3.326  10.037  0.2120  0.0315 -0.2448
 6597SOL     OW31423   0.800   0.381   7.988  0.0209 -0.0853 -0.2832
 6597SOL    HW131424   0.861   0.384   8.062  0.9684  4.3957 -1.2428
 6597SOL    HW231425   0.846   0.326   7.925  1.2480  1.2315 -0.5516
 6598SOL     OW31426   1.535   3.443  12.614  0.3928  0.0761  0.0290
 6598SOL    HW131427   1.503   3.528  12.585  0.2705  0.2351  0.6342
 6598SOL    HW231428   1.452   3.413  12.650  0.2736 -0.0646 -0.3686
 6599SOL     OW31429   0.428   1.113  15.794  0.2531  0.2875 -0.0592
 6599SOL    HW131430   0.383   1.032  15.816  3.2370 -2.0906 -2.7526
 6599SOL    HW231431   0.371   1.178  15.835  0.7315  0.7695 -0.1632
 6600SOL     OW31432   0.165   4.290  10.427  0.5034 -0.0057 -0.0042
 6600SOL    HW131433   0.139   4.284  10.335  0.4409 -0.2216  0.0274
 6600SOL    HW231434   0.127   4.372  10.459  0.0519  1.0996 -3.3939
 6601SOL     OW31435   3.041   0.437   2.732 -0.0543 -0.2482 -0.1626
 6601SOL    HW131436   3.123   0.485   2.725 -1.9850  2.7883 -2.2407
 6601SOL    HW231437   2.993   0.508   2.775  0.6304 -0.7204  1.3556
 6602SOL     OW31438   0.089   1.624   3.060 -0.1012 -0.4311 -0.3390
 6602SOL    HW131439   0.119   1.702   3.013  3.1720 -1.4584  0.0587
 6602SOL    HW231440   0.032   1.581   2.996  1.1686 -0.7811 -1.2419
 6603SOL     OW31441   2.626   0.999   2.962  0.0869 -0.2618 -0.2108
 6603SOL    HW131442   2.624   1.094   2.959  0.2229 -0.1839  1.9765
 6603SOL    HW231443   2.534   0.977   2.946  0.3290 -1.5057  0.1184
 6604SOL     OW31444   0.651   0.089   6.798  0.2131 -0.0921 -0.4027
 6604SOL    HW131445   0.575   0.034   6.818 -0.0020  0.2371 -0.3077
 6604SOL    HW231446   0.710   0.021   6.767 -0.8215  0.6537 -3.9697
 6605SOL     OW31447   0.671   3.857   6.827  0.4663  0.0008 -0.2450
 6605SOL    HW131448   0.707   3.885   6.743 -1.0632 -2.2289 -1.6281
 6605SOL    HW231449   0.603   3.924   6.837  1.7994  0.9721  2.1838
 6606SOL     OW31450   4.033   4.164  15.777 -0.6173 -0.0904  0.5654
 6606SOL    HW131451   4.039   4.076  15.740 -1.4316 -0.6081  1.6853
 6606SOL    HW231452   4.042   4.153  15.871  2.2978 -0.0650  0.3142
 6607SOL     OW31453   2.195   2.187   7.272 -0.1963  0.7140  0.5480
 6607SOL    HW131454   2.121   2.153   7.323 -0.6806 -0.1976 -0.7494
 6607SOL    HW231455   2.191   2.119   7.204 -0.2561 -0.0227  1.2941
 6608SOL     OW31456   0.209   3.953  14.103  0.0905 -0.5613  0.2209
 6608SOL    HW131457   0.171   3.871  14.132 -0.8813 -0.1937 -0.0006
 6608SOL    HW231458   0.137   3.998  14.060  0.7572 -2.2336 -2.6601
 6609SOL     OW31459   3.990   1.349  15.827 -0.0958 -0.1424  0.1613
 6609SOL    HW131460   4.039   1.387  15.754 -0.3697  2.7605  1.4916
 6609SOL    HW231461   3.899   1.368  15.804 -0.7272 -0.5718  2.2889
 6610SOL     OW31462   2.866   2.937   7.380 -0.7651 -0.0514  0.2986
 6610SOL    HW131463   2.869   2.990   7.300 -0.8538 -0.2222  0.1817
 6610SOL    HW231464   2.773   2.920   7.395 -1.2210  0.6025 -1.7820
 6611SOL     OW31465   2.501   0.263   6.791  0.2733 -0.4095  0.1979
 6611SOL    HW131466   2.425   0.315   6.766 -0.6090  0.0208  3.6939
 6611SOL    HW231467   2.567   0.297   6.731 -0.8785 -1.0180 -1.3868
 6612SOL     OW31468   1.455   0.832  16.831  0.3122 -0.1703 -0.3125
 6612SOL    HW131469   1.389   0.792  16.774  1.0129 -0.5339 -0.8569
 6612SOL    HW231470   1.407   0.814  16.912  0.3682  0.7140 -0.0790
 6613SOL     OW31471   1.710   0.063   1.588  0.2597 -0.8703  0.3555
 6613SOL    HW131472   1.641   0.010   1.630 -0.0341  1.4225  2.7584
 6613SOL    HW231473   1.664   0.066   1.504 -2.0791 -1.1376  1.6192
 6614SOL     OW31474   0.383   1.983   2.461  0.1192 -0.7622 -0.0992
 6614SOL    HW131475   0.329   2.036   2.520 -3.1117  0.0870 -3.8425
 6614SOL    HW231476   0.343   2.020   2.382  0.2594 -0.3433  0.0263
 6615SOL     OW31477   3.054   2.897   3.029 -0.2163 -0.5647 -0.8478
 6615SOL    HW131478   3.015   2.835   2.968  0.0401 -0.7593 -0.8115
 6615SOL    HW231479   2.995   2.971   3.015 -0.3070  0.0799  2.8708
 6616SOL     OW31480   0.214   2.654   2.809  0.1389 -0.4503 -0.2627
 6616SOL    HW131481   0.156   2.578   2.817 -1.6880  0.7411 -2.2734
 6616SOL    HW231482   0.202   2.702   2.891  0.7579 -0.8706  0.0721
 6617SOL     OW31483   2.639   4.215  15.133 -0.6706 -0.2244 -0.2900
 6617SOL    HW131484   2.618   4.180  15.220 -2.4080  0.6573 -0.3542
 6617SOL    HW231485   2.691   4.144  15.095  1.3856  0.0094  2.1227
 6618SOL     OW31486   0.486   3.859   4.408  0.3093  0.4144  0.0759
 6618SOL    HW131487   0.425   3.929   4.434  0.4589 -0.4052  2.6351
 6618SOL    HW231488   0.537   3.900   4.338  1.0206  0.7564  0.7961
 6619SOL     OW31489   0.486   2.739   3.571 -0.1768  0.0660 -0.1529
 6619SOL    HW131490   0.413   2.761   3.629 -1.3480  1.1870 -2.0666
 6619SOL    HW231491   0.461   2.648   3.555 -2.3125  0.4396  1.0112
 6620SOL     OW31492   4.141   4.151   3.215 -0.1380  0.2718 -0.7608
 6620SOL    HW131493   4.212   4.202   3.176  0.5974  0.0197  0.2635
 6620SOL    HW231494   4.075   4.151   3.146 -2.1761 -3.2042  1.1770
 6621SOL     OW31495   0.073   4.647   8.814 -0.4545  0.4351 -0.5365
 6621SOL    HW131496   0.009   4.591   8.857  0.7712 -1.4999 -1.2185
 6621SOL    HW231497   0.154   4.608   8.847 -1.6876  1.3765  3.6290
 6622SOL     OW31498   0.776   4.624   7.683 -0.2173 -0.1811 -0.0428
 6622SOL    HW131499   0.778   4.712   7.644 -0.0247 -0.7641 -1.3759
 6622SOL    HW231500   0.833   4.573   7.625  0.0540 -0.3826  0.4001
 6623SOL     OW31501   1.180   2.361  14.413 -0.1897 -0.5315  0.0488
 6623SOL    HW131502   1.095   2.403  14.401 -0.4032 -0.8771  0.3772
 6623SOL    HW231503   1.231   2.418  14.355  0.3872  0.5679  1.6403
 6624SOL     OW31504   3.861   0.480   8.642 -0.9621  0.2577  0.4776
 6624SOL    HW131505   3.939   0.535   8.654 -0.2929 -0.2392 -1.5390
 6624SOL    HW231506   3.789   0.537   8.669 -0.3988  0.4451  1.5598
 6625SOL     OW31507   4.358   1.700   8.741 -0.0390  0.2131 -0.4773
 6625SOL    HW131508   4.280   1.677   8.690 -0.9391  1.1939  0.4773
 6625SOL    HW231509   4.327   1.689   8.831  0.9810 -0.7500 -0.2363
 6626SOL     OW31510   0.574   0.544  16.925 -0.3394  0.4129  0.3841
 6626SOL    HW131511   0.478   0.542  16.925 -0.3079 -0.8745 -0.2201
 6626SOL    HW231512   0.584   0.599  17.003  0.9127  1.9862 -0.8633
 6627SOL     OW31513   1.007   3.061   5.901  0.0419 -0.5120 -0.0636
 6627SOL    HW131514   0.982   3.154   5.902  0.7642 -0.2759 -2.4332
 6627SOL    HW231515   1.082   3.069   5.842  0.2088  1.7326  0.4641
 6628SOL     OW31516   3.391   3.801   6.113 -0.4498  0.2288 -0.0453
 6628SOL    HW131517   3.351   3.764   6.192 -0.6854  1.0520  0.2145
 6628SOL    HW231518   3.435   3.877   6.152 -2.0242 -0.3358  2.8371
 6629SOL     OW31519   0.071   4.486   2.732  0.2090 -0.1244  0.3349
 6629SOL    HW131520   0.165   4.500   2.722  0.1339  0.2314  0.1614
 6629SOL    HW231521   0.043   4.543   2.661  1.6702  0.4248  0.2035
 6630SOL     OW31522   3.353   4.354  16.234  0.1185 -0.0970 -0.2919
 6630SOL    HW131523   3.272   4.387  16.272  0.3084 -0.7135  0.6407
 6630SOL    HW231524   3.346   4.400  16.150  1.0339  1.9305  0.7401
 6631SOL     OW31525   2.826   1.234   4.426 -0.3326  0.0354  0.0359
 6631SOL    HW131526   2.817   1.139   4.420 -0.3549 -0.0418  1.1926
 6631SOL    HW231527   2.914   1.247   4.463  0.1040 -1.0425 -0.6179
 6632SOL     OW31528   1.783   2.376   4.523  0.3326  0.5175  0.4776
 6632SOL    HW131529   1.867   2.417   4.545  0.2888 -0.9039  3.2581
 6632SOL    HW231530   1.773   2.415   4.436  0.1628 -1.7676 -0.5545
 6633SOL     OW31531   2.578   4.548  16.482  0.2760  0.2464  0.0066
 6633SOL    HW131532   2.506   4.493  16.513 -0.0066  0.0258 -1.0576
 6633SOL    HW231533   2.609   4.488  16.414 -0.0840 -0.7490  0.7204
 6634SOL     OW31534   2.020   1.411   8.649  0.1357  0.0386 -0.3786
 6634SOL    HW131535   1.990   1.486   8.702  1.2690  1.1081 -1.2477
 6634SOL    HW231536   2.048   1.355   8.721 -1.1078 -0.0401  0.0500
 6635SOL     OW31537   2.275   3.931   6.925 -0.8633  0.6611 -0.2812
 6635SOL    HW131538   2.260   3.845   6.964  0.7112  0.9430  0.9658
 6635SOL    HW231539   2.306   3.906   6.838  0.9951  0.5158  0.4218
 6636SOL     OW31540   2.636   4.421  14.968  0.0249  0.5657 -0.1590
 6636SOL    HW131541   2.654   4.405  14.876  1.2312  0.3470  0.1067
 6636SOL    HW231542   2.614   4.338  15.011  1.6800  0.1279 -0.1344
 6637SOL     OW31543   4.023   3.411  16.542 -0.1560  0.0374 -0.0928
 6637SOL    HW131544   3.979   3.482  16.494 -1.8715 -0.2638  1.0271
 6637SOL    HW231545   3.973   3.428  16.623 -0.5059 -0.1605 -0.2665
 6638SOL     OW31546   2.342   0.650   7.888 -0.1070  0.1761  0.3355
 6638SOL    HW131547   2.426   0.604   7.887 -0.2569 -0.0760 -0.9055
 6638SOL    HW231548   2.310   0.616   7.805  1.9730 -1.3332  0.1336
 6639SOL     OW31549   0.021   1.247   3.369  0.3043 -0.4165 -0.2209
 6639SOL    HW131550   4.707   1.166   3.363  1.5998 -1.2350  0.0882
 6639SOL    HW231551   4.730   1.278   3.456  1.8491 -0.1987  0.1768
 6640SOL     OW31552   4.420   1.668  13.165 -0.4718  0.2878  0.1106
 6640SOL    HW131553   4.364   1.739  13.134 -0.0212  1.7749  2.7706
 6640SOL    HW231554   4.507   1.706  13.178  0.2007 -1.6189  1.3171
 6641SOL     OW31555   0.055   3.467  15.022 -0.1870 -0.2152  0.3757
 6641SOL    HW131556   4.714   3.485  14.968  1.8958  1.3683 -2.0249
 6641SOL    HW231557   0.103   3.405  14.968  0.2343  1.7549 -1.4731
 6642SOL     OW31558   4.525   3.689   5.466  0.2649 -0.0412 -0.0691
 6642SOL    HW131559   4.515   3.597   5.439 -1.8199 -0.1652  1.1395
 6642SOL    HW231560   4.584   3.727   5.401 -0.0071 -0.7027 -0.7119
 6643SOL     OW31561   0.239   3.333  14.833  0.2253 -0.2521  0.5892
 6643SOL    HW131562   0.249   3.388  14.756  0.3905 -0.5494  0.4002
 6643SOL    HW231563   0.260   3.259  14.776 -0.3274  1.7009 -2.1218
 6644SOL     OW31564   2.904   0.716   2.573  0.3497 -0.3571  0.0856
 6644SOL    HW131565   2.880   0.642   2.630  0.1924  0.4980  1.1185
 6644SOL    HW231566   2.959   0.675   2.506  0.3580 -0.4157  0.1283
 6645SOL     OW31567   3.042   1.157   7.102 -0.0179  0.0858  0.0033
 6645SOL    HW131568   3.038   1.217   7.027  0.9110 -1.5824 -1.3573
 6645SOL    HW231569   3.123   1.192   7.138 -0.2794  0.9001 -0.1790
 6646SOL     OW31570   1.994   2.252   1.695  0.5090  0.3143 -0.1027
 6646SOL    HW131571   1.908   2.292   1.679  0.0359  0.1565  2.0168
 6646SOL    HW231572   1.983   2.214   1.782  2.1519  0.4333  0.1612
 6647SOL     OW31573   0.236   0.712  17.235  0.0257  0.4302 -0.5352
 6647SOL    HW131574   0.274   0.795  17.263 -0.5217  0.5018  0.0035
 6647SOL    HW231575   0.255   0.709  17.141 -0.2411  2.9455 -0.6510
 6648SOL     OW31576   2.094   2.346   7.797  0.2946 -0.0324 -0.3724
 6648SOL    HW131577   2.167   2.318   7.742  2.2028  0.3249  1.9910
 6648SOL    HW231578   2.062   2.262   7.832 -0.1266 -0.1736 -1.0865
 6649SOL     OW31579   0.039   4.402  11.334 -0.1408 -0.1322 -0.0703
 6649SOL    HW131580   0.128   4.373  11.315  0.2473  0.8457  0.2961
 6649SOL    HW231581   0.055   4.481  11.385 -0.1004 -0.0402 -0.2258
 6650SOL     OW31582   4.607   4.420  15.624 -0.4663 -0.2891 -0.1615
 6650SOL    HW131583   4.516   4.412  15.596  0.8014 -1.0101 -4.0738
 6650SOL    HW231584   4.619   4.515  15.627 -0.2389 -0.3178 -0.1131
 6651SOL     OW31585   3.218   2.738  12.802  0.4968 -0.2567 -0.9831
 6651SOL    HW131586   3.195   2.748  12.709 -1.7988  0.6606 -0.2999
 6651SOL    HW231587   3.281   2.808  12.819 -0.9854  0.8803 -0.1621
 6652SOL     OW31588   0.445   2.456   2.491  0.2588 -0.3153 -0.4334
 6652SOL    HW131589   0.540   2.462   2.503  0.2114  1.7483 -1.1097
 6652SOL    HW231590   0.415   2.397   2.561  0.1797 -0.3568 -0.5019
 6653SOL     OW31591   3.693   4.049  10.089 -0.1384 -0.0301 -0.0320
 6653SOL    HW131592   3.619   4.065  10.147  0.2921  0.3669  0.4011
 6653SOL    HW231593   3.659   4.076  10.004 -1.0184 -1.6147 -0.1910
 6654SOL     OW31594   0.049   3.698   8.953 -0.2261  0.7279 -0.6288
 6654SOL    HW131595   0.140   3.672   8.970 -0.5485  1.4223  2.2245
 6654SOL    HW231596   0.060   3.791   8.938 -1.2171  1.7117  4.6826
 6655SOL     OW31597   4.307   1.669   5.214  0.0028  0.5226 -0.1386
 6655SOL    HW131598   4.306   1.584   5.258 -1.1570 -0.7424 -2.6079
 6655SOL    HW231599   4.363   1.722   5.270  1.4922 -1.2430  0.0759
 6656SOL     OW31600   0.626   4.638   5.616  0.1606  0.4737 -0.0456
 6656SOL    HW131601   0.618   4.545   5.593  0.5160  0.7088 -1.1033
 6656SOL    HW231602   0.586   4.639   5.703  0.6719 -0.1592  0.2027
 6657SOL     OW31603   4.354   0.847   5.045 -0.6630 -0.8080 -0.4286
 6657SOL    HW131604   4.348   0.753   5.032  0.5912 -0.8480 -0.7199
 6657SOL    HW231605   4.362   0.856   5.140  0.7439 -1.2350 -0.5085
 6658SOL     OW31606   2.936   2.294   4.309  0.2804 -0.8544  0.0440
 6658SOL    HW131607   2.989   2.267   4.233  0.9755  1.2016 -0.2010
 6658SOL    HW231608   2.917   2.386   4.292  1.2812 -0.6922 -0.2402
 6659SOL     OW31609   0.061   0.590  11.554  0.2433  0.1831 -0.2434
 6659SOL    HW131610   0.155   0.593  11.572  0.3453  1.3193 -0.9632
 6659SOL    HW231611   0.039   0.665  11.499 -1.3912 -0.1929 -0.0922
 6660SOL     OW31612   4.658   1.835   8.068  0.6465 -0.5933 -0.4610
 6660SOL    HW131613   4.566   1.855   8.050  1.2607  2.7169  0.0806
 6660SOL    HW231614   4.652   1.759   8.126  0.3425 -0.0696  0.1950
 6661SOL     OW31615   3.563   0.253   2.557  0.1567 -0.5421 -0.0169
 6661SOL    HW131616   3.574   0.172   2.508  1.7040 -1.2961  1.5549
 6661SOL    HW231617   3.496   0.235   2.623 -1.2449  2.8676 -0.5004
 6662SOL     OW31618   0.209   3.485   7.351  0.1950 -0.1399 -0.4803
 6662SOL    HW131619   0.210   3.574   7.385  0.6973 -0.3082 -0.0437
 6662SOL    HW231620   0.151   3.499   7.276  0.9470  0.5178 -0.9394
 6663SOL     OW31621   1.533   2.143  10.985  0.0467  0.2722 -0.5354
 6663SOL    HW131622   1.440   2.133  10.965 -0.1614  0.9370  0.0965
 6663SOL    HW231623   1.534   2.212  11.051  0.1764 -0.4783  0.2342
 6664SOL     OW31624   4.336   3.909   9.713  0.4709 -0.1807 -0.4382
 6664SOL    HW131625   4.291   3.977   9.763 -2.8753 -1.5539 -1.6076
 6664SOL    HW231626   4.268   3.844   9.728  0.2667 -0.8266 -3.9841
 6665SOL     OW31627   3.283   2.617   8.934 -0.1265 -0.2964  0.1907
 6665SOL    HW131628   3.360   2.586   8.981 -0.1397  1.2962  1.2491
 6665SOL    HW231629   3.318   2.610   8.845 -0.9981 -0.9277 -0.1026
 6666SOL     OW31630   2.950   0.010   7.893 -0.4370  0.5264  0.2004
 6666SOL    HW131631   2.995   4.681   7.948 -0.6248 -0.0709 -0.3576
 6666SOL    HW231632   3.000   0.090   7.908 -0.6879  0.5512  0.9173
 6667SOL     OW31633   3.796   0.693   4.727  0.2272 -0.5734 -0.0546
 6667SOL    HW131634   3.793   0.672   4.820 -1.4299 -1.2912 -0.2618
 6667SOL    HW231635   3.776   0.787   4.724  0.5202 -0.5582 -1.5612
 6668SOL     OW31636   3.884   0.893   1.097  0.0176 -0.3819  0.4733
 6668SOL    HW131637   3.828   0.934   1.163  2.5890  0.6208  2.0373
 6668SOL    HW231638   3.948   0.842   1.147 -0.5415 -2.0108 -0.4684
 6669SOL     OW31639   1.975   0.501  17.622 -0.6370  0.0048  0.0494
 6669SOL    HW131640   2.028   0.439  17.571  2.0257  1.7688  0.6532
 6669SOL    HW231641   2.043   0.565  17.643 -1.0047  0.5313 -0.3436
 6670SOL     OW31642   2.076   3.159   4.277 -0.0658 -0.5454 -0.4413
 6670SOL    HW131643   2.070   3.064   4.276 -1.0450 -0.5382  3.5252
 6670SOL    HW231644   2.078   3.177   4.183 -1.9857 -1.2444 -0.6189
 6671SOL     OW31645   0.023   3.198   4.309 -0.1394 -0.1376 -0.1181
 6671SOL    HW131646   0.002   3.266   4.245 -0.2036 -1.0253 -1.0398
 6671SOL    HW231647   0.007   3.242   4.392  0.2251  1.8231 -1.0813
 6672SOL     OW31648   3.585   3.969  11.173 -0.2740 -1.0057  0.0476
 6672SOL    HW131649   3.620   3.906  11.236 -0.4084 -0.1344  1.0033
 6672SOL    HW231650   3.658   3.987  11.114  1.0163 -1.2116  1.6039
 6673SOL     OW31651   3.980   0.653  12.941  0.3101  0.0982  0.2865
 6673SOL    HW131652   3.894   0.621  12.913  0.9050 -1.1969 -0.0238
 6673SOL    HW231653   4.036   0.639  12.865  0.2982 -2.3556  0.7309
 6674SOL     OW31654   4.625   2.687   9.548 -0.2357  0.2056 -0.4615
 6674SOL    HW131655   4.653   2.770   9.510  0.6606  0.4638  0.7524
 6674SOL    HW231656   4.535   2.706   9.574  0.2231  2.6218 -0.6417
 6675SOL     OW31657   4.330   2.088   4.122 -0.9260  0.0916  0.3204
 6675SOL    HW131658   4.298   2.102   4.211  0.9904  0.2946  0.9752
 6675SOL    HW231659   4.298   2.167   4.077 -1.5338 -0.3725 -0.0666
 6676SOL     OW31660   4.044   3.552   3.159 -0.5105 -0.6114  0.0551
 6676SOL    HW131661   4.083   3.482   3.108  0.5957  0.2535 -0.2804
 6676SOL    HW231662   3.966   3.572   3.106 -0.8680 -2.4122 -0.0784
 6677SOL     OW31663   3.947   0.872   5.140  0.1154 -0.0478  0.2490
 6677SOL    HW131664   3.881   0.940   5.126 -0.7874 -0.7077  1.3274
 6677SOL    HW231665   3.895   0.791   5.142  0.7867 -0.5140 -0.9769
 6678SOL     OW31666   4.609   1.473   6.069 -0.0032 -0.1370  0.2579
 6678SOL    HW131667   4.570   1.397   6.112  0.4807  0.2110  1.3219
 6678SOL    HW231668   4.643   1.441   5.986 -0.1888 -0.1073  0.1700
 6679SOL     OW31669   2.269   2.629  14.767  0.5867  0.1230 -0.0780
 6679SOL    HW131670   2.342   2.690  14.766  0.7018 -0.0023  1.7618
 6679SOL    HW231671   2.318   2.547  14.757  0.8380  0.2012  0.5244
 6680SOL     OW31672   3.154   0.387   6.362  0.6533  0.7384  0.3370
 6680SOL    HW131673   3.109   0.353   6.283  2.0176  0.8224 -0.4692
 6680SOL    HW231674   3.241   0.411   6.330  0.7241  1.5042  1.1291
 6681SOL     OW31675   2.664   2.016  15.882  0.3721  0.0663 -0.0431
 6681SOL    HW131676   2.616   1.993  15.962  0.9719  2.9845  1.1537
 6681SOL    HW231677   2.609   2.089  15.855 -2.8251 -1.1351  3.1150
 6682SOL     OW31678   3.752   2.871   1.408  0.3021 -0.1170 -0.1071
 6682SOL    HW131679   3.726   2.870   1.316 -1.3723  0.7944  0.3682
 6682SOL    HW231680   3.670   2.850   1.453  0.3143 -0.9759 -0.4939
 6683SOL     OW31681   0.546   3.757   9.028  0.2573 -0.3668  0.4896
 6683SOL    HW131682   0.603   3.828   9.057 -0.0004  0.2175 -0.4308
 6683SOL    HW231683   0.567   3.756   8.934 -1.1526  0.1218  0.1804
 6684SOL     OW31684   0.560   1.114  11.455 -0.1817 -0.3502  0.5207
 6684SOL    HW131685   0.592   1.142  11.369 -1.4190 -1.4353 -0.2787
 6684SOL    HW231686   0.466   1.120  11.437  0.2212  3.2539 -0.4828
 6685SOL     OW31687   2.060   0.840   1.533  0.3354  0.5412  0.4400
 6685SOL    HW131688   2.011   0.779   1.478 -2.6618  0.4643  3.1462
 6685SOL    HW231689   2.036   0.800   1.617  2.2193 -1.6598 -0.0905
 6686SOL     OW31690   4.557   2.426   2.361 -0.1008  0.2736  0.6012
 6686SOL    HW131691   4.550   2.468   2.446 -1.1700 -0.2469  0.7716
 6686SOL    HW231692   4.479   2.370   2.360 -0.7559  1.1747  1.2602
 6687SOL     OW31693   1.532   0.460   5.225 -0.0821 -0.1419  0.5091
 6687SOL    HW131694   1.495   0.401   5.159  0.2707  0.5879 -0.3531
 6687SOL    HW231695   1.618   0.478   5.187  0.4640 -2.0779  0.8256
 6688SOL     OW31696   2.239   0.558   3.178 -0.1356  0.0842  0.5762
 6688SOL    HW131697   2.247   0.527   3.088 -0.7511  0.2678  0.4585
 6688SOL    HW231698   2.284   0.490   3.229 -2.6866 -2.5686 -0.7652
 6689SOL     OW31699   3.781   2.443   6.187  0.0135 -0.8270 -0.0217
 6689SOL    HW131700   3.710   2.475   6.243  0.6102 -0.5695  0.5953
 6689SOL    HW231701   3.849   2.496   6.229 -1.5190  0.9411  0.2191
 6690SOL     OW31702   3.013   2.814  16.802  0.5768  0.0230 -0.1890
 6690SOL    HW131703   2.951   2.793  16.732  0.6684  0.3728 -0.3795
 6690SOL    HW231704   2.957   2.815  16.879 -0.1563  0.3742 -0.7318
 6691SOL     OW31705   0.703   2.569   2.482 -0.4650  0.2970  0.1047
 6691SOL    HW131706   0.702   2.583   2.577  0.3139 -3.3853  0.6130
 6691SOL    HW231707   0.787   2.531   2.459 -0.2461 -0.6186  2.4442
 6692SOL     OW31708   3.211   1.306   4.068 -0.6372 -0.2858  0.0153
 6692SOL    HW131709   3.260   1.372   4.117  0.6779 -2.0477  1.1001
 6692SOL    HW231710   3.194   1.359   3.990 -0.4652 -0.8383 -0.3950
 6693SOL     OW31711   2.708   0.801   5.135  0.1980  0.1591  0.1610
 6693SOL    HW131712   2.745   0.885   5.110 -0.2292 -0.3901 -2.3522
 6693SOL    HW231713   2.619   0.806   5.100  0.3471  0.1172 -0.2288
 6694SOL     OW31714   4.536   0.569  14.959  0.0282 -0.4281 -0.0566
 6694SOL    HW131715   4.556   0.630  14.888 -0.5387 -0.6080 -0.3697
 6694SOL    HW231716   4.472   0.630  14.994  0.1463  0.9006 -2.1337
 6695SOL     OW31717   4.404   3.216   2.509 -0.1979 -0.4966 -0.2576
 6695SOL    HW131718   4.447   3.251   2.431  0.9502  1.2864  1.1925
 6695SOL    HW231719   4.450   3.133   2.520  1.5561  0.9845  3.1901
 6696SOL     OW31720   4.076   0.493   4.936 -0.0264 -0.3425  0.3334
 6696SOL    HW131721   4.102   0.564   4.877 -0.9164 -0.8987 -0.7518
 6696SOL    HW231722   3.993   0.530   4.968 -1.4116 -1.1001 -2.3356
 6697SOL     OW31723   3.332   4.320   1.075 -0.4204  0.4018  0.1961
 6697SOL    HW131724   3.401   4.381   1.051  0.7929 -0.9109  0.3959
 6697SOL    HW231725   3.375   4.273   1.146  0.9566 -0.4622 -1.2078
 6698SOL     OW31726   2.459   0.581  17.726 -0.2377  0.1448  0.3720
 6698SOL    HW131727   2.450   0.569   0.079 -2.5097  1.5819  0.3579
 6698SOL    HW231728   2.535   0.639  17.724 -1.6820  2.1010  1.4140
 6699SOL     OW31729   0.003   3.369   2.395 -0.5958  0.2202 -0.0798
 6699SOL    HW131730   0.009   3.273   2.402 -1.2940  0.2165  0.4124
 6699SOL    HW231731   4.719   3.401   2.483 -0.5584 -1.2871  0.4737
 6700SOL     OW31732   2.801   0.483   6.277 -0.0213 -0.0517 -0.9718
 6700SOL    HW131733   2.712   0.504   6.304 -0.0342  0.4145 -1.3731
 6700SOL    HW231734   2.847   0.485   6.361 -0.8520  0.0716 -0.5165
 6701SOL     OW31735   1.690   2.995   7.792 -0.5510  0.1636 -0.1395
 6701SOL    HW131736   1.608   3.017   7.747  0.1336  3.1696  0.1069
 6701SOL    HW231737   1.660   2.967   7.878  1.3583  0.0303  0.4712
 6702SOL     OW31738   2.993   0.355   6.098  0.6448  0.0317 -0.1180
 6702SOL    HW131739   2.938   0.416   6.147  1.9502 -0.0919  1.5252
 6702SOL    HW231740   2.960   0.276   6.140 -0.1863 -0.5744 -1.9011
 6703SOL     OW31741   0.917   1.091  12.855 -0.6959 -0.8060 -0.3518
 6703SOL    HW131742   0.852   1.151  12.819  0.5670  0.5620 -0.3816
 6703SOL    HW231743   0.984   1.086  12.787  0.1527  0.0790  0.4037
 6704SOL     OW31744   1.600   0.686   8.030 -0.7703 -0.1049 -0.3448
 6704SOL    HW131745   1.557   0.605   8.058 -0.9691 -0.1132 -0.6772
 6704SOL    HW231746   1.672   0.685   8.093 -0.3588  0.9147 -0.8061
 6705SOL     OW31747   2.006   3.520   4.030 -0.4545 -0.1914  0.0771
 6705SOL    HW131748   1.987   3.436   3.989 -0.2869  0.8189 -2.0662
 6705SOL    HW231749   1.916   3.553   4.031 -0.2693  0.3451 -0.5345
 6706SOL     OW31750   1.892   3.680   5.984 -0.6912  1.2257  0.0474
 6706SOL    HW131751   1.828   3.748   5.963 -1.0788 -0.3611 -4.0093
 6706SOL    HW231752   1.970   3.735   5.987  0.1667  0.0256 -0.3478
 6707SOL     OW31753   1.225   1.710  12.846  0.3272 -0.1107 -0.7571
 6707SOL    HW131754   1.170   1.750  12.914  1.5691 -2.6220  1.7554
 6707SOL    HW231755   1.194   1.765  12.774  0.4089 -0.4535 -1.0510
 6708SOL     OW31756   1.352   2.592   4.918 -0.1357 -0.3439  0.3298
 6708SOL    HW131757   1.431   2.538   4.924 -0.2709 -0.2152  3.3628
 6708SOL    HW231758   1.395   2.677   4.908 -1.4061  0.2962  0.2524
 6709SOL     OW31759   4.727   0.117   4.983 -0.3466  1.2760  0.4164
 6709SOL    HW131760   4.719   0.023   4.996 -1.9143  1.3267 -0.2859
 6709SOL    HW231761   0.040   0.119   4.900 -1.3156 -1.0314 -0.1929
 6710SOL     OW31762   3.245   2.091   8.357  0.4987 -0.3532 -0.2538
 6710SOL    HW131763   3.322   2.073   8.304 -0.6637 -2.4272 -1.2086
 6710SOL    HW231764   3.280   2.148   8.426  0.0222 -0.0577 -0.2562
 6711SOL     OW31765   0.612   3.697   1.057 -0.0344 -0.0716  0.5480
 6711SOL    HW131766   0.571   3.780   1.081  1.0610  0.5910  0.1099
 6711SOL    HW231767   0.540   3.634   1.058 -0.1001 -0.0018 -0.6335
 6712SOL     OW31768   0.186   3.200   6.512 -0.2272  0.0325 -0.4586
 6712SOL    HW131769   0.108   3.183   6.460 -0.0058  0.4578 -0.9212
 6712SOL    HW231770   0.224   3.112   6.511  0.7297  0.4239  1.2222
 6713SOL     OW31771   4.428   2.213  14.490 -0.6417 -0.4048 -0.6245
 6713SOL    HW131772   4.447   2.293  14.441 -1.1059 -1.0726 -1.8821
 6713SOL    HW231773   4.349   2.249  14.530 -1.3395 -2.5672 -0.0762
 6714SOL     OW31774   1.549   4.437   8.489 -0.1979  0.2995  0.3800
 6714SOL    HW131775   1.633   4.470   8.519  0.5597 -0.8099 -0.5496
 6714SOL    HW231776   1.483   4.500   8.519 -2.1403 -2.1701  1.4300
 6715SOL     OW31777   3.122   0.900  15.565 -0.5924 -0.1947 -0.1566
 6715SOL    HW131778   3.039   0.949  15.572  0.8664  2.4385 -1.2733
 6715SOL    HW231779   3.100   0.808  15.576  0.9612 -0.8581 -2.7062
 6716SOL     OW31780   1.863   4.362   2.746 -0.2962  0.4094 -0.0265
 6716SOL    HW131781   1.781   4.412   2.745 -1.5634 -1.6826 -0.1124
 6716SOL    HW231782   1.924   4.415   2.798  1.9525 -1.6828 -0.4897
 6717SOL     OW31783   2.834   4.431   6.517 -0.3837  0.0499  0.5267
 6717SOL    HW131784   2.746   4.468   6.524 -0.8806 -1.2440  1.1490
 6717SOL    HW231785   2.867   4.483   6.591 -1.2145  1.1626  0.1221
 6718SOL     OW31786   1.465   1.734   1.194 -0.2865 -0.1058 -0.4517
 6718SOL    HW131787   1.485   1.719   1.286 -1.1769  0.0818 -0.2285
 6718SOL    HW231788   1.532   1.677   1.157 -1.0764 -1.4042  0.1549
 6719SOL     OW31789   1.698   1.039  11.381  0.2842  0.0998 -0.3962
 6719SOL    HW131790   1.793   1.036  11.390  0.2293 -1.1643 -0.2945
 6719SOL    HW231791   1.679   1.003  11.295 -0.6187  0.5592 -0.3955
 6720SOL     OW31792   2.813   1.468   5.829  0.2849  0.1506 -0.0835
 6720SOL    HW131793   2.778   1.543   5.876  1.4104  1.0132 -0.6182
 6720SOL    HW231794   2.788   1.495   5.740  1.6745  1.2879 -0.1370
 6721SOL     OW31795   0.247   1.186   9.227  0.6419 -0.0380 -0.4185
 6721SOL    HW131796   0.183   1.166   9.159 -0.6360 -3.3006  1.7889
 6721SOL    HW231797   0.237   1.107   9.279 -1.9822  0.6051  0.0479
 6722SOL     OW31798   0.071   2.766   7.716 -0.0024 -0.0301 -0.0773
 6722SOL    HW131799   0.153   2.805   7.743  0.0108  0.0964 -0.2969
 6722SOL    HW231800   0.021   2.837   7.675  1.6556  0.7688 -0.6941
 6723SOL     OW31801   4.572   3.516   6.569 -0.0015  0.3998  0.1335
 6723SOL    HW131802   4.485   3.488   6.598  0.8751 -1.5616  0.8694
 6723SOL    HW231803   4.614   3.530   6.654 -0.9581 -0.2771  0.7119
 6724SOL     OW31804   2.731   2.614   6.905  0.0724 -0.6749  0.0071
 6724SOL    HW131805   2.712   2.537   6.851 -1.4315  0.6334 -1.3282
 6724SOL    HW231806   2.726   2.686   6.842 -1.5068 -0.4920  0.3555
 6725SOL     OW31807   3.356   4.603   0.411 -0.1373 -0.0371  0.8232
 6725SOL    HW131808   3.372   4.527   0.468 -1.3363  0.1447  1.4117
 6725SOL    HW231809   3.426   4.661   0.441 -0.9728  0.4350  1.8671
 6726SOL     OW31810   0.280   1.917   8.009  0.3203 -0.0539  0.1138
 6726SOL    HW131811   0.368   1.935   8.043  0.2552  0.0536  0.2216
 6726SOL    HW231812   0.235   1.936   8.091  0.1807 -1.8916  0.4738
 6727SOL     OW31813   3.242   0.747   2.387 -0.6766 -0.1055 -0.1549
 6727SOL    HW131814   3.185   0.678   2.420 -1.2415  0.8794  0.9263
 6727SOL    HW231815   3.258   0.712   2.299 -0.6444 -2.3937  0.7629
 6728SOL     OW31816   1.504   2.144   0.815 -0.3936 -0.0359  0.2322
 6728SOL    HW131817   1.536   2.221   0.768  0.4644  1.3208  2.9951
 6728SOL    HW231818   1.515   2.073   0.753  0.2179 -0.0331  0.3394
 6729SOL     OW31819   1.917   2.213   4.967  0.0558 -0.0728  0.0501
 6729SOL    HW131820   1.965   2.207   5.050 -0.9164 -0.1625  0.6056
 6729SOL    HW231821   1.836   2.258   4.991 -1.5691 -1.8546 -2.0796
 6730SOL     OW31822   4.118   0.699  13.170  0.1014  0.7667  0.1269
 6730SOL    HW131823   4.071   0.657  13.098  1.3349  1.3708 -1.0268
 6730SOL    HW231824   4.068   0.780  13.183 -1.4201 -0.2893  0.7954
 6731SOL     OW31825   0.736   1.240   7.404 -0.3503 -0.3282  0.0961
 6731SOL    HW131826   0.800   1.171   7.424 -0.1439 -0.6348 -1.6160
 6731SOL    HW231827   0.697   1.242   7.491  1.0803  0.2074  0.7223
 6732SOL     OW31828   1.387   0.738   6.852  0.6072 -0.0880  0.0488
 6732SOL    HW131829   1.437   0.660   6.827  0.9130  0.2111 -0.2676
 6732SOL    HW231830   1.457   0.802   6.851  1.7799 -1.3728 -0.1146
 6733SOL     OW31831   0.437   4.047   9.009  0.3118  0.1024  0.5771
 6733SOL    HW131832   0.391   4.081   9.086 -0.2418  0.9116 -0.1082
 6733SOL    HW231833   0.526   4.079   9.023 -0.6457  2.4774  1.3056
 6734SOL     OW31834   4.118   1.382  15.581 -0.5016  0.2230 -0.1477
 6734SOL    HW131835   4.209   1.359  15.563 -0.0517  0.1127  2.3419
 6734SOL    HW231836   4.093   1.392  15.489  2.1319  0.7093 -0.8195
 6735SOL     OW31837   2.218   3.453   3.825  1.0541  0.1679 -0.0250
 6735SOL    HW131838   2.145   3.391   3.821  0.5763  0.6965  0.4534
 6735SOL    HW231839   2.270   3.429   3.749  2.6703 -0.4371  1.2889
 6736SOL     OW31840   2.250   4.596   0.508 -0.0311 -0.8408 -0.3294
 6736SOL    HW131841   2.322   4.558   0.458  0.6190 -0.7980  0.5520
 6736SOL    HW231842   2.299   4.663   0.558 -2.0627  1.1273 -0.9797
 6737SOL     OW31843   2.939   2.480   5.938 -0.1447  0.7370 -0.6350
 6737SOL    HW131844   2.945   2.565   5.980  0.9063  0.5027 -0.3346
 6737SOL    HW231845   3.007   2.493   5.872  1.0498 -0.9661  0.2839
 6738SOL     OW31846   1.729   3.373   7.781 -0.0588 -0.3084 -0.1140
 6738SOL    HW131847   1.698   3.283   7.767  1.0086 -0.4076 -1.8729
 6738SOL    HW231848   1.765   3.352   7.867 -0.2449 -0.1662 -0.0024
 6739SOL     OW31849   3.755   1.322   4.322  0.2253 -0.7973 -0.4800
 6739SOL    HW131850   3.764   1.403   4.374  0.7908 -1.0567 -0.1666
 6739SOL    HW231851   3.663   1.302   4.312 -0.1463  0.0007  1.2206
 6740SOL     OW31852   2.816   1.403   7.129 -0.7349  0.3107  0.3223
 6740SOL    HW131853   2.864   1.472   7.175  1.2243  0.5344 -2.0215
 6740SOL    HW231854   2.787   1.438   7.045 -0.3373 -1.6034 -0.6247
 6741SOL     OW31855   1.367   1.592   4.639  0.0453  0.3889 -0.0300
 6741SOL    HW131856   1.380   1.602   4.544 -0.8969 -1.6935 -0.3881
 6741SOL    HW231857   1.363   1.497   4.628 -0.8445  0.2407  1.6130
 6742SOL     OW31858   4.586   2.726  11.701  0.2484 -0.4887  0.0257
 6742SOL    HW131859   4.665   2.779  11.710 -0.2785  0.4009 -0.5123
 6742SOL    HW231860   4.551   2.750  11.615  1.3073  0.5714 -0.1089
 6743SOL     OW31861   3.048   3.289   7.263 -0.3606 -0.2139  0.2373
 6743SOL    HW131862   3.021   3.217   7.205 -2.3539  1.0925 -0.4771
 6743SOL    HW231863   3.083   3.344   7.193 -0.3729 -0.1375  0.2913
 6744SOL     OW31864   2.074   0.068  11.090  0.0106  0.2463  0.3465
 6744SOL    HW131865   1.988   0.052  11.129  0.6232 -2.5805  0.5797
 6744SOL    HW231866   2.136   0.022  11.147 -2.3453 -0.1249  2.6201
 6745SOL     OW31867   3.216   3.111   8.666 -0.6162  0.1099  0.1869
 6745SOL    HW131868   3.130   3.072   8.685  0.3392 -1.3314  1.5612
 6745SOL    HW231869   3.197   3.204   8.668  0.3893  0.3039  0.7672
 6746SOL     OW31870   2.014   0.442   0.430 -0.0900 -0.1508  0.0196
 6746SOL    HW131871   1.995   0.507   0.363 -3.5540 -0.2615  0.8774
 6746SOL    HW231872   1.973   0.476   0.510  0.8723  1.9155 -0.3705
 6747SOL     OW31873   1.242   2.166   5.791 -0.4473 -0.2762 -0.0384
 6747SOL    HW131874   1.313   2.201   5.738 -1.0599 -1.9883 -1.9752
 6747SOL    HW231875   1.255   2.072   5.773 -3.2278 -0.7109  0.3022
 6748SOL     OW31876   2.126   2.407   3.204 -0.4305  0.3002 -0.3479
 6748SOL    HW131877   2.091   2.404   3.293 -2.2703 -2.4810 -1.1724
 6748SOL    HW231878   2.204   2.458   3.226 -0.3432  0.1272 -0.2556
 6749SOL     OW31879   0.816   3.870   7.385 -0.4277  0.1806 -0.0163
 6749SOL    HW131880   0.821   3.778   7.362 -0.7094 -0.2326  1.5864
 6749SOL    HW231881   0.810   3.911   7.298 -1.7243 -2.7984 -1.3359
 6750SOL     OW31882   1.402   2.909  11.501 -0.2093  0.0719  0.2044
 6750SOL    HW131883   1.344   2.848  11.456  0.5242  0.8101 -1.7270
 6750SOL    HW231884   1.437   2.859  11.574 -0.6593  0.4884  0.7049
 6751SOL     OW31885   1.117   0.156   8.130 -0.6125  0.2091  0.2947
 6751SOL    HW131886   1.121   0.066   8.163 -0.3023  0.2868  0.4641
 6751SOL    HW231887   1.193   0.148   8.072  0.5832 -0.7814  1.9905
 6752SOL     OW31888   4.454   2.704   3.236 -0.0224 -0.3083  0.1864
 6752SOL    HW131889   4.542   2.683   3.267  0.1156 -0.8511 -0.5774
 6752SOL    HW231890   4.455   2.797   3.218 -0.0813 -0.7629 -2.1811
 6753SOL     OW31891   1.055   0.094   8.880 -0.3397 -0.6722 -0.3721
 6753SOL    HW131892   1.107   0.080   8.960  0.4830  1.3997 -0.5351
 6753SOL    HW231893   1.113   0.148   8.825 -0.3977 -2.4255 -2.1239
 6754SOL     OW31894   0.328   3.036  11.542  0.0896 -0.7806  0.4002
 6754SOL    HW131895   0.328   3.100  11.471  0.8184 -0.9314  0.2612
 6754SOL    HW231896   0.404   3.059  11.596  1.2122 -1.3427 -0.9474
 6755SOL     OW31897   3.315   1.935   7.567  0.3885  0.0908  0.5896
 6755SOL    HW131898   3.317   1.902   7.477  1.1664 -0.0811  0.6692
 6755SOL    HW231899   3.301   2.027   7.544 -2.0722 -0.3864  0.2008
 6756SOL     OW31900   3.237   4.081   6.114  0.4574  0.2653  0.1468
 6756SOL    HW131901   3.228   4.078   6.209  2.5262  3.7831  0.4622
 6756SOL    HW231902   3.332   4.094   6.108  0.9976 -3.7492  0.2146
 6757SOL     OW31903   1.564   1.029   5.454 -0.8188 -0.3712 -0.2792
 6757SOL    HW131904   1.495   0.966   5.477 -1.4575 -0.9884 -3.8785
 6757SOL    HW231905   1.513   1.087   5.397  0.1815  0.4996 -0.2768
 6758SOL     OW31906   1.200   1.933   3.798  0.1447 -0.4226  0.2060
 6758SOL    HW131907   1.264   1.865   3.820  0.9419  0.2458 -0.0516
 6758SOL    HW231908   1.244   2.005   3.844 -1.3117  0.6387 -0.0672
 6759SOL     OW31909   0.274   2.386  13.834 -0.8780 -0.4361 -0.0725
 6759SOL    HW131910   0.185   2.417  13.817 -0.4216  1.5242  1.2388
 6759SOL    HW231911   0.259   2.387  13.928  0.5466  1.3247  0.1202
 6760SOL     OW31912   3.081   4.413   1.151  0.0961 -0.1502  0.4927
 6760SOL    HW131913   3.170   4.378   1.138 -0.2733 -0.1810 -2.0445
 6760SOL    HW231914   3.020   4.340   1.159 -0.4792  0.1182 -1.3800
 6761SOL     OW31915   2.145   4.219   7.408  0.1093 -0.0659  0.4395
 6761SOL    HW131916   2.086   4.168   7.352 -1.3093  3.0767 -0.9120
 6761SOL    HW231917   2.094   4.222   7.489 -2.2637  0.7376 -1.0607
 6762SOL     OW31918   1.919   2.254   1.948  0.1865  0.4576 -0.3646
 6762SOL    HW131919   1.910   2.174   1.999  1.5976 -0.0886 -0.9868
 6762SOL    HW231920   1.838   2.297   1.977  0.2516 -0.3525  0.9673
 6763SOL     OW31921   2.823   0.936   4.424 -0.5549 -0.1346  0.2960
 6763SOL    HW131922   2.831   0.887   4.506 -1.9011 -1.0468 -0.1230
 6763SOL    HW231923   2.860   0.876   4.359 -2.3909 -1.1810  0.2205
 6764SOL     OW31924   3.987   2.042  13.161  0.3668  0.0871  0.7088
 6764SOL    HW131925   3.911   2.002  13.204  0.7951 -1.8225 -0.3026
 6764SOL    HW231926   4.017   2.093  13.236  1.1255  1.5434 -0.5903
 6765SOL     OW31927   2.901   1.927   8.738 -0.1920  0.3897 -0.0795
 6765SOL    HW131928   2.943   1.849   8.774 -0.3213  0.7008  0.7401
 6765SOL    HW231929   2.967   1.956   8.674  1.0752 -1.9092  0.1862
 6766SOL     OW31930   0.556   4.428   7.142 -0.0722  0.2258  0.1480
 6766SOL    HW131931   0.535   4.444   7.050  0.8398  0.6317  0.0108
 6766SOL    HW231932   0.565   4.520   7.167  0.2338  0.5831 -1.2697
 6767SOL     OW31933   3.193   2.192   5.143  0.2544  0.0572 -0.4670
 6767SOL    HW131934   3.206   2.214   5.236  1.2776  0.0684 -0.6150
 6767SOL    HW231935   3.098   2.202   5.143  0.3637  1.1684  0.9762
 6768SOL     OW31936   1.515   1.122  11.539 -0.3324  0.3957 -0.6929
 6768SOL    HW131937   1.442   1.063  11.520  1.5870 -2.0345 -0.5380
 6768SOL    HW231938   1.577   1.082  11.480  2.0321  1.1807  1.2496
 6769SOL     OW31939   3.568   0.229   9.023  0.3413  0.4753 -0.5089
 6769SOL    HW131940   3.579   0.206   9.116 -0.4265  1.1250 -0.2596
 6769SOL    HW231941   3.507   0.163   8.989  1.2445  0.0176 -1.2366
 6770SOL     OW31942   2.131   1.543   6.459 -0.2253  0.4044 -0.6784
 6770SOL    HW131943   2.178   1.461   6.447  1.7441  1.2424  1.1318
 6770SOL    HW231944   2.040   1.515   6.469 -0.1737  0.3551 -0.3212
 6771SOL     OW31945   3.434   2.369  13.557 -0.4004  0.0880 -0.1905
 6771SOL    HW131946   3.414   2.463  13.550  0.5835  0.1518 -2.0677
 6771SOL    HW231947   3.512   2.379  13.610  0.3260 -0.1605 -1.2196
 6772SOL     OW31948   4.201   1.862   9.212  0.0438  0.2157  0.1945
 6772SOL    HW131949   4.116   1.906   9.208 -0.3842 -0.5930  0.3886
 6772SOL    HW231950   4.257   1.931   9.247  0.8508 -0.4708  0.2695
 6773SOL     OW31951   1.358   1.502   4.117  0.4378 -0.2674  0.0605
 6773SOL    HW131952   1.268   1.476   4.098  2.2228 -3.8239 -3.4309
 6773SOL    HW231953   1.385   1.414   4.141 -1.1672 -0.6688  0.3775
 6774SOL     OW31954   1.840   0.142   7.465  0.3359  0.3869 -0.0093
 6774SOL    HW131955   1.891   0.199   7.408  1.1252  2.5875  2.8904
 6774SOL    HW231956   1.751   0.165   7.439  1.3686  1.0448 -2.9291
 6775SOL     OW31957   2.684   2.797   1.888  0.4820 -0.3684  0.3242
 6775SOL    HW131958   2.689   2.704   1.910  0.0231 -0.6128 -0.6049
 6775SOL    HW231959   2.596   2.802   1.852  0.7398 -1.3874 -0.4607
 6776SOL     OW31960   0.023   1.970   3.558  0.2195 -0.0859  0.0704
 6776SOL    HW131961   4.679   2.019   3.538  1.2597  0.2806 -3.1192
 6776SOL    HW231962   4.713   1.901   3.606 -0.6811  1.7331  1.8685
 6777SOL     OW31963   3.238   3.848   7.616  0.1866 -0.5729 -0.0468
 6777SOL    HW131964   3.219   3.874   7.526  0.8692  1.2259  0.3337
 6777SOL    HW231965   3.153   3.844   7.660  0.3093  1.8431  0.3766
 6778SOL     OW31966   3.396   4.594  17.252 -0.0576  0.0294 -0.4936
 6778SOL    HW131967   3.387   4.688  17.267  1.5101 -0.4210  3.2604
 6778SOL    HW231968   3.344   4.590  17.172  0.2240  1.0598 -0.7290
 6779SOL     OW31969   1.034   2.056   4.833 -0.3153 -0.1601 -0.5715
 6779SOL    HW131970   1.111   2.041   4.887 -0.6561  0.5447  0.1074
 6779SOL    HW231971   1.069   2.090   4.750 -0.3809 -0.6674 -0.8058
 6780SOL     OW31972   3.749   2.888   5.656 -0.3075  0.4540  0.1633
 6780SOL    HW131973   3.691   2.818   5.685  2.5934 -1.8037  0.5569
 6780SOL    HW231974   3.797   2.833   5.593  0.8426  2.6018 -0.8550
 6781SOL     OW31975   3.382   0.266   4.485  0.0419  0.1854 -0.2553
 6781SOL    HW131976   3.456   0.207   4.497  0.1059  0.4136  0.4864
 6781SOL    HW231977   3.312   0.205   4.504 -0.3872  1.0156  0.8283
 6782SOL     OW31978   3.795   2.070   4.718  0.1475  0.1486  0.1334
 6782SOL    HW131979   3.890   2.060   4.706  0.0078  1.0222 -1.6327
 6782SOL    HW231980   3.785   2.019   4.799 -1.7112 -0.9764 -0.8191
 6783SOL     OW31981   4.559   0.489  11.714  0.8583  0.6129 -0.0021
 6783SOL    HW131982   4.571   0.433  11.637  1.0457 -0.9276  1.1449
 6783SOL    HW231983   4.646   0.530  11.707 -0.4358  3.4593  0.4798
 6784SOL     OW31984   0.913   2.941   5.214 -0.4697  0.1023 -0.7325
 6784SOL    HW131985   0.910   3.036   5.216  0.7409  0.1840 -2.8283
 6784SOL    HW231986   0.996   2.926   5.169 -1.1278 -1.0830 -1.5635
 6785SOL     OW31987   0.194   3.831  12.281  0.2182 -0.5662 -0.0199
 6785SOL    HW131988   0.255   3.902  12.301  0.2643 -0.8676  0.9194
 6785SOL    HW231989   0.221   3.766  12.345 -0.7483  0.4961  1.4677
 6786SOL     OW31990   4.246   2.924   9.309  0.0077 -0.5252 -0.1691
 6786SOL    HW131991   4.323   2.979   9.320 -0.2678 -0.2725  0.4528
 6786SOL    HW231992   4.173   2.984   9.295  0.1021  0.0328  1.7601
 6787SOL     OW31993   0.332   0.493  16.610  0.0594  0.3152  0.1782
 6787SOL    HW131994   0.352   0.587  16.613  0.3934  0.2734 -0.7342
 6787SOL    HW231995   0.419   0.466  16.583  0.4886  0.3211  1.5423
 6788SOL     OW31996   3.476   0.690   4.953  0.3953 -0.1446  0.3061
 6788SOL    HW131997   3.531   0.742   5.012 -0.8043  0.6139  0.7546
 6788SOL    HW231998   3.398   0.684   5.008 -0.2440  1.9662 -0.3718
 6789SOL     OW31999   1.267   4.411   8.718  0.0572  0.4616  0.3386
 6789SOL    HW132000   1.205   4.473   8.681  0.0362 -0.5534 -1.3364
 6789SOL    HW232001   1.341   4.470   8.708 -0.9639  1.0028 -3.7550
 6790SOL     OW32002   0.344   4.239   4.976  0.0389 -0.8838 -0.2176
 6790SOL    HW132003   0.429   4.205   4.949 -0.4378 -0.5078 -2.1604
 6790SOL    HW232004   0.359   4.331   4.953  1.2177 -0.9206  0.3562
 6791SOL     OW32005   2.549   4.051   4.862  0.3985  0.0242  0.2433
 6791SOL    HW132006   2.574   3.999   4.786 -3.4860 -0.9981 -0.3056
 6791SOL    HW232007   2.634   4.064   4.904  0.7167 -1.8605  0.1772
 6792SOL     OW32008   3.701   2.111   5.414 -0.7243  0.9624 -0.3993
 6792SOL    HW132009   3.743   2.106   5.328  0.6853  2.3680  0.1966
 6792SOL    HW232010   3.613   2.098   5.380 -0.6354  1.4544 -0.8113
 6793SOL     OW32011   2.584   3.356  11.585 -0.3663 -0.0787 -0.6007
 6793SOL    HW132012   2.649   3.288  11.565 -0.4301 -0.5087  0.6926
 6793SOL    HW232013   2.600   3.414  11.511  1.3875  1.9742  1.4146
 6794SOL     OW32014   0.392   0.638   9.560 -0.0964 -0.3562  0.0801
 6794SOL    HW132015   0.368   0.701   9.628  0.6109  0.0738 -0.0745
 6794SOL    HW232016   0.465   0.683   9.518 -0.4989  0.6561  0.4677
 6795SOL     OW32017   0.651   2.004  12.248  0.1662 -0.6273 -0.2114
 6795SOL    HW132018   0.683   2.032  12.162  1.3102 -0.8761  0.1305
 6795SOL    HW232019   0.600   2.084  12.260  2.1858  0.3958  1.5126
 6796SOL     OW32020   0.188   0.252   6.841  0.3032  0.3203 -0.1293
 6796SOL    HW132021   0.280   0.239   6.864  0.7417  0.2195 -2.0015
 6796SOL    HW232022   0.140   0.241   6.923  0.2391  2.2084  0.0873
 6797SOL     OW32023   4.361   0.825  16.084  0.3227  0.0801 -0.3302
 6797SOL    HW132024   4.441   0.773  16.082  0.8236  0.7622  2.1358
 6797SOL    HW232025   4.389   0.913  16.108  0.5111 -0.9826  3.3300
 6798SOL     OW32026   0.705   1.012   4.887 -0.0267  0.2522 -0.6052
 6798SOL    HW132027   0.748   1.097   4.876  0.5185  0.0544  0.0644
 6798SOL    HW232028   0.638   1.030   4.953 -0.3289 -2.0485 -0.2878
 6799SOL     OW32029   3.978   4.109   6.772  0.0185  0.0207 -0.1110
 6799SOL    HW132030   4.065   4.144   6.789  0.3928 -0.7792 -0.3867
 6799SOL    HW232031   3.996   4.022   6.807 -0.2421 -0.5861 -1.4798
 6800SOL     OW32032   3.537   3.931   3.264  0.2967  0.1118 -0.1623
 6800SOL    HW132033   3.547   3.892   3.177 -0.0929 -3.3546  1.3372
 6800SOL    HW232034   3.466   3.995   3.253  0.6937  0.8040  1.3291
 6801SOL     OW32035   1.726   0.568   9.465  0.0494 -0.1629 -0.5255
 6801SOL    HW132036   1.702   0.525   9.383 -0.2544  1.8480 -1.4982
 6801SOL    HW232037   1.798   0.511   9.494  0.9846  0.1911 -2.1473
 6802SOL     OW32038   0.859   2.845   8.594 -0.2283 -0.1565  0.3645
 6802SOL    HW132039   0.941   2.794   8.592 -0.7174 -0.9080 -0.9084
 6802SOL    HW232040   0.834   2.819   8.682 -1.4147 -0.8683 -0.1844
 6803SOL     OW32041   2.727   1.917   1.922 -0.3548 -0.2234 -0.0670
 6803SOL    HW132042   2.709   1.897   2.014 -0.3529  1.8506  0.3993
 6803SOL    HW232043   2.655   1.975   1.896 -0.7391 -0.1918  1.0755
 6804SOL     OW32044   3.605   2.410   2.634 -0.0198  0.0421 -0.2347
 6804SOL    HW132045   3.536   2.447   2.690  0.6689 -0.2052  0.7791
 6804SOL    HW232046   3.564   2.333   2.596  0.8488 -0.1163 -0.8379
 6805SOL     OW32047   3.642   1.470   8.423 -0.4230 -0.2104  0.0728
 6805SOL    HW132048   3.578   1.400   8.415 -0.3058 -0.4287  0.9915
 6805SOL    HW232049   3.603   1.539   8.477  0.7838  1.4471 -1.1948
 6806SOL     OW32050   2.771   2.645   4.442  0.2569 -0.0493  0.0084
 6806SOL    HW132051   2.781   2.559   4.484  0.4500 -1.5012 -2.9703
 6806SOL    HW232052   2.858   2.681   4.455  0.5208 -0.3713 -0.8320
 6807SOL     OW32053   2.179   2.884   5.563 -0.0089  0.5179 -0.0973
 6807SOL    HW132054   2.150   2.830   5.637  0.5600  2.8213  1.8241
 6807SOL    HW232055   2.272   2.862   5.568 -0.1540  0.2713  1.6320
 6808SOL     OW32056   0.741   0.633   7.980  0.3268 -0.0068  0.3064
 6808SOL    HW132057   0.676   0.638   7.910  1.0003  1.2652 -0.2245
 6808SOL    HW232058   0.767   0.541   7.976  1.0964  0.1663  1.3970
 6809SOL     OW32059   1.690   3.620   0.560 -0.0308 -0.6157 -0.0332
 6809SOL    HW132060   1.605   3.613   0.604 -0.2164 -2.5831 -0.7178
 6809SOL    HW232061   1.682   3.706   0.521  0.9870 -0.2131  0.6566
 6810SOL     OW32062   2.274   3.821   1.173 -0.3302 -0.0573  0.1462
 6810SOL    HW132063   2.199   3.873   1.145  1.2822  1.3730 -1.5134
 6810SOL    HW232064   2.230   3.753   1.225  1.1530 -1.1800 -0.0625
 6811SOL     OW32065   1.922   3.136   7.845 -0.3301 -0.1854  0.2052
 6811SOL    HW132066   1.853   3.088   7.799  0.9266 -0.8365 -1.0011
 6811SOL    HW232067   1.905   3.107   7.935  0.0042 -0.7514  0.0853
 6812SOL     OW32068   3.507   3.443  12.602 -0.4948 -0.0020 -0.2652
 6812SOL    HW132069   3.593   3.457  12.643 -0.5680  0.2680 -0.2047
 6812SOL    HW232070   3.499   3.348  12.591  1.5530 -0.2699  0.4885
 6813SOL     OW32071   0.274   0.223   2.259  0.9724 -0.5696  0.5433
 6813SOL    HW132072   0.266   0.171   2.179  1.5357  1.1131 -0.6126
 6813SOL    HW232073   0.241   0.159   2.321 -4.0690  0.4076 -1.1313
 6814SOL     OW32074   1.188   4.184   4.709  0.2740 -0.3467  0.3101
 6814SOL    HW132075   1.199   4.132   4.788 -1.3157 -2.3178 -0.7630
 6814SOL    HW232076   1.124   4.136   4.656  0.6004 -0.1606 -0.2554
 6815SOL     OW32077   3.239   4.261   9.766 -0.0562  0.3991 -0.9417
 6815SOL    HW132078   3.182   4.193   9.730  0.9118 -1.1459  0.4339
 6815SOL    HW232079   3.173   4.321   9.801 -0.9639 -1.2547  0.1624
 6816SOL     OW32080   4.339   3.250   0.589 -0.0033 -0.1972 -0.3949
 6816SOL    HW132081   4.303   3.182   0.531  1.7388 -1.4349 -0.0238
 6816SOL    HW232082   4.422   3.279   0.552 -1.5078  4.3988 -0.2241
 6817SOL     OW32083   1.672   4.128   0.160 -0.0532 -0.1040 -0.0941
 6817SOL    HW132084   1.677   4.088   0.073  1.2410 -0.0140 -0.0650
 6817SOL    HW232085   1.596   4.187   0.160 -0.2783 -0.3983 -0.0305
 6818SOL     OW32086   4.089   4.733  15.229  0.1599  0.7073  0.5167
 6818SOL    HW132087   4.031   4.656  15.224  1.3148  0.0119 -2.2849
 6818SOL    HW232088   4.158   4.706  15.290  1.9278  2.3719 -0.7649
 6819SOL     OW32089   0.114   1.179   3.869 -0.7442 -0.2688 -0.3720
 6819SOL    HW132090   0.043   1.159   3.930 -1.5333  1.1319 -0.8511
 6819SOL    HW232091   0.170   1.226   3.932  1.0821 -0.5860 -1.7679
 6820SOL     OW32092   0.215   2.544   3.795 -0.3661 -0.1310  0.4215
 6820SOL    HW132093   0.140   2.486   3.783  0.8968 -1.6581 -0.1403
 6820SOL    HW232094   0.162   2.608   3.843 -0.5489  0.0903 -0.0772
 6821SOL     OW32095   3.125   3.571   4.681 -0.3009 -0.5252  0.4093
 6821SOL    HW132096   3.169   3.652   4.657 -1.0298 -0.4175 -0.5628
 6821SOL    HW232097   3.173   3.505   4.631 -1.2628  0.5640 -1.9438
 6822SOL     OW32098   0.245   2.348  17.612 -0.1401 -0.2395 -0.1675
 6822SOL    HW132099   0.210   2.363  17.524  0.8965  1.5545 -0.2682
 6822SOL    HW232100   0.161   2.340  17.658  1.1768  0.7075  2.3625
 6823SOL     OW32101   2.491   2.715  12.431  0.1313 -0.0746 -0.4047
 6823SOL    HW132102   2.577   2.733  12.469  0.6548  1.2739 -2.2008
 6823SOL    HW232103   2.438   2.718  12.510  0.0388  0.9505 -0.5042
 6824SOL     OW32104   1.244   4.429   6.840 -0.3419 -0.0629  0.0642
 6824SOL    HW132105   1.263   4.376   6.763  1.1596 -0.4931  0.7299
 6824SOL    HW232106   1.298   4.372   6.896  1.6820 -0.6109 -2.4517
 6825SOL     OW32107   1.286   4.306  12.290  0.2576 -0.1656 -0.4738
 6825SOL    HW132108   1.358   4.356  12.328  0.0937  1.6573 -2.5801
 6825SOL    HW232109   1.302   4.327  12.197  3.4619 -1.7160 -0.2865
 6826SOL     OW32110   2.561   2.138   4.893  0.4008  0.2967  1.1999
 6826SOL    HW132111   2.513   2.110   4.816 -1.1102 -0.8375  2.5603
 6826SOL    HW232112   2.495   2.183   4.946 -1.1195 -1.1902  0.5632
 6827SOL     OW32113   0.233   1.582   7.256 -0.3923  0.5639  0.3124
 6827SOL    HW132114   0.309   1.533   7.287 -0.7316 -1.1861 -1.6106
 6827SOL    HW232115   0.213   1.541   7.172 -2.2688 -1.9376  1.9857
 6828SOL     OW32116   0.577   4.107  15.753 -0.4599  0.0725 -0.2916
 6828SOL    HW132117   0.612   4.060  15.677 -1.6796 -0.4132 -0.5446
 6828SOL    HW232118   0.501   4.052  15.772  0.1085 -0.8806 -0.7592
 6829SOL     OW32119   2.122   3.640   8.173  0.1060 -0.0348 -0.1962
 6829SOL    HW132120   2.165   3.556   8.191 -0.9891 -1.3541 -3.6972
 6829SOL    HW232121   2.032   3.608   8.182 -0.0490  0.5598  0.4176
 6830SOL     OW32122   1.020   1.755  13.004  0.7822 -0.2966  0.1313
 6830SOL    HW132123   0.953   1.687  12.993 -0.1895  0.7746 -0.5533
 6830SOL    HW232124   0.975   1.804  13.073  0.8111 -1.0167  0.6660
 6831SOL     OW32125   0.621   2.211   3.466 -0.3739  0.6522  0.0493
 6831SOL    HW132126   0.668   2.293   3.454 -0.4080  0.6625 -0.0147
 6831SOL    HW232127   0.626   2.178   3.376  0.5254 -2.5644  1.3058
 6832SOL     OW32128   2.367   2.326   8.975  0.3826  0.4685  0.8158
 6832SOL    HW132129   2.411   2.270   8.911  1.4180  1.1183  0.9570
 6832SOL    HW232130   2.431   2.348   9.043  1.4798  1.0963 -0.4126
 6833SOL     OW32131   1.271   0.248   8.387 -0.3004 -0.3833 -0.0034
 6833SOL    HW132132   1.258   0.234   8.294  1.4189  1.1050 -0.4617
 6833SOL    HW232133   1.202   0.197   8.430  2.2185 -1.0524  3.2637
 6834SOL     OW32134   3.818   4.117   4.662  0.0163  0.4680  0.5923
 6834SOL    HW132135   3.762   4.142   4.736  0.4402  0.8998  0.7714
 6834SOL    HW232136   3.884   4.185   4.679  0.5807  0.4263 -1.4864
 6835SOL     OW32137   2.165   1.543   7.210  0.0211  0.2714 -0.1380
 6835SOL    HW132138   2.224   1.482   7.166 -0.3548  1.8069 -2.7978
 6835SOL    HW232139   2.093   1.535   7.148  2.2921 -0.1426 -2.6970
 6836SOL     OW32140   0.128   3.392   9.535 -0.9327  0.1566 -0.2972
 6836SOL    HW132141   0.085   3.313   9.503 -1.3238 -0.4890  1.8260
 6836SOL    HW232142   0.075   3.466   9.503 -0.2494 -0.1096 -2.0480
 6837SOL     OW32143   0.671   0.076   8.089 -0.6040 -0.4501 -0.1410
 6837SOL    HW132144   0.626   0.159   8.071 -2.5326 -1.1738  1.2696
 6837SOL    HW232145   0.665   0.044   7.999  1.1093  0.3823 -0.5459
 6838SOL     OW32146   3.354   4.725   6.366  0.2819 -0.1690  0.1030
 6838SOL    HW132147   3.372   0.049   6.294 -0.3684  1.5971  1.4211
 6838SOL    HW232148   3.415   0.028   6.429  3.6736 -1.9464 -2.0793
 6839SOL     OW32149   0.082   3.833   8.680 -0.1483  0.1939 -0.2784
 6839SOL    HW132150   0.150   3.884   8.635  0.8118 -1.4121 -0.6682
 6839SOL    HW232151   0.109   3.853   8.769 -1.1452 -0.9164  0.2606
 6840SOL     OW32152   3.309   0.125  16.347 -0.0516  0.0810 -0.4419
 6840SOL    HW132153   3.256   0.124  16.267  2.2987 -1.2739 -2.0029
 6840SOL    HW232154   3.239   0.155  16.404 -0.6447 -1.2612 -0.4837
 6841SOL     OW32155   1.477   3.934  17.637 -0.0484 -0.0446  0.2251
 6841SOL    HW132156   1.410   3.989  17.595 -0.1354 -0.5289 -0.2607
 6841SOL    HW232157   1.550   3.996  17.633  0.6629 -0.7914  1.9771
 6842SOL     OW32158   2.428   3.405   8.926 -0.3663  0.7577  0.1072
 6842SOL    HW132159   2.342   3.383   8.960 -0.0582 -1.3587 -0.4970
 6842SOL    HW232160   2.458   3.315   8.914  0.0331  1.0688 -1.2771
 6843SOL     OW32161   2.727   3.233   8.593  0.6192  0.3937 -0.4796
 6843SOL    HW132162   2.726   3.327   8.577  0.9323 -0.1920 -3.9441
 6843SOL    HW232163   2.741   3.225   8.688 -0.2231  0.5868 -0.3337
 6844SOL     OW32164   1.172   4.100   2.002 -0.2267 -0.0990  0.1546
 6844SOL    HW132165   1.264   4.108   2.026  0.7492 -0.9963 -3.3139
 6844SOL    HW232166   1.136   4.160   2.068 -1.3287 -0.4291 -0.1355
 6845SOL     OW32167   1.447   1.297   6.102  0.6393 -0.0826  0.3224
 6845SOL    HW132168   1.434   1.361   6.172 -2.8573  0.5455 -0.8853
 6845SOL    HW232169   1.457   1.217   6.153 -0.1892 -0.2348  0.2406
 6846SOL     OW32170   0.795   2.738   8.021 -0.1891  0.1883  0.9776
 6846SOL    HW132171   0.882   2.728   8.059  0.1878 -0.3725 -0.0321
 6846SOL    HW232172   0.758   2.661   8.064  0.4769  0.3887  1.8873
 6847SOL     OW32173   0.139   0.791  14.771 -0.3258 -0.2816 -0.5014
 6847SOL    HW132174   0.210   0.737  14.807  0.8652  1.1109 -0.7380
 6847SOL    HW232175   0.117   0.850  14.842  3.3636  0.1313  0.3001
 6848SOL     OW32176   3.743   3.783  12.876  0.1859  0.6930  0.0593
 6848SOL    HW132177   3.728   3.877  12.878 -0.8391  0.5134  0.5708
 6848SOL    HW232178   3.729   3.760  12.968  2.4945  3.0909  1.0165
 6849SOL     OW32179   0.060   3.142   8.681  0.6559  0.2431 -0.9268
 6849SOL    HW132180   0.120   3.112   8.749  0.2270 -1.5561 -1.3443
 6849SOL    HW232181   0.062   3.076   8.612  1.0500 -1.1521  0.4254
 6850SOL     OW32182   3.693   2.567   8.930 -0.1646  0.5343 -0.1580
 6850SOL    HW132183   3.739   2.629   8.986  1.3038  0.9713 -1.8531
 6850SOL    HW232184   3.635   2.533   8.998 -0.4785 -0.2852 -0.8384
 6851SOL     OW32185   2.516   4.580   1.273 -0.5204  0.0734 -0.4551
 6851SOL    HW132186   2.441   4.530   1.243 -1.4727  0.7856  0.7467
 6851SOL    HW232187   2.591   4.521   1.265 -3.9533 -4.2466 -0.0195
 6852SOL     OW32188   3.904   0.432   4.692  0.2604  0.0078 -0.1510
 6852SOL    HW132189   3.885   0.372   4.765  1.3396 -1.0339 -0.7308
 6852SOL    HW232190   3.842   0.505   4.698  0.4165  0.1123  0.1630
 6853SOL     OW32191   4.072   3.206   7.268 -0.0830  0.1231 -0.3957
 6853SOL    HW132192   4.075   3.164   7.182  0.1279 -3.0133  1.1274
 6853SOL    HW232193   4.135   3.276   7.251 -0.8385  1.5866  2.6561
 6854SOL     OW32194   1.826   0.636  11.309  0.2810 -0.1092  0.2266
 6854SOL    HW132195   1.904   0.676  11.271  0.4742  0.0344  0.7914
 6854SOL    HW232196   1.858   0.548  11.327 -1.8889 -0.9877 -0.1035
 6855SOL     OW32197   2.476   2.870   7.856  0.3333  0.4342 -0.5711
 6855SOL    HW132198   2.548   2.892   7.914  0.3776  3.0275 -1.6449
 6855SOL    HW232199   2.429   2.953   7.868  1.1658  1.0531 -1.6605
 6856SOL     OW32200   2.798   1.672   3.507 -0.5100  0.3408  0.2255
 6856SOL    HW132201   2.775   1.579   3.504  2.2546 -0.3383 -0.2628
 6856SOL    HW232202   2.763   1.699   3.591 -0.8689  0.3612  0.0666
 6857SOL     OW32203   2.156   4.291  17.473  0.2452  0.5717  0.5108
 6857SOL    HW132204   2.065   4.291  17.502  1.3547  2.4305  3.9470
 6857SOL    HW232205   2.147   4.216  17.414 -0.8155  2.0874 -1.2227
 6858SOL     OW32206   1.960   1.652  15.757  0.1868 -0.3452 -0.4404
 6858SOL    HW132207   1.983   1.723  15.698  1.1256 -0.3436 -0.0704
 6858SOL    HW232208   2.000   1.697  15.831  1.2343 -1.3947 -0.3662
 6859SOL     OW32209   3.294   2.662   7.879  0.1957  1.0217  0.6265
 6859SOL    HW132210   3.201   2.646   7.892  0.3326 -0.1758  0.1897
 6859SOL    HW232211   3.292   2.692   7.788 -1.1146 -3.2034 -0.7651
 6860SOL     OW32212   2.281   1.208   1.165 -0.4788  0.2862 -0.2060
 6860SOL    HW132213   2.295   1.137   1.228  0.9081  0.7868  0.0411
 6860SOL    HW232214   2.370   1.239   1.152 -0.7918  1.5746  0.7666
 6861SOL     OW32215   1.211   2.860   6.271  0.5997 -0.5931 -0.1108
 6861SOL    HW132216   1.154   2.906   6.211 -0.7681 -1.3570  0.5949
 6861SOL    HW232217   1.146   2.800   6.308 -0.7309 -0.0872 -1.6465
 6862SOL     OW32218   1.971   0.524  12.300  0.2161 -0.4260 -0.1027
 6862SOL    HW132219   2.049   0.574  12.278  0.3243 -1.2862 -1.7174
 6862SOL    HW232220   1.918   0.588  12.348  1.2888  0.8879 -0.6683
 6863SOL     OW32221   3.372   1.812   4.767 -0.2042  0.0489 -0.2788
 6863SOL    HW132222   3.448   1.817   4.709 -1.6284  3.6141 -1.8407
 6863SOL    HW232223   3.303   1.864   4.726 -1.4225 -1.7309 -0.4884
 6864SOL     OW32224   0.697   3.798  11.983 -0.4023  0.5767 -0.2690
 6864SOL    HW132225   0.728   3.758  12.064 -0.8811  0.8088  0.0275
 6864SOL    HW232226   0.612   3.834  12.007 -0.5677  1.1224 -1.6739
 6865SOL     OW32227   3.068   3.876  11.170 -0.1510 -0.1668  0.2380
 6865SOL    HW132228   3.062   3.816  11.095 -0.0579  0.5776 -0.3632
 6865SOL    HW232229   3.157   3.908  11.160 -0.5449  1.4043  1.9745
 6866SOL     OW32230   2.477   3.620   1.809  0.2794  0.0002  0.1918
 6866SOL    HW132231   2.554   3.653   1.854  1.0850 -0.1730 -1.0662
 6866SOL    HW232232   2.425   3.590   1.884  1.0685  0.3146  0.8532
 6867SOL     OW32233   0.597   4.428   9.137  0.8647 -0.6637  0.1098
 6867SOL    HW132234   0.641   4.399   9.217 -0.5577  1.3233  1.6151
 6867SOL    HW232235   0.529   4.483   9.175  0.8228 -1.1969  0.7980
 6868SOL     OW32236   4.234   3.671  10.255 -0.3821  0.0026  0.4042
 6868SOL    HW132237   4.268   3.723  10.182  0.6373  0.3204  1.1181
 6868SOL    HW232238   4.299   3.601  10.248 -0.4475 -0.1119  1.0054
 6869SOL     OW32239   1.279   4.015   7.632  0.0860 -0.4662 -0.2058
 6869SOL    HW132240   1.286   3.919   7.633 -0.1269 -0.4916 -1.7543
 6869SOL    HW232241   1.186   4.027   7.655  0.4861  1.3673  0.4071
 6870SOL     OW32242   2.666   0.830   7.886 -0.0640  0.3132  0.0882
 6870SOL    HW132243   2.738   0.788   7.934  0.2565  0.2977 -0.4012
 6870SOL    HW232244   2.592   0.832   7.947  0.7216  0.5629  1.0381
 6871SOL     OW32245   2.446   1.009   2.598 -0.4248  0.8251  0.1931
 6871SOL    HW132246   2.356   0.992   2.572 -0.0307 -0.8500 -0.0313
 6871SOL    HW232247   2.419   1.077   2.660 -2.3021  1.2810 -1.1157
 6872SOL     OW32248   2.043   3.958  17.641  0.0093  0.3231 -0.0366
 6872SOL    HW132249   2.038   4.036  17.696 -1.4714 -0.3188  0.7215
 6872SOL    HW232250   2.110   3.903  17.683  1.0193 -0.1897 -2.3152
 6873SOL     OW32251   4.179   2.442   5.115  0.6369 -0.1882 -0.4781
 6873SOL    HW132252   4.271   2.437   5.141  1.2614  2.7360 -2.1578
 6873SOL    HW232253   4.180   2.454   5.020  1.0506  2.0142 -0.2119
 6874SOL     OW32254   4.158   3.867  11.707  0.6477  0.0740 -0.0042
 6874SOL    HW132255   4.171   3.953  11.667  3.4094 -0.4164 -0.1701
 6874SOL    HW232256   4.078   3.834  11.665  0.3609 -2.9896  2.9488
 6875SOL     OW32257   1.015   2.557   4.036  0.0400  0.7591  0.1762
 6875SOL    HW132258   0.969   2.481   3.998 -0.3409  0.1470  1.8750
 6875SOL    HW232259   0.978   2.547   4.123 -0.8259  1.5272 -0.1055
 6876SOL     OW32260   1.479   1.864  14.670  0.1849  0.6038  0.1303
 6876SOL    HW132261   1.505   1.874  14.578  0.3151  2.8781  0.4080
 6876SOL    HW232262   1.386   1.886  14.668  0.0928  0.1653 -0.4705
 6877SOL     OW32263   3.689   2.713   4.906  0.1037 -0.0067 -0.1068
 6877SOL    HW132264   3.701   2.742   4.815 -2.3537  1.9702  0.2034
 6877SOL    HW232265   3.719   2.622   4.908  0.6977  0.1602 -1.1576
 6878SOL     OW32266   1.174   2.195   4.613 -0.2538  0.2280 -0.2767
 6878SOL    HW132267   1.176   2.282   4.652 -0.8851 -0.8709  2.2811
 6878SOL    HW232268   1.099   2.200   4.554 -1.2061 -1.0350  0.8279
 6879SOL     OW32269   2.559   1.338  10.503  0.5329 -0.4220 -0.8432
 6879SOL    HW132270   2.491   1.289  10.549  0.7465  1.0008  0.9526
 6879SOL    HW232271   2.527   1.424  10.476  1.3182 -0.1120 -0.7745
 6880SOL     OW32272   3.042   2.642   8.124  0.0570  0.0449 -0.1178
 6880SOL    HW132273   3.106   2.572   8.110  0.2092  0.1863 -0.1315
 6880SOL    HW232274   3.017   2.658   8.033 -1.8153  0.2818  0.4452
 6881SOL     OW32275   4.675   1.532   7.309  0.1994  0.3917  0.1767
 6881SOL    HW132276   4.684   1.459   7.248  1.5428  0.0041  0.8282
 6881SOL    HW232277   0.005   1.512   7.375  0.1371 -0.1594  0.0709
 6882SOL     OW32278   3.366   1.933   2.346 -0.5028 -0.2143 -0.6284
 6882SOL    HW132279   3.425   1.884   2.288  1.8367  1.8878 -0.0443
 6882SOL    HW232280   3.284   1.938   2.298  0.6197 -1.8532 -2.7463
 6883SOL     OW32281   3.630   4.340   4.086  0.0720  0.0393 -0.3637
 6883SOL    HW132282   3.536   4.353   4.101  0.1208 -1.5683  1.2376
 6883SOL    HW232283   3.635   4.254   4.127 -0.6184 -0.1377 -0.6472
 6884SOL     OW32284   3.722   0.688   8.747  0.1704 -0.1908 -0.2821
 6884SOL    HW132285   3.696   0.756   8.685  0.8665 -0.4426 -0.8595
 6884SOL    HW232286   3.751   0.739   8.823  0.8616  0.9422 -1.2959
 6885SOL     OW32287   0.326   1.465  17.397 -0.6119 -0.3118 -0.3837
 6885SOL    HW132288   0.422   1.466  17.403 -0.5829 -0.3848 -0.8555
 6885SOL    HW232289   0.297   1.386  17.443 -2.8014  0.2298 -0.8331
 6886SOL     OW32290   0.378   3.974   7.457  0.0551 -0.2005 -0.6262
 6886SOL    HW132291   0.436   3.992   7.531  0.3570  0.0112 -0.9088
 6886SOL    HW232292   0.351   4.063   7.433 -0.0183 -0.1729 -0.4373
 6887SOL     OW32293   2.242   1.570   4.559 -0.1978  0.6460 -0.1257
 6887SOL    HW132294   2.321   1.597   4.606 -3.0486  2.3685  3.7358
 6887SOL    HW232295   2.189   1.552   4.637  0.8274  1.1645  0.6970
 6888SOL     OW32296   0.549   1.888   3.776 -0.1174 -0.3204  0.4554
 6888SOL    HW132297   0.579   1.936   3.698 -1.7268  1.9286  1.2131
 6888SOL    HW232298   0.456   1.911   3.784 -0.1179  0.0137 -0.5093
 6889SOL     OW32299   3.482   2.664   5.188  0.0487 -0.2730  0.0831
 6889SOL    HW132300   3.396   2.692   5.217  0.5673 -0.2886  1.6290
 6889SOL    HW232301   3.512   2.610   5.261 -0.6081  0.1705  0.6736
 6890SOL     OW32302   4.255   3.397   7.155 -0.1855 -0.3766 -0.0408
 6890SOL    HW132303   4.308   3.423   7.079 -0.6739 -1.5517 -0.7682
 6890SOL    HW232304   4.319   3.415   7.224 -0.9372  3.9940 -0.4841
 6891SOL     OW32305   1.342   0.030   5.633 -0.3488 -0.2521  0.3294
 6891SOL    HW132306   1.402   4.694   5.613 -0.4232 -0.6618  1.5788
 6891SOL    HW232307   1.281   4.718   5.689 -0.8365 -0.0225 -0.0111
 6892SOL     OW32308   1.034   3.014  13.179  0.3804  0.6538  1.1319
 6892SOL    HW132309   1.066   2.940  13.128 -1.2845  0.4124  0.4533
 6892SOL    HW232310   1.117   3.056  13.204  1.1727 -1.4358  1.9428
 6893SOL     OW32311   0.531   3.071   0.618 -0.3945  0.0015 -0.2140
 6893SOL    HW132312   0.528   3.164   0.643  0.1420 -0.4125  1.4069
 6893SOL    HW232313   0.626   3.059   0.626 -0.0549  1.3174 -2.1806
 6894SOL     OW32314   2.898   2.880   3.511 -0.1933 -0.3955  0.6165
 6894SOL    HW132315   2.890   2.798   3.462 -0.8479  0.2967 -0.4281
 6894SOL    HW232316   2.852   2.943   3.455  0.0576 -0.4719  0.3206
 6895SOL     OW32317   4.033   4.725   4.982 -0.2098 -0.1449  0.2449
 6895SOL    HW132318   4.091   4.670   4.930 -1.3725 -1.0668 -0.0754
 6895SOL    HW232319   4.077   0.074   4.978  1.7647 -1.2459 -1.2551
 6896SOL     OW32320   0.233   0.756   0.647 -0.8304  0.1391  0.5883
 6896SOL    HW132321   0.231   0.804   0.564  1.2087 -2.5104 -0.9820
 6896SOL    HW232322   0.325   0.736   0.633 -0.7567 -0.3359  1.7445
 6897SOL     OW32323   2.240   3.865   3.542  0.0644 -0.0183 -0.5771
 6897SOL    HW132324   2.298   3.889   3.614  0.7821  1.3296 -1.6040
 6897SOL    HW232325   2.177   3.806   3.584 -1.5209  0.1640 -2.7364
 6898SOL     OW32326   0.487   1.469   7.315 -0.1804  0.5361 -0.3538
 6898SOL    HW132327   0.566   1.502   7.272  0.3777 -1.8508 -1.1673
 6898SOL    HW232328   0.471   1.390   7.264  0.8404 -0.8533  1.5007
 6899SOL     OW32329   3.445   0.135   3.372 -0.2310  0.5407 -0.3525
 6899SOL    HW132330   3.474   0.045   3.391  0.0267  0.7340  0.1700
 6899SOL    HW232331   3.529   0.173   3.399 -1.0023  0.5592  2.0053
 6900SOL     OW32332   1.122   2.803   8.572  0.2281  0.2109 -0.1957
 6900SOL    HW132333   1.127   2.844   8.486  0.1122 -3.0883 -1.7902
 6900SOL    HW232334   1.169   2.720   8.566 -0.0607  0.1653 -1.6589
 6901SOL     OW32335   1.229   3.075   4.504 -0.1106 -0.0810 -0.0494
 6901SOL    HW132336   1.199   2.999   4.455 -0.9874  0.9809 -1.1763
 6901SOL    HW232337   1.322   3.054   4.515 -0.3241 -0.0980  1.6925
 6902SOL     OW32338   4.631   2.967   6.268  0.3107  0.0043  0.6385
 6902SOL    HW132339   4.670   2.998   6.185 -1.0944 -2.3502 -0.8782
 6902SOL    HW232340   4.566   3.032   6.296 -0.1587 -0.9004  1.6188
 6903SOL     OW32341   4.641   4.100  12.897 -0.0480  0.1410 -0.0350
 6903SOL    HW132342   4.568   4.038  12.897 -1.4883  1.8323  1.2873
 6903SOL    HW232343   4.710   4.061  12.951  0.1145  1.3609  0.6498
 6904SOL     OW32344   2.238   1.232   2.683  0.0888  0.2941  0.4401
 6904SOL    HW132345   2.287   1.311   2.703  1.9366 -1.7609  4.0366
 6904SOL    HW232346   2.169   1.269   2.628 -0.0852 -0.0507  0.4205
 6905SOL     OW32347   3.145   2.178  13.811 -0.0070  0.2537  0.1348
 6905SOL    HW132348   3.163   2.118  13.884 -0.5769 -1.4918 -1.1592
 6905SOL    HW232349   3.224   2.231  13.804  0.8228 -1.1907 -1.3646
 6906SOL     OW32350   2.419   0.100   7.177  0.1632 -0.0169 -0.4289
 6906SOL    HW132351   2.330   0.101   7.212  0.2832  1.2486 -0.1659
 6906SOL    HW232352   2.401   0.049   7.098  0.8786  0.1614 -0.7034
 6907SOL     OW32353   4.150   1.469   4.970 -0.9208  0.5932  0.2529
 6907SOL    HW132354   4.236   1.500   4.941 -0.2304 -0.6135  1.0379
 6907SOL    HW232355   4.173   1.403   5.035 -1.7236  0.3157  0.2621
 6908SOL     OW32356   2.113   2.612  17.123 -0.6165  0.4223  0.1606
 6908SOL    HW132357   2.049   2.665  17.171  0.5949  1.8061  0.2492
 6908SOL    HW232358   2.191   2.627  17.176  0.2310  2.4531 -1.6563
 6909SOL     OW32359   4.238   4.709   5.578 -1.1451 -0.3260 -0.1349
 6909SOL    HW132360   4.158   4.736   5.534  0.4462  2.1766 -1.5214
 6909SOL    HW232361   4.207   4.682   5.664 -1.0546  0.6952  0.2172
 6910SOL     OW32362   0.243   1.279   5.963 -0.2740  0.2137  0.3262
 6910SOL    HW132363   0.263   1.201   6.015 -0.0676 -0.6131 -1.0215
 6910SOL    HW232364   0.147   1.274   5.962 -0.3253  2.1155 -2.3559
 6911SOL     OW32365   2.517   1.193   0.609  0.2527  0.0316 -0.1717
 6911SOL    HW132366   2.453   1.163   0.544 -0.1491  0.5602 -0.0171
 6911SOL    HW232367   2.574   1.241   0.549 -0.3244  1.2908  0.2986
 6912SOL     OW32368   1.093   4.618   8.121 -0.3675 -0.4710  0.2495
 6912SOL    HW132369   1.014   4.575   8.153 -0.6453 -0.4846 -0.4377
 6912SOL    HW232370   1.070   4.621   8.028  2.2753  0.9392 -0.3459
 6913SOL     OW32371   2.089   3.843   8.939 -0.1383  0.5503 -0.2620
 6913SOL    HW132372   2.170   3.843   8.989  1.7052 -1.6450 -3.2354
 6913SOL    HW232373   2.102   3.763   8.888 -2.8185 -1.1804  1.7610
 6914SOL     OW32374   0.848   1.870   4.825 -0.3292  0.2158 -0.1071
 6914SOL    HW132375   0.907   1.828   4.763  1.4159  0.3019  1.4812
 6914SOL    HW232376   0.905   1.943   4.851  1.0591 -0.9684  0.1927
 6915SOL     OW32377   3.340   4.034   1.612  0.4260  0.2802  0.1246
 6915SOL    HW132378   3.251   4.051   1.581  0.7653  1.2399 -0.3013
 6915SOL    HW232379   3.326   3.979   1.689  1.7992  0.1945  0.3200
 6916SOL     OW32380   2.732   0.029   1.563  0.5894  0.1444  0.0933
 6916SOL    HW132381   2.784   0.086   1.619 -0.4066  0.6736  0.4933
 6916SOL    HW232382   2.642   0.043   1.594  0.4300  0.7862 -0.6584
 6917SOL     OW32383   0.044   4.309  15.426 -0.2444 -0.0111  0.1872
 6917SOL    HW132384   0.123   4.363  15.426 -0.8145  0.8065  1.3209
 6917SOL    HW232385   4.712   4.360  15.470 -1.0171 -0.8210 -0.0598
 6918SOL     OW32386   2.906   1.740  10.090 -0.1186 -0.1312 -0.0880
 6918SOL    HW132387   2.900   1.835  10.083  0.0899 -0.3186 -2.7825
 6918SOL    HW232388   2.875   1.726  10.180  2.4864 -2.6857  0.4409
 6919SOL     OW32389   0.781   3.101  13.135 -0.1091  0.2129 -0.0790
 6919SOL    HW132390   0.807   3.192  13.126  1.2698 -0.3308 -1.5025
 6919SOL    HW232391   0.866   3.063  13.157  2.0648  5.3219  0.1651
 6920SOL     OW32392   2.427   4.462   0.864  0.2828 -0.3892 -0.4339
 6920SOL    HW132393   2.465   4.459   0.776  2.6782 -1.2548  0.6112
 6920SOL    HW232394   2.455   4.378   0.901  0.4456 -0.6015 -1.0382
 6921SOL     OW32395   3.235   1.663  10.075  0.1369  0.4566  0.0026
 6921SOL    HW132396   3.197   1.665  10.162  0.2712 -0.3504  0.0805
 6921SOL    HW232397   3.205   1.747  10.040 -1.8432  0.2362  1.2000
 6922SOL     OW32398   4.311   0.080  14.825 -0.3422 -0.1678  0.0847
 6922SOL    HW132399   4.314   0.175  14.825 -2.6060 -0.1036 -1.6915
 6922SOL    HW232400   4.223   0.060  14.856 -1.4646  0.1119 -2.9118
 6923SOL     OW32401   0.814   2.142   2.255  0.4010 -0.1439  0.0657
 6923SOL    HW132402   0.746   2.200   2.222  0.2619 -1.1682 -1.3945
 6923SOL    HW232403   0.748   2.088   2.298 -0.7912  2.2496  1.3066
 6924SOL     OW32404   0.649   1.990   2.388  0.1324  0.1067 -0.3487
 6924SOL    HW132405   0.671   1.897   2.396  0.4619  0.1480 -0.8193
 6924SOL    HW232406   0.559   1.998   2.420  0.6583  1.0510  0.9334
 6925SOL     OW32407   3.460   4.443   4.399  0.3462 -0.5120 -0.0076
 6925SOL    HW132408   3.381   4.409   4.358  1.3456 -2.4850 -0.2861
 6925SOL    HW232409   3.503   4.361   4.420 -1.6082 -2.0003 -1.8042
 6926SOL     OW32410   2.416   4.057   9.762 -0.4063  0.3224 -0.5555
 6926SOL    HW132411   2.380   3.969   9.751  0.2755 -0.0599  0.2473
 6926SOL    HW232412   2.365   4.093   9.835  0.6573 -2.2116  1.4115
 6927SOL     OW32413   0.949   4.027   1.833 -0.1282  0.2374  0.6974
 6927SOL    HW132414   1.035   4.055   1.867  0.2502 -0.3807  0.2402
 6927SOL    HW232415   0.975   4.003   1.744 -1.2968 -2.3594  1.0518
 6928SOL     OW32416   0.516   0.764  13.307  0.0260  0.0480 -0.1999
 6928SOL    HW132417   0.522   0.690  13.367  0.8458 -0.3806 -0.8137
 6928SOL    HW232418   0.594   0.750  13.253  0.7748  0.7923  0.6877
 6929SOL     OW32419   4.418   1.812   3.423 -0.1848  0.7034 -0.3547
 6929SOL    HW132420   4.359   1.878   3.460 -0.9798 -0.9274  1.2167
 6929SOL    HW232421   4.354   1.771   3.365  2.4370 -0.7643 -2.2165
 6930SOL     OW32422   0.231   3.156   2.013  0.5646  0.5452 -0.1769
 6930SOL    HW132423   0.209   3.199   1.930  0.6694  1.3760  0.2289
 6930SOL    HW232424   0.197   3.070   1.988  1.1714  0.5479 -1.0167
 6931SOL     OW32425   0.420   1.712  17.732 -0.3918  0.6914  0.0784
 6931SOL    HW132426   0.509   1.737  17.705  0.1359 -1.4187 -0.1566
 6931SOL    HW232427   0.438   1.660   0.068 -0.4322  0.2662 -0.1955
 6932SOL     OW32428   4.235   4.279   9.477 -0.1104  0.3309  0.1339
 6932SOL    HW132429   4.196   4.365   9.458  0.2034  0.2747 -0.7587
 6932SOL    HW232430   4.256   4.248   9.389  1.9480 -1.0204  1.1234
 6933SOL     OW32431   0.528   2.407   7.082 -0.1736  0.0355 -0.6447
 6933SOL    HW132432   0.600   2.374   7.028 -0.3183  2.6983 -2.4505
 6933SOL    HW232433   0.468   2.338   7.051  1.0129 -1.2708 -0.0274
 6934SOL     OW32434   2.640   2.739   1.007  0.6997  0.3645 -0.4007
 6934SOL    HW132435   2.600   2.670   0.954  1.0138 -0.1040 -0.0340
 6934SOL    HW232436   2.586   2.817   0.997  0.8397  0.1320 -3.1026
 6935SOL     OW32437   3.649   1.639   5.446 -0.1816  0.6898  0.3931
 6935SOL    HW132438   3.695   1.555   5.455 -0.4805  0.3310 -1.5452
 6935SOL    HW232439   3.667   1.665   5.537  1.0306  1.5645 -0.0976
 6936SOL     OW32440   2.355   3.047   5.817  0.4167  0.0205 -0.3470
 6936SOL    HW132441   2.383   3.102   5.890  2.6691 -1.1738 -0.3196
 6936SOL    HW232442   2.353   2.962   5.861 -0.6106 -0.3817 -1.1594
 6937SOL     OW32443   0.486   0.486  15.318  0.0348 -0.3968 -0.5469
 6937SOL    HW132444   0.427   0.479  15.242  1.0997 -0.0050 -1.4013
 6937SOL    HW232445   0.417   0.502  15.383  0.6872 -0.8582  0.2507
 6938SOL     OW32446   1.084   4.600   7.527 -0.1342  0.4670 -0.8050
 6938SOL    HW132447   1.170   4.586   7.568 -0.6420  3.2454  1.1759
 6938SOL    HW232448   1.057   4.508   7.522  2.0043 -0.1711 -0.9279
 6939SOL     OW32449   3.242   4.347   4.265  0.6132  0.2990  0.1885
 6939SOL    HW132450   3.177   4.369   4.198  1.5417  0.8910 -0.5302
 6939SOL    HW232451   3.211   4.264   4.301 -0.8553 -0.0298 -1.8156
 6940SOL     OW32452   2.225   1.918   1.746 -0.5667  0.2197  0.5273
 6940SOL    HW132453   2.289   1.859   1.708  0.3089 -0.0761  2.4334
 6940SOL    HW232454   2.221   1.887   1.837  1.8069  4.0750  1.9673
 6941SOL     OW32455   2.596   0.738   7.282 -0.8062 -0.5815 -0.8112
 6941SOL    HW132456   2.592   0.832   7.265 -1.4777 -0.2100  1.3901
 6941SOL    HW232457   2.576   0.729   7.375  0.3274 -1.8296 -0.6840
 6942SOL     OW32458   0.475   1.015  11.886 -0.1364 -0.1183 -0.5523
 6942SOL    HW132459   0.403   1.073  11.908  0.3780 -1.0016  3.6320
 6942SOL    HW232460   0.479   0.962  11.966  3.5249 -0.4024 -0.9158
 6943SOL     OW32461   1.494   3.536  14.698  0.0692 -0.2379 -0.0536
 6943SOL    HW132462   1.433   3.538  14.772  0.6601 -2.0027  0.4632
 6943SOL    HW232463   1.496   3.629  14.674 -1.5770  0.5568  2.9699
 6944SOL     OW32464   3.542   3.862   1.512 -0.0057 -0.4831  0.6397
 6944SOL    HW132465   3.618   3.879   1.566  1.8280  1.3406 -2.5139
 6944SOL    HW232466   3.488   3.926   1.558  1.3170  0.7529  0.4708
 6945SOL     OW32467   3.988   4.209   2.996 -0.2075 -0.2077  0.5121
 6945SOL    HW132468   3.903   4.253   2.993  1.1455  2.3177 -0.8358
 6945SOL    HW232469   4.022   4.268   2.928 -0.7556 -1.8328 -1.1879
 6946SOL     OW32470   3.102   2.935   3.888  0.0676  0.1684  0.0571
 6946SOL    HW132471   3.090   2.844   3.916 -0.3283  0.6476  1.4462
 6946SOL    HW232472   3.107   2.978   3.973  1.9045 -1.9597  1.0405
 6947SOL     OW32473   2.890   4.010   4.147 -0.4398  0.3148  0.6277
 6947SOL    HW132474   2.816   4.063   4.120  0.3626  1.2726  0.3156
 6947SOL    HW232475   2.959   4.026   4.083 -1.5826  0.1064 -0.6547
 6948SOL     OW32476   3.322   2.145   1.949 -0.4648  0.0058 -0.3465
 6948SOL    HW132477   3.286   2.197   2.021  0.0603  0.6146 -0.5213
 6948SOL    HW232478   3.377   2.214   1.911 -0.2524  0.8428  1.4726
 6949SOL     OW32479   3.529   0.915   1.748  0.3383  0.0554  0.4237
 6949SOL    HW132480   3.454   0.899   1.805 -0.5745 -0.5156 -0.9391
 6949SOL    HW232481   3.503   0.990   1.693  2.2563  0.7679  0.4955
 6950SOL     OW32482   3.525   4.708   2.813 -0.3398 -0.5063 -0.7704
 6950SOL    HW132483   3.581   0.045   2.842 -0.3608 -1.8098  2.5996
 6950SOL    HW232484   3.536   4.720   2.719  0.6015 -1.1083 -0.7330
 6951SOL     OW32485   2.368   0.353   5.400  0.5934  0.5286 -0.2445
 6951SOL    HW132486   2.410   0.439   5.409 -1.1917  1.4615 -0.7537
 6951SOL    HW232487   2.420   0.313   5.469  0.3471  1.5452  0.5430
 6952SOL     OW32488   4.603   4.004   9.956  0.4512  0.5210  0.0870
 6952SOL    HW132489   4.589   3.960  10.040  0.3977  0.0547 -0.1695
 6952SOL    HW232490   4.667   3.951   9.908  0.9941  0.4098  0.9253
 6953SOL     OW32491   1.773   4.283   4.623 -0.4765 -0.0230  0.3537
 6953SOL    HW132492   1.866   4.266   4.637  0.0383  1.8577 -0.8169
 6953SOL    HW232493   1.753   4.189   4.623 -0.5646 -0.0014 -2.2784
 6954SOL     OW32494   4.627   0.498   2.808  0.0105 -0.2311 -0.2884
 6954SOL    HW132495   4.538   0.493   2.775  0.4707 -1.1559 -1.3974
 6954SOL    HW232496   4.647   0.434   2.878  0.5734  1.5182  1.1545
 6955SOL     OW32497   2.796   2.666   5.570  0.2510  0.7008  0.0580
 6955SOL    HW132498   2.806   2.598   5.503  0.1239  0.9799 -0.2476
 6955SOL    HW232499   2.704   2.691   5.557 -0.4663 -2.0643 -0.3867
 6956SOL     OW32500   2.322   0.087  11.569  0.3763 -0.0508 -0.1455
 6956SOL    HW132501   2.234   0.087  11.606  0.4814  2.3054  0.0694
 6956SOL    HW232502   2.374   0.064  11.646  1.5011 -2.1880 -1.5638
 6957SOL     OW32503   0.254   0.675   7.411 -0.2067 -0.0574 -0.2587
 6957SOL    HW132504   0.311   0.712   7.344 -2.4593  2.2945 -0.8680
 6957SOL    HW232505   0.243   0.746   7.473 -0.8929 -0.1286 -0.3003
 6958SOL     OW32506   1.039   2.818  10.490 -0.3737 -0.0306  0.0660
 6958SOL    HW132507   1.129   2.841  10.465 -0.2305 -0.6847 -0.0282
 6958SOL    HW232508   1.019   2.896  10.541 -1.3548  0.2627 -0.7875
 6959SOL     OW32509   1.551   0.352   1.457  0.4461  0.4982  0.0047
 6959SOL    HW132510   1.456   0.340   1.450  0.7881 -2.5424  0.5783
 6959SOL    HW232511   1.572   0.430   1.406 -0.4340  0.3897 -0.5254
 6960SOL     OW32512   2.988   0.692   1.524  0.1075 -0.2431  0.2141
 6960SOL    HW132513   3.044   0.761   1.558 -0.4550  0.1432  0.3655
 6960SOL    HW232514   2.934   0.746   1.466 -0.8446  0.1862  1.4802
 6961SOL     OW32515   4.616   4.551   8.228  0.2055 -0.4548  0.0633
 6961SOL    HW132516   4.659   4.620   8.178 -1.3484 -1.3352 -2.4610
 6961SOL    HW232517   4.527   4.563   8.196  0.4280  0.4976 -0.1887
 6962SOL     OW32518   3.742   2.725  13.787  0.4210 -0.6791  0.1343
 6962SOL    HW132519   3.837   2.714  13.782  0.6838  0.7881  1.8342
 6962SOL    HW232520   3.728   2.760  13.875  0.0552 -0.8160  0.1297
 6963SOL     OW32521   3.079   4.721   8.312 -0.2162 -0.3267  0.6008
 6963SOL    HW132522   3.053   4.629   8.320 -2.2709  0.3689  1.9165
 6963SOL    HW232523   2.998   0.019   8.350 -1.3445 -1.7352 -0.5493
 6964SOL     OW32524   1.145   3.051   7.409  0.1865 -0.2525  0.3820
 6964SOL    HW132525   1.084   3.075   7.479 -0.8757  0.4232 -0.7667
 6964SOL    HW232526   1.155   3.136   7.367 -0.2389 -1.0945 -1.4533
 6965SOL     OW32527   2.704   3.631   6.940  0.4003 -0.5740  0.8597
 6965SOL    HW132528   2.612   3.608   6.954  0.0593  1.4527  1.9138
 6965SOL    HW232529   2.697   3.632   6.845  0.0850 -2.0972  0.8718
 6966SOL     OW32530   2.581   3.770   2.736  0.2093 -0.0525  0.1455
 6966SOL    HW132531   2.612   3.770   2.827  2.4047  0.5073 -0.6067
 6966SOL    HW232532   2.514   3.703   2.745 -3.4836  3.7358  0.5438
 6967SOL     OW32533   2.541   3.924  15.082  0.0875  0.5017 -0.2043
 6967SOL    HW132534   2.525   3.952  15.171 -1.3767 -0.0856 -0.2875
 6967SOL    HW232535   2.608   3.857  15.096 -1.6977 -0.7097  2.3793
 6968SOL     OW32536   0.029   3.011   4.707 -0.0181 -0.5504  0.5801
 6968SOL    HW132537   0.058   2.931   4.749  0.3408  0.0903  1.5412
 6968SOL    HW232538   0.116   3.048   4.692  0.3621 -2.4083 -1.9053
 6969SOL     OW32539   2.491   0.512   8.155 -0.0435 -0.5863  0.3069
 6969SOL    HW132540   2.433   0.453   8.107  1.1071 -1.2931 -0.2250
 6969SOL    HW232541   2.574   0.493   8.111 -0.2899 -0.1918 -0.3271
 6970SOL     OW32542   4.524   0.199  15.855 -0.1914  0.1273 -0.1993
 6970SOL    HW132543   4.430   0.188  15.842 -0.3264  0.4216  0.4945
 6970SOL    HW232544   4.524   0.213  15.950  3.8621 -3.3595  0.3116
 6971SOL     OW32545   4.558   1.403  16.222 -0.0275 -0.1665  0.5940
 6971SOL    HW132546   4.570   1.387  16.315 -2.4793 -2.3861  0.5392
 6971SOL    HW232547   4.463   1.407  16.210  0.0755 -1.3287 -0.5625
 6972SOL     OW32548   0.278   4.378  15.615  0.2330  0.0336  0.1127
 6972SOL    HW132549   0.264   4.459  15.665  1.9799  0.3265  0.1385
 6972SOL    HW232550   0.368   4.394  15.588  0.0479 -1.7972 -1.5560
 6973SOL     OW32551   4.273   1.894  13.112 -0.5257 -0.4898 -0.4333
 6973SOL    HW132552   4.291   1.979  13.071  2.5268 -1.8663 -1.9922
 6973SOL    HW232553   4.207   1.926  13.174  1.3342  0.6332  0.9541
 6974SOL     OW32554   2.153   2.043   4.277  0.2364  0.0933  0.2821
 6974SOL    HW132555   2.189   1.954   4.281  1.3493  0.6049  1.5190
 6974SOL    HW232556   2.059   2.024   4.279  0.6504 -1.9145  1.1861
 6975SOL     OW32557   3.210   0.321   1.239 -0.0105 -0.1909  0.0845
 6975SOL    HW132558   3.256   0.239   1.256  0.6865  0.7489  2.7741
 6975SOL    HW232559   3.199   0.324   1.144 -0.5157  2.5013  0.2242
 6976SOL     OW32560   4.209   3.588   7.567  0.5628 -0.0424 -0.2912
 6976SOL    HW132561   4.130   3.623   7.607  0.6382 -0.2923  0.0821
 6976SOL    HW232562   4.273   3.594   7.638 -0.4938  0.7519  0.5892
 6977SOL     OW32563   3.351   2.255   6.717 -0.3276 -0.0424 -0.7985
 6977SOL    HW132564   3.280   2.207   6.760  0.7765  0.4606  1.5914
 6977SOL    HW232565   3.377   2.179   6.665 -1.1977 -0.2464 -0.9479
 6978SOL     OW32566   1.638   0.780   6.167  0.1249  0.1360 -0.3448
 6978SOL    HW132567   1.592   0.720   6.227  1.4076 -0.0471  0.4507
 6978SOL    HW232568   1.726   0.784   6.203  1.1838 -2.6754 -2.5958
 6979SOL     OW32569   2.595   3.486   4.120 -0.4194 -0.1622 -0.0830
 6979SOL    HW132570   2.503   3.469   4.099 -0.4374  0.6558 -0.6619
 6979SOL    HW232571   2.626   3.542   4.048  3.6689 -0.2729  1.5821
 6980SOL     OW32572   2.704   4.356  13.265 -0.2447 -0.5670  0.4763
 6980SOL    HW132573   2.679   4.265  13.247 -1.2483 -0.9119  3.5864
 6980SOL    HW232574   2.743   4.357  13.352 -1.1386  0.4310  0.8684
 6981SOL     OW32575   1.382   1.255   4.160 -0.1691  0.3960  0.4204
 6981SOL    HW132576   1.405   1.177   4.109  0.7647  1.4930 -0.8202
 6981SOL    HW232577   1.429   1.227   4.239  1.1783  0.5167 -0.3481
 6982SOL     OW32578   1.184   0.212  11.802  0.4523 -0.5190 -0.0522
 6982SOL    HW132579   1.093   0.236  11.790  0.7824  0.5545 -0.4508
 6982SOL    HW232580   1.197   0.252  11.888 -1.0864 -0.6943  0.2576
 6983SOL     OW32581   3.792   4.402   2.449  0.1649 -0.2555  0.0728
 6983SOL    HW132582   3.745   4.333   2.495 -1.0332  0.3665 -0.2284
 6983SOL    HW232583   3.792   4.375   2.357 -0.1010  1.5795 -0.4689
 6984SOL     OW32584   1.973   4.606   8.371 -0.2670 -0.0075  0.2466
 6984SOL    HW132585   1.889   4.581   8.332 -1.1033  2.3413  0.5717
 6984SOL    HW232586   2.019   4.633   8.291 -2.1238  0.8849 -0.5325
 6985SOL     OW32587   4.592   2.856   4.069  0.9428 -0.1214 -0.2743
 6985SOL    HW132588   4.652   2.894   4.134  0.1862 -0.3663  0.5604
 6985SOL    HW232589   4.632   2.891   3.989  2.7150 -2.3824 -0.3959
 6986SOL     OW32590   0.068   0.208   4.112 -0.2271 -0.2270  0.0571
 6986SOL    HW132591   4.720   0.176   4.146 -1.0810  0.9105 -0.9841
 6986SOL    HW232592   0.050   0.229   4.021 -1.4962  0.9602  0.5814
 6987SOL     OW32593   2.619   4.625   6.378 -0.3703 -0.9040 -0.2661
 6987SOL    HW132594   2.618   4.721   6.386 -0.3638 -1.0504  1.5730
 6987SOL    HW232595   2.538   4.600   6.423  0.6315 -2.5948  0.6139
 6988SOL     OW32596   1.114   2.181   6.027  0.2095 -0.8421  0.0402
 6988SOL    HW132597   1.153   2.188   5.939 -0.2718 -0.6253 -0.1536
 6988SOL    HW232598   1.194   2.159   6.075  2.1894  0.6588 -2.5270
 6989SOL     OW32599   3.436   3.077   5.058  0.6730 -0.4068  0.0014
 6989SOL    HW132600   3.363   3.110   5.005  0.0693 -0.0078  1.0744
 6989SOL    HW232601   3.388   3.058   5.139 -2.3962 -1.5987 -2.0581
 6990SOL     OW32602   0.614   0.961   8.493 -0.0932 -0.0659  0.3405
 6990SOL    HW132603   0.567   0.995   8.417 -0.2384 -1.6186 -0.2624
 6990SOL    HW232604   0.622   0.867   8.475 -1.3763 -0.5156  2.0677
 6991SOL     OW32605   2.038   1.329   0.880 -0.4759 -0.0403  0.8230
 6991SOL    HW132606   1.988   1.390   0.934  1.0520  1.6323  0.3422
 6991SOL    HW232607   2.125   1.367   0.866 -0.5607 -0.5977 -1.1738
 6992SOL     OW32608   0.946   1.441   6.798 -0.0567 -0.1398 -0.5073
 6992SOL    HW132609   0.937   1.375   6.729  1.2005 -1.0372  0.2038
 6992SOL    HW232610   0.996   1.507   6.749  1.0000 -1.6452 -1.4513
 6993SOL     OW32611   0.289   4.169   2.915 -0.4872  0.0362 -0.1914
 6993SOL    HW132612   0.195   4.188   2.914  0.0600  2.8910  1.6406
 6993SOL    HW232613   0.293   4.184   2.820 -0.6959 -0.6581 -0.3103
 6994SOL     OW32614   2.420   1.651   2.183 -0.6513  0.0215  0.0290
 6994SOL    HW132615   2.341   1.600   2.202 -1.6716  1.2085 -1.0373
 6994SOL    HW232616   2.428   1.706   2.261  0.0572 -2.0363  1.4112
 6995SOL     OW32617   1.439   2.466  15.004 -0.0370  0.2886 -0.0304
 6995SOL    HW132618   1.379   2.431  15.070 -0.5287 -0.1105 -0.6765
 6995SOL    HW232619   1.441   2.400  14.935 -0.0777  0.1361  0.1164
 6996SOL     OW32620   2.056   0.768  14.840 -0.3294  0.7416 -0.3579
 6996SOL    HW132621   2.145   0.758  14.807 -0.2432  3.0101 -0.7787
 6996SOL    HW232622   2.058   0.730  14.927 -0.8853 -1.2998 -1.2233
 6997SOL     OW32623   3.239   0.262  16.787 -0.2039 -0.0128 -0.2001
 6997SOL    HW132624   3.313   0.230  16.839 -0.0628 -2.3877 -1.8300
 6997SOL    HW232625   3.176   0.281  16.856  1.4598 -0.3992  1.4285
 6998SOL     OW32626   2.922   1.956   7.043  0.2477 -0.2222 -0.0036
 6998SOL    HW132627   2.860   1.978   6.973 -2.1714  0.1337  2.2433
 6998SOL    HW232628   2.894   2.019   7.110  1.7529  0.6715 -0.2190
 6999SOL     OW32629   2.919   2.922   2.648  0.1505  0.5338 -0.0675
 6999SOL    HW132630   2.872   2.846   2.681  1.0845 -0.2539 -0.5698
 6999SOL    HW232631   2.915   2.906   2.554  0.8017  2.4160 -0.4272
 7000SOL     OW32632   3.631   3.802  11.449 -0.3875  0.1972 -0.1634
 7000SOL    HW132633   3.624   3.737  11.379  1.0966  0.5968 -0.7005
 7000SOL    HW232634   3.537   3.811  11.465 -0.3261  2.1017 -0.8207
 7001SOL     OW32635   0.988   3.694  16.239 -0.3408  0.6389  0.5909
 7001SOL    HW132636   1.019   3.768  16.186 -0.0576  0.2176  0.1661
 7001SOL    HW232637   0.910   3.662  16.194 -1.0161  1.2385  1.3253
 7002SOL     OW32638   1.759   3.351   4.186  0.3660  0.1125 -0.5714
 7002SOL    HW132639   1.671   3.358   4.150  0.0922 -2.9939 -0.4918
 7002SOL    HW232640   1.757   3.298   4.265  0.3468  0.3328 -0.4225
 7003SOL     OW32641   3.469   4.267   6.185  0.3559 -1.1238  0.1934
 7003SOL    HW132642   3.414   4.323   6.240  0.3582  0.1234 -1.0825
 7003SOL    HW232643   3.550   4.317   6.189 -0.9571  0.9279  1.2209
 7004SOL     OW32644   0.511   3.534   0.611  0.2486 -0.2909 -0.7202
 7004SOL    HW132645   0.503   3.481   0.532 -0.5528 -0.6633 -0.3914
 7004SOL    HW232646   0.422   3.522   0.645  1.3379 -3.1520  1.0685
 7005SOL     OW32647   4.198   4.353   4.535  0.0410  0.0217 -0.5783
 7005SOL    HW132648   4.143   4.309   4.600 -0.3161 -0.9999 -1.5820
 7005SOL    HW232649   4.155   4.438   4.525 -1.7119 -0.3839  3.1416
 7006SOL     OW32650   3.569   0.708   5.433  0.3972 -0.9386 -0.7031
 7006SOL    HW132651   3.544   0.622   5.469 -2.1013 -0.0345 -0.2921
 7006SOL    HW232652   3.487   0.756   5.426  1.3051  0.6419 -0.5566
 7007SOL     OW32653   1.049   1.371   1.440 -0.0293 -0.5215 -0.1950
 7007SOL    HW132654   0.968   1.380   1.390 -1.6855 -0.1318  2.5309
 7007SOL    HW232655   1.041   1.437   1.509 -1.3297  0.0468 -0.8955
 7008SOL     OW32656   0.716   0.111   2.643  0.5927  0.0041 -0.0994
 7008SOL    HW132657   0.658   0.147   2.576  0.5841 -0.7757 -0.5122
 7008SOL    HW232658   0.675   0.143   2.723  1.8093  0.4205  0.3602
 7009SOL     OW32659   2.482   0.002  16.831  0.0151 -0.0406 -0.4606
 7009SOL    HW132660   2.505   0.061  16.758 -0.2365 -1.1635 -1.4458
 7009SOL    HW232661   2.412   0.050  16.875  1.2269  2.7075 -1.5185
 7010SOL     OW32662   2.198   0.036   1.069 -0.2966 -0.0462 -0.4327
 7010SOL    HW132663   2.218   4.727   0.987  0.6323  0.4915 -0.5019
 7010SOL    HW232664   2.288   0.041   1.102 -0.4256  0.1029 -0.1069
 7011SOL     OW32665   3.430   1.359   2.221 -0.2447  0.4181 -0.2290
 7011SOL    HW132666   3.422   1.393   2.310 -0.2328  0.2366 -0.1601
 7011SOL    HW232667   3.385   1.430   2.175 -1.8231 -0.9741 -0.8058
 7012SOL     OW32668   4.095   2.712   4.973 -0.4484  0.1109 -0.2691
 7012SOL    HW132669   4.096   2.762   4.891 -0.1821 -0.5158 -0.6497
 7012SOL    HW232670   4.147   2.637   4.943 -0.9697  0.2158 -1.4216
 7013SOL     OW32671   1.808   2.540   4.272 -0.5023  0.6919  0.2718
 7013SOL    HW132672   1.797   2.633   4.250  2.8162  1.8665  3.4896
 7013SOL    HW232673   1.719   2.514   4.250  0.3106 -2.3596  0.5885
 7014SOL     OW32674   1.447   3.905   4.877 -0.2076 -0.2337  0.4547
 7014SOL    HW132675   1.445   3.977   4.939  1.0531 -0.7154  1.0574
 7014SOL    HW232676   1.523   3.854   4.905 -0.4116 -3.6408 -5.2236
 7015SOL     OW32677   4.547   3.772  11.857  0.2311 -0.4237 -0.4469
 7015SOL    HW132678   4.551   3.717  11.778 -0.8660  2.1277 -2.2907
 7015SOL    HW232679   4.590   3.715  11.921  0.4053  1.4535  1.0995
 7016SOL     OW32680   4.679   0.331   3.014  0.0080 -0.8481 -0.1956
 7016SOL    HW132681   4.613   0.269   3.043 -0.8594 -1.1090 -2.7053
 7016SOL    HW232682   0.015   0.319   3.077  0.3112 -2.8877 -0.9191
 7017SOL     OW32683   1.031   4.154   8.190  1.1659  0.4081 -0.7410
 7017SOL    HW132684   0.970   4.130   8.120  0.1340 -0.8873  0.5695
 7017SOL    HW232685   1.045   4.063   8.217 -1.1449 -0.0597 -1.0884
 7018SOL     OW32686   3.138   1.435   6.699  0.2101 -0.2515 -0.1172
 7018SOL    HW132687   3.082   1.484   6.637  0.1194  1.3750  1.2278
 7018SOL    HW232688   3.194   1.404   6.628  0.1452  0.1859 -0.3607
 7019SOL     OW32689   0.297   3.607  14.988  0.8566 -0.2152 -0.5664
 7019SOL    HW132690   0.202   3.598  14.981  0.7559  0.4637 -0.1160
 7019SOL    HW232691   0.335   3.521  14.971 -2.5849 -2.4799  3.0184
 7020SOL     OW32692   3.789   4.102   4.157 -0.0305 -0.0794  0.4322
 7020SOL    HW132693   3.785   4.053   4.075 -1.3347  1.8453 -0.6438
 7020SOL    HW232694   3.858   4.166   4.138 -1.0420  0.8311 -0.1295
 7021SOL     OW32695   1.649   4.644   5.247  0.1111  0.8311  0.2593
 7021SOL    HW132696   1.583   4.652   5.178 -2.0601 -0.7078  2.1491
 7021SOL    HW232697   1.636   4.722   5.300 -1.0152  0.1331  1.0047
 7022SOL     OW32698   2.315   0.076   7.938  0.5211 -0.1560 -0.4163
 7022SOL    HW132699   2.361   4.728   7.943  0.0167 -0.3286  1.4184
 7022SOL    HW232700   2.234   0.047   7.897  0.6052  2.1803 -2.2683
 7023SOL     OW32701   4.194   3.372   4.263  0.1422  0.3574  0.1918
 7023SOL    HW132702   4.183   3.325   4.346 -0.9923 -1.0619 -0.7609
 7023SOL    HW232703   4.286   3.352   4.247  0.6747  2.7136  0.2888
 7024SOL     OW32704   2.610   2.453   8.419 -0.0300  0.3691  0.2108
 7024SOL    HW132705   2.684   2.496   8.377  1.5263 -2.4382  0.0965
 7024SOL    HW232706   2.622   2.462   8.513  1.5095  1.7873 -0.1428
 7025SOL     OW32707   4.123   1.964   6.514  0.1907  0.1022 -0.2521
 7025SOL    HW132708   4.219   1.963   6.512  0.1541 -1.3720 -1.4569
 7025SOL    HW232709   4.114   2.049   6.556  2.6953  0.1668  0.1765
 7026SOL     OW32710   3.457   0.439   9.260 -0.7378 -0.0757 -0.4070
 7026SOL    HW132711   3.391   0.374   9.284 -0.4516 -0.3224 -0.2926
 7026SOL    HW232712   3.507   0.382   9.202  0.3546 -0.7525  1.1897
 7027SOL     OW32713   3.869   2.966   3.208 -0.2962  0.4651  0.2337
 7027SOL    HW132714   3.934   2.920   3.154 -0.8989 -0.1603  0.0436
 7027SOL    HW232715   3.892   3.057   3.186  1.3588 -0.5014 -2.0234
 7028SOL     OW32716   0.811   0.618   6.422 -0.1796  0.4501  0.2180
 7028SOL    HW132717   0.904   0.601   6.438 -0.1749 -1.3782 -1.6964
 7028SOL    HW232718   0.800   0.685   6.489 -0.7218  1.0282 -0.4564
 7029SOL     OW32719   2.479   3.580   9.377 -0.3571 -0.2025  0.1587
 7029SOL    HW132720   2.485   3.515   9.307  4.1182  0.7126 -0.2748
 7029SOL    HW232721   2.533   3.535   9.442 -1.2937  0.8845  1.6879
 7030SOL     OW32722   3.310   3.319   2.610  0.2471  0.2501 -0.3223
 7030SOL    HW132723   3.296   3.411   2.636 -0.0989  1.0164 -3.1982
 7030SOL    HW232724   3.223   3.278   2.609  0.2435  0.2592 -0.3949
 7031SOL     OW32725   2.275   1.455   6.785 -0.1336  0.7672  0.0555
 7031SOL    HW132726   2.207   1.387   6.788 -0.4686  1.1568  1.2784
 7031SOL    HW232727   2.242   1.507   6.858  0.5676 -0.3934  1.2056
 7032SOL     OW32728   4.456   4.442  12.798  0.5106 -0.1275 -0.1852
 7032SOL    HW132729   4.478   4.422  12.889  0.3333  0.7084  0.0394
 7032SOL    HW232730   4.484   4.365  12.748  0.7262  0.0678 -0.3637
 7033SOL     OW32731   1.374   4.277   7.617  0.5924  0.1209 -0.4190
 7033SOL    HW132732   1.337   4.192   7.595 -0.3656  0.6638 -0.8869
 7033SOL    HW232733   1.305   4.316   7.671 -0.6876 -0.4480 -1.6556
 7034SOL     OW32734   0.603   1.960   9.551  0.1078 -0.2404 -0.5538
 7034SOL    HW132735   0.556   1.932   9.472 -0.1245 -2.2947  0.3250
 7034SOL    HW232736   0.644   1.877   9.575 -1.2152 -1.4248 -2.3473
 7035SOL     OW32737   1.740   0.985  12.379  0.1162  0.1996  0.2616
 7035SOL    HW132738   1.722   1.043  12.305  1.0305 -1.8106 -1.5551
 7035SOL    HW232739   1.724   1.048  12.449 -0.0848  0.3123  0.1136
 7036SOL     OW32740   0.931   2.792  10.779  0.0477  0.0056  0.1852
 7036SOL    HW132741   0.894   2.740  10.850 -0.7020 -0.4310 -0.5185
 7036SOL    HW232742   0.869   2.865  10.775 -0.3781 -0.3806 -0.2534
 7037SOL     OW32743   4.255   3.366   8.157  0.2694 -0.6767  0.1385
 7037SOL    HW132744   4.250   3.318   8.239  0.8727 -0.7196  0.1511
 7037SOL    HW232745   4.198   3.316   8.099  1.0058  0.0462 -1.2085
 7038SOL     OW32746   2.342   3.480   7.761  0.4880  0.2774 -0.0431
 7038SOL    HW132747   2.392   3.524   7.693 -1.3509  0.2133 -1.4365
 7038SOL    HW232748   2.269   3.436   7.718 -1.1547  1.2921  1.6758
 7039SOL     OW32749   4.154   1.873   6.899  0.2217  0.3615  0.3022
 7039SOL    HW132750   4.169   1.782   6.875 -0.1438  0.4752 -0.3397
 7039SOL    HW232751   4.182   1.918   6.820 -2.7389  0.1795 -0.8310
 7040SOL     OW32752   0.714   2.319   2.843 -0.7702 -0.1568 -0.3655
 7040SOL    HW132753   0.657   2.242   2.838  0.0443 -0.6176 -2.5709
 7040SOL    HW232754   0.763   2.297   2.922 -0.9928  3.0860  0.6931
 7041SOL     OW32755   2.084   3.641   2.447  0.3233 -0.0797 -0.8288
 7041SOL    HW132756   2.055   3.581   2.377  0.1124  0.1043 -0.9005
 7041SOL    HW232757   2.139   3.588   2.504  0.6990  0.7467 -0.4277
 7042SOL     OW32758   2.513   2.899  17.055  0.2574 -0.3058 -0.3564
 7042SOL    HW132759   2.491   2.871  17.144 -0.6709 -2.6382 -1.3113
 7042SOL    HW232760   2.514   2.994  17.064  2.9432 -0.3673 -0.1784
 7043SOL     OW32761   3.885   0.305   3.974 -0.4591  0.0142 -0.2229
 7043SOL    HW132762   3.798   0.268   3.988 -1.9632  3.2053 -1.1323
 7043SOL    HW232763   3.880   0.338   3.884 -2.2728  0.2570 -0.0308
 7044SOL     OW32764   2.907   3.276   6.022  0.0391 -0.0975  0.4977
 7044SOL    HW132765   2.963   3.332   6.076  0.8697  0.4790 -0.9848
 7044SOL    HW232766   2.890   3.203   6.082 -1.0555 -0.9772 -0.8869
 7045SOL     OW32767   1.829   2.693   3.205  0.0966  0.2116  0.0734
 7045SOL    HW132768   1.763   2.762   3.200 -1.2888 -1.1790 -0.7823
 7045SOL    HW232769   1.773   2.618   3.229 -0.2772  0.1151 -1.1292
 7046SOL     OW32770   2.696   0.410  14.710 -0.3221  0.3363 -0.5995
 7046SOL    HW132771   2.629   0.410  14.779  2.6421 -2.6515  2.2781
 7046SOL    HW232772   2.671   0.336  14.655 -0.1331 -1.0502  1.1708
 7047SOL     OW32773   3.025   2.160  16.678 -0.0785  0.1630  0.2560
 7047SOL    HW132774   3.030   2.134  16.770 -0.4031  0.3594  0.3312
 7047SOL    HW232775   2.981   2.245  16.675 -0.6772 -0.1141  1.0755
 7048SOL     OW32776   3.898   2.303  13.105 -0.2858 -0.1725 -0.0556
 7048SOL    HW132777   3.871   2.324  13.195  0.9849  0.7808  0.0948
 7048SOL    HW232778   3.946   2.221  13.118  1.7644  1.0787  0.2315
 7049SOL     OW32779   0.891   0.284   3.779  0.0767 -0.0602  0.2363
 7049SOL    HW132780   0.937   0.204   3.801 -0.0948  0.0053  0.8465
 7049SOL    HW232781   0.809   0.280   3.830  0.0533  0.5706  0.2505
 7050SOL     OW32782   0.988   3.446  12.310 -0.5387 -0.0672  0.1891
 7050SOL    HW132783   1.005   3.517  12.372  0.8115 -0.2978  0.0812
 7050SOL    HW232784   0.977   3.371  12.368 -1.7256  0.9625  1.3051
 7051SOL     OW32785   2.632   4.164   7.543  0.4563  0.3602 -0.3244
 7051SOL    HW132786   2.639   4.123   7.457 -0.0158  0.1739 -0.2733
 7051SOL    HW232787   2.677   4.100   7.598  0.1041 -1.0919 -1.7397
 7052SOL     OW32788   0.037   1.629  13.217 -0.0394  0.0878 -0.1123
 7052SOL    HW132789   4.734   1.682  13.148 -1.0083  3.5171  3.1028
 7052SOL    HW232790   0.043   1.703  13.277 -0.5404 -0.6624  0.8638
 7053SOL     OW32791   1.372   2.784   7.628  0.7784 -0.1819 -0.0762
 7053SOL    HW132792   1.374   2.695   7.663 -0.1109 -0.1933 -0.0469
 7053SOL    HW232793   1.298   2.825   7.673 -0.3106 -0.8893 -1.2670
 7054SOL     OW32794   2.518   0.288   7.743  0.2314  0.0323 -0.5174
 7054SOL    HW132795   2.440   0.237   7.721  1.6496 -2.7501  0.9635
 7054SOL    HW232796   2.573   0.219   7.780  1.3406 -0.0341 -2.3250
 7055SOL     OW32797   1.833   4.131   8.887  0.0280 -0.6981 -0.0264
 7055SOL    HW132798   1.905   4.160   8.944 -0.7789 -1.4636  1.3748
 7055SOL    HW232799   1.837   4.188   8.810 -0.3800  0.1254  0.5637
 7056SOL     OW32800   4.722   3.274   7.968 -0.1684 -0.5532 -0.6293
 7056SOL    HW132801   0.041   3.210   8.014  0.6879 -0.0707 -0.9905
 7056SOL    HW232802   0.003   3.348   8.025  0.0265 -0.2903 -1.0349
 7057SOL     OW32803   1.170   2.616   6.932 -0.0922 -0.1827  0.0210
 7057SOL    HW132804   1.092   2.615   6.988  0.2586 -1.0605  0.4842
 7057SOL    HW232805   1.127   2.662   6.860  0.3569 -1.7625 -1.2573
 7058SOL     OW32806   0.094   4.010  14.859 -0.0385  1.0555  0.2630
 7058SOL    HW132807   0.112   3.946  14.790 -0.0290  1.1285  0.1989
 7058SOL    HW232808   0.069   3.950  14.930 -1.5278  0.1764 -1.0121
 7059SOL     OW32809   3.709   1.885  13.057 -0.0025  0.5331  0.1252
 7059SOL    HW132810   3.696   1.794  13.085  0.9520  0.7915  1.4155
 7059SOL    HW232811   3.724   1.919  13.145 -0.1748  2.0743 -0.4379
 7060SOL     OW32812   2.988   0.629   9.918 -0.5306 -0.4339 -0.8880
 7060SOL    HW132813   3.022   0.691   9.983 -1.5337 -0.2776 -0.5154
 7060SOL    HW232814   2.939   0.570   9.976  0.2272  0.0725  0.2760
 7061SOL     OW32815   0.937   2.896  12.857  0.3893 -0.3063 -0.1341
 7061SOL    HW132816   1.015   2.880  12.911  0.6765 -0.1086 -0.4851
 7061SOL    HW232817   0.969   2.848  12.781 -2.0997 -0.1711 -1.2366
 7062SOL     OW32818   1.089   1.357   7.679  0.3066 -0.3994  0.0976
 7062SOL    HW132819   1.106   1.264   7.668  0.1324 -0.2987 -1.0286
 7062SOL    HW232820   1.136   1.366   7.762  0.7477  0.6660 -0.2536
 7063SOL     OW32821   1.292   2.184  14.588 -0.0269  0.2440 -0.4841
 7063SOL    HW132822   1.262   2.245  14.521  0.5273 -1.5993 -2.3979
 7063SOL    HW232823   1.224   2.195  14.655  1.5113  2.0953  0.7702
 7064SOL     OW32824   0.164   0.588  12.628  0.2001 -0.1643 -0.1287
 7064SOL    HW132825   0.155   0.682  12.642  0.3079  0.1835 -2.4512
 7064SOL    HW232826   0.080   0.556  12.597  0.2913 -1.2775  0.7405
 7065SOL     OW32827   0.087   0.416   2.628  0.3395  0.5607 -0.3376
 7065SOL    HW132828   0.053   0.407   2.717 -1.6108 -2.0532 -1.3327
 7065SOL    HW232829   0.021   0.359   2.588 -2.5499  2.5114  1.6512
 7066SOL     OW32830   2.989   2.761   4.204  0.9524 -0.0328 -0.8187
 7066SOL    HW132831   3.079   2.786   4.180  1.5456 -0.4267  0.9990
 7066SOL    HW232832   2.945   2.845   4.190  2.1526  0.6904 -0.3172
 7067SOL     OW32833   2.827   1.818  14.250  0.0228  0.0294  0.2737
 7067SOL    HW132834   2.813   1.898  14.200  0.0491 -0.8959 -1.2361
 7067SOL    HW232835   2.913   1.831  14.289 -0.1127 -0.5121  0.7613
 7068SOL     OW32836   0.754   0.143  11.042 -0.0688 -0.7907 -0.0026
 7068SOL    HW132837   0.798   0.059  11.050 -2.0795 -1.9060 -0.4913
 7068SOL    HW232838   0.663   0.115  11.049 -0.1856 -0.1559  0.9187
 7069SOL     OW32839   1.033   0.506   4.806 -0.8548 -0.5355 -1.0796
 7069SOL    HW132840   1.048   0.583   4.861  0.7653 -2.2535  0.9035
 7069SOL    HW232841   1.098   0.442   4.838 -3.8257 -2.4114  1.1542
 7070SOL     OW32842   4.435   1.286   5.743  0.3846  0.3032 -0.2974
 7070SOL    HW132843   4.418   1.210   5.687  0.7165  0.3910 -0.5206
 7070SOL    HW232844   4.508   1.250   5.794  0.6097  0.5662 -0.4315
 7071SOL     OW32845   0.904   1.990   2.633 -0.1143 -0.1949 -0.0754
 7071SOL    HW132846   0.935   2.004   2.723  1.6708  1.1581 -0.8992
 7071SOL    HW232847   0.824   1.940   2.650 -1.1881  1.8589  0.8915
 7072SOL     OW32848   0.279   1.688   7.553  0.1684  0.8634 -0.2488
 7072SOL    HW132849   0.299   1.760   7.613 -0.1561 -0.1601  1.0919
 7072SOL    HW232850   0.364   1.677   7.511 -0.4421  1.9814 -1.7636
 7073SOL     OW32851   3.596   4.291  16.339  0.2358  0.2209  0.0623
 7073SOL    HW132852   3.658   4.353  16.300 -1.3010 -1.4100 -4.9554
 7073SOL    HW232853   3.511   4.306  16.298 -0.6563  0.5433  2.0375
 7074SOL     OW32854   0.497   1.704  12.219  0.6703 -0.4490  0.3786
 7074SOL    HW132855   0.577   1.738  12.260  0.9355  1.4556 -1.7233
 7074SOL    HW232856   0.433   1.774  12.207  0.5039 -0.7041 -0.2346
 7075SOL     OW32857   1.155   1.878   6.807 -0.3708  0.5650  0.2319
 7075SOL    HW132858   1.153   1.816   6.880 -2.3185  0.3978  0.0415
 7075SOL    HW232859   1.176   1.825   6.731  2.3159  2.6027 -0.4382
 7076SOL     OW32860   1.590   1.842  12.232  0.3211  0.1948 -0.7253
 7076SOL    HW132861   1.630   1.906  12.290  1.1316 -1.9959  1.1343
 7076SOL    HW232862   1.621   1.759  12.268  0.2957  0.1458 -0.8147
 7077SOL     OW32863   4.119   0.711  11.576 -0.1157 -0.1867 -0.6899
 7077SOL    HW132864   4.093   0.638  11.521 -0.3247 -1.5298  1.2160
 7077SOL    HW232865   4.058   0.780  11.550  1.2608  1.4414  0.4105
 7078SOL     OW32866   0.662   4.245   7.299  0.4524 -0.0894 -0.1893
 7078SOL    HW132867   0.662   4.284   7.386 -1.0754 -0.8356  0.1419
 7078SOL    HW232868   0.624   4.321   7.254  0.7537  0.4246  0.4218
 7079SOL     OW32869   2.110   0.325   7.801  0.5249  0.1951 -0.4326
 7079SOL    HW132870   2.164   0.327   7.880  0.2625  0.3715 -0.2592
 7079SOL    HW232871   2.097   0.230   7.794  2.6207  0.0396 -2.0195
 7080SOL     OW32872   1.196   2.948   2.300 -0.0473 -0.1715 -0.0017
 7080SOL    HW132873   1.279   2.903   2.286  1.5906  3.7613 -2.9360
 7080SOL    HW232874   1.221   2.984   2.385 -2.8078  1.8102 -0.0088
 7081SOL     OW32875   4.538   1.031  11.375 -0.0709 -0.5865 -0.1727
 7081SOL    HW132876   4.537   1.092  11.301  0.3697  0.8882  1.0580
 7081SOL    HW232877   4.477   1.063  11.441  0.4231 -0.7750  0.3641
 7082SOL     OW32878   1.174   1.776   3.367  0.4007 -0.2723  0.2358
 7082SOL    HW132879   1.139   1.774   3.278 -0.5942  1.0324  0.5829
 7082SOL    HW232880   1.244   1.712   3.357 -0.6347 -1.1181 -1.5764
 7083SOL     OW32881   1.302   1.831  16.293 -0.8339  0.2537  0.1944
 7083SOL    HW132882   1.390   1.817  16.258 -0.2335  1.1903  1.2984
 7083SOL    HW232883   1.318   1.826  16.387 -0.7216 -0.4415  0.1355
 7084SOL     OW32884   0.470   2.426  14.553  0.3344 -0.0970 -0.7311
 7084SOL    HW132885   0.565   2.429  14.559  0.3079 -0.4801 -0.1604
 7084SOL    HW232886   0.464   2.334  14.578  0.8988 -0.4945 -2.0695
 7085SOL     OW32887   3.670   1.890  15.037  0.4755  0.7168 -0.0051
 7085SOL    HW132888   3.583   1.878  14.999  0.7528 -0.5059 -0.2456
 7085SOL    HW232889   3.720   1.816  15.002  0.8269  0.9387  0.0241
 7086SOL     OW32890   0.716   2.165   5.571  0.5140 -0.6067 -0.7603
 7086SOL    HW132891   0.795   2.203   5.610 -1.3892  1.0272  1.5427
 7086SOL    HW232892   0.668   2.134   5.647 -0.1814 -1.6016 -1.6254
 7087SOL     OW32893   3.267   1.175  15.683  0.3976  0.3176  0.3433
 7087SOL    HW132894   3.238   1.086  15.666 -0.1900  0.6966 -0.6078
 7087SOL    HW232895   3.330   1.156  15.753 -0.5519 -0.8522  0.8748
 7088SOL     OW32896   1.676   1.225   8.624  0.1228 -0.3824  0.6418
 7088SOL    HW132897   1.671   1.198   8.716  1.3457 -1.8631  0.2775
 7088SOL    HW232898   1.696   1.318   8.626  0.7179 -0.4619 -1.7275
 7089SOL     OW32899   3.116   3.765   2.604  0.3139 -0.2101 -1.0421
 7089SOL    HW132900   3.135   3.852   2.571 -0.2616 -0.4482 -1.9908
 7089SOL    HW232901   3.027   3.757   2.571 -0.6551  0.1497  1.4821
 7090SOL     OW32902   1.444   1.119   8.729  0.0649  0.2538 -0.2000
 7090SOL    HW132903   1.418   1.209   8.752  1.4769  0.5067  0.4165
 7090SOL    HW232904   1.379   1.066   8.774  1.7246 -0.8442  0.8805
 7091SOL     OW32905   2.308   1.699   6.601  0.4638 -0.3418  0.5266
 7091SOL    HW132906   2.259   1.657   6.530  1.7790 -1.1366  0.1009
 7091SOL    HW232907   2.293   1.633   6.669 -0.9244 -0.1199  0.4462
 7092SOL     OW32908   4.128   3.720   1.508  0.3041 -0.3252  0.1391
 7092SOL    HW132909   4.110   3.810   1.534 -1.5594 -0.4938 -0.5633
 7092SOL    HW232910   4.121   3.736   1.414 -1.5420 -1.6910  0.0549
 7093SOL     OW32911   3.838   4.046   8.349 -0.0850  0.1094  0.1054
 7093SOL    HW132912   3.906   4.069   8.286 -0.2848 -0.3999 -0.2996
 7093SOL    HW232913   3.787   3.978   8.304  0.8429  0.4419 -1.4307
 7094SOL     OW32914   2.352   0.796   3.936 -0.1599 -0.5895  0.1364
 7094SOL    HW132915   2.327   0.822   4.025  0.5201 -0.1586  0.2044
 7094SOL    HW232916   2.447   0.803   3.942 -0.3776  2.0737  0.7305
 7095SOL     OW32917   2.010   4.087  10.391 -0.0700 -0.2149 -0.4887
 7095SOL    HW132918   2.013   4.032  10.470 -0.3150 -1.8179 -1.5965
 7095SOL    HW232919   1.926   4.061  10.354 -1.0050 -0.9065  2.1175
 7096SOL     OW32920   1.526   2.472   6.836 -0.0723  0.2897 -0.0196
 7096SOL    HW132921   1.507   2.443   6.926 -0.1520  2.1755  0.5619
 7096SOL    HW232922   1.559   2.392   6.794  3.4015  0.6652  1.9566
 7097SOL     OW32923   0.345   4.523   4.957  0.4895 -0.0163 -0.0371
 7097SOL    HW132924   0.284   4.585   4.917  0.4278  0.5883  0.9835
 7097SOL    HW232925   0.426   4.550   4.915  0.6672 -1.1257 -0.4022
 7098SOL     OW32926   3.921   4.136   2.242 -0.7157 -0.3086 -0.3610
 7098SOL    HW132927   3.916   4.042   2.224  0.2497 -0.1233 -1.5952
 7098SOL    HW232928   3.945   4.141   2.335  0.2953 -1.4272 -0.5671
 7099SOL     OW32929   2.932   0.176  15.587 -0.2806 -0.5413 -0.0464
 7099SOL    HW132930   2.913   0.214  15.501  0.4869  3.8105  1.7012
 7099SOL    HW232931   2.854   0.130  15.616  0.2168 -2.3034 -1.4930
 7100SOL     OW32932   1.407   1.948   4.206 -0.3620  0.4407  0.4812
 7100SOL    HW132933   1.496   1.924   4.234  0.4456  1.5683 -1.1647
 7100SOL    HW232934   1.371   1.972   4.291 -1.8049  2.8229 -0.8273
 7101SOL     OW32935   0.002   0.738  14.199 -0.0622 -0.3924 -0.5276
 7101SOL    HW132936   0.086   0.702  14.172 -0.1001 -0.8130 -0.0902
 7101SOL    HW232937   4.715   0.700  14.284 -2.2357  4.1199  0.9338
 7102SOL     OW32938   2.367   3.422   4.054  0.0205  0.1332 -0.1950
 7102SOL    HW132939   2.321   3.462   3.979 -0.5442  0.8193  0.5098
 7102SOL    HW232940   2.297   3.410   4.119 -0.0976  1.6923 -0.0199
 7103SOL     OW32941   0.043   2.289   3.150 -0.5119  0.7659 -0.1250
 7103SOL    HW132942   0.096   2.217   3.117  1.4539  1.7656  0.8742
 7103SOL    HW232943   0.075   2.289   3.240  1.0542 -2.3042 -0.6715
 7104SOL     OW32944   4.360   3.680  11.604  0.5646 -0.0135  0.0463
 7104SOL    HW132945   4.312   3.616  11.657  2.4618  0.7853  2.7134
 7104SOL    HW232946   4.297   3.751  11.605 -0.2590 -0.7601  0.9365
 7105SOL     OW32947   2.779   0.389  10.678 -0.1395 -0.5098 -0.0954
 7105SOL    HW132948   2.808   0.396  10.768 -1.2479 -0.7169  0.2823
 7105SOL    HW232949   2.841   0.444  10.630  0.1642  0.6938  1.6980
 7106SOL     OW32950   3.798   4.506   4.486  0.0867  0.1056 -0.1877
 7106SOL    HW132951   3.722   4.447   4.486 -1.5929  2.2379 -1.2656
 7106SOL    HW232952   3.826   4.496   4.577  2.1228 -0.8478 -0.9212
 7107SOL     OW32953   0.675   3.728   5.844  0.1020 -0.3187  0.3700
 7107SOL    HW132954   0.614   3.778   5.790  0.6426 -0.0272  0.0373
 7107SOL    HW232955   0.762   3.757   5.818  0.1883  0.0692  1.1074
 7108SOL     OW32956   1.140   3.289  13.511 -0.2318 -0.1369  0.2658
 7108SOL    HW132957   1.220   3.336  13.531  0.5768 -1.2287 -0.3883
 7108SOL    HW232958   1.100   3.267  13.595  0.2454 -2.8708 -0.2082
 7109SOL     OW32959   2.889   4.020   7.292  0.6551 -0.0929  0.5214
 7109SOL    HW132960   2.841   3.946   7.255 -0.5457  0.7663  0.3622
 7109SOL    HW232961   2.896   4.071   7.211  1.6976 -1.8246 -0.4832
 7110SOL     OW32962   3.459   3.875  14.199  0.6987 -0.3781 -0.3430
 7110SOL    HW132963   3.535   3.900  14.252  0.8623 -0.4931 -0.5265
 7110SOL    HW232964   3.488   3.919  14.119 -0.4854  3.9139  1.5770
 7111SOL     OW32965   1.635   4.645   5.962  0.1902 -0.4135  0.2485
 7111SOL    HW132966   1.630   4.647   5.867 -0.2483 -0.6869  0.2680
 7111SOL    HW232967   1.723   4.610   5.978 -0.2373 -0.7914  1.8469
 7112SOL     OW32968   3.158   1.871   7.145 -0.0395 -0.1104 -0.5638
 7112SOL    HW132969   3.206   1.953   7.131  2.1248 -1.5011 -1.3395
 7112SOL    HW232970   3.076   1.878   7.096  0.9040 -1.5086 -2.3523
 7113SOL     OW32971   2.995   2.478  15.435  0.0393  0.1945  0.0559
 7113SOL    HW132972   3.053   2.426  15.380 -0.4782  0.4577 -0.7353
 7113SOL    HW232973   3.033   2.564  15.415  1.2755  0.1296  2.1534
 7114SOL     OW32974   0.266   1.539   6.165 -0.0650 -0.3020 -0.1451
 7114SOL    HW132975   0.296   1.476   6.099  2.8238  2.0695 -1.1000
 7114SOL    HW232976   0.312   1.614   6.128  1.4056 -0.5867  1.0888
 7115SOL     OW32977   4.441   4.306  14.072  0.6274  0.2243 -0.3381
 7115SOL    HW132978   4.534   4.329  14.066  0.7708  0.0122  1.0376
 7115SOL    HW232979   4.389   4.379  14.107  1.1258  0.9089 -1.0326
 7116SOL     OW32980   4.670   3.289  11.523 -0.5063  0.2078 -0.1416
 7116SOL    HW132981   4.734   3.293  11.452  0.5356 -2.2241  0.6435
 7116SOL    HW232982   4.654   3.381  11.545  1.4554  0.6628 -0.6446
 7117SOL     OW32983   3.708   2.793  16.860  0.2422  0.5632  0.0794
 7117SOL    HW132984   3.628   2.764  16.904  0.9493  2.3739  2.5442
 7117SOL    HW232985   3.684   2.880  16.828  1.2123  0.8534  0.1438
 7118SOL     OW32986   1.556   1.637   3.825 -0.1298 -0.3500 -0.5455
 7118SOL    HW132987   1.472   1.678   3.843  0.4105  1.0025 -1.1075
 7118SOL    HW232988   1.580   1.623   3.917 -0.2263  1.9635 -0.1622
 7119SOL     OW32989   2.965   0.313  12.610 -0.0159  0.0230  0.1191
 7119SOL    HW132990   2.923   0.327  12.695 -1.1769 -0.4742 -0.3749
 7119SOL    HW232991   2.949   0.398  12.570 -0.5687 -0.6113 -1.0070
 7120SOL     OW32992   0.111   3.258   3.006 -0.3928  0.4132 -0.0436
 7120SOL    HW132993   0.114   3.319   3.080 -0.3742  0.8943 -0.4388
 7120SOL    HW232994   0.083   3.174   3.043 -1.0566 -0.0933 -1.7040
 7121SOL     OW32995   0.297   2.071  13.212 -0.5834 -0.2726 -0.1161
 7121SOL    HW132996   0.332   1.996  13.164 -0.5834 -0.2141 -0.2064
 7121SOL    HW232997   0.329   2.050  13.300 -0.7462 -0.0624 -0.0047
 7122SOL     OW32998   0.280   1.639   8.138  0.2647 -0.5607  0.2547
 7122SOL    HW132999   0.300   1.586   8.061  2.8968 -0.1035  0.6184
 7122SOL    HW233000   0.248   1.715   8.089  3.4436 -1.5618 -3.4017
 7123SOL     OW33001   1.431   2.263   4.883 -0.5840  0.3687 -0.1751
 7123SOL    HW133002   1.517   2.286   4.916 -0.8810  0.1899  0.7155
 7123SOL    HW233003   1.441   2.265   4.787  0.3914 -2.6473 -0.1298
 7124SOL     OW33004   4.027   1.023   4.731  0.1998 -0.2895 -0.2457
 7124SOL    HW133005   4.080   1.024   4.811 -0.7173  1.2575  0.3510
 7124SOL    HW233006   3.952   0.971   4.758  0.7337 -1.3861 -0.9086
 7125SOL     OW33007   0.619   1.822   7.394  0.1639  0.0615  0.1109
 7125SOL    HW133008   0.613   1.754   7.462 -0.2013 -0.4206 -0.4048
 7125SOL    HW233009   0.650   1.765   7.324  0.9897  0.3525  0.2452
 7126SOL     OW33010   2.219   3.402   8.024 -0.2889 -0.2115  0.2021
 7126SOL    HW133011   2.208   3.416   7.930 -1.8924  2.5160  0.7886
 7126SOL    HW233012   2.165   3.324   8.037  1.9079 -1.8933 -0.8280
 7127SOL     OW33013   1.215   4.243   9.470 -0.2857  0.0465  0.3692
 7127SOL    HW133014   1.173   4.289   9.398 -1.0053 -0.4514  0.4718
 7127SOL    HW233015   1.276   4.195   9.414 -0.7095 -0.8431  0.6637
 7128SOL     OW33016   0.724   0.827   8.952  0.1975  0.2049 -0.0042
 7128SOL    HW133017   0.666   0.761   8.915  1.6653 -1.8925  1.4926
 7128SOL    HW233018   0.733   0.878   8.872 -1.3700 -1.1975 -1.0735
 7129SOL     OW33019   1.959   3.144   9.241  0.0893 -0.1334  0.0380
 7129SOL    HW133020   1.954   3.075   9.308 -0.7151 -2.6409 -2.6295
 7129SOL    HW233021   1.873   3.185   9.237  0.9071  1.8211  2.1502
 7130SOL     OW33022   1.914   4.652   0.545  0.1780 -0.6162 -0.2496
 7130SOL    HW133023   1.912   0.010   0.562 -0.3289 -0.7432  0.4408
 7130SOL    HW233024   1.971   4.651   0.469  0.3426 -0.1087 -0.1281
 7131SOL     OW33025   2.731   0.087   0.670 -0.0812  0.5061 -0.5133
 7131SOL    HW133026   2.802   0.034   0.705 -0.4209  0.4745  0.1307
 7131SOL    HW233027   2.777   0.167   0.645 -0.1776  0.8775  0.4990
 7132SOL     OW33028   1.551   0.594   7.134  0.0557  0.7124  0.1189
 7132SOL    HW133029   1.644   0.575   7.121 -0.0627 -0.3505  0.8412
 7132SOL    HW233030   1.555   0.689   7.128  0.7413  0.4543 -3.6083
 7133SOL     OW33031   1.923   1.199   5.354 -0.1082 -0.6401 -0.0710
 7133SOL    HW133032   2.003   1.149   5.340  0.4299  0.1280  0.2845
 7133SOL    HW233033   1.932   1.291   5.326 -0.2019 -0.0249  1.9085
 7134SOL     OW33034   2.354   0.727   6.874 -0.0780  0.0494  0.3126
 7134SOL    HW133035   2.395   0.694   6.795  0.4017  1.0569  0.1411
 7134SOL    HW233036   2.264   0.696   6.867 -0.5711  1.4085  0.6651
 7135SOL     OW33037   3.014   3.154  14.995 -0.5082  0.8846  0.3403
 7135SOL    HW133038   2.935   3.149  15.048 -1.2325  1.4102 -0.6923
 7135SOL    HW233039   3.061   3.227  15.035 -2.3215  1.2582  1.8133
 7136SOL     OW33040   0.289   3.449   7.876 -0.5201  0.4431  0.0772
 7136SOL    HW133041   0.277   3.414   7.964 -0.2299  0.6407  0.1960
 7136SOL    HW233042   0.293   3.369   7.824  1.1312  1.4496 -1.3668
 7137SOL     OW33043   1.079   0.806   1.745  0.0477  0.8252 -0.5205
 7137SOL    HW133044   1.113   0.848   1.665  0.1233  0.5238 -0.6473
 7137SOL    HW233045   1.156   0.755   1.769 -1.2218 -0.6231  0.4892
 7138SOL     OW33046   2.945   2.458   6.762 -0.0157  0.5746 -0.4131
 7138SOL    HW133047   2.934   2.528   6.697  0.9851  0.1953 -0.9879
 7138SOL    HW233048   2.902   2.390   6.709 -0.9715  1.4490 -0.7569
 7139SOL     OW33049   2.070   4.553   8.800  0.1558 -0.0680  0.1577
 7139SOL    HW133050   2.067   4.631   8.745  0.7731  1.4775  2.3127
 7139SOL    HW233051   2.164   4.541   8.812 -0.2438  0.4765  3.6413
 7140SOL     OW33052   3.704   2.087   9.259 -0.2973 -0.5092  0.0502
 7140SOL    HW133053   3.668   2.105   9.346  0.7249 -1.1228  0.6031
 7140SOL    HW233054   3.661   2.153   9.206 -1.1406  2.0478  3.8818
 7141SOL     OW33055   4.430   0.841  11.597 -0.3306  0.3372  0.0344
 7141SOL    HW133056   4.402   0.928  11.567 -0.1831 -0.9780 -3.8563
 7141SOL    HW233057   4.500   0.813  11.538  0.9336 -0.4429  1.9054
 7142SOL     OW33058   1.522   1.931   0.634 -0.7931  0.4197  0.0757
 7142SOL    HW133059   1.493   1.957   0.546 -0.7293  0.4859  0.0737
 7142SOL    HW233060   1.473   1.850   0.641  0.4275 -0.5375 -2.2370
 7143SOL     OW33061   0.054   4.205   3.640 -0.4301  0.3849 -0.1100
 7143SOL    HW133062   0.140   4.243   3.657 -0.1158 -0.4498  0.1521
 7143SOL    HW233063   0.008   4.228   3.721  1.3657  2.5937  0.2706
 7144SOL     OW33064   1.882   4.510   4.759 -0.3039 -0.0866 -0.5754
 7144SOL    HW133065   1.894   4.415   4.764 -0.8378 -0.1219  0.0649
 7144SOL    HW233066   1.902   4.546   4.845 -1.0123  1.4813 -1.0826
 7145SOL     OW33067   2.862   0.891   6.950 -0.1563  0.2301 -0.4217
 7145SOL    HW133068   2.834   0.811   6.994 -0.6603  0.3489 -0.5219
 7145SOL    HW233069   2.816   0.955   7.005  1.4204  0.0997  1.0442
 7146SOL     OW33070   3.994   1.683   7.432  0.1175 -0.0048 -0.3160
 7146SOL    HW133071   4.082   1.699   7.399  0.3124 -1.5409 -0.5578
 7146SOL    HW233072   3.940   1.725   7.366  1.3466 -1.6217 -2.3513
 7147SOL     OW33073   3.823   0.415  15.884  0.0640 -0.1468 -0.1216
 7147SOL    HW133074   3.858   0.380  15.802 -0.9286 -1.8358  0.1723
 7147SOL    HW233075   3.821   0.333  15.933 -0.6236 -0.6479 -0.9809
 7148SOL     OW33076   4.115   4.034  12.838  0.2807  0.0917 -0.2701
 7148SOL    HW133077   4.182   4.096  12.867  1.3159 -0.8636 -0.6432
 7148SOL    HW233078   4.172   3.960  12.817  0.5405  0.7401 -1.8543
 7149SOL     OW33079   4.062   2.549  14.598  0.5305  0.5828 -0.3666
 7149SOL    HW133080   3.991   2.584  14.652  0.5849  1.1436 -0.6580
 7149SOL    HW233081   4.041   2.599  14.519 -4.0886 -1.3396 -0.3433
 7150SOL     OW33082   1.553   2.392   7.370  0.1811 -0.2715  0.0727
 7150SOL    HW133083   1.491   2.461   7.346 -0.7371 -1.1808 -0.1835
 7150SOL    HW233084   1.520   2.351   7.450  2.2983 -1.0187  0.5682
 7151SOL     OW33085   1.936   3.667   2.818 -0.2599 -0.1271  0.2217
 7151SOL    HW133086   2.017   3.683   2.770 -1.3262  0.6591 -1.3221
 7151SOL    HW233087   1.904   3.757   2.819 -2.2861 -0.8452 -0.5307
 7152SOL     OW33088   3.996   4.595   8.454 -0.0047  0.0269  0.8347
 7152SOL    HW133089   4.082   4.631   8.433 -0.4499  0.2704 -0.5785
 7152SOL    HW233090   4.019   4.504   8.473  1.6517  0.3266  0.2216
 7153SOL     OW33091   1.350   1.143  17.049 -0.4287 -0.7249 -0.1127
 7153SOL    HW133092   1.337   1.210  17.116 -0.3618 -0.8815  0.0604
 7153SOL    HW233093   1.301   1.073  17.093  1.0305 -0.4544  1.9352
 7154SOL     OW33094   2.326   4.360   1.536 -0.3779  0.2452  0.2521
 7154SOL    HW133095   2.396   4.379   1.599 -0.3051  0.8896 -0.0310
 7154SOL    HW233096   2.273   4.315   1.602 -0.5724 -0.3109 -0.2866
 7155SOL     OW33097   4.157   3.765   8.288  0.1923 -0.3136  0.1377
 7155SOL    HW133098   4.081   3.721   8.327  0.5208 -1.5528 -0.6402
 7155SOL    HW233099   4.198   3.804   8.365  2.8211 -2.2771 -0.2922
 7156SOL     OW33100   4.115   1.654   9.669  0.6725  0.4495  0.2402
 7156SOL    HW133101   4.135   1.678   9.759  0.0651  0.1031  0.4745
 7156SOL    HW233102   4.026   1.690   9.668 -0.6757 -2.8352  0.4635
 7157SOL     OW33103   2.740   1.512   6.891 -0.5053 -0.6769 -0.2138
 7157SOL    HW133104   2.664   1.489   6.837 -1.8186  2.3578  0.3599
 7157SOL    HW233105   2.750   1.607   6.888  0.3190 -0.6814  2.8270
 7158SOL     OW33106   4.045   4.058   5.467 -0.0525 -0.7343 -0.6814
 7158SOL    HW133107   4.104   4.129   5.444  0.2585 -1.0200 -0.7621
 7158SOL    HW233108   4.094   3.992   5.516 -0.6056 -0.6993 -0.0856
 7159SOL     OW33109   3.384   1.774  14.962 -0.2780  0.0108  0.5741
 7159SOL    HW133110   3.341   1.826  15.030 -0.3084  0.6248  0.0890
 7159SOL    HW233111   3.413   1.699  15.015 -1.9249 -1.7092 -0.9775
 7160SOL     OW33112   4.597   3.555  11.616  0.1523  0.3146  0.2876
 7160SOL    HW133113   4.649   3.613  11.560 -0.2818 -0.9287 -1.4011
 7160SOL    HW233114   4.509   3.591  11.606 -0.7899 -1.2364  3.1551
 7161SOL     OW33115   3.866   3.298   7.596 -0.3477 -0.0965  0.0109
 7161SOL    HW133116   3.819   3.302   7.512 -0.2808 -0.3626 -0.0393
 7161SOL    HW233117   3.936   3.239   7.569  1.1551  0.8913  1.7730
 7162SOL     OW33118   3.611   2.182   7.920 -0.0808  0.0388  0.8479
 7162SOL    HW133119   3.595   2.119   7.849 -0.8152  1.8711 -0.6355
 7162SOL    HW233120   3.704   2.170   7.936  0.1054 -0.8249 -0.9001
 7163SOL     OW33121   3.663   2.456  13.711 -0.0345  0.0884  0.5205
 7163SOL    HW133122   3.737   2.445  13.772  1.1013  0.7040 -0.7414
 7163SOL    HW233123   3.645   2.548  13.728  0.7300  0.7387 -2.2202
 7164SOL     OW33124   4.092   0.795   3.678  0.0289  0.4177 -0.0956
 7164SOL    HW133125   4.009   0.768   3.718 -0.1761  1.3356  0.1150
 7164SOL    HW233126   4.069   0.882   3.645 -3.5636 -0.1299  0.9885
 7165SOL     OW33127   0.059   4.155   5.994  0.1136  0.2268  0.7122
 7165SOL    HW133128   0.075   4.197   5.910 -1.4061  1.9334  1.2664
 7165SOL    HW233129   4.730   4.089   5.968  1.1408 -0.9994  1.2863
 7166SOL     OW33130   2.029   3.812   4.963 -0.1059  0.4493 -0.4191
 7166SOL    HW133131   2.108   3.805   4.911 -0.1279  5.5176 -1.2039
 7166SOL    HW233132   2.074   3.839   5.044 -1.3463  2.4030 -0.3656
 7167SOL     OW33133   1.449   2.874   9.615  0.4899 -0.3195  0.7275
 7167SOL    HW133134   1.541   2.900   9.614  0.2491  0.5136  0.0885
 7167SOL    HW233135   1.407   2.960   9.608  1.2441 -0.0337 -0.2774
 7168SOL     OW33136   0.603   3.080   4.398  0.1881 -0.0901  0.2151
 7168SOL    HW133137   0.598   3.036   4.483 -0.8546  1.4661  0.9596
 7168SOL    HW233138   0.608   3.002   4.343  2.1615  1.2725 -1.5008
 7169SOL     OW33139   0.612   1.850   9.182  0.3397  0.5533  0.5968
 7169SOL    HW133140   0.542   1.831   9.244  1.6138 -1.4943  1.3841
 7169SOL    HW233141   0.581   1.934   9.147  0.0033  0.1706 -0.0141
 7170SOL     OW33142   1.242   0.515   8.607  0.2901 -0.3275 -0.3070
 7170SOL    HW133143   1.324   0.476   8.578  0.8248  0.9286 -0.4776
 7170SOL    HW233144   1.259   0.604   8.575  0.9222 -1.2857 -2.6147
 7171SOL     OW33145   4.011   1.541   2.313  0.0502 -0.0267 -0.3523
 7171SOL    HW133146   4.064   1.469   2.278  1.6793  1.1217 -0.2249
 7171SOL    HW233147   4.039   1.612   2.256 -1.9712  0.0628 -1.2184
 7172SOL     OW33148   1.502   2.132   3.257  0.0447 -0.2873 -0.3210
 7172SOL    HW133149   1.430   2.106   3.314 -0.2217 -3.0436 -1.9456
 7172SOL    HW233150   1.459   2.156   3.175 -0.4995  0.0909  0.0769
 7173SOL     OW33151   0.293   3.037  12.641 -0.3305  0.1021  0.7515
 7173SOL    HW133152   0.315   3.073  12.555 -3.3487  0.1475  0.0176
 7173SOL    HW233153   0.290   3.114  12.697 -2.4591  0.5534  0.0039
 7174SOL     OW33154   4.598   4.504   1.938 -0.5046 -0.4603 -0.9281
 7174SOL    HW133155   4.642   4.566   1.880  1.8146 -0.0547  1.2490
 7174SOL    HW233156   4.533   4.560   1.979  1.0684  0.0987  0.7881
 7175SOL     OW33157   0.708   3.509   4.523  0.2264  0.2505 -0.1669
 7175SOL    HW133158   0.745   3.522   4.435  0.4912 -0.1849 -0.1165
 7175SOL    HW233159   0.628   3.466   4.492  0.8474 -0.0422 -1.3835
 7176SOL     OW33160   4.196   0.035   3.108  0.1664  0.4698  0.0062
 7176SOL    HW133161   4.146   4.726   3.040  0.4286 -1.6234  1.2066
 7176SOL    HW233162   4.160   0.123   3.098 -4.8874 -1.7570 -1.2510
 7177SOL     OW33163   2.573   1.007   7.314 -0.3162  0.2643  0.0151
 7177SOL    HW133164   2.641   1.052   7.264 -1.1291 -0.2755 -1.6138
 7177SOL    HW233165   2.557   1.084   7.368 -0.6471 -0.0034  0.3010
 7178SOL     OW33166   2.915   0.582   8.634 -0.8129 -0.9115  0.0317
 7178SOL    HW133167   2.954   0.551   8.715  0.4356  0.4940 -0.0408
 7178SOL    HW233168   2.822   0.568   8.654 -1.3278  0.4307 -1.4514
 7179SOL     OW33169   3.870   0.715   3.776  0.2844  0.2875  0.1007
 7179SOL    HW133170   3.784   0.724   3.736  0.0158  0.7950  0.8080
 7179SOL    HW233171   3.853   0.776   3.847  1.3494 -2.0877  2.3970
 7180SOL     OW33172   2.726   1.061   3.650 -0.2019 -0.1750 -0.3270
 7180SOL    HW133173   2.683   1.147   3.648 -0.0574 -0.1292 -1.3241
 7180SOL    HW233174   2.657   0.999   3.623  0.1690 -0.3458 -0.8819
 7181SOL     OW33175   4.177   1.788   1.754 -0.3451 -0.3324 -0.4586
 7181SOL    HW133176   4.231   1.716   1.787 -0.2913  0.4226  1.0528
 7181SOL    HW233177   4.195   1.857   1.817 -0.0577  0.5319 -1.4832
 7182SOL     OW33178   2.043   0.888   6.937 -0.0996 -0.0270 -0.8392
 7182SOL    HW133179   1.962   0.883   6.987 -0.3604  1.9747 -1.0732
 7182SOL    HW233180   2.083   0.968   6.970 -0.9113  0.4069 -0.9123
 7183SOL     OW33181   3.777   2.263  14.146 -0.1215 -0.4437 -0.1747
 7183SOL    HW133182   3.687   2.233  14.134 -0.4982  1.4697 -2.1472
 7183SOL    HW233183   3.758   2.354  14.166 -1.0446 -0.2154 -2.0505
 7184SOL     OW33184   4.447   3.197   6.918 -0.0456  0.1054  0.3179
 7184SOL    HW133185   4.483   3.269   6.969  0.3238 -0.9363  1.5299
 7184SOL    HW233186   4.475   3.117   6.962 -1.0305 -0.2058  0.3657
 7185SOL     OW33187   0.363   2.868  11.207  0.9679 -0.4734  0.0104
 7185SOL    HW133188   0.279   2.839  11.173  0.8807 -1.6404  1.2314
 7185SOL    HW233189   0.368   2.841  11.299  1.3709  2.4722  0.8673
 7186SOL     OW33190   0.265   0.669   7.786  0.4100  0.7735  0.0049
 7186SOL    HW133191   0.174   0.660   7.812  0.5627  0.4815  0.4365
 7186SOL    HW233192   0.268   0.619   7.704  0.8814 -1.1975  1.2167
 7187SOL     OW33193   1.412   4.051   7.338  0.0579  0.2908  0.0812
 7187SOL    HW133194   1.508   4.051   7.335  0.0288 -2.9495 -0.7165
 7187SOL    HW233195   1.399   4.075   7.430  0.3391 -0.0327  0.2053
 7188SOL     OW33196   3.109   1.121   7.995  0.1300  0.6204  0.2672
 7188SOL    HW133197   3.139   1.180   7.926  1.2250  0.5084  0.6531
 7188SOL    HW233198   3.016   1.141   8.006  0.0524  0.2367  0.3042
 7189SOL     OW33199   1.708   3.980   1.331 -0.0612 -0.5613  0.1433
 7189SOL    HW133200   1.721   4.007   1.240  1.0858 -0.3969  0.3559
 7189SOL    HW233201   1.668   4.059   1.367  0.3298  0.0034 -0.6662
 7190SOL     OW33202   0.758   0.487   4.876 -0.0514  0.1604 -0.3651
 7190SOL    HW133203   0.853   0.495   4.884 -0.0571 -1.4621  1.3546
 7190SOL    HW233204   0.758   0.411   4.818  1.6506 -0.0179 -0.1189
 7191SOL     OW33205   3.049   1.329  15.594  0.4222 -0.1189  0.3653
 7191SOL    HW133206   3.141   1.316  15.616  1.4516  0.6604 -3.5293
 7191SOL    HW233207   3.017   1.243  15.623  1.5057 -0.2500  1.1970
 7192SOL     OW33208   1.958   0.878  12.137 -0.0517 -0.5280  0.1465
 7192SOL    HW133209   1.898   0.805  12.122  0.5515 -0.8577 -0.6728
 7192SOL    HW233210   2.039   0.828  12.132  0.4466  0.3162 -0.2939
 7193SOL     OW33211   3.256   3.560  17.556 -0.0730  0.1275 -0.2591
 7193SOL    HW133212   3.351   3.571  17.555 -0.2601  1.9447  2.3597
 7193SOL    HW233213   3.247   3.467  17.577 -0.5379  0.8429  2.6303
 7194SOL     OW33214   0.265   3.856  10.420 -0.0038 -0.4896  0.1078
 7194SOL    HW133215   0.298   3.855  10.330  1.5652  1.0804  0.6649
 7194SOL    HW233216   0.177   3.829  10.394 -0.2324 -1.2980  1.7260
 7195SOL     OW33217   1.132   2.469   7.415 -0.1702  0.2031 -0.1033
 7195SOL    HW133218   1.139   2.401   7.348  1.9986  1.6541 -1.3435
 7195SOL    HW233219   1.081   2.418   7.479  0.8614 -0.7981 -0.0864
 7196SOL     OW33220   3.178   0.461   1.501 -0.2339  0.0989  0.0344
 7196SOL    HW133221   3.154   0.400   1.431  1.9655 -0.7094 -0.0165
 7196SOL    HW233222   3.099   0.503   1.533  0.7629  1.5717  0.5783
 7197SOL     OW33223   2.400   2.360   3.838 -0.1703  0.1886 -0.3930
 7197SOL    HW133224   2.335   2.291   3.825 -1.5007  1.5851 -1.2041
 7197SOL    HW233225   2.388   2.414   3.760  1.8641 -0.2435 -1.0069
 7198SOL     OW33226   2.983   2.446  14.552  0.0795 -0.2084 -0.3145
 7198SOL    HW133227   3.052   2.495  14.597  2.0476 -0.4944 -3.0149
 7198SOL    HW233228   2.900   2.476  14.590  1.2962  2.9658 -0.2213
 7199SOL     OW33229   1.239   2.138  12.006 -0.0120  0.6434  0.1797
 7199SOL    HW133230   1.310   2.074  12.015 -0.1357  0.7884  2.2523
 7199SOL    HW233231   1.168   2.075  11.995 -0.3143  0.8439  1.0046
 7200SOL     OW33232   0.475   2.703   8.753  0.0805  0.7420 -0.9045
 7200SOL    HW133233   0.470   2.787   8.707 -0.6651  0.9787 -0.3756
 7200SOL    HW233234   0.439   2.734   8.835 -0.7881 -1.8017 -0.3256
 7201SOL     OW33235   3.103   1.335   3.076  0.3103  0.0986  0.4227
 7201SOL    HW133236   3.179   1.334   3.135 -1.4842 -0.7362  2.6964
 7201SOL    HW233237   3.141   1.272   3.015  0.0555  0.5339 -0.1807
 7202SOL     OW33238   0.834   1.672   8.752  0.5487  0.5472  0.8730
 7202SOL    HW133239   0.828   1.591   8.802  0.5986  0.6718  1.0830
 7202SOL    HW233240   0.907   1.662   8.691 -0.6907 -3.4419  0.0426
 7203SOL     OW33241   4.453   4.302   7.536  0.5072  0.3261 -0.0328
 7203SOL    HW133242   4.489   4.269   7.618  1.5857  3.5659  0.7965
 7203SOL    HW233243   4.382   4.356   7.569  0.4838  1.5253 -2.0885
 7204SOL     OW33244   2.068   2.519   5.175  0.2006  0.1408  0.2202
 7204SOL    HW133245   2.143   2.561   5.132  0.6025 -0.0516  0.7286
 7204SOL    HW233246   1.994   2.569   5.140 -1.2467 -3.2740 -1.5587
 7205SOL     OW33247   2.999   0.073   6.493  0.1217  0.1073  0.2583
 7205SOL    HW133248   3.024   0.007   6.557  1.2439 -0.4360 -0.7430
 7205SOL    HW233249   3.045   0.153   6.519 -0.2432  0.2182  0.5523
 7206SOL     OW33250   3.673   3.033   8.845 -0.1830  0.3245  0.5357
 7206SOL    HW133251   3.707   3.003   8.761  0.6565  0.1614  0.9428
 7206SOL    HW233252   3.611   3.092   8.801 -0.8838  0.9038  2.3066
 7207SOL     OW33253   4.222   1.761   7.348 -0.0880 -0.6263  0.0526
 7207SOL    HW133254   4.187   1.817   7.279 -0.3454 -1.6419 -0.6380
 7207SOL    HW233255   4.308   1.744   7.310  0.1236  2.6732 -1.0072
 7208SOL     OW33256   0.002   3.790   7.803 -0.3292 -0.0128  0.0924
 7208SOL    HW133257   0.004   3.869   7.857 -0.1592 -0.7334  1.1424
 7208SOL    HW233258   4.673   3.805   7.734  1.1307  1.5588 -0.9531
 7209SOL     OW33259   3.889   0.632   2.633 -0.0228  0.1061 -0.4292
 7209SOL    HW133260   3.925   0.604   2.549  0.2890  0.9952 -0.5919
 7209SOL    HW233261   3.907   0.726   2.631 -0.4217  0.1846 -0.3022
 7210SOL     OW33262   2.072   3.009   3.707  0.0745 -0.1471 -0.2425
 7210SOL    HW133263   2.115   2.967   3.781 -0.8434  0.2542  0.5241
 7210SOL    HW233264   2.142   3.063   3.670  1.0923 -0.9103  0.5686
 7211SOL     OW33265   2.948   4.148   7.075  0.1157 -0.1616 -0.4781
 7211SOL    HW133266   2.911   4.236   7.079  1.1777  0.1760  1.9746
 7211SOL    HW233267   3.029   4.169   7.027 -0.3302  1.2199 -0.6347
 7212SOL     OW33268   3.144   2.869  15.034  0.1025  0.2660  0.3889
 7212SOL    HW133269   3.118   2.959  15.016 -1.5491 -0.2921 -0.0378
 7212SOL    HW233270   3.092   2.822  14.968  0.8067  1.0832 -0.7417
 7213SOL     OW33271   2.618   0.526   0.256 -0.6541  0.0355 -0.5253
 7213SOL    HW133272   2.683   0.480   0.203  2.5510  1.6631  1.9704
 7213SOL    HW233273   2.657   0.613   0.254  1.0402 -0.7315 -0.8059
 7214SOL     OW33274   4.371   4.487  13.558  0.6004 -0.1101 -0.4208
 7214SOL    HW133275   4.275   4.489  13.560  0.6478  0.5731  1.0095
 7214SOL    HW233276   4.384   4.581  13.547 -0.6358 -0.2395 -2.7667
 7215SOL     OW33277   1.970   0.978   6.056  0.1529  0.1948  0.3095
 7215SOL    HW133278   1.901   0.974   5.990  1.0485  3.2465 -0.7979
 7215SOL    HW233279   1.949   1.064   6.092  0.3730  1.1606 -1.8633
 7216SOL     OW33280   3.515   4.641  14.308 -0.2278 -0.5670 -0.0979
 7216SOL    HW133281   3.584   4.681  14.256  1.8143  0.7595  3.5994
 7216SOL    HW233282   3.477   4.725  14.332  0.3915  0.2002 -1.8156
 7217SOL     OW33283   2.396   4.012   2.364  0.5377 -0.5156  0.5776
 7217SOL    HW133284   2.417   4.009   2.458  0.4467  1.0990  0.6416
 7217SOL    HW233285   2.300   4.007   2.367  0.4695  0.3238 -0.3356
 7218SOL     OW33286   3.783   0.368   6.523  0.0981 -0.3690 -0.1657
 7218SOL    HW133287   3.736   0.444   6.558 -0.0354  0.1814 -1.5402
 7218SOL    HW233288   3.850   0.358   6.591  1.1358  0.9049 -1.0207
 7219SOL     OW33289   4.250   2.449   8.574 -0.1064 -0.3131 -0.2228
 7219SOL    HW133290   4.182   2.500   8.619  2.2093 -0.7735  3.8238
 7219SOL    HW233291   4.310   2.516   8.540  1.7768 -1.2536  1.2646
 7220SOL     OW33292   2.788   4.028   4.964 -0.3304 -0.1874 -0.4259
 7220SOL    HW133293   2.763   3.937   4.973  1.0664 -0.5936 -0.6695
 7220SOL    HW233294   2.831   4.022   4.879 -0.3720 -2.4282 -0.2862
 7221SOL     OW33295   4.163   0.221   4.956  0.1689 -0.1055 -0.1626
 7221SOL    HW133296   4.122   0.307   4.950  1.3621  0.4813  0.2480
 7221SOL    HW233297   4.230   0.231   4.888 -0.0933  0.3352 -0.3558
 7222SOL     OW33298   2.959   4.377   8.752 -0.0250  0.1811 -0.0936
 7222SOL    HW133299   2.901   4.366   8.828  0.2101 -1.3415 -0.1244
 7222SOL    HW233300   3.038   4.361   8.804 -0.6618 -1.0482  0.5191
 7223SOL     OW33301   4.291   3.920  15.839 -0.0048  0.0702 -0.1636
 7223SOL    HW133302   4.270   3.875  15.757  1.5124  0.5655 -0.8126
 7223SOL    HW233303   4.291   3.844  15.897 -2.5013  1.0530  1.1250
 7224SOL     OW33304   2.026   2.550  10.481 -0.1439  0.0782  0.2920
 7224SOL    HW133305   1.965   2.490  10.523  0.8212  0.9058  2.8306
 7224SOL    HW233306   2.087   2.573  10.551 -2.3221  1.0940  1.8540
 7225SOL     OW33307   3.123   1.582   7.166  0.2210 -0.0699  0.1619
 7225SOL    HW133308   3.064   1.633   7.221 -0.9108 -0.6525 -0.5046
 7225SOL    HW233309   3.061   1.566   7.094  0.7657  1.5820 -0.6811
 7226SOL     OW33310   4.483   0.073   5.675  0.1615  0.0047  0.3724
 7226SOL    HW133311   4.540   0.089   5.600  0.7670  0.5755  0.9498
 7226SOL    HW233312   4.401   0.052   5.631 -0.2499 -0.3464  1.2996
 7227SOL     OW33313   1.010   4.083   6.119  0.0361 -0.4063  0.6790
 7227SOL    HW133314   1.082   4.022   6.104 -0.1418 -0.7955  1.3788
 7227SOL    HW233315   0.941   4.017   6.125 -0.0649 -0.4734 -1.3728
 7228SOL     OW33316   2.988   0.898  16.407  0.2839  0.3516  0.0321
 7228SOL    HW133317   2.996   0.941  16.493  1.6508  0.6421 -0.2369
 7228SOL    HW233318   3.034   0.956  16.346  0.0396  0.2936 -0.2057
 7229SOL     OW33319   3.835   0.764   3.204 -0.2667  0.1310 -0.1929
 7229SOL    HW133320   3.804   0.763   3.294 -2.8473  0.3435 -1.0786
 7229SOL    HW233321   3.925   0.743   3.230  0.3204  2.6034 -0.1719
 7230SOL     OW33322   3.185   2.269  16.988 -0.2868 -0.0662  0.0296
 7230SOL    HW133323   3.200   2.318  16.907 -1.9536 -0.8555 -0.7449
 7230SOL    HW233324   3.167   2.180  16.957 -2.1988  0.1411  0.5990
 7231SOL     OW33325   2.888   2.404   3.934  0.0823 -0.0126  0.0211
 7231SOL    HW133326   2.831   2.344   3.886  2.4738 -0.6430 -2.0240
 7231SOL    HW233327   2.834   2.435   4.006  0.3091  2.3174 -0.8079
 7232SOL     OW33328   2.218   4.625  12.376  0.2150  0.0677 -0.7475
 7232SOL    HW133329   2.308   4.652  12.397  0.6257 -1.0633 -1.0534
 7232SOL    HW233330   2.176   4.668  12.450 -0.4537 -0.1988 -0.9700
 7233SOL     OW33331   2.858   1.634   2.012  0.1606 -0.1242  0.8699
 7233SOL    HW133332   2.821   1.722   2.018  1.9831  0.8687 -2.0953
 7233SOL    HW233333   2.801   1.611   1.939 -0.6337  1.2721  1.0692
 7234SOL     OW33334   2.183   1.778   2.008 -0.4073 -0.2320  0.0707
 7234SOL    HW133335   2.158   1.738   2.091 -0.7828 -0.0296  0.0542
 7234SOL    HW233336   2.123   1.744   1.941  0.9844  1.6187 -2.1386
 7235SOL     OW33337   2.717   3.194   2.769  0.5367  0.5506 -0.0528
 7235SOL    HW133338   2.689   3.104   2.787  0.5725  0.1954 -1.6845
 7235SOL    HW233339   2.765   3.182   2.687 -0.5774  0.0277 -0.6294
 7236SOL     OW33340   2.121   0.272   0.211 -0.1435 -0.0569  0.3744
 7236SOL    HW133341   2.195   0.261   0.271  1.1748  0.9119 -1.0727
 7236SOL    HW233342   2.052   0.307   0.268  0.8377  0.4999  1.2345
 7237SOL     OW33343   4.671   0.749   8.060  0.5455  0.8344 -0.3507
 7237SOL    HW133344   4.654   0.835   8.021  1.3246  1.7117  1.2509
 7237SOL    HW233345   4.668   0.778   8.151 -0.4661  0.8816 -0.3936
 7238SOL     OW33346   4.400   0.252   6.136 -0.7752 -0.1823  0.2024
 7238SOL    HW133347   4.323   0.194   6.129 -1.1077  0.1411  1.1291
 7238SOL    HW233348   4.453   0.212   6.067 -0.9693  0.2148 -0.1711
 7239SOL     OW33349   2.638   3.232  12.414 -0.1218  0.3862  0.1086
 7239SOL    HW133350   2.713   3.248  12.471  0.3251 -2.6600  0.3897
 7239SOL    HW233351   2.557   3.253  12.462 -1.0023  0.4941 -1.4110
 7240SOL     OW33352   1.295   2.833   5.264 -0.3164 -0.6751 -0.1062
 7240SOL    HW133353   1.240   2.885   5.205  0.4978 -0.1085 -0.3702
 7240SOL    HW233354   1.277   2.741   5.240  1.4785 -0.6687 -1.4679
 7241SOL     OW33355   3.018   3.404  17.453  0.2741  0.1533 -0.0206
 7241SOL    HW133356   2.953   3.462  17.415  0.2457 -0.4067 -0.8198
 7241SOL    HW233357   3.087   3.403  17.387  0.5044 -0.0907  0.2203
 7242SOL     OW33358   0.979   0.017   0.691  0.1517  0.3156 -0.5425
 7242SOL    HW133359   1.032   4.675   0.706  1.0608  0.7388 -1.5973
 7242SOL    HW233360   0.977   0.055   0.778  3.0656 -0.0384 -0.3238
 7243SOL     OW33361   0.314   0.626   5.937 -0.3827  0.2041  0.1387
 7243SOL    HW133362   0.385   0.655   5.879  0.5945 -2.5325 -0.0379
 7243SOL    HW233363   0.295   0.543   5.893 -0.5367 -0.0038  0.6057
 7244SOL     OW33364   1.834   2.375   2.272  0.7128 -0.8584 -0.0571
 7244SOL    HW133365   1.920   2.415   2.285  0.0294  1.0397 -1.4194
 7244SOL    HW233366   1.816   2.327   2.352  0.5012  0.8000  0.8860
 7245SOL     OW33367   1.014   0.109   7.655  0.3899  0.7801  0.0960
 7245SOL    HW133368   1.035   0.018   7.633 -0.3537  0.6111  0.0755
 7245SOL    HW233369   0.929   0.115   7.611  0.9571  1.3418 -0.9184
 7246SOL     OW33370   4.126   1.110   4.232 -0.2837 -0.2099  0.0754
 7246SOL    HW133371   4.120   1.192   4.281  0.7372  0.4965 -0.9906
 7246SOL    HW233372   4.042   1.108   4.185  0.2773  0.8656 -0.9994
 7247SOL     OW33373   4.568   3.560  17.621  1.1586  0.1643 -0.6085
 7247SOL    HW133374   4.555   3.616  17.544 -1.2327  1.3540  0.6741
 7247SOL    HW233375   4.514   3.607  17.686  0.7155  1.8564 -2.1993
 7248SOL     OW33376   0.619   2.980  10.267  0.2684 -1.0133  0.4931
 7248SOL    HW133377   0.630   3.011  10.357 -1.1622 -1.3708  0.7871
 7248SOL    HW233378   0.701   2.941  10.235 -0.6501 -0.9387 -1.9051
 7249SOL     OW33379   4.491   4.053   1.981  0.5772 -0.7220  0.5304
 7249SOL    HW133380   4.402   4.028   1.955  0.0900  1.6165 -0.0514
 7249SOL    HW233381   4.517   4.121   1.920  0.7447 -2.3195 -1.1974
 7250SOL     OW33382   0.384   3.852   1.152  0.1206 -0.1828  0.7707
 7250SOL    HW133383   0.453   3.910   1.184  1.6183 -1.1892 -0.6319
 7250SOL    HW233384   0.351   3.819   1.236 -1.0899 -3.5023 -1.0253
 7251SOL     OW33385   0.403   0.924   8.273 -0.4531 -0.1476 -0.0944
 7251SOL    HW133386   0.392   0.837   8.236 -0.0151 -0.4135  0.3968
 7251SOL    HW233387   0.414   0.980   8.196 -2.2189  0.3138 -0.0235
 7252SOL     OW33388   2.865   1.492   8.668  0.2905 -0.3801  0.5731
 7252SOL    HW133389   2.794   1.555   8.657 -0.5197 -1.3553  0.1832
 7252SOL    HW233390   2.820   1.412   8.639 -2.5222  1.5177 -0.2768
 7253SOL     OW33391   1.919   1.083   4.402  0.0168 -0.3019  0.5592
 7253SOL    HW133392   1.903   1.032   4.481 -0.8165  0.4718  0.8939
 7253SOL    HW233393   1.955   1.168   4.428 -1.0685  0.0334  0.9733
 7254SOL     OW33394   3.979   3.595   0.387 -0.7899  0.4867  0.0149
 7254SOL    HW133395   3.909   3.633   0.440 -2.3546 -1.0239 -0.9759
 7254SOL    HW233396   4.026   3.544   0.453 -0.8902  0.9287  0.4255
 7255SOL     OW33397   4.165   2.041   6.105 -0.0746  0.1066  0.5607
 7255SOL    HW133398   4.246   2.088   6.123 -0.0787  0.4348 -0.2519
 7255SOL    HW233399   4.187   1.950   6.089  0.9916  0.2402  1.2961
 7256SOL     OW33400   0.295   0.136   4.275  0.4143 -0.0740 -0.3399
 7256SOL    HW133401   0.232   0.161   4.207  1.5600 -2.1597 -2.1504
 7256SOL    HW233402   0.367   0.198   4.267 -1.6611  2.1042 -2.3885
 7257SOL     OW33403   1.113   0.795   9.191 -0.1678 -0.2949  0.0961
 7257SOL    HW133404   1.118   0.797   9.095  0.8398  1.5634  0.1816
 7257SOL    HW233405   1.204   0.780   9.217 -0.2790  0.0437  0.6685
 7258SOL     OW33406   0.997   0.101   9.333  0.6192  0.2657 -0.0284
 7258SOL    HW133407   0.965   0.045   9.404 -3.2515  1.3582 -0.9068
 7258SOL    HW233408   1.040   0.174   9.377  2.8199 -0.7627 -0.4943
 7259SOL     OW33409   4.725   0.800   4.558  0.2660  0.4382  0.1220
 7259SOL    HW133410   4.661   0.787   4.488  1.1146  1.7276 -0.8814
 7259SOL    HW233411   4.698   0.888   4.583 -0.8361  0.4549 -1.0891
 7260SOL     OW33412   0.563   4.067   2.410  0.4331 -0.5860  0.0794
 7260SOL    HW133413   0.510   3.991   2.384  1.5309 -0.8205 -1.4311
 7260SOL    HW233414   0.500   4.099   2.474  0.6427  1.5233 -0.7887
 7261SOL     OW33415   4.336   0.955   7.669  0.2969  0.0509  0.5185
 7261SOL    HW133416   4.296   1.020   7.727  0.0083  2.6577 -2.6078
 7261SOL    HW233417   4.351   0.888   7.736 -0.7634 -0.3612  0.3537
 7262SOL     OW33418   3.466   2.956   3.545 -0.6088 -0.0108  0.2782
 7262SOL    HW133419   3.504   2.940   3.631 -1.6475 -2.2254  0.3311
 7262SOL    HW233420   3.542   2.941   3.489  0.7135  1.1902  1.7783
 7263SOL     OW33421   1.816   1.555   3.725 -0.1256 -0.3792 -0.4688
 7263SOL    HW133422   1.848   1.616   3.658  1.8535  0.6586  1.4461
 7263SOL    HW233423   1.733   1.597   3.748 -1.2412 -1.8413 -1.7577
 7264SOL     OW33424   2.700   0.749   1.144 -0.3143  0.2957 -0.2421
 7264SOL    HW133425   2.714   0.790   1.059  1.1288 -2.3780 -1.2968
 7264SOL    HW233426   2.634   0.687   1.114 -0.8019  0.7563 -0.1154
 7265SOL     OW33427   3.264   2.937  12.162 -0.1399 -0.6536 -0.0406
 7265SOL    HW133428   3.303   2.861  12.204  0.6946  0.1366  0.5895
 7265SOL    HW233429   3.193   2.903  12.106 -0.5638  1.2988 -0.7012
 7266SOL     OW33430   3.823   2.540   0.008  0.5942  0.0142 -0.7805
 7266SOL    HW133431   3.809   2.448  17.730 -1.4916 -0.3747  2.6087
 7266SOL    HW233432   3.909   2.563  17.713  1.0766  0.7115  0.7904
 7267SOL     OW33433   0.745   1.878   3.366 -0.1932 -0.4494  0.0991
 7267SOL    HW133434   0.658   1.873   3.406 -0.1700  1.5034  0.3727
 7267SOL    HW233435   0.745   1.789   3.331 -1.2238 -1.0071  1.5149
 7268SOL     OW33436   2.274   0.852  14.409  0.0551 -0.0063 -0.2013
 7268SOL    HW133437   2.204   0.827  14.470  1.1257 -1.7320  0.3329
 7268SOL    HW233438   2.239   0.804  14.335  1.0444 -0.9180 -0.0898
 7269SOL     OW33439   4.536   1.450   3.190 -0.0136  0.1984 -0.0567
 7269SOL    HW133440   4.544   1.487   3.278 -0.5353  1.3324 -0.4792
 7269SOL    HW233441   4.627   1.424   3.179 -0.2543 -0.6854  0.0756
 7270SOL     OW33442   0.691   0.257   9.253  0.2252  0.0097 -0.2334
 7270SOL    HW133443   0.673   0.351   9.250  0.3881  0.0282 -0.5942
 7270SOL    HW233444   0.781   0.257   9.220  0.3514  0.4397  0.1056
 7271SOL     OW33445   1.040   3.106   8.143 -0.2221  0.8362 -0.3840
 7271SOL    HW133446   0.947   3.121   8.130 -0.2606  0.1526 -0.8849
 7271SOL    HW233447   1.079   3.192   8.155  2.8553 -0.6062  0.1530
 7272SOL     OW33448   1.363   2.249   3.046 -0.5222 -0.1040  0.4022
 7272SOL    HW133449   1.314   2.231   2.966  2.8400  0.1941 -1.7678
 7272SOL    HW233450   1.405   2.334   3.029  0.2226 -0.6774 -0.7000
 7273SOL     OW33451   3.090   3.649   0.026  0.2285  0.1101  0.2960
 7273SOL    HW133452   3.157   3.634  17.701 -1.0523 -0.7955 -0.7620
 7273SOL    HW233453   3.034   3.580  17.733  0.2591  0.1191  0.2296
 7274SOL     OW33454   0.251   0.876   3.888 -0.4299 -0.1018  0.4107
 7274SOL    HW133455   0.238   0.798   3.942  0.8469 -0.5218  0.1164
 7274SOL    HW233456   0.239   0.945   3.954  1.0085 -0.0579  0.6259
 7275SOL     OW33457   0.435   0.563  14.352 -0.3953 -0.0317  0.6883
 7275SOL    HW133458   0.494   0.571  14.426 -2.5867  0.4604  2.4052
 7275SOL    HW233459   0.496   0.574  14.279 -0.2660 -2.9330  0.3829
 7276SOL     OW33460   3.862   3.041   5.854  0.2082  0.2786 -0.1097
 7276SOL    HW133461   3.815   2.969   5.813 -1.1211  1.8458 -1.3646
 7276SOL    HW233462   3.853   3.101   5.780 -1.8755  1.0465  0.7645
 7277SOL     OW33463   2.321   2.965   7.252  0.0395 -0.2288  0.5822
 7277SOL    HW133464   2.291   2.874   7.247  0.3224 -0.2652 -0.6256
 7277SOL    HW233465   2.252   3.001   7.308 -0.4516  0.4299 -0.4309
 7278SOL     OW33466   3.724   1.079   3.540 -0.1825 -0.7208  0.0665
 7278SOL    HW133467   3.642   1.087   3.589 -0.1505 -0.3260  0.0516
 7278SOL    HW233468   3.700   1.126   3.460 -0.2788  0.9268  1.0618
 7279SOL     OW33469   1.045   1.286  13.015 -0.3988  0.1974 -0.1347
 7279SOL    HW133470   1.002   1.299  13.100 -0.0646  0.0985  0.0507
 7279SOL    HW233471   0.988   1.222  12.974  0.4217 -0.0467 -0.8838
 7280SOL     OW33472   2.152   0.848   6.655  0.4405 -0.0221 -1.0362
 7280SOL    HW133473   2.098   0.856   6.734  0.5151  1.5869 -1.1471
 7280SOL    HW233474   2.170   0.939   6.633  1.9975 -0.4979 -1.7431
 7281SOL     OW33475   4.682   2.193   6.415  0.4751 -0.0038 -0.3812
 7281SOL    HW133476   4.694   2.283   6.444  1.2718  0.5558 -2.4723
 7281SOL    HW233477   4.661   2.194   6.322 -1.8486 -0.6373  0.1217
 7282SOL     OW33478   0.934   2.959   4.883 -0.3003 -0.5671  0.2862
 7282SOL    HW133479   1.008   2.909   4.916 -1.6679 -2.6583  0.1273
 7282SOL    HW233480   0.966   2.996   4.800 -1.0773 -0.7059 -0.0720
 7283SOL     OW33481   0.204   0.214  16.283  0.3733  0.3298  0.2739
 7283SOL    HW133482   0.270   0.179  16.343 -0.3702 -1.4381  0.0407
 7283SOL    HW233483   0.121   0.189  16.324  0.5233 -1.5740 -0.6153
 7284SOL     OW33484   2.672   2.806   8.236  0.1810 -0.0513 -0.2766
 7284SOL    HW133485   2.663   2.860   8.158 -0.0640 -3.0670 -2.3593
 7284SOL    HW233486   2.701   2.868   8.303 -2.1682  0.3909  0.3270
 7285SOL     OW33487   0.074   3.041   7.457 -0.0847  0.4273  0.1203
 7285SOL    HW133488   0.166   3.020   7.465  0.1972  1.7907  0.4566
 7285SOL    HW233489   0.066   3.130   7.492 -3.0131  0.0295  0.5016
 7286SOL     OW33490   0.801   2.860   6.387  0.3386  0.4029 -0.1065
 7286SOL    HW133491   0.789   2.909   6.469  1.8132  2.0265 -0.8607
 7286SOL    HW233492   0.891   2.877   6.360  0.7755 -1.0406  0.4310
 7287SOL     OW33493   3.124   4.313   6.013  0.2613  0.1158 -0.4644
 7287SOL    HW133494   3.174   4.232   6.003  0.3678  0.3909 -2.2195
 7287SOL    HW233495   3.187   4.370   6.056  1.7594 -0.6044 -1.6866
 7288SOL     OW33496   1.539   3.090   2.608 -0.0031  0.3944 -0.1880
 7288SOL    HW133497   1.527   3.097   2.703  0.2322  1.1381 -0.2128
 7288SOL    HW233498   1.633   3.107   2.602  0.2876 -0.7499  1.2437
 7289SOL     OW33499   4.657   4.550   7.491  0.0272  0.2455 -0.0373
 7289SOL    HW133500   4.607   4.558   7.410  0.5986 -2.0770 -0.6262
 7289SOL    HW233501   4.688   4.640   7.497  0.6266 -0.1278  2.7781
 7290SOL     OW33502   3.360   0.063   6.874  0.3626 -0.3655 -0.1112
 7290SOL    HW133503   3.330   4.717   6.915 -1.8596  0.1243 -0.7423
 7290SOL    HW233504   3.357   0.133   6.940 -0.7715 -0.0713 -0.4683
 7291SOL     OW33505   2.728   2.804   9.103 -0.2608 -0.0424 -0.1143
 7291SOL    HW133506   2.790   2.748   9.056  1.7924  0.9636  1.3515
 7291SOL    HW233507   2.642   2.774   9.077 -0.8339  1.7251 -0.2371
 7292SOL     OW33508   4.565   4.239   5.211 -0.0582  0.4073  0.0197
 7292SOL    HW133509   4.569   4.285   5.295  4.3972  0.5573 -0.2820
 7292SOL    HW233510   4.631   4.170   5.216  0.3004  0.6592 -1.3715
 7293SOL     OW33511   0.319   0.366   3.543  0.1518  0.1210  0.3426
 7293SOL    HW133512   0.334   0.449   3.497 -0.2614  0.0247  0.0355
 7293SOL    HW233513   0.267   0.401   3.615  0.9074 -0.0584  0.9753
 7294SOL     OW33514   2.875   0.694   5.872 -0.0814 -0.1485 -0.3383
 7294SOL    HW133515   2.880   0.765   5.936  0.8101 -0.4590 -0.0575
 7294SOL    HW233516   2.787   0.711   5.839  0.2851  0.4323 -1.0299
 7295SOL     OW33517   1.718   2.700  15.331 -0.1106 -0.8016 -0.2699
 7295SOL    HW133518   1.727   2.616  15.376  0.6548 -0.6376 -0.1244
 7295SOL    HW233519   1.702   2.683  15.238 -0.1516  0.3745 -0.4745
 7296SOL     OW33520   3.948   4.026   0.104  0.2456  0.2342  0.1284
 7296SOL    HW133521   4.036   3.990   0.100 -0.6057 -1.9867  1.4983
 7296SOL    HW233522   3.914   4.023   0.015  0.3445 -3.9397  0.2368
 7297SOL     OW33523   2.934   1.922  16.306 -0.2420  0.4667 -0.1240
 7297SOL    HW133524   3.018   1.948  16.345 -0.3152 -1.8022  1.5542
 7297SOL    HW233525   2.941   1.827  16.302  0.5519  0.5256 -0.1128
 7298SOL     OW33526   1.357   2.806   3.699  0.5582 -0.4451  0.0034
 7298SOL    HW133527   1.292   2.752   3.744  0.6260 -1.2836 -0.8967
 7298SOL    HW233528   1.353   2.872   3.768 -0.4059 -1.7543  1.1788
 7299SOL     OW33529   1.705   0.636   1.806 -0.0346  0.5126  0.0406
 7299SOL    HW133530   1.737   0.548   1.789  1.3170  0.5788  2.2239
 7299SOL    HW233531   1.744   0.648   1.893 -0.0682 -2.7903  0.4902
 7300SOL     OW33532   0.730   3.746   2.897  0.4481 -0.0681 -0.0168
 7300SOL    HW133533   0.686   3.694   2.965 -2.8747  2.1347 -0.4755
 7300SOL    HW233534   0.814   3.703   2.885  1.2254  1.2201  0.8362
 7301SOL     OW33535   2.030   0.448  16.784  0.2262 -0.3416  0.4403
 7301SOL    HW133536   1.937   0.469  16.776  0.4825  0.4582 -0.4141
 7301SOL    HW233537   2.032   0.403  16.699  1.1431  0.6483 -0.0508
 7302SOL     OW33538   4.688   1.459   4.225 -0.1558 -0.2167  0.6140
 7302SOL    HW133539   0.031   1.444   4.277 -0.7071  0.9338  1.7681
 7302SOL    HW233540   4.711   1.524   4.159 -0.8869  0.1650  0.7359
 7303SOL     OW33541   1.777   3.402  10.276  0.1685 -0.0828  1.4310
 7303SOL    HW133542   1.772   3.477  10.336  1.4615 -0.1736  1.6503
 7303SOL    HW233543   1.780   3.459  10.199 -0.8326 -1.2829  0.5122
 7304SOL     OW33544   3.314   0.728   7.657 -0.1683 -0.6045 -0.6311
 7304SOL    HW133545   3.352   0.773   7.733 -1.4270 -0.1409 -0.2830
 7304SOL    HW233546   3.342   0.642   7.687  1.5722 -0.0886 -0.7405
 7305SOL     OW33547   4.078   2.928  14.164 -0.0980  0.3036 -0.4995
 7305SOL    HW133548   4.051   2.968  14.082  0.3707 -0.4041 -0.9968
 7305SOL    HW233549   4.066   2.998  14.229 -1.7248  0.2153 -0.7032
 7306SOL     OW33550   1.701   3.056   6.371  0.3927  0.1325  0.9179
 7306SOL    HW133551   1.711   3.139   6.324 -1.1226 -0.4032 -0.3515
 7306SOL    HW233552   1.621   3.015   6.338 -0.5182  0.2614  2.9617
 7307SOL     OW33553   2.401   0.125  12.173  0.2193  0.0783  0.3888
 7307SOL    HW133554   2.341   0.193  12.204  1.7577  1.1884  0.9380
 7307SOL    HW233555   2.427   0.090  12.259  1.7650 -0.9226 -0.4737
 7308SOL     OW33556   4.046   4.646   9.101  0.1454  0.2424  0.4145
 7308SOL    HW133557   4.003   4.681   9.178 -0.5302  0.3340 -0.0081
 7308SOL    HW233558   3.980   4.607   9.044  0.5373 -0.8137  0.6821
 7309SOL     OW33559   2.586   0.528   7.793 -0.5652  0.4553  0.0675
 7309SOL    HW133560   2.565   0.437   7.776 -2.4304  0.9236 -0.1419
 7309SOL    HW233561   2.681   0.519   7.803 -0.4062  0.6537 -1.2237
 7310SOL     OW33562   4.037   3.508   9.840 -0.0381 -0.0378  0.5266
 7310SOL    HW133563   4.044   3.426   9.791 -1.4672  0.3297 -0.2905
 7310SOL    HW233564   4.042   3.480   9.931  1.0238 -1.2492  0.1080
 7311SOL     OW33565   0.548   3.825  14.928  0.4237 -0.1416 -0.1315
 7311SOL    HW133566   0.541   3.730  14.930  1.5948 -0.2143  0.3898
 7311SOL    HW233567   0.476   3.839  14.990 -0.1092 -1.6690 -0.4061
 7312SOL     OW33568   0.470   4.270   4.659 -0.0515  0.2813  0.6487
 7312SOL    HW133569   0.491   4.207   4.728  2.3456 -1.7522 -1.9543
 7312SOL    HW233570   0.527   4.231   4.593 -1.7070  0.5543 -0.9434
 7313SOL     OW33571   3.943   1.635   7.145  0.0943  0.2278 -0.5397
 7313SOL    HW133572   4.001   1.561   7.159 -0.9922 -1.0538 -2.6700
 7313SOL    HW233573   4.008   1.705   7.154  0.1487  0.2063 -0.7708
 7314SOL     OW33574   3.633   1.551   8.716  0.0514  0.0600 -0.1123
 7314SOL    HW133575   3.669   1.639   8.728 -0.2643  0.2906 -0.8420
 7314SOL    HW233576   3.549   1.549   8.761  1.1383 -0.5740  1.8934
 7315SOL     OW33577   4.666   3.063  12.513  0.3483  0.4929 -0.4642
 7315SOL    HW133578   4.715   3.029  12.438  1.0179  0.1023  0.1436
 7315SOL    HW233579   4.714   3.021  12.585 -1.3001  0.2766  0.4991
 7316SOL     OW33580   0.192   1.092   2.780 -0.1749 -0.6931  0.0341
 7316SOL    HW133581   0.260   1.084   2.714 -0.9106  0.1686 -0.8456
 7316SOL    HW233582   0.219   1.034   2.851 -0.5505 -0.0607  0.6990
 7317SOL     OW33583   1.604   4.233   1.353 -0.2133  0.3346  0.1539
 7317SOL    HW133584   1.631   4.272   1.436  0.5420 -1.4406  0.7518
 7317SOL    HW233585   1.626   4.304   1.293 -0.2028 -0.9014 -1.3080
 7318SOL     OW33586   4.459   4.574  10.123  0.0273  0.3249  0.4211
 7318SOL    HW133587   4.539   4.625  10.134 -0.4854  1.2979 -0.3477
 7318SOL    HW233588   4.435   4.589  10.215 -0.6357  1.9195 -0.0003
 7319SOL     OW33589   0.921   0.895  10.748 -0.1822 -0.5421 -0.1729
 7319SOL    HW133590   0.859   0.867  10.815 -0.7067 -0.8281 -0.7675
 7319SOL    HW233591   0.989   0.835  10.779  0.0113  0.2114  0.8216
 7320SOL     OW33592   2.165   3.818   5.228 -0.1338 -0.2297  0.1939
 7320SOL    HW133593   2.195   3.728   5.235 -1.9308 -0.7633  1.1032
 7320SOL    HW233594   2.219   3.854   5.298 -0.4679 -0.1255  0.3988
 7321SOL     OW33595   2.955   2.190   6.174  0.0201  0.5143 -0.6420
 7321SOL    HW133596   2.955   2.097   6.197 -1.5860  0.5754 -0.4051
 7321SOL    HW233597   2.929   2.236   6.254  2.4998  1.1282 -0.2002
 7322SOL     OW33598   3.762   0.417   6.062  0.1831 -0.1903  0.6161
 7322SOL    HW133599   3.765   0.352   6.132  1.7267  1.8621  2.4519
 7322SOL    HW233600   3.853   0.442   6.046  0.2245 -1.2233 -0.8118
 7323SOL     OW33601   1.723   0.065   8.163 -0.0574  0.2789 -0.0917
 7323SOL    HW133602   1.668   0.087   8.239 -2.6163  1.3804 -2.2453
 7323SOL    HW233603   1.757   0.150   8.134  0.5083 -0.2790 -1.0294
 7324SOL     OW33604   0.933   2.975  15.227  0.6665  0.0002 -0.2937
 7324SOL    HW133605   0.991   2.981  15.303  2.4836  0.4305 -1.7127
 7324SOL    HW233606   0.989   3.028  15.170 -0.6701 -0.3270 -1.8752
 7325SOL     OW33607   3.910   4.725   6.022  0.4187 -0.8272  0.0613
 7325SOL    HW133608   3.857   4.655   6.061  1.4674 -1.5916  0.0858
 7325SOL    HW233609   3.956   4.679   5.952 -0.7551  2.2038 -2.7040
 7326SOL     OW33610   1.795   1.205   0.170  0.5802 -0.5047  0.5880
 7326SOL    HW133611   1.721   1.161   0.130  2.2805 -1.4530 -1.5112
 7326SOL    HW233612   1.858   1.136   0.188  0.9260 -0.6724 -1.3107
 7327SOL     OW33613   3.960   2.564   7.244  0.3154 -0.2338 -0.0565
 7327SOL    HW133614   3.907   2.497   7.287  0.1901 -1.3735 -1.9581
 7327SOL    HW233615   3.913   2.647   7.254 -1.7223 -1.2592 -0.9870
 7328SOL     OW33616   4.074   1.591   8.163 -0.5279 -0.5040  0.2264
 7328SOL    HW133617   4.079   1.656   8.234  2.1825  1.5467 -1.8503
 7328SOL    HW233618   3.980   1.573   8.174 -0.8750  0.4946 -1.1819
 7329SOL     OW33619   0.507   0.052  14.310 -0.6435 -0.2288 -0.6285
 7329SOL    HW133620   0.499   0.100  14.228  2.4669 -1.6372 -1.7304
 7329SOL    HW233621   0.572   0.111  14.347 -1.4484 -0.8516  1.7912
 7330SOL     OW33622   1.899   4.166   2.379 -0.4583 -0.1054 -0.5400
 7330SOL    HW133623   1.929   4.162   2.288  1.6854  1.7334  0.1090
 7330SOL    HW233624   1.956   4.229   2.422 -0.0093  0.1846 -1.5685
 7331SOL     OW33625   3.253   0.770   7.307  0.3817  0.2108 -0.4636
 7331SOL    HW133626   3.262   0.708   7.380  2.3266  1.1431  0.0704
 7331SOL    HW233627   3.170   0.808   7.336  0.4342  0.6835 -0.9459
 7332SOL     OW33628   3.640   0.826   3.019  0.3184  0.3014 -0.5646
 7332SOL    HW133629   3.585   0.854   3.092 -0.9449  0.4893 -1.5871
 7332SOL    HW233630   3.715   0.793   3.068 -1.1989 -2.0487  0.1441
 7333SOL     OW33631   4.223   0.712   2.693 -0.0716  0.2384 -0.0440
 7333SOL    HW133632   4.160   0.743   2.627  1.3899  0.1434 -1.4651
 7333SOL    HW233633   4.307   0.749   2.666 -0.2477 -0.1235 -1.0864
 7334SOL     OW33634   1.398   1.693   9.183  0.2564 -0.2725  0.1752
 7334SOL    HW133635   1.486   1.724   9.159 -0.1740  0.3717 -0.6230
 7334SOL    HW233636   1.363   1.776   9.214  0.3136 -0.5274  0.9021
 7335SOL     OW33637   4.344   3.340  10.637 -0.6038 -0.2788  0.3061
 7335SOL    HW133638   4.364   3.263  10.585  0.9189 -0.4704  1.1501
 7335SOL    HW233639   4.399   3.410  10.601  0.3760 -2.4408 -2.3690
 7336SOL     OW33640   0.542   4.614   3.889 -0.6696 -0.0263  0.2911
 7336SOL    HW133641   0.573   4.639   3.976  0.0469 -2.2616  0.6959
 7336SOL    HW233642   0.620   4.565   3.862  0.4796  2.7453 -1.3475
 7337SOL     OW33643   1.612   0.717  13.202 -0.4362  0.5715 -0.2849
 7337SOL    HW133644   1.689   0.713  13.145 -1.1273  1.6560 -1.2837
 7337SOL    HW233645   1.642   0.689  13.289  0.1168 -2.3737 -1.4189
 7338SOL     OW33646   2.133   0.049  12.587 -0.2776  0.0778  0.5685
 7338SOL    HW133647   2.062   0.108  12.611 -0.4215 -0.0336  0.4227
 7338SOL    HW233648   2.142   0.011  12.674  1.0664  3.1818  1.7895
 7339SOL     OW33649   4.082   1.666   2.560 -0.2526  0.3630  0.3524
 7339SOL    HW133650   4.174   1.650   2.579 -0.1625 -0.6085 -0.9563
 7339SOL    HW233651   4.059   1.634   2.473 -3.8852  0.3766  1.3249
 7340SOL     OW33652   2.967   1.294   6.859  0.6648 -0.7198 -0.4114
 7340SOL    HW133653   2.902   1.358   6.885  2.4054  0.2407  1.5648
 7340SOL    HW233654   3.023   1.350   6.805  0.5233 -0.6575 -0.4938
 7341SOL     OW33655   4.557   2.850  14.220 -0.1547 -0.1048  0.1342
 7341SOL    HW133656   4.558   2.946  14.224  2.1760 -0.1077 -0.5189
 7341SOL    HW233657   4.465   2.840  14.194  0.6019 -2.1081 -1.8179
 7342SOL     OW33658   0.964   1.890   7.214 -0.6897 -0.0370  0.2961
 7342SOL    HW133659   0.944   1.845   7.132  0.2328 -1.6602  0.9569
 7342SOL    HW233660   0.999   1.815   7.262  0.3057 -1.5327 -2.8073
 7343SOL     OW33661   1.754   1.513   4.658  0.2449  0.4471 -0.3360
 7343SOL    HW133662   1.678   1.456   4.670  1.9271 -1.5054  1.0839
 7343SOL    HW233663   1.791   1.516   4.746  0.2273 -0.5238 -0.3017
 7344SOL     OW33664   0.525   4.013  16.122  0.2489  0.8668  0.3719
 7344SOL    HW133665   0.494   3.965  16.045 -1.1129  0.5409  1.1415
 7344SOL    HW233666   0.488   3.976  16.202 -0.7342  0.0977 -0.4426
 7345SOL     OW33667   4.256   2.389   9.654 -0.2506 -0.4954  0.4242
 7345SOL    HW133668   4.302   2.382   9.738  0.4299 -1.8079 -0.0738
 7345SOL    HW233669   4.273   2.303   9.617  0.3234  0.0325 -0.5310
 7346SOL     OW33670   2.223   0.185   4.416 -0.7565 -0.6580  0.2155
 7346SOL    HW133671   2.128   0.182   4.423 -0.9454 -0.4403 -2.2057
 7346SOL    HW233672   2.230   0.172   4.321 -1.1952  1.5862 -0.1241
 7347SOL     OW33673   4.385   2.740  13.848  0.6922 -0.3154 -0.0510
 7347SOL    HW133674   4.408   2.818  13.796 -0.8448  0.5432  0.5689
 7347SOL    HW233675   4.453   2.730  13.914  0.6780  1.1829  0.2017
 7348SOL     OW33676   4.539   2.237  16.280  0.0319 -0.0378  0.4552
 7348SOL    HW133677   4.541   2.331  16.263 -1.0646  0.2128  1.7180
 7348SOL    HW233678   4.629   2.210  16.298  0.3980  0.6227 -0.4089
 7349SOL     OW33679   3.146   2.046  11.182  0.1777  0.0406  0.5425
 7349SOL    HW133680   3.162   2.130  11.138 -0.2681 -1.2386 -2.0810
 7349SOL    HW233681   3.063   2.066  11.224 -0.3892 -1.3056  0.0438
 7350SOL     OW33682   0.239   1.205  17.497 -0.2291  0.3927  0.3036
 7350SOL    HW133683   0.163   1.211  17.555 -0.8707 -0.1601 -0.4712
 7350SOL    HW233684   0.280   1.122  17.520 -0.5657  0.1166 -0.0858
 7351SOL     OW33685   2.918   1.065  15.342 -0.4714 -0.1113 -0.1703
 7351SOL    HW133686   2.911   1.073  15.437  0.4070  1.0199 -0.2000
 7351SOL    HW233687   2.853   1.128  15.311 -0.2970 -0.4063 -1.1155
 7352SOL     OW33688   2.100   0.817   1.815 -0.4524 -0.2598 -0.6823
 7352SOL    HW133689   2.112   0.912   1.822 -0.5891 -0.2810 -0.2121
 7352SOL    HW233690   2.070   0.797   1.903 -2.3577 -0.0507 -1.2874
 7353SOL     OW33691   4.361   4.447   3.014 -0.1541 -0.1853  0.0995
 7353SOL    HW133692   4.323   4.463   3.101  3.4540  1.9695  1.2852
 7353SOL    HW233693   4.361   4.351   3.006  1.0852 -0.1799  0.0374
 7354SOL     OW33694   0.591   3.317  12.757  0.3566  0.1187 -0.0975
 7354SOL    HW133695   0.520   3.261  12.790  1.4894 -1.6265 -0.6598
 7354SOL    HW233696   0.603   3.370  12.836 -0.1109 -0.2901  0.2490
 7355SOL     OW33697   3.988   3.673   9.247  0.3872 -0.3721 -0.3775
 7355SOL    HW133698   4.074   3.688   9.286 -0.0282 -1.4040  0.8965
 7355SOL    HW233699   3.976   3.767   9.235  2.1606  0.0132  0.8856
 7356SOL     OW33700   1.039   0.837   1.073 -0.4041  0.2087 -0.5170
 7356SOL    HW133701   0.988   0.762   1.041  2.6732 -2.6567  1.2055
 7356SOL    HW233702   1.106   0.839   1.004  0.4898  0.8499  0.3649
 7357SOL     OW33703   2.386   1.237  13.226 -0.4892  0.3151 -0.1680
 7357SOL    HW133704   2.361   1.235  13.318  2.5645  0.8339  0.6681
 7357SOL    HW233705   2.322   1.190  13.172 -1.5786  1.3022  0.2663
 7358SOL     OW33706   3.780   4.027   3.329 -0.0184  0.0792  0.4295
 7358SOL    HW133707   3.839   4.004   3.258 -0.4546 -3.8496  1.3521
 7358SOL    HW233708   3.696   3.986   3.306 -0.4165  0.8778  0.4454
 7359SOL     OW33709   4.205   0.703   2.977  0.5937  0.4683  0.0173
 7359SOL    HW133710   4.294   0.671   2.993  0.3656  1.2539  2.7289
 7359SOL    HW233711   4.198   0.719   2.883  0.7366 -0.0231 -0.0752
 7360SOL     OW33712   0.131   3.028   6.939 -0.2487 -0.0998 -0.6678
 7360SOL    HW133713   0.166   2.999   6.855 -3.6604 -2.2572 -1.3651
 7360SOL    HW233714   0.079   3.104   6.913 -0.8897 -0.9585 -1.9385
 7361SOL     OW33715   2.478   2.622   8.109  0.1788  0.0339  0.1286
 7361SOL    HW133716   2.518   2.552   8.057  0.1524  1.2051 -1.4770
 7361SOL    HW233717   2.548   2.645   8.169  0.1355  1.7827 -0.4946
 7362SOL     OW33718   0.391   2.859   8.990  0.5127  0.0941  0.2610
 7362SOL    HW133719   0.445   2.794   9.036 -0.8784 -1.1009  0.2036
 7362SOL    HW233720   0.329   2.863   9.063 -0.3395  1.3190 -0.5431
 7363SOL     OW33721   3.532   3.490   3.390  0.6016 -0.3623 -0.3768
 7363SOL    HW133722   3.456   3.434   3.400  1.2758 -1.1002  0.6049
 7363SOL    HW233723   3.576   3.466   3.309  0.0493 -2.2940 -0.0902
 7364SOL     OW33724   4.629   3.224   6.521  0.0362 -0.4876 -0.1431
 7364SOL    HW133725   4.614   3.316   6.500 -0.6861 -0.5331  0.1571
 7364SOL    HW233726   4.548   3.185   6.488  1.1124 -1.9537 -1.0559
 7365SOL     OW33727   1.127   4.377   2.128  0.0232 -0.3444 -0.2604
 7365SOL    HW133728   1.041   4.394   2.090 -0.2244  1.0683  0.9037
 7365SOL    HW233729   1.171   4.460   2.144 -0.0563 -0.4146  0.3235
 7366SOL     OW33730   1.116   4.733   1.630  0.4409  0.2428  0.0334
 7366SOL    HW133731   1.144   0.032   1.546  0.9134  1.0115  0.5088
 7366SOL    HW233732   1.032   4.689   1.620  0.8397 -0.7707  1.1920
 7367SOL     OW33733   0.491   4.542   2.362 -0.0599  0.4918 -0.1000
 7367SOL    HW133734   0.400   4.530   2.390  0.5685 -2.1237  0.7671
 7367SOL    HW233735   0.535   4.581   2.438  2.4423 -1.9377 -0.3121
 7368SOL     OW33736   3.947   3.066   6.280  0.2809  0.0153 -0.2344
 7368SOL    HW133737   3.967   2.981   6.240 -2.3975 -0.9553  0.4534
 7368SOL    HW233738   3.874   3.093   6.224  0.1775  0.1949 -0.0131
 7369SOL     OW33739   1.747   3.636   4.001 -0.4609  0.1779 -0.5028
 7369SOL    HW133740   1.703   3.691   4.066  1.2031  1.0170 -0.0875
 7369SOL    HW233741   1.783   3.704   3.946 -1.2456  1.3880  0.4705
 7370SOL     OW33742   0.574   2.040   2.055  0.5159  0.0449 -0.0692
 7370SOL    HW133743   0.494   2.042   2.106  0.0130 -0.7075 -0.8290
 7370SOL    HW233744   0.593   2.134   2.056  0.0767  0.0933  2.5692
 7371SOL     OW33745   2.076   3.296  10.314 -0.1222  0.1357  0.1261
 7371SOL    HW133746   2.053   3.205  10.330  0.8504  0.1213  1.4640
 7371SOL    HW233747   2.005   3.347  10.355  0.6005  0.3760  1.0800
 7372SOL     OW33748   1.344   4.242   7.009  0.9718 -0.0891  0.2892
 7372SOL    HW133749   1.251   4.240   7.032  0.8901 -1.6778 -0.1994
 7372SOL    HW233750   1.372   4.172   7.067 -0.5148  1.4756  2.9267
 7373SOL     OW33751   2.769   1.730   3.125 -0.4627 -0.2195 -0.1812
 7373SOL    HW133752   2.749   1.691   3.040  0.9731  0.1139 -0.6698
 7373SOL    HW233753   2.861   1.706   3.136  0.0262  1.7146 -0.1440
 7374SOL     OW33754   2.593   2.957   9.459 -0.2302 -0.2449 -0.1225
 7374SOL    HW133755   2.664   3.004   9.502 -2.9030  1.8915  1.8815
 7374SOL    HW233756   2.611   2.987   9.370  1.0630 -0.2792  0.1257
 7375SOL     OW33757   3.311   4.064   3.310  0.2167 -0.0273  0.1704
 7375SOL    HW133758   3.219   4.084   3.294  0.5739  2.2472  0.9157
 7375SOL    HW233759   3.332   4.142   3.362  1.9458 -0.6616  0.4462
 7376SOL     OW33760   4.197   2.443   7.237 -0.1456 -0.3970 -0.4479
 7376SOL    HW133761   4.112   2.483   7.255 -1.1954 -2.3500 -1.1121
 7376SOL    HW233762   4.249   2.522   7.250 -1.6230  0.3073  1.0632
 7377SOL     OW33763   3.059   2.373  10.763 -0.5321  0.2461 -0.1561
 7377SOL    HW133764   2.973   2.397  10.728 -0.6655 -0.4485 -0.3104
 7377SOL    HW233765   3.115   2.439  10.722 -0.9514 -0.1068 -1.2899
 7378SOL     OW33766   1.644   1.455  10.247  0.7617 -0.5572  0.0965
 7378SOL    HW133767   1.566   1.505  10.223  1.4811  0.1611 -0.7280
 7378SOL    HW233768   1.660   1.505  10.327 -0.5938  0.1859 -0.1044
 7379SOL     OW33769   0.592   0.811   5.246  0.5035 -0.0395 -0.2554
 7379SOL    HW133770   0.519   0.781   5.301  3.4276 -1.9253  2.5737
 7379SOL    HW233771   0.545   0.818   5.163 -4.0715 -3.4651  2.0307
 7380SOL     OW33772   0.105   0.405   8.768 -0.0564  0.8059  0.4859
 7380SOL    HW133773   0.030   0.463   8.755 -0.1084  1.3351  3.1596
 7380SOL    HW233774   0.069   0.317   8.777 -0.4001  0.8306 -0.6748
 7381SOL     OW33775   0.053   4.350  16.857 -0.0832 -0.4340 -0.4686
 7381SOL    HW133776   0.118   4.297  16.902 -1.4615 -1.2535  0.5797
 7381SOL    HW233777   0.082   4.441  16.867 -2.7921  0.3466  0.6046
 7382SOL     OW33778   1.520   1.694   1.461 -0.0224 -0.2501 -0.1078
 7382SOL    HW133779   1.580   1.626   1.492  2.8454  2.1049 -0.5138
 7382SOL    HW233780   1.441   1.675   1.511 -1.1684  1.3509 -1.2952
 7383SOL     OW33781   2.950   3.714   8.701  0.5020 -0.0683 -0.6945
 7383SOL    HW133782   3.025   3.654   8.701  1.2346  0.8274  0.3116
 7383SOL    HW233783   2.946   3.757   8.616 -1.1716  2.5582  0.7120
 7384SOL     OW33784   1.866   4.017   5.238  0.6400 -0.5298 -0.5516
 7384SOL    HW133785   1.942   4.074   5.249  0.7870 -0.7506 -0.4159
 7384SOL    HW233786   1.854   4.023   5.144  1.1198  1.0619 -0.4934
 7385SOL     OW33787   3.366   0.025  15.768 -0.1974 -0.0362 -0.0659
 7385SOL    HW133788   3.385   0.069  15.851  0.1684  1.3948 -0.8980
 7385SOL    HW233789   3.294   0.080  15.739  0.0337 -0.4826 -1.4874
 7386SOL     OW33790   1.342   1.466   8.426  0.0944  0.2719  0.2563
 7386SOL    HW133791   1.298   1.454   8.511  3.1967 -4.1892  1.2551
 7386SOL    HW233792   1.386   1.383   8.410 -2.2891 -1.2205  1.3847
 7387SOL     OW33793   2.517   1.140   9.418 -0.2371  0.2303  0.1039
 7387SOL    HW133794   2.577   1.080   9.463 -0.3018 -0.5937 -0.8934
 7387SOL    HW233795   2.454   1.074   9.390 -1.2537  0.2184  2.4702
 7388SOL     OW33796   3.254   0.168   4.932  0.0689 -0.0052 -0.1925
 7388SOL    HW133797   3.305   0.236   4.975 -0.5454 -0.8077  1.7744
 7388SOL    HW233798   3.169   0.212   4.941 -0.8522 -1.6854 -0.6911
 7389SOL     OW33799   4.263   3.164   5.762 -0.6546 -0.1740 -0.0480
 7389SOL    HW133800   4.212   3.146   5.841 -0.4522  1.5278  0.4697
 7389SOL    HW233801   4.244   3.086   5.709 -0.9581  0.5237 -0.9605
 7390SOL     OW33802   4.242   3.209   3.451  0.2820  0.4629 -0.5485
 7390SOL    HW133803   4.147   3.213   3.436  0.1491 -0.3247  0.0477
 7390SOL    HW233804   4.270   3.298   3.469 -0.3730  0.3354  1.1218
 7391SOL     OW33805   1.547   1.954   2.635  0.5494 -0.3244 -0.5876
 7391SOL    HW133806   1.554   2.035   2.685 -2.6081 -1.3238  1.4811
 7391SOL    HW233807   1.626   1.963   2.581 -0.4581 -2.1872 -2.3753
 7392SOL     OW33808   2.434   4.382  11.972 -0.3469  0.0086 -0.2039
 7392SOL    HW133809   2.503   4.408  11.911 -2.0885  2.2699 -1.1945
 7392SOL    HW233810   2.377   4.459  11.972 -0.9067 -0.4150  0.6976
 7393SOL     OW33811   3.153   3.240   1.384  0.3681  0.4325  0.6814
 7393SOL    HW133812   3.132   3.246   1.291  0.5671 -0.1112  0.6037
 7393SOL    HW233813   3.068   3.212   1.417  0.1716 -0.0502 -0.2273
 7394SOL     OW33814   1.146   0.765   6.378 -0.2879  0.2435 -0.1922
 7394SOL    HW133815   1.167   0.857   6.394  2.6554 -0.1105 -1.8974
 7394SOL    HW233816   1.159   0.758   6.283 -1.0011 -0.9294 -0.1998
 7395SOL     OW33817   2.551   2.577   2.353 -0.4052 -0.4190 -0.4740
 7395SOL    HW133818   2.639   2.550   2.379 -0.5783 -0.8752 -0.3555
 7395SOL    HW233819   2.554   2.672   2.361  2.6219 -0.5395 -0.3385
 7396SOL     OW33820   1.967   3.559   9.172 -0.1676  0.4595 -0.4520
 7396SOL    HW133821   1.973   3.653   9.155  0.8569  0.4619 -0.0588
 7396SOL    HW233822   1.882   3.525   9.142  0.3223  0.3685 -1.7590
 7397SOL     OW33823   3.312   2.919  16.574  0.1566  0.2273  0.2183
 7397SOL    HW133824   3.294   2.990  16.635 -1.0949  0.0084  0.0956
 7397SOL    HW233825   3.280   2.948  16.489  0.9448 -0.5021 -0.3306
 7398SOL     OW33826   1.521   3.332   7.148 -0.0637 -0.2923  0.2431
 7398SOL    HW133827   1.428   3.351   7.162  0.1254  2.2162 -1.8220
 7398SOL    HW233828   1.524   3.354   7.055 -1.1477 -1.5076 -0.0841
 7399SOL     OW33829   1.031   0.402   3.302  0.0401  0.3005  0.5720
 7399SOL    HW133830   1.104   0.427   3.358  1.3042 -0.6163 -0.6841
 7399SOL    HW233831   1.063   0.323   3.259 -0.3816  0.2100  0.4175
 7400SOL     OW33832   3.433   1.671   3.730  0.2423 -0.2891 -0.7111
 7400SOL    HW133833   3.463   1.636   3.646 -0.4639  1.6377 -1.7769
 7400SOL    HW233834   3.362   1.616   3.763 -0.9000  2.2907  1.1493
 7401SOL     OW33835   4.193   3.449   2.174  0.4055  0.5002 -0.4221
 7401SOL    HW133836   4.201   3.535   2.216 -2.3424  1.1404 -1.2004
 7401SOL    HW233837   4.182   3.477   2.083 -2.0968 -0.2164 -0.3441
 7402SOL     OW33838   0.502   2.772   0.623  0.9824  0.0391  0.0239
 7402SOL    HW133839   0.521   2.741   0.534 -3.6574 -0.8238 -0.6771
 7402SOL    HW233840   0.519   2.865   0.608  2.4679 -0.5746 -2.1924
 7403SOL     OW33841   0.949   3.564   6.145  0.2776  0.5651 -0.2921
 7403SOL    HW133842   0.955   3.653   6.111  1.7307  0.8499  0.7043
 7403SOL    HW233843   1.014   3.563   6.216  0.8656 -1.7829 -0.8599
 7404SOL     OW33844   4.562   2.177   2.226  0.4976 -0.5551  0.4880
 7404SOL    HW133845   4.545   2.271   2.224 -1.2218 -0.7927  3.1425
 7404SOL    HW233846   4.582   2.165   2.319  1.3074 -1.5676  0.1790
 7405SOL     OW33847   3.419   0.373  12.130  0.4629  0.6748  0.2259
 7405SOL    HW133848   3.458   0.286  12.126  0.2916  0.6259 -0.4346
 7405SOL    HW233849   3.369   0.366  12.211 -0.6201 -2.9045 -0.7524
 7406SOL     OW33850   2.562   4.501   7.985 -0.2874  0.3586  0.2100
 7406SOL    HW133851   2.635   4.472   7.930 -2.5129 -3.4136 -0.7838
 7406SOL    HW233852   2.489   4.500   7.924 -0.0376  1.0082 -0.1014
 7407SOL     OW33853   4.426   1.464  13.410 -0.1607 -0.8403  0.2389
 7407SOL    HW133854   4.394   1.392  13.465  1.7631 -2.7965 -1.2084
 7407SOL    HW233855   4.518   1.442  13.398 -0.3789 -2.0090  0.7075
 7408SOL     OW33856   0.148   0.145  16.756 -0.3032 -0.2715 -0.3544
 7408SOL    HW133857   0.064   0.102  16.741  1.1169 -3.2902  0.4794
 7408SOL    HW233858   0.122   0.205  16.826  0.4879  1.4243 -1.4907
 7409SOL     OW33859   3.525   0.221  11.750 -0.2040  0.1304 -0.2606
 7409SOL    HW133860   3.473   0.286  11.702  0.7379  2.1911  1.5158
 7409SOL    HW233861   3.614   0.249  11.730 -0.3716 -0.0203 -1.2633
 7410SOL     OW33862   4.474   0.045   7.408  0.4718  0.2944 -0.8591
 7410SOL    HW133863   4.443   0.130   7.377  0.1656  0.0718 -1.1623
 7410SOL    HW233864   4.442   4.726   7.337  0.5492  2.2880 -2.4424
 7411SOL     OW33865   2.338   0.651   1.922  0.1316  0.0694  0.5549
 7411SOL    HW133866   2.367   0.640   1.831  0.5588 -0.5161  0.7673
 7411SOL    HW233867   2.248   0.679   1.907  0.2497 -0.2465 -0.7528
 7412SOL     OW33868   2.961   4.639   5.794  0.3269 -0.0426  0.1897
 7412SOL    HW133869   2.941   4.681   5.878  0.7362  1.3373 -0.3935
 7412SOL    HW233870   2.908   4.697   5.738  0.3318 -1.7435 -1.5831
 7413SOL     OW33871   4.591   4.025   2.787 -0.2223 -0.6591  0.2282
 7413SOL    HW133872   4.629   4.113   2.787 -1.1981 -0.2386 -1.3190
 7413SOL    HW233873   4.583   4.007   2.693 -1.3510  2.2963 -0.2311
 7414SOL     OW33874   4.442   0.809   2.154  0.2234 -0.0645  0.0556
 7414SOL    HW133875   4.514   0.748   2.140 -1.0984 -1.2532 -1.4854
 7414SOL    HW233876   4.472   0.857   2.231  0.5887 -0.6609  0.2841
 7415SOL     OW33877   4.220   2.307  14.611 -0.1680 -0.2713 -0.5573
 7415SOL    HW133878   4.157   2.375  14.588  0.1839 -0.1244 -1.0789
 7415SOL    HW233879   4.260   2.349  14.687  3.3789 -1.3247 -1.8401
 7416SOL     OW33880   2.905   2.092   3.625 -0.0494 -0.2034 -0.0588
 7416SOL    HW133881   2.986   2.093   3.676  0.7208  2.2020 -1.3268
 7416SOL    HW233882   2.947   2.060   3.545 -0.0167  1.6345 -0.7625
 7417SOL     OW33883   2.767   0.400   0.081 -0.7424 -0.1853  0.2720
 7417SOL    HW133884   2.807   0.316   0.104 -1.2575 -0.0453  1.7282
 7417SOL    HW233885   2.712   0.385   0.004 -0.7433  3.1744 -0.3875
 7418SOL     OW33886   3.147   2.153   7.908  0.1869 -0.5096  0.1749
 7418SOL    HW133887   3.070   2.105   7.877 -0.6356  0.4193  0.7623
 7418SOL    HW233888   3.139   2.167   8.002  1.0421  2.5602 -0.2003
 7419SOL     OW33889   1.126   1.927  16.101  0.4398  0.2717 -0.0810
 7419SOL    HW133890   1.182   1.891  16.170 -1.5872  0.3130  1.6086
 7419SOL    HW233891   1.075   1.996  16.145 -0.4729 -0.3700 -0.1278
 7420SOL     OW33892   1.470   1.733   5.181  0.2590 -0.1722 -0.7707
 7420SOL    HW133893   1.494   1.652   5.136 -0.8630 -0.6069 -0.6036
 7420SOL    HW233894   1.514   1.718   5.264  3.3953  2.0665 -2.0417
 7421SOL     OW33895   0.718   2.018  16.989  0.3201 -0.0194 -0.1049
 7421SOL    HW133896   0.624   2.036  16.989  0.7254  2.1240  1.5886
 7421SOL    HW233897   0.725   1.945  16.927 -0.4153 -0.0470 -0.1611
 7422SOL     OW33898   3.621   3.526   3.671 -0.2667  0.3813 -0.2526
 7422SOL    HW133899   3.534   3.564   3.680 -0.5396  0.0241 -1.3146
 7422SOL    HW233900   3.616   3.523   3.575  1.0086 -0.5961 -0.2951
 7423SOL     OW33901   1.042   0.884   8.602 -0.0533 -0.1595  0.1438
 7423SOL    HW133902   1.063   0.948   8.534 -3.1340 -0.7682 -1.3785
 7423SOL    HW233903   1.112   0.909   8.662 -0.9368  1.9115  0.3242
 7424SOL     OW33904   4.333   2.592  14.628  0.0877 -0.0910 -0.8610
 7424SOL    HW133905   4.239   2.604  14.614 -0.0544 -1.9222 -1.4683
 7424SOL    HW233906   4.325   2.529  14.700 -1.8009  0.4093 -0.6436
 7425SOL     OW33907   0.547   0.319   5.001  0.1524 -0.4430  0.0088
 7425SOL    HW133908   0.619   0.382   4.992  1.5143 -2.1121 -0.6315
 7425SOL    HW233909   0.553   0.303   5.095  2.8871 -2.4906 -0.5354
 7426SOL     OW33910   3.554   2.566   2.330  0.0010  0.0000 -0.0493
 7426SOL    HW133911   3.644   2.577   2.360  0.5509 -2.8109 -0.6571
 7426SOL    HW233912   3.507   2.567   2.413 -0.7786 -0.8137 -0.4804
 7427SOL     OW33913   4.711   4.456  13.344  0.1714 -0.7182 -0.3909
 7427SOL    HW133914   4.662   4.529  13.306  2.9981  2.7032  2.4829
 7427SOL    HW233915   4.692   4.463  13.438  0.3182  3.1433 -0.6252
 7428SOL     OW33916   4.051   1.137   1.344 -0.2995 -0.2067  0.1140
 7428SOL    HW133917   4.077   1.218   1.388  0.2775 -1.7259  2.5938
 7428SOL    HW233918   3.966   1.165   1.309  0.5112  0.5740 -1.1865
 7429SOL     OW33919   0.661   4.589   4.228 -0.5923  0.8217  0.4720
 7429SOL    HW133920   0.685   4.505   4.189 -2.0848  0.8161 -0.4316
 7429SOL    HW233921   0.671   4.573   4.322 -2.5869 -1.1690  0.3409
 7430SOL     OW33922   1.573   1.943   6.377 -0.6533  0.5749 -0.0869
 7430SOL    HW133923   1.568   1.996   6.456 -0.4131  0.5722 -0.0697
 7430SOL    HW233924   1.529   2.000   6.315 -0.8314  0.6929  0.1506
 7431SOL     OW33925   0.803   2.642   7.499 -0.4425  0.9632  0.0432
 7431SOL    HW133926   0.718   2.610   7.527 -0.1043  0.3984  0.4111
 7431SOL    HW233927   0.850   2.581   7.555  1.0652  1.8609 -0.2324
 7432SOL     OW33928   1.983   2.053   7.397 -0.2563  0.4055 -0.0635
 7432SOL    HW133929   2.015   2.024   7.482  2.2702  0.7378 -0.8723
 7432SOL    HW233930   1.942   1.974   7.361 -0.3078  0.8153 -0.9207
 7433SOL     OW33931   1.828   2.578   6.351 -0.0349  0.3459 -0.3629
 7433SOL    HW133932   1.753   2.615   6.397  0.1761  0.2057  0.0886
 7433SOL    HW233933   1.822   2.612   6.262 -0.3657 -1.7362 -1.1491
 7434SOL     OW33934   4.336   0.905   3.754  0.7511 -0.1535 -0.2084
 7434SOL    HW133935   4.325   0.915   3.849  1.8415 -0.9992  0.0120
 7434SOL    HW233936   4.246   0.886   3.729  0.2859  2.6155 -0.6817
 7435SOL     OW33937   1.484   3.175   7.677 -0.0481 -0.0747  0.6897
 7435SOL    HW133938   1.486   3.175   7.582  0.0090  1.1288  0.6850
 7435SOL    HW233939   1.399   3.215   7.693 -0.6939  0.1801 -3.5629
 7436SOL     OW33940   1.219   0.981   5.036 -0.0928  0.2378  0.0406
 7436SOL    HW133941   1.222   1.077   5.029  2.0371  0.1630  0.1996
 7436SOL    HW233942   1.303   0.971   5.080  0.9624  1.4202 -1.6842
 7437SOL     OW33943   2.814   4.127   1.684  0.3481  0.3453  0.5014
 7437SOL    HW133944   2.851   4.090   1.603 -0.4716  1.1191 -0.2176
 7437SOL    HW233945   2.728   4.086   1.691  0.2268  0.9218  2.3415
 7438SOL     OW33946   3.164   2.476   2.682 -0.1506 -0.9401 -0.2767
 7438SOL    HW133947   3.124   2.549   2.635  0.6598 -0.2003  0.1688
 7438SOL    HW233948   3.088   2.448   2.733  0.3279  0.1656  1.0660
 7439SOL     OW33949   2.295   2.720  17.317 -0.5753 -0.0042  0.0105
 7439SOL    HW133950   2.374   2.743  17.366  0.6787 -4.1371 -0.0086
 7439SOL    HW233951   2.251   2.662  17.379 -0.2423 -0.8638 -0.5483
 7440SOL     OW33952   1.888   0.585   7.554 -0.1251  0.1013 -0.3645
 7440SOL    HW133953   1.851   0.498   7.546  0.0214 -0.1955  1.9808
 7440SOL    HW233954   1.857   0.608   7.642  2.2081 -1.1875  0.8198
 7441SOL     OW33955   0.198   2.552   8.595 -0.2935  0.0408  0.1601
 7441SOL    HW133956   0.128   2.533   8.657  0.5340 -3.3825  0.0325
 7441SOL    HW233957   0.203   2.471   8.545 -2.1595 -0.6651  1.1304
 7442SOL     OW33958   3.756   3.768   6.600  0.2510 -0.2515  0.2376
 7442SOL    HW133959   3.801   3.762   6.516 -1.2569 -0.0935 -0.5714
 7442SOL    HW233960   3.822   3.734   6.660 -1.1292 -1.1673  1.2479
 7443SOL     OW33961   3.826   3.890   7.134  0.3012  0.5144 -0.6661
 7443SOL    HW133962   3.870   3.971   7.158  0.7351 -0.2502  1.1214
 7443SOL    HW233963   3.887   3.858   7.067  0.1799 -2.4007  0.6088
 7444SOL     OW33964   1.595   1.874  14.410 -0.5030  0.4937  0.0401
 7444SOL    HW133965   1.553   1.940  14.356 -1.7543 -1.3049 -1.1759
 7444SOL    HW233966   1.644   1.824  14.345  1.2736 -1.4573  2.8845
 7445SOL     OW33967   0.907   1.788   6.945  0.1232 -0.5006  0.7466
 7445SOL    HW133968   0.940   1.796   6.855 -0.9965 -0.1395  0.3639
 7445SOL    HW233969   0.813   1.806   6.936  0.4649  0.9017 -0.1778
 7446SOL     OW33970   3.152   2.638  16.647  0.0291  0.2728 -0.1812
 7446SOL    HW133971   3.122   2.695  16.718  0.4540 -0.3813  0.5250
 7446SOL    HW233972   3.184   2.707  16.589  0.5603 -0.4778 -0.7759
 7447SOL     OW33973   0.908   3.579   7.310 -0.1261  0.2233  0.1377
 7447SOL    HW133974   0.978   3.557   7.249  0.8866 -0.6032  1.5861
 7447SOL    HW233975   0.927   3.526   7.388  0.0010 -0.7995 -0.5850
 7448SOL     OW33976   0.727   2.938  15.935  0.3925 -0.1200 -0.1910
 7448SOL    HW133977   0.646   2.982  15.911  0.3052 -0.1402  0.0699
 7448SOL    HW233978   0.776   2.949  15.853  1.5686 -1.4361  0.3259
 7449SOL     OW33979   1.483   3.287   9.100  0.1841 -0.1079  0.3074
 7449SOL    HW133980   1.423   3.235   9.046 -0.2738  1.0658 -0.3243
 7449SOL    HW233981   1.436   3.276   9.183  0.5031 -0.0307  0.4963
 7450SOL     OW33982   3.499   0.652  12.628 -0.4961  0.5084 -0.8384
 7450SOL    HW133983   3.462   0.699  12.554 -0.6961  0.7816 -0.5675
 7450SOL    HW233984   3.458   0.568  12.609  0.8078 -1.3864  4.5220
 7451SOL     OW33985   2.842   1.833   6.027 -0.1329  0.2798  0.0942
 7451SOL    HW133986   2.874   1.878   6.106 -0.2318  0.1415  0.2145
 7451SOL    HW233987   2.923   1.788   6.002  0.1857  1.3034 -0.7036
 7452SOL     OW33988   2.095   0.462  10.483  0.1351  0.6611 -0.0802
 7452SOL    HW133989   2.171   0.443  10.428  2.0959 -0.2315  2.9624
 7452SOL    HW233990   2.112   0.555  10.494 -0.1728  0.8772 -1.3909
 7453SOL     OW33991   1.361   3.248   6.786  0.2619 -0.7602 -0.3326
 7453SOL    HW133992   1.271   3.229   6.759  0.3178 -1.7177  0.1804
 7453SOL    HW233993   1.399   3.252   6.698  2.2234 -0.1488  0.5405
 7454SOL     OW33994   3.243   4.061  14.238 -0.3617  0.2787 -0.1578
 7454SOL    HW133995   3.314   3.997  14.241 -0.0206  0.6333 -0.6945
 7454SOL    HW233996   3.184   4.025  14.305  0.5485 -0.2233  0.3816
 7455SOL     OW33997   4.434   4.642  10.415  0.1480  0.3363 -0.5183
 7455SOL    HW133998   4.479   4.600  10.489 -0.1546  2.8955  1.1020
 7455SOL    HW233999   4.352   4.676  10.451 -0.3037 -3.0457  1.6383
 7456SOL     OW34000   4.041   3.579   6.182  0.4268 -0.2052  0.1610
 7456SOL    HW134001   4.080   3.667   6.188 -0.3629  0.1043  0.7338
 7456SOL    HW234002   4.070   3.552   6.095  0.3756  1.5849 -0.4184
 7457SOL     OW34003   1.975   1.002   4.143 -0.0336 -0.7767 -0.0317
 7457SOL    HW134004   1.927   1.061   4.085  3.2359  0.8791 -1.0869
 7457SOL    HW234005   2.001   1.045   4.224  0.4115  1.0948 -1.1767
 7458SOL     OW34006   3.238   1.760  13.039 -0.7922  0.4885  0.3051
 7458SOL    HW134007   3.169   1.826  13.053  1.3243  2.0221  3.4192
 7458SOL    HW234008   3.287   1.757  13.121  0.0933  0.1292 -0.2432
 7459SOL     OW34009   2.597   4.360   7.199  0.1219 -0.5008 -0.0160
 7459SOL    HW134010   2.683   4.331   7.172  0.3020  0.7167 -0.7628
 7459SOL    HW234011   2.603   4.445   7.155  1.9046 -0.8252 -0.3760
 7460SOL     OW34012   1.843   0.575   7.099  0.2166  0.3479 -0.2260
 7460SOL    HW134013   1.923   0.595   7.148  0.5226  2.6505 -1.6688
 7460SOL    HW234014   1.840   0.481   7.116  1.1890  0.3053 -0.2529
 7461SOL     OW34015   3.331   1.833   2.622 -0.1428 -0.1221 -0.1865
 7461SOL    HW134016   3.236   1.835   2.635 -0.0495 -0.1841  0.5385
 7461SOL    HW234017   3.340   1.877   2.538 -1.6048 -0.8106 -0.6963
 7462SOL     OW34018   0.639   0.986  15.668 -0.4852  0.5302 -0.2076
 7462SOL    HW134019   0.660   0.893  15.669 -0.9224  0.4452  0.7920
 7462SOL    HW234020   0.575   0.984  15.739  0.2832 -2.6536  0.3704
 7463SOL     OW34021   1.677   0.696  16.930  0.7302 -0.1369 -0.3509
 7463SOL    HW134022   1.718   0.635  16.869  1.1392  1.1368 -1.3525
 7463SOL    HW234023   1.598   0.725  16.883  0.1838 -0.6787  0.2215
 7464SOL     OW34024   4.590   1.216   7.249 -0.7343  0.5769 -0.0189
 7464SOL    HW134025   4.615   1.216   7.157  2.6612  0.7903  0.8944
 7464SOL    HW234026   4.505   1.173   7.250  0.0697 -1.0341 -0.3745
 7465SOL     OW34027   0.123   3.277   6.236  0.7789 -0.0080  0.3942
 7465SOL    HW134028   0.148   3.214   6.168  2.1931  0.8419  0.1078
 7465SOL    HW234029   0.203   3.330   6.239  1.1592 -0.6233  1.1114
 7466SOL     OW34030   3.964   2.871   6.084  0.0861  0.6231 -0.5776
 7466SOL    HW134031   4.009   2.825   6.012 -1.2748  0.5604 -1.3816
 7466SOL    HW234032   3.897   2.917   6.035 -2.1457 -0.9066  1.0307
 7467SOL     OW34033   2.731   4.683  13.316  0.7244  0.0524  0.5355
 7467SOL    HW134034   2.816   4.724  13.300  0.4284  0.2118 -0.6396
 7467SOL    HW234035   2.732   4.710  13.408  2.9701 -0.2168  0.5764
 7468SOL     OW34036   4.626   4.042   4.526 -0.0892 -0.1827  0.0040
 7468SOL    HW134037   4.634   4.044   4.621 -0.2506 -0.4952  0.0236
 7468SOL    HW234038   4.532   4.051   4.507  0.6971  3.5342 -2.0465
 7469SOL     OW34039   0.179   0.673   8.596 -0.1211 -0.1369 -0.5765
 7469SOL    HW134040   0.181   0.760   8.554  0.0118  0.6798  1.1278
 7469SOL    HW234041   0.147   0.705   8.680  0.9401  2.2206 -1.0656
 7470SOL     OW34042   1.929   2.798   2.202  0.3117 -0.0966  0.5449
 7470SOL    HW134043   1.970   2.868   2.253 -0.9632  0.6887  0.4646
 7470SOL    HW234044   1.883   2.758   2.275  0.3247  0.4070  0.8269
 7471SOL     OW34045   0.189   4.371   7.025  0.1859 -0.5576  1.0664
 7471SOL    HW134046   0.166   4.351   6.934  2.2226 -0.8097  0.6151
 7471SOL    HW234047   0.235   4.454   7.012 -0.5415 -0.5651 -1.5825
 7472SOL     OW34048   3.100   1.125  14.298  0.0059 -0.3060  0.3344
 7472SOL    HW134049   3.034   1.057  14.302 -0.5628  0.2959  1.2363
 7472SOL    HW234050   3.104   1.170  14.383 -0.3212 -2.1549  1.3127
 7473SOL     OW34051   3.519   4.453   4.889 -0.2972  0.0983  0.1520
 7473SOL    HW134052   3.514   4.506   4.969 -1.3690  0.6868 -0.3149
 7473SOL    HW234053   3.463   4.504   4.832 -2.1150 -0.8912  1.0416
 7474SOL     OW34054   3.970   3.491   3.992  0.5384  0.0481 -0.3645
 7474SOL    HW134055   3.884   3.526   3.971  1.2526  0.8181 -2.0329
 7474SOL    HW234056   3.954   3.418   3.932  3.9335 -0.1525 -1.0473
 7475SOL     OW34057   3.639   1.993   7.676 -0.3203  0.1943  0.3004
 7475SOL    HW134058   3.707   1.947   7.726 -1.5980 -1.9084  0.1212
 7475SOL    HW234059   3.582   1.920   7.653  1.6229 -1.6656  1.3206
 7476SOL     OW34060   2.287   0.913   4.171 -0.5236  0.1589 -0.2759
 7476SOL    HW134061   2.222   0.976   4.202 -0.0054  1.5877 -2.0551
 7476SOL    HW234062   2.355   0.972   4.138  1.0379 -0.6360  1.5653
 7477SOL     OW34063   1.839   1.511   6.502 -0.0720 -0.5209  0.2019
 7477SOL    HW134064   1.753   1.469   6.512  0.3236 -1.8075 -1.7744
 7477SOL    HW234065   1.804   1.586   6.454  1.5637 -1.4960 -2.4767
 7478SOL     OW34066   0.690   4.513   0.457 -0.2905  0.6293  0.3766
 7478SOL    HW134067   0.714   4.518   0.364  0.1534  4.0942  0.6893
 7478SOL    HW234068   0.729   4.593   0.490 -0.8676  0.7635  0.7296
 7479SOL     OW34069   4.638   1.206   2.124 -0.4167 -0.0511 -0.0152
 7479SOL    HW134070   4.712   1.266   2.121 -1.7590  1.5635 -1.5007
 7479SOL    HW234071   4.677   1.144   2.185  2.2180  0.6919 -0.9530
 7480SOL     OW34072   2.002   4.641   3.784  0.4382 -0.7178  0.2014
 7480SOL    HW134073   2.085   4.619   3.742  0.6345  2.5401 -1.1124
 7480SOL    HW234074   1.967   4.554   3.802  0.9737 -0.2265  3.6463
 7481SOL     OW34075   1.456   2.603   5.931  0.2862  0.4319 -0.0022
 7481SOL    HW134076   1.408   2.646   6.002  0.9225  0.0100  0.6746
 7481SOL    HW234077   1.488   2.521   5.968  1.0616  1.5041  1.7165
 7482SOL     OW34078   4.330   4.144   9.226  0.1292 -0.0590  0.6971
 7482SOL    HW134079   4.383   4.064   9.217  1.0185  0.5694  0.4028
 7482SOL    HW234080   4.326   4.167   9.134 -0.3727 -2.0172  0.2289
 7483SOL     OW34081   3.738   2.290  17.637 -0.1874 -0.5709 -0.1254
 7483SOL    HW134082   3.725   2.355  17.568 -2.8999  0.5807  1.4753
 7483SOL    HW234083   3.789   2.224  17.589 -1.2368 -1.6858  0.2942
 7484SOL     OW34084   2.930   3.064   7.106 -0.0472 -0.4971  0.5333
 7484SOL    HW134085   2.975   3.086   7.025 -0.2065  0.4630  0.7113
 7484SOL    HW234086   2.883   2.985   7.077 -2.9206  1.0794  0.9045
 7485SOL     OW34087   2.190   4.418   7.042 -0.4431  0.0277 -0.2011
 7485SOL    HW134088   2.152   4.506   7.033  0.4134  0.3737 -0.3759
 7485SOL    HW234089   2.128   4.366   6.990 -0.5526 -1.2002  1.1505
 7486SOL     OW34090   0.143   1.055   1.751  0.7596  0.0814 -0.0107
 7486SOL    HW134091   0.121   1.135   1.704 -1.2065  0.7728  2.0658
 7486SOL    HW234092   0.194   1.007   1.686  3.7154  1.9126  0.9203
 7487SOL     OW34093   2.309   2.935   4.476 -0.0185  0.0781  0.1562
 7487SOL    HW134094   2.347   2.997   4.413  0.9350  0.7557  1.3914
 7487SOL    HW234095   2.214   2.928   4.469 -0.2379  1.6241  1.7747
 7488SOL     OW34096   1.581   3.653   4.333  0.8049  0.5064 -0.1540
 7488SOL    HW134097   1.555   3.561   4.321  0.4877  0.4443  0.9578
 7488SOL    HW234098   1.541   3.706   4.265  1.5577  0.5473 -0.5701
 7489SOL     OW34099   3.646   2.865   4.203  0.6695  0.1084 -0.1114
 7489SOL    HW134100   3.642   2.773   4.229  0.8947  0.2318  0.3627
 7489SOL    HW234101   3.700   2.898   4.275 -1.3860  0.6693  1.1678
 7490SOL     OW34102   4.512   0.017  11.760  0.3804  0.1264  0.4066
 7490SOL    HW134103   4.419   0.032  11.775  0.1849 -0.5944 -0.0628
 7490SOL    HW234104   4.553   0.086  11.812  1.4608 -0.5137  0.4218
 7491SOL     OW34105   2.378   2.366  13.952  0.2981 -0.4050  0.3052
 7491SOL    HW134106   2.427   2.383  13.871 -1.6286  0.3979 -0.7041
 7491SOL    HW234107   2.286   2.368  13.927  0.5756  1.6246 -0.5717
 7492SOL     OW34108   2.593   2.482   3.289  0.0454 -0.3881  0.4305
 7492SOL    HW134109   2.617   2.407   3.344  0.5130 -1.1500 -0.7842
 7492SOL    HW234110   2.597   2.438   3.203  3.3432  1.4949 -0.3779
 7493SOL     OW34111   0.818   1.069   6.136 -0.2091  0.4702 -0.0436
 7493SOL    HW134112   0.783   1.087   6.049 -0.9243 -1.0121 -0.0654
 7493SOL    HW234113   0.913   1.081   6.134 -0.3600  2.1365  2.7671
 7494SOL     OW34114   2.625   3.756  10.249 -0.5226  0.1396 -0.4419
 7494SOL    HW134115   2.660   3.693  10.311 -0.0704  1.3951  0.5797
 7494SOL    HW234116   2.613   3.841  10.292 -0.4309  0.0404 -0.2214
 7495SOL     OW34117   0.763   2.086  14.852  0.5042  0.4304 -0.3750
 7495SOL    HW134118   0.690   2.124  14.802 -0.5161  1.9097  2.2304
 7495SOL    HW234119   0.833   2.110  14.792  1.9260 -0.6276  0.8719
 7496SOL     OW34120   2.531   0.167   4.278  0.2943  0.0029 -0.4627
 7496SOL    HW134121   2.456   0.123   4.320  0.1544  2.2739  1.6268
 7496SOL    HW234122   2.580   0.185   4.358  1.0258 -1.9187 -0.4626
 7497SOL     OW34123   1.456   3.604   5.308 -0.2965  0.2663 -0.4067
 7497SOL    HW134124   1.538   3.653   5.303 -0.0741 -0.0868 -0.2094
 7497SOL    HW234125   1.485   3.523   5.266 -2.5934 -0.1790 -1.1395
 7498SOL     OW34126   4.383   2.281  15.169 -0.6625  0.3024 -0.0260
 7498SOL    HW134127   4.292   2.307  15.156 -0.3446  2.0407  1.1839
 7498SOL    HW234128   4.424   2.272  15.083  0.8290  3.5025  0.3663
 7499SOL     OW34129   0.640   4.409   6.484 -0.3438 -0.3456 -0.0092
 7499SOL    HW134130   0.604   4.340   6.541  0.1590  1.4541  2.4610
 7499SOL    HW234131   0.559   4.452   6.457 -0.7819 -0.9255  0.3691
 7500SOL     OW34132   2.461   1.823  16.315  0.4615 -0.3012  0.1554
 7500SOL    HW134133   2.438   1.898  16.369  2.3812 -0.2560  0.9456
 7500SOL    HW234134   2.539   1.798  16.365  0.1475 -0.3911  0.6039
 7501SOL     OW34135   1.214   2.433   6.686  0.5885  0.2902  0.0010
 7501SOL    HW134136   1.284   2.474   6.636  0.3318 -0.2557 -0.8053
 7501SOL    HW234137   1.165   2.509   6.718  2.2132  1.2918  0.0751
 7502SOL     OW34138   2.042   0.553   2.452 -0.1672  0.7186 -0.2654
 7502SOL    HW134139   2.112   0.580   2.393 -0.5394  1.3973 -0.4006
 7502SOL    HW234140   1.961   0.558   2.402  0.8270 -1.6618 -2.1152
 7503SOL     OW34141   1.225   2.573   5.155 -0.1003 -0.5367  0.5407
 7503SOL    HW134142   1.180   2.489   5.147 -1.5769  0.1332  1.7460
 7503SOL    HW234143   1.262   2.580   5.067 -0.8939  1.1944  0.3426
 7504SOL     OW34144   3.902   3.042   2.228  0.2085 -0.4935 -0.0474
 7504SOL    HW134145   3.956   2.997   2.163 -0.3120 -2.3005  0.7762
 7504SOL    HW234146   3.879   2.969   2.286  1.7954  0.6903  2.0457
 7505SOL     OW34147   2.694   4.728   2.321  0.0421 -0.3482  0.9540
 7505SOL    HW134148   2.748   4.649   2.325 -0.4030 -0.7254 -0.7640
 7505SOL    HW234149   2.734   0.052   2.385  1.3095 -2.3363  2.0257
 7506SOL     OW34150   0.845   3.966  11.804 -0.0123 -0.5744  0.4598
 7506SOL    HW134151   0.773   3.908  11.829 -1.1552 -0.0086 -1.4958
 7506SOL    HW234152   0.791   4.038  11.771  2.0235  0.9883  0.4826
 7507SOL     OW34153   2.180   1.937   2.496 -0.0343 -0.3769 -0.4276
 7507SOL    HW134154   2.167   2.019   2.544  1.2679  0.2201 -1.0968
 7507SOL    HW234155   2.174   1.965   2.405 -1.0794 -1.2540 -0.6173
 7508SOL     OW34156   3.881   2.182   7.907  0.0124  0.0517 -0.2072
 7508SOL    HW134157   3.890   2.087   7.906  0.2806  0.0961 -1.5186
 7508SOL    HW234158   3.927   2.197   7.824 -0.5576  0.1577 -0.5003
 7509SOL     OW34159   3.509   0.121   8.746 -0.1520 -0.2085  0.0864
 7509SOL    HW134160   3.478   0.202   8.706 -0.9474 -0.0398  1.0462
 7509SOL    HW234161   3.578   0.094   8.685  0.3971  1.7342 -0.1475
 7510SOL     OW34162   2.372   1.461   4.882 -0.2870  0.0302 -1.1500
 7510SOL    HW134163   2.423   1.534   4.846 -1.6221  1.4347 -0.2243
 7510SOL    HW234164   2.439   1.393   4.891  0.8914  1.5045  1.3810
 7511SOL     OW34165   0.757   0.448   1.769  0.4182 -0.0183  0.2974
 7511SOL    HW134166   0.707   0.423   1.847 -1.5421 -0.1697 -1.0097
 7511SOL    HW234167   0.831   0.481   1.819  1.9022  0.1635 -2.0585
 7512SOL     OW34168   1.565   4.187   8.111  0.0905  0.5572 -0.2684
 7512SOL    HW134169   1.629   4.200   8.180 -1.3332  3.0031  0.5889
 7512SOL    HW234170   1.484   4.198   8.161  1.2870  1.9649  1.3641
 7513SOL     OW34171   3.695   1.630   5.705 -0.2646  0.5044  0.1226
 7513SOL    HW134172   3.761   1.690   5.741 -2.0206  2.0037  0.8267
 7513SOL    HW234173   3.733   1.563   5.762 -0.2466  1.2206  0.9588
 7514SOL     OW34174   1.886   3.014   6.121 -0.1460  0.6621  0.3570
 7514SOL    HW134175   1.800   3.011   6.163 -0.1454 -1.2325  0.2159
 7514SOL    HW234176   1.865   3.061   6.040  1.4465 -0.6652 -0.8392
 7515SOL     OW34177   1.602   0.172  16.110 -0.7753 -0.1439 -0.7461
 7515SOL    HW134178   1.660   0.115  16.160  0.4147  1.7258  0.0129
 7515SOL    HW234179   1.582   0.232  16.182  0.2720 -0.1479 -0.4661
 7516SOL     OW34180   0.964   1.458   5.325 -0.2542 -0.1330 -0.0600
 7516SOL    HW134181   1.041   1.497   5.284  0.9354 -0.7794  1.5375
 7516SOL    HW234182   0.951   1.377   5.276 -0.7395 -0.6161  0.8674
 7517SOL     OW34183   4.361   0.289   4.767 -0.3637 -0.1341  0.7217
 7517SOL    HW134184   4.353   0.334   4.683 -0.2257 -0.5992  0.4601
 7517SOL    HW234185   4.350   0.203   4.728  1.7868 -0.3578  0.6571
 7518SOL     OW34186   2.773   4.607   5.208  0.1094 -0.2123  0.5907
 7518SOL    HW134187   2.850   4.628   5.156 -0.3265 -0.9875 -0.3574
 7518SOL    HW234188   2.731   4.577   5.128 -1.4814 -0.7708  1.6126
 7519SOL     OW34189   1.601   1.105   4.653 -0.3640 -0.3593 -0.1709
 7519SOL    HW134190   1.692   1.074   4.648 -0.3924  0.0342 -3.4922
 7519SOL    HW234191   1.563   1.018   4.667 -0.5564 -0.2284  0.0988
 7520SOL     OW34192   0.625   2.081   5.829 -0.2814  0.0542 -0.8885
 7520SOL    HW134193   0.626   2.097   5.923  0.1446 -0.7206 -0.7592
 7520SOL    HW234194   0.566   2.006   5.823  0.0649 -0.1170 -2.3280
 7521SOL     OW34195   2.971   3.900   8.525  0.3360  0.0749 -0.1958
 7521SOL    HW134196   2.978   3.924   8.433 -2.5677  2.6567  0.2636
 7521SOL    HW234197   2.879   3.920   8.545  0.7646  1.7648  0.1702
 7522SOL     OW34198   2.821   2.084   7.574  0.1398 -0.1195  0.2450
 7522SOL    HW134199   2.807   2.158   7.633 -2.3638 -3.5397  3.8726
 7522SOL    HW234200   2.914   2.069   7.589  0.1014 -1.0580 -0.4460
 7523SOL     OW34201   4.248   3.635   5.965  0.2257 -0.1288  0.2562
 7523SOL    HW134202   4.281   3.659   5.878 -2.6621  1.3134 -0.4541
 7523SOL    HW234203   4.258   3.540   5.969  1.0539 -0.0931 -0.7828
 7524SOL     OW34204   0.563   3.298   0.754 -0.0713  0.5371 -1.0468
 7524SOL    HW134205   0.477   3.268   0.783  0.3072 -1.7546 -2.3060
 7524SOL    HW234206   0.535   3.372   0.700  0.5221  1.2637 -0.3639
 7525SOL     OW34207   0.492   0.741   3.541 -0.3449 -0.1060 -0.3012
 7525SOL    HW134208   0.541   0.668   3.505  0.9100  0.6449 -0.1079
 7525SOL    HW234209   0.410   0.733   3.493 -0.2849  1.2300 -0.6133
 7526SOL     OW34210   3.331   1.098  11.597  0.1062  0.0115 -0.2434
 7526SOL    HW134211   3.362   1.109  11.687 -0.8657  0.5376  0.0309
 7526SOL    HW234212   3.414   1.124  11.557  0.5974  1.6407  1.7975
 7527SOL     OW34213   4.142   2.436   6.133  0.6946  0.5871 -0.0870
 7527SOL    HW134214   4.102   2.360   6.174 -0.4668  0.1368 -2.0243
 7527SOL    HW234215   4.236   2.417   6.136  0.3706 -0.9820  0.0935
 7528SOL     OW34216   1.748   2.608   1.909  0.3608 -0.1097 -0.5031
 7528SOL    HW134217   1.785   2.689   1.944 -0.1039 -0.0105 -0.2361
 7528SOL    HW234218   1.666   2.635   1.867 -0.4823  1.6020  2.2465
 7529SOL     OW34219   3.711   3.182   5.165 -0.2144  0.1348  0.1276
 7529SOL    HW134220   3.730   3.149   5.077  0.6129  0.0475  0.3337
 7529SOL    HW234221   3.642   3.121   5.193 -0.5616  0.0862 -0.8240
 7530SOL     OW34222   3.942   1.105  13.231  0.3289 -0.7971 -0.0418
 7530SOL    HW134223   3.859   1.137  13.198 -1.1219 -2.0290  2.3905
 7530SOL    HW234224   3.956   1.021  13.188  1.8691 -1.1873  1.1867
 7531SOL     OW34225   0.257   3.623   4.637  0.8374 -0.5636  0.0962
 7531SOL    HW134226   0.212   3.703   4.663 -0.8290 -1.3903 -0.2337
 7531SOL    HW234227   0.290   3.653   4.552  1.3490 -0.4945  0.3162
 7532SOL     OW34228   4.504   0.265   6.746 -0.1404 -0.6702 -0.0974
 7532SOL    HW134229   4.438   0.223   6.802  0.4160 -0.5485  0.6538
 7532SOL    HW234230   4.460   0.286   6.664  1.5766  2.7108 -0.1525
 7533SOL     OW34231   4.277   4.559   3.266  0.3606 -0.7113 -0.2886
 7533SOL    HW134232   4.260   4.645   3.226 -3.5596 -1.0943  0.5502
 7533SOL    HW234233   4.263   4.574   3.360 -0.1448 -0.0438 -0.4712
 7534SOL     OW34234   3.981   0.643   6.733  0.3773  0.2300  1.1026
 7534SOL    HW134235   3.922   0.583   6.689 -0.1115  1.2057  0.4256
 7534SOL    HW234236   3.926   0.720   6.747  1.1774  0.5109  2.7048
 7535SOL     OW34237   0.223   2.414   4.235  0.0852  0.1382  0.0467
 7535SOL    HW134238   0.168   2.402   4.312  1.5371  1.2435  1.2658
 7535SOL    HW234239   0.161   2.394   4.165  0.9803 -2.2314 -0.0699
 7536SOL     OW34240   3.055   3.197  16.945  0.0508 -0.4345 -0.0640
 7536SOL    HW134241   3.085   3.156  17.027 -1.5262 -0.7691  0.3457
 7536SOL    HW234242   2.960   3.181  16.950  0.2083 -1.4220 -0.2618
 7537SOL     OW34243   4.412   0.259   7.974  0.1490 -0.1589 -0.4567
 7537SOL    HW134244   4.427   0.324   7.906 -0.5214 -0.1658 -0.6114
 7537SOL    HW234245   4.364   0.313   8.037  0.4178  0.0750 -0.4540
 7538SOL     OW34246   2.584   1.389   4.488  0.0201 -0.2080  0.2495
 7538SOL    HW134247   2.662   1.355   4.443 -0.8764 -0.1563 -1.3765
 7538SOL    HW234248   2.626   1.441   4.555 -0.9611  1.4411 -0.4065
 7539SOL     OW34249   3.545   3.621   4.681  0.6029  0.1531 -0.1627
 7539SOL    HW134250   3.557   3.669   4.763 -0.9547 -0.2708  0.2942
 7539SOL    HW234251   3.637   3.606   4.659  0.4442  0.1395 -0.8278
 7540SOL     OW34252   1.187   3.109   5.687 -0.6683 -0.0443 -0.0786
 7540SOL    HW134253   1.222   3.180   5.633 -0.8806  0.8026  0.8979
 7540SOL    HW234254   1.194   3.043   5.618 -1.9932  0.6286 -0.8575
 7541SOL     OW34255   4.735   4.655  12.409 -0.3861  0.0554  0.1496
 7541SOL    HW134256   4.676   4.689  12.341 -1.1304 -0.0998  0.7199
 7541SOL    HW234257   4.672   4.654  12.481 -1.1432 -0.7361 -0.5217
 7542SOL     OW34258   3.483   1.248   5.364  0.4215  0.2597 -0.2872
 7542SOL    HW134259   3.417   1.253   5.433  0.0419  0.7580 -0.6795
 7542SOL    HW234260   3.426   1.243   5.287 -2.5096  1.2510  1.8316
 7543SOL     OW34261   4.371   3.927   2.424  0.5661 -0.1530  0.5536
 7543SOL    HW134262   4.422   3.996   2.380  0.6610  0.2701  1.3146
 7543SOL    HW234263   4.433   3.861   2.455 -1.6055 -2.8568 -1.0071
 7544SOL     OW34264   3.891   2.441  13.885  0.1128 -0.2627 -0.0939
 7544SOL    HW134265   3.874   2.391  13.965  0.7894  0.7762  0.7003
 7544SOL    HW234266   3.921   2.528  13.911 -0.4941 -0.4950  1.3712
 7545SOL     OW34267   2.595   4.461   5.033 -0.0817  0.0571  0.0384
 7545SOL    HW134268   2.621   4.408   5.108 -1.1512  0.8048  0.9264
 7545SOL    HW234269   2.640   4.413   4.963  0.4436 -2.6973  2.2746
 7546SOL     OW34270   4.298   0.827   8.100  0.1585 -0.3401  0.1567
 7546SOL    HW134271   4.249   0.901   8.064 -0.8412  0.4669  3.2504
 7546SOL    HW234272   4.355   0.806   8.025 -0.3105 -1.7801  0.2101
 7547SOL     OW34273   0.613   0.993   3.484 -0.4204  0.0735 -0.4597
 7547SOL    HW134274   0.548   1.057   3.514  1.4580  1.7739 -0.0300
 7547SOL    HW234275   0.587   0.904   3.509 -0.4778  0.6167  1.3884
 7548SOL     OW34276   3.661   4.213   8.123  0.1840  0.1183  0.1351
 7548SOL    HW134277   3.635   4.124   8.101  0.1725  0.0480  0.4257
 7548SOL    HW234278   3.608   4.247   8.195  0.0706 -1.5892  0.8504
 7549SOL     OW34279   2.824   2.552   6.527  0.0246 -0.3252  0.6153
 7549SOL    HW134280   2.783   2.590   6.449  1.9433  1.5015  0.4921
 7549SOL    HW234281   2.753   2.538   6.590 -1.4380  0.2818 -0.9058
 7550SOL     OW34282   4.511   1.442   4.815  0.7342  0.5465 -0.2291
 7550SOL    HW134283   4.474   1.518   4.859  0.4932  0.2468  0.0890
 7550SOL    HW234284   4.449   1.430   4.743  1.5387 -1.2273 -0.6494
 7551SOL     OW34285   2.069   1.604   6.912 -0.1493 -0.0659  0.5870
 7551SOL    HW134286   2.009   1.672   6.943 -0.5901  0.0972 -0.6031
 7551SOL    HW234287   2.004   1.554   6.862  0.3084 -0.0897  0.0177
 7552SOL     OW34288   1.413   1.708   2.620 -0.0793  0.5295 -0.3226
 7552SOL    HW134289   1.478   1.775   2.638  1.2468 -1.2496  1.5189
 7552SOL    HW234290   1.412   1.650   2.696  0.0403  2.4282  1.1348
 7553SOL     OW34291   3.149   1.356   8.381  0.4159  0.0096  0.1166
 7553SOL    HW134292   3.139   1.368   8.287  0.4527  3.0105  0.5083
 7553SOL    HW234293   3.152   1.446   8.413 -4.8116 -0.0273  0.7857
 7554SOL     OW34294   0.624   4.233   8.717  0.2782  0.3423 -0.1840
 7554SOL    HW134295   0.686   4.299   8.747  0.3141  0.5613 -0.7452
 7554SOL    HW234296   0.617   4.180   8.797 -1.1867  0.5311 -0.1759
 7555SOL     OW34297   1.138   0.462  16.433  0.1424 -0.1627  0.1079
 7555SOL    HW134298   1.190   0.513  16.371  1.2051 -1.1575  0.1915
 7555SOL    HW234299   1.076   0.532  16.456  2.0379  1.8609 -0.9825
 7556SOL     OW34300   2.846   1.599   8.218  0.1543  0.3054 -0.3004
 7556SOL    HW134301   2.852   1.657   8.294  1.0287 -0.3052  0.0978
 7556SOL    HW234302   2.935   1.582   8.190 -0.2739  2.8573 -3.1954
 7557SOL     OW34303   1.027   0.036   6.415  0.2067  0.3312 -0.2357
 7557SOL    HW134304   0.947   4.736   6.377 -0.3444 -0.0958  1.3167
 7557SOL    HW234305   1.026   0.122   6.374  0.6113  1.4984  2.1907
 7558SOL     OW34306   2.488   2.613   5.615 -0.1026  0.5356  0.3914
 7558SOL    HW134307   2.541   2.595   5.693 -0.9291  1.5959  1.1906
 7558SOL    HW234308   2.475   2.523   5.584 -2.3069  0.7222  0.8190
 7559SOL     OW34309   3.065   3.133   7.489 -0.7092 -0.0104 -0.1364
 7559SOL    HW134310   3.049   3.188   7.413 -0.4025 -1.3626 -1.1755
 7559SOL    HW234311   2.978   3.096   7.507  0.4092 -2.8502 -0.5487
 7560SOL     OW34312   3.336   0.375   5.100 -0.4374  0.1783 -0.0984
 7560SOL    HW134313   3.364   0.452   5.050 -2.0893  0.8410  0.0074
 7560SOL    HW234314   3.265   0.413   5.151  1.5607  0.7596  2.2641
 7561SOL     OW34315   3.935   0.273   3.500 -0.7648 -0.3496 -0.0769
 7561SOL    HW134316   3.985   0.348   3.466  1.1328 -1.2811  0.6335
 7561SOL    HW234317   3.927   0.295   3.593 -3.3483 -0.6251 -0.2500
 7562SOL     OW34318   2.693   2.596   8.642 -0.5259  0.1325 -1.1705
 7562SOL    HW134319   2.736   2.540   8.707 -2.1420 -0.0892 -0.3037
 7562SOL    HW234320   2.731   2.683   8.657 -1.7077  0.5253 -0.5257
 7563SOL     OW34321   0.573   3.300   7.825  0.7930 -0.4313 -0.4415
 7563SOL    HW134322   0.537   3.239   7.761 -0.7118  0.8443 -0.8082
 7563SOL    HW234323   0.534   3.269   7.907 -1.3327 -1.1889 -1.7363
 7564SOL     OW34324   2.897   1.515  15.435 -0.5566  0.0989  0.5847
 7564SOL    HW134325   2.954   1.452  15.479 -0.7683 -0.6963 -0.2973
 7564SOL    HW234326   2.832   1.535  15.503  0.9813  3.8724  1.0046
 7565SOL     OW34327   4.565   0.349   8.529 -0.1449  0.3867  0.2408
 7565SOL    HW134328   4.545   0.417   8.593  2.8104  0.6342  0.8925
 7565SOL    HW234329   4.611   0.400   8.463 -1.4570  2.6426  1.0764
 7566SOL     OW34330   3.795   3.576   1.476 -0.0863  0.3206 -0.1577
 7566SOL    HW134331   3.852   3.528   1.415 -2.0792 -1.8231 -0.3311
 7566SOL    HW234332   3.758   3.498   1.517  1.6079  1.1063  2.8337
 7567SOL     OW34333   0.556   1.471   6.196  0.2989  0.3809 -0.4287
 7567SOL    HW134334   0.499   1.547   6.201  1.8405  1.4699  0.3382
 7567SOL    HW234335   0.641   1.501   6.229 -1.1691  1.4753  2.3855
 7568SOL     OW34336   1.377   0.477   6.443 -0.0883 -0.3352 -0.4188
 7568SOL    HW134337   1.372   0.516   6.355  1.8188  0.3921 -0.2069
 7568SOL    HW234338   1.405   0.389   6.416  0.2706 -0.6856  1.1236
 7569SOL     OW34339   1.734   3.760  11.629 -0.1381 -0.1305 -0.7046
 7569SOL    HW134340   1.776   3.724  11.551 -4.3584 -2.4766 -1.8710
 7569SOL    HW234341   1.797   3.807  11.684  0.1718 -0.1362 -1.0532
 7570SOL     OW34342   0.370   4.675   6.827 -0.1532  0.0834 -0.0161
 7570SOL    HW134343   0.278   4.680   6.854 -0.0782  0.1533  0.2228
 7570SOL    HW234344   0.358   4.691   6.733  0.5060 -1.5499 -0.3628
 7571SOL     OW34345   2.334   3.675   4.675 -0.3773  0.2331 -0.0635
 7571SOL    HW134346   2.265   3.655   4.612 -0.3239  2.3058 -0.7782
 7571SOL    HW234347   2.366   3.759   4.642 -0.0106 -0.6201 -1.8781
 7572SOL     OW34348   1.035   1.299   9.381 -0.2481 -0.0596  0.0637
 7572SOL    HW134349   0.982   1.357   9.327 -1.1707 -2.4811 -1.6413
 7572SOL    HW234350   1.100   1.281   9.313 -1.6729 -1.2720 -0.9818
 7573SOL     OW34351   1.913   2.059   6.269 -0.6246  0.6740 -0.2425
 7573SOL    HW134352   1.874   2.143   6.293 -0.0875  1.6781 -2.8888
 7573SOL    HW234353   1.855   1.985   6.288  0.9003 -0.3720  0.3689
 7574SOL     OW34354   4.412   1.388  15.442 -0.1672 -0.4808  0.4762
 7574SOL    HW134355   4.461   1.469  15.450 -2.2782  0.8306  0.1159
 7574SOL    HW234356   4.432   1.358  15.353  0.1101  0.2447  0.2969
 7575SOL     OW34357   3.323   0.975   4.860 -0.3191 -0.4636  0.1546
 7575SOL    HW134358   3.241   1.025   4.863  0.7849  1.3026  0.8322
 7575SOL    HW234359   3.297   0.885   4.839 -2.6181  0.2853 -0.2302
 7576SOL     OW34360   1.975   4.446  10.905  0.3645  0.5517  0.2142
 7576SOL    HW134361   1.973   4.472  10.813 -0.3720  1.2095  0.4188
 7576SOL    HW234362   2.046   4.383  10.894 -1.0122 -0.8197 -1.0165
 7577SOL     OW34363   0.137   2.627  15.903 -0.0046 -0.1191  0.0422
 7577SOL    HW134364   0.207   2.670  15.951 -0.4154  0.6160 -0.0172
 7577SOL    HW234365   0.083   2.642  15.980 -0.8678  0.1785 -0.6128
 7578SOL     OW34366   1.406   0.080   9.455 -0.4829 -0.7647  0.6595
 7578SOL    HW134367   1.427   4.726   9.430  0.5961 -0.2292 -0.3971
 7578SOL    HW234368   1.317   0.066   9.487 -0.7901 -1.1142 -0.3329
 7579SOL     OW34369   1.537   4.079   1.681  0.4294  0.4048  0.3205
 7579SOL    HW134370   1.526   3.984   1.691  0.8778  0.2756 -0.3950
 7579SOL    HW234371   1.450   4.114   1.703 -0.5431 -0.7572 -1.6169
 7580SOL     OW34372   2.979   1.959   7.819 -0.3001  0.0550 -0.6625
 7580SOL    HW134373   2.914   1.899   7.856  0.4410  0.3173  1.0594
 7580SOL    HW234374   3.030   1.894   7.772 -0.3169  1.4522 -2.6197
 7581SOL     OW34375   1.975   1.653   4.480  0.2400 -0.6971 -0.4088
 7581SOL    HW134376   2.052   1.680   4.530 -0.2367  0.7544 -0.4629
 7581SOL    HW234377   1.911   1.645   4.550 -0.7640  0.9073 -1.1438
 7582SOL     OW34378   4.102   0.829   6.888  0.6077 -0.0288  0.2298
 7582SOL    HW134379   4.070   0.754   6.838  2.8586 -0.6457 -0.3003
 7582SOL    HW234380   4.025   0.865   6.933  0.1550 -0.2996 -0.3302
 7583SOL     OW34381   1.844   3.524   7.542  0.0288 -0.4604 -0.1052
 7583SOL    HW134382   1.830   3.464   7.616  0.5608 -0.7343 -0.2278
 7583SOL    HW234383   1.787   3.488   7.474  0.7595  0.3247 -1.1147
 7584SOL     OW34384   4.634   4.467   8.932  0.4482 -0.2425  0.5916
 7584SOL    HW134385   4.582   4.428   8.862 -1.9360 -0.5631  2.5574
 7584SOL    HW234386   4.572   4.482   9.004  0.3426  2.0135  0.0287
 7585SOL     OW34387   1.342   2.849   6.557 -0.1269  0.1216  0.2494
 7585SOL    HW134388   1.370   2.908   6.487 -2.6579 -0.4186 -1.2354
 7585SOL    HW234389   1.264   2.818   6.510  0.4077  1.0890 -1.2726
 7586SOL     OW34390   3.677   2.943   7.162  0.3738  0.1335  0.5035
 7586SOL    HW134391   3.597   2.964   7.210  0.8482  2.3755  0.3077
 7586SOL    HW234392   3.643   2.921   7.075 -0.2441  1.2044  0.4767
 7587SOL     OW34393   0.480   4.298   0.731 -0.1098  0.0448  0.1468
 7587SOL    HW134394   0.403   4.299   0.787 -0.7500 -0.6864 -0.7222
 7587SOL    HW234395   0.493   4.203   0.729  0.8140  0.1279  2.1859
 7588SOL     OW34396   1.987   2.529  16.871 -0.4298  0.8885 -0.6346
 7588SOL    HW134397   2.022   2.552  16.957 -0.9789 -0.2397 -0.1144
 7588SOL    HW234398   2.041   2.453  16.853 -0.4597  0.7601 -0.1940
 7589SOL     OW34399   0.981   2.754   5.559  0.1428 -0.2303 -0.2705
 7589SOL    HW134400   1.012   2.678   5.509 -1.0768 -0.7970 -0.1794
 7589SOL    HW234401   1.063   2.804   5.562 -0.2108  0.2772  1.2907
 7590SOL     OW34402   3.398   1.649   5.548 -0.1500 -0.7315 -1.1299
 7590SOL    HW134403   3.416   1.597   5.626  1.7917  0.8748 -0.5358
 7590SOL    HW234404   3.486   1.635   5.513  0.6756  0.6001  0.4153
 7591SOL     OW34405   2.647   3.572   0.855  0.5749 -0.1765  0.6600
 7591SOL    HW134406   2.677   3.483   0.871 -0.6093 -0.8448 -0.8402
 7591SOL    HW234407   2.723   3.620   0.887  1.5646 -1.8240  0.7396
 7592SOL     OW34408   1.990   4.047   1.413  0.1475  0.0323 -0.4413
 7592SOL    HW134409   1.928   4.094   1.469  0.4594  0.1986 -0.2308
 7592SOL    HW234410   1.933   4.000   1.352 -1.9319  0.3451  1.2819
 7593SOL     OW34411   2.126   3.607   6.643 -0.3789 -0.0550  0.3168
 7593SOL    HW134412   2.061   3.552   6.598  2.1063  0.8920 -4.3472
 7593SOL    HW234413   2.146   3.552   6.719  0.9167  2.3864  1.7426
 7594SOL     OW34414   2.186   4.165  11.708  0.0812 -0.3910 -0.0415
 7594SOL    HW134415   2.209   4.120  11.789  0.4268  1.5294  0.9278
 7594SOL    HW234416   2.165   4.250  11.748  0.3852 -0.3917  0.1207
 7595SOL     OW34417   4.374   1.275   6.431 -0.2252  0.4212 -0.1748
 7595SOL    HW134418   4.343   1.200   6.482  0.7809  0.6424  0.7775
 7595SOL    HW234419   4.415   1.327   6.501 -0.4235 -0.0360  0.2866
 7596SOL     OW34420   4.161   4.673   7.945  0.4890 -0.3842  0.1531
 7596SOL    HW134421   4.253   4.699   7.931 -0.2238  2.6414  0.9695
 7596SOL    HW234422   4.147   4.720   8.027  1.1097  0.2162 -0.0787
 7597SOL     OW34423   0.110   4.050   1.893  0.2096 -0.3546  0.2872
 7597SOL    HW134424   0.158   4.052   1.976 -0.8954  2.8596  0.8519
 7597SOL    HW234425   0.032   4.002   1.919  0.4115 -0.0450  1.4360
 7598SOL     OW34426   2.065   2.698   9.102  0.1092  0.5796 -0.1472
 7598SOL    HW134427   2.001   2.634   9.073  0.8195 -0.2120  0.0249
 7598SOL    HW234428   2.053   2.774   9.044  0.2350  0.9960  0.3703
 7599SOL     OW34429   2.998   3.588   7.899  0.3614  0.2619  0.0947
 7599SOL    HW134430   2.963   3.593   7.810 -0.7598  0.0214  0.5192
 7599SOL    HW234431   2.931   3.531   7.936  1.6041 -1.2071  0.0705
 7600SOL     OW34432   3.040   3.848   5.698  0.0302  0.9286  0.9127
 7600SOL    HW134433   2.988   3.927   5.684 -0.5338  0.4005  0.0575
 7600SOL    HW234434   3.085   3.862   5.782  0.4151 -0.4370  0.9328
 7601SOL     OW34435   4.300   2.032  15.821 -0.0145  0.0092 -0.0330
 7601SOL    HW134436   4.356   2.028  15.899 -0.7014 -1.2653  0.3802
 7601SOL    HW234437   4.336   1.955  15.777 -0.3375 -0.8758  1.2611
 7602SOL     OW34438   4.412   3.997  11.386  0.2333 -0.3285  0.0793
 7602SOL    HW134439   4.456   4.077  11.417  0.1907 -0.2272 -0.1207
 7602SOL    HW234440   4.343   3.999  11.452 -1.3458  0.5858 -1.5913
 7603SOL     OW34441   4.639   0.783   7.361 -0.3206 -0.2885  0.1637
 7603SOL    HW134442   4.699   0.856   7.347  1.2697 -1.9943 -1.8752
 7603SOL    HW234443   4.576   0.818   7.298  0.5625 -0.3014 -0.7154
 7604SOL     OW34444   0.913   2.058   5.393 -0.1933  0.3575  0.3421
 7604SOL    HW134445   0.851   2.101   5.452 -1.5291 -2.6225  1.1630
 7604SOL    HW234446   0.916   1.973   5.438  0.7961 -1.2499 -2.7558
 7605SOL     OW34447   2.657   0.415  16.616 -0.2918  0.1867  0.2483
 7605SOL    HW134448   2.707   0.496  16.608 -1.0831  0.4956 -1.6348
 7605SOL    HW234449   2.723   0.358  16.577  0.4375  2.1235 -1.3348
 7606SOL     OW34450   3.388   3.915   2.236 -0.3153 -0.8362  0.0294
 7606SOL    HW134451   3.398   3.847   2.303  0.0310  2.4465  3.2709
 7606SOL    HW234452   3.399   3.992   2.291 -1.9849  0.3145 -1.2595
 7607SOL     OW34453   0.473   3.360   3.786  0.4903 -0.3726  0.0470
 7607SOL    HW134454   0.502   3.271   3.767 -0.4679 -0.6086 -0.3377
 7607SOL    HW234455   0.481   3.395   3.698  0.7726 -0.2429  0.1245
 7608SOL     OW34456   3.924   0.561   9.577  0.2789  0.5483 -0.0053
 7608SOL    HW134457   3.953   0.607   9.498 -1.4028 -0.3608 -1.1781
 7608SOL    HW234458   3.874   0.625   9.626 -1.5318 -0.8256 -0.0403
 7609SOL     OW34459   4.123   1.402   3.299 -0.3930 -0.4140 -0.1832
 7609SOL    HW134460   4.189   1.346   3.339 -0.7600  1.4093  2.9821
 7609SOL    HW234461   4.112   1.373   3.209 -2.0299  2.2861 -0.8626
 7610SOL     OW34462   1.710   1.694  14.572 -0.7061 -0.6088  0.6596
 7610SOL    HW134463   1.759   1.758  14.624  1.6912 -2.1408  0.3023
 7610SOL    HW234464   1.662   1.754  14.516 -1.0378 -3.9837 -2.6258
 7611SOL     OW34465   0.780   3.591   9.973 -0.1723  0.5412  0.1618
 7611SOL    HW134466   0.781   3.686   9.962 -0.4790  0.9316  3.5421
 7611SOL    HW234467   0.733   3.586  10.057 -1.6429 -1.6585 -0.7918
 7612SOL     OW34468   3.094   2.957  15.935  0.3165  0.4939  0.1707
 7612SOL    HW134469   3.156   2.971  15.863  0.3950  2.5216  0.6431
 7612SOL    HW234470   3.026   3.023  15.924  0.4388  0.4250 -0.9368
 7613SOL     OW34471   2.492   4.270   7.750 -1.2227 -0.3388 -0.5519
 7613SOL    HW134472   2.428   4.200   7.736 -0.0061 -0.7903 -3.7020
 7613SOL    HW234473   2.537   4.264   7.666  1.0091 -1.6162  0.7230
 7614SOL     OW34474   4.269   0.374  11.662 -0.2772 -0.0275 -0.1302
 7614SOL    HW134475   4.282   0.287  11.623  4.0693  0.0682  1.1030
 7614SOL    HW234476   4.263   0.359  11.757  0.3289 -0.0437 -0.0951
 7615SOL     OW34477   3.841   0.036   6.493  0.4572  0.1456 -0.5992
 7615SOL    HW134478   3.862   4.682   6.464 -0.8647 -0.0255 -0.9985
 7615SOL    HW234479   3.928   0.056   6.529 -0.7210  1.4792  1.4292
 7616SOL     OW34480   1.232   3.133  13.288  0.0501 -0.0066 -0.0439
 7616SOL    HW134481   1.298   3.097  13.347 -0.7409 -1.0168  0.2235
 7616SOL    HW234482   1.186   3.199  13.341  4.2226  2.2270  0.7865
 7617SOL     OW34483   4.046   4.352   2.783  0.5804  0.0244  0.3501
 7617SOL    HW134484   4.062   4.407   2.707 -2.3351  1.9464  1.1286
 7617SOL    HW234485   4.114   4.285   2.772  0.5180 -0.4236  2.5397
 7618SOL     OW34486   1.818   3.712   2.376 -0.2188 -0.1225 -0.0797
 7618SOL    HW134487   1.832   3.771   2.302 -0.1872 -0.5373 -0.4052
 7618SOL    HW234488   1.905   3.701   2.412 -0.1052 -1.0417 -0.6298
 7619SOL     OW34489   4.507   4.207  12.700  0.3971  0.0357  0.5456
 7619SOL    HW134490   4.485   4.120  12.666  0.1092 -0.0165  0.8647
 7619SOL    HW234491   4.564   4.184  12.774 -1.5435 -0.2036  1.9746
 7620SOL     OW34492   3.620   3.502   8.154  0.4634 -0.2146 -0.2064
 7620SOL    HW134493   3.669   3.424   8.180  0.3637 -0.0864  0.3574
 7620SOL    HW234494   3.690   3.566   8.165 -1.6244  1.7875  1.2588
 7621SOL     OW34495   3.542   1.650   5.963  0.7953  0.2550 -0.3047
 7621SOL    HW134496   3.586   1.574   6.002 -1.2484 -1.1116 -0.6462
 7621SOL    HW234497   3.567   1.636   5.871 -1.4496  1.1637 -1.0438
 7622SOL     OW34498   4.036   2.740   0.555 -1.3316 -0.0789  0.1048
 7622SOL    HW134499   4.030   2.819   0.502 -0.9920  0.1239  0.3738
 7622SOL    HW234500   3.956   2.691   0.531 -0.2061 -1.4619 -0.8470
 7623SOL     OW34501   1.863   2.139   4.690 -0.4488 -0.3026  0.2179
 7623SOL    HW134502   1.797   2.197   4.653 -0.2181  0.0215  0.3215
 7623SOL    HW234503   1.887   2.187   4.769  2.3341  0.5391 -1.1621
 7624SOL     OW34504   0.494   4.727  16.023  0.2271  0.8610 -0.1285
 7624SOL    HW134505   0.523   0.080  16.004 -1.0055  1.1009 -0.9324
 7624SOL    HW234506   0.401   0.001  16.041  0.2582  0.3633  0.2886
 7625SOL     OW34507   4.703   2.605   3.263  0.4842 -1.0798 -0.8015
 7625SOL    HW134508   4.723   2.515   3.238  4.2497 -0.2746 -0.8207
 7625SOL    HW234509   0.037   2.625   3.326 -0.3964  2.6309 -1.0183
 7626SOL     OW34510   2.890   3.664  13.893 -0.3766  0.1785 -0.2938
 7626SOL    HW134511   2.956   3.693  13.830  0.6310  0.7507  1.0345
 7626SOL    HW234512   2.835   3.617  13.830 -1.1452 -0.1318  0.6015
 7627SOL     OW34513   0.413   2.780   6.032  0.1055 -0.2010 -0.0576
 7627SOL    HW134514   0.437   2.809   5.944 -0.4994  0.4839  0.0038
 7627SOL    HW234515   0.494   2.748   6.071  0.0512 -2.7500 -2.0687
 7628SOL     OW34516   1.706   1.620  12.356 -0.0334 -0.2694 -0.1925
 7628SOL    HW134517   1.718   1.609  12.450 -2.8795 -2.2782 -0.0619
 7628SOL    HW234518   1.794   1.598  12.326 -0.7786 -2.3860 -0.8113
 7629SOL     OW34519   2.240   0.611  12.261  0.2219  0.0551  0.1004
 7629SOL    HW134520   2.217   0.547  12.194 -1.1261  0.7595 -0.1136
 7629SOL    HW234521   2.296   0.558  12.317 -1.1488 -0.6026  0.8380
 7630SOL     OW34522   0.272   0.536   6.466 -0.0902  0.0077  0.0644
 7630SOL    HW134523   0.216   0.556   6.540  1.2802 -1.7317  1.5538
 7630SOL    HW234524   0.242   0.449   6.442  3.1916 -1.8138  2.6255
 7631SOL     OW34525   3.232   2.063  13.225 -0.1520  0.5079 -0.1439
 7631SOL    HW134526   3.277   2.147  13.216  1.1556  0.0573  2.3036
 7631SOL    HW234527   3.305   2.000  13.221 -0.9689 -0.3971 -0.8041
 7632SOL     OW34528   0.597   3.780   0.735 -0.2473 -0.3994  0.3887
 7632SOL    HW134529   0.537   3.727   0.681 -0.9487 -1.7691  2.4828
 7632SOL    HW234530   0.613   3.715   0.803 -1.4457  0.3847  1.4086
 7633SOL     OW34531   3.692   1.351   5.164  0.4081 -1.0007  0.2061
 7633SOL    HW134532   3.634   1.295   5.216 -0.4084 -0.0408  0.3092
 7633SOL    HW234533   3.634   1.421   5.136  0.7876 -1.5856 -2.0451
 7634SOL     OW34534   2.741   2.488   9.807 -0.2867 -0.1294 -0.3325
 7634SOL    HW134535   2.816   2.529   9.851 -0.0426 -1.4367  0.4726
 7634SOL    HW234536   2.782   2.470   9.723 -0.5616 -0.1123 -0.4696
 7635SOL     OW34537   0.245   0.190   7.327 -0.3421 -0.8526 -0.2138
 7635SOL    HW134538   0.279   0.243   7.400 -2.7872 -1.5246  1.4117
 7635SOL    HW234539   0.297   0.223   7.254 -0.6972 -1.1502 -0.5984
 7636SOL     OW34540   0.811   1.185   3.060 -0.1124  0.0030  1.1916
 7636SOL    HW134541   0.803   1.130   2.982  1.0312  0.5131  0.7132
 7636SOL    HW234542   0.772   1.121   3.120 -1.2505  1.8670  2.4375
 7637SOL     OW34543   0.461   3.647   4.853  0.1266 -0.2517  0.0038
 7637SOL    HW134544   0.503   3.725   4.818  0.9956 -0.7793 -0.1344
 7637SOL    HW234545   0.391   3.637   4.789  0.0443  1.2427 -0.1371
 7638SOL     OW34546   0.139   3.610   6.004  0.2480 -0.1889  0.6687
 7638SOL    HW134547   0.180   3.552   5.940 -0.9919 -1.4342  1.0196
 7638SOL    HW234548   0.062   3.559   6.029  0.9619 -0.8058  1.6310
 7639SOL     OW34549   3.187   4.100   6.383  0.1746  0.0748 -0.0595
 7639SOL    HW134550   3.186   4.190   6.418  0.9531  0.2856 -0.5947
 7639SOL    HW234551   3.227   4.059   6.460 -0.5567 -2.9906 -1.3612
 7640SOL     OW34552   2.949   0.913   6.093  0.0385 -0.3453  0.0810
 7640SOL    HW134553   3.012   0.982   6.112  0.6441 -0.4481 -1.5610
 7640SOL    HW234554   3.012   0.844   6.071 -1.3231 -1.8561  0.9316
 7641SOL     OW34555   4.701   2.913   2.318  0.3005 -0.0923  0.3018
 7641SOL    HW134556   0.048   2.935   2.361  0.5665 -0.2216 -0.1396
 7641SOL    HW234557   4.664   2.999   2.296 -1.2890 -0.5476  1.1880
 7642SOL     OW34558   0.714   2.885   7.497  0.4765 -0.5090  0.0604
 7642SOL    HW134559   0.721   2.793   7.471 -0.1668 -0.4788 -0.2153
 7642SOL    HW234560   0.658   2.879   7.575  0.7065 -0.8572  0.1987
 7643SOL     OW34561   3.912   3.610  16.394  0.0814  0.1584  0.1397
 7643SOL    HW134562   3.993   3.608  16.343 -0.0175  1.3625 -0.0794
 7643SOL    HW234563   3.914   3.705  16.410  1.6533  0.1761 -0.1600
 7644SOL     OW34564   4.222   4.024   7.004 -0.0685 -0.2248 -0.1990
 7644SOL    HW134565   4.303   4.052   7.048 -0.4711  1.5197 -0.6018
 7644SOL    HW234566   4.156   4.076   7.049 -0.4886 -0.8060 -0.1403
 7645SOL     OW34567   0.898   4.472   4.485 -0.7097  0.6158  0.2072
 7645SOL    HW134568   0.924   4.449   4.574 -0.0465  1.1812  0.1617
 7645SOL    HW234569   0.847   4.549   4.511 -0.7396  1.4431 -2.2698
 7646SOL     OW34570   4.114   0.434   7.124 -0.1644  0.4272 -0.0417
 7646SOL    HW134571   4.125   0.412   7.216  1.5427 -2.4133 -0.9177
 7646SOL    HW234572   4.105   0.528   7.136 -1.1281  0.5069 -1.3537
 7647SOL     OW34573   3.232   3.951  11.431  0.1464 -0.0489  0.0499
 7647SOL    HW134574   3.179   4.018  11.388 -2.2432 -2.4798 -0.7882
 7647SOL    HW234575   3.259   4.002  11.508  0.3557 -3.1997  2.0631
 7648SOL     OW34576   3.269   2.194   6.297 -0.8465  0.3404  0.1445
 7648SOL    HW134577   3.211   2.233   6.362  0.1845 -0.3614  1.4687
 7648SOL    HW234578   3.265   2.102   6.323  2.1218  0.4881  1.0299
 7649SOL     OW34579   1.135   3.467   9.220  0.1356 -0.8461 -0.0875
 7649SOL    HW134580   1.224   3.479   9.253  0.5555  1.3486 -1.9296
 7649SOL    HW234581   1.109   3.389   9.268  0.1388 -1.7322 -1.5133
 7650SOL     OW34582   3.930   1.841   0.763  0.5033 -0.2722 -0.2218
 7650SOL    HW134583   3.883   1.864   0.682  0.5810  0.3932 -0.0811
 7650SOL    HW234584   4.016   1.873   0.735 -0.1411  0.4808 -1.3665
 7651SOL     OW34585   0.146   3.829   4.013 -0.0392  0.0832  0.5227
 7651SOL    HW134586   0.151   3.882   3.934 -0.3320  0.9723  1.0965
 7651SOL    HW234587   0.203   3.878   4.071 -1.3183  0.2414  1.6491
 7652SOL     OW34588   0.115   4.296   9.408  0.5796  0.3225  0.4518
 7652SOL    HW134589   0.100   4.373   9.463  1.1498 -0.5233  1.7802
 7652SOL    HW234590   0.105   4.337   9.322 -2.5613 -0.2224  0.5663
 7653SOL     OW34591   3.335   2.984   6.253 -0.4411  0.2341  0.0606
 7653SOL    HW134592   3.389   2.907   6.238 -1.2970 -0.9110  2.8301
 7653SOL    HW234593   3.388   3.058   6.226  1.4679 -0.8201  0.9342
 7654SOL     OW34594   2.592   0.036  17.267 -1.0246 -0.3474  0.1411
 7654SOL    HW134595   2.527   0.106  17.265  1.4316  1.9504  1.2871
 7654SOL    HW234596   2.673   0.083  17.287  0.0375 -1.0896 -2.4465
 7655SOL     OW34597   0.815   1.295   7.728  0.4991  0.3023  0.3207
 7655SOL    HW134598   0.894   1.350   7.724  0.9374 -0.4979 -2.0792
 7655SOL    HW234599   0.825   1.239   7.805 -1.4554 -1.3329 -0.6325
 7656SOL     OW34600   3.066   0.341  17.387 -0.7004 -0.0325 -0.1515
 7656SOL    HW134601   3.038   0.286  17.460  0.9540 -1.6374 -0.7178
 7656SOL    HW234602   3.048   0.425  17.429 -0.4709 -0.3901  0.6533
 7657SOL     OW34603   3.367   0.126   7.927  0.4559 -0.3964  0.4668
 7657SOL    HW134604   3.448   0.113   7.975  0.4258 -0.3006  0.5432
 7657SOL    HW234605   3.406   0.117   7.840  0.6944 -1.8198  0.7174
 7658SOL     OW34606   2.587   3.658   4.373 -0.3157  0.4066 -0.1496
 7658SOL    HW134607   2.651   3.724   4.347 -0.9630  1.2170  0.3056
 7658SOL    HW234608   2.633   3.590   4.324  0.5668 -0.0741  1.3481
 7659SOL     OW34609   2.616   1.695   1.819 -0.1598 -0.0460  0.1567
 7659SOL    HW134610   2.643   1.784   1.843 -0.7574  0.2037 -0.0895
 7659SOL    HW234611   2.564   1.707   1.740 -2.1777  0.1066  1.5333
 7660SOL     OW34612   3.671   3.942   4.349  0.7777 -0.2037  0.3846
 7660SOL    HW134613   3.720   4.000   4.290  1.4192  0.3569  1.4657
 7660SOL    HW234614   3.642   3.882   4.281  3.1089  0.1489 -0.9327
 7661SOL     OW34615   2.628   2.035   3.666 -0.0762 -0.1989 -0.1947
 7661SOL    HW134616   2.607   2.115   3.715 -1.2188  0.2610 -1.4530
 7661SOL    HW234617   2.718   2.053   3.640  0.0017 -0.4297 -0.0869
 7662SOL     OW34618   1.937   2.965   4.949 -0.3573 -0.1183 -0.2506
 7662SOL    HW134619   1.868   2.979   4.884  2.9802  2.7218 -3.1604
 7662SOL    HW234620   1.977   3.050   4.969  0.4092 -0.8120  1.1288
 7663SOL     OW34621   1.145   0.728   5.409  0.2210 -0.0593  0.2169
 7663SOL    HW134622   1.212   0.698   5.349 -0.2665 -2.2303  0.7587
 7663SOL    HW234623   1.128   0.649   5.460 -2.3831 -0.1284 -0.7745
 7664SOL     OW34624   1.658   4.054   6.821  0.0674  0.4027 -0.1218
 7664SOL    HW134625   1.567   4.035   6.843 -0.0362 -1.3539 -2.0273
 7664SOL    HW234626   1.675   3.978   6.766  0.6169 -0.5117  1.3291
 7665SOL     OW34627   3.251   0.032   5.571 -0.1016  0.0376 -0.2621
 7665SOL    HW134628   3.273   0.043   5.664  2.1930  0.6304 -0.8741
 7665SOL    HW234629   3.325   0.069   5.522 -0.4819 -1.0358 -1.6307
 7666SOL     OW34630   4.471   1.681   7.261 -0.6871  0.1665 -0.7100
 7666SOL    HW134631   4.543   1.629   7.298 -0.8789 -0.2044 -0.8707
 7666SOL    HW234632   4.437   1.625   7.192  0.1086 -3.2157  1.6240
 7667SOL     OW34633   3.844   2.834   0.108 -0.5068 -0.5265 -0.6383
 7667SOL    HW134634   3.772   2.830   0.171  1.7504 -2.5994  1.8510
 7667SOL    HW234635   3.850   2.746   0.072 -3.4957 -1.3440  0.8161
 7668SOL     OW34636   3.672   1.340   8.920 -0.1007  1.0418 -0.4670
 7668SOL    HW134637   3.660   1.392   8.842 -0.2353  1.0932 -0.4125
 7668SOL    HW234638   3.657   1.400   8.993 -1.3302 -2.9680  2.5630
 7669SOL     OW34639   3.407   0.695   9.270 -0.1520 -0.5330 -0.3059
 7669SOL    HW134640   3.500   0.697   9.249  0.5074 -1.0972  2.6667
 7669SOL    HW234641   3.396   0.600   9.264 -0.2092 -0.7594  3.6112
 7670SOL     OW34642   2.166   3.399   3.213 -0.5458  0.0794  0.1732
 7670SOL    HW134643   2.148   3.493   3.214  1.1798  0.3867  2.2108
 7670SOL    HW234644   2.260   3.391   3.232 -0.8613  0.0916  1.7096
 7671SOL     OW34645   0.801   1.198   8.001  0.0731  0.7562  0.1478
 7671SOL    HW134646   0.725   1.236   8.044 -0.7580 -0.8458  0.0739
 7671SOL    HW234647   0.787   1.106   8.022  1.9167  0.4495  0.0699
 7672SOL     OW34648   4.516   2.217   1.379 -0.2664  0.0834  0.4647
 7672SOL    HW134649   4.491   2.309   1.383  0.9587  0.4776 -1.0344
 7672SOL    HW234650   4.593   2.223   1.436  1.5702 -1.5935 -1.8705
 7673SOL     OW34651   1.320   1.962   8.399 -0.3649 -0.0217 -0.0478
 7673SOL    HW134652   1.372   1.971   8.478  1.6015  1.2491 -1.5126
 7673SOL    HW234653   1.354   1.879   8.364  1.0174 -0.3284  2.0992
 7674SOL     OW34654   1.352   2.568  14.536 -0.1369 -0.2898  0.2930
 7674SOL    HW134655   1.337   2.651  14.492  1.5627  0.7933  1.7469
 7674SOL    HW234656   1.301   2.517  14.474 -1.2700  0.7503  0.3834
 7675SOL     OW34657   3.160   4.176  15.106 -0.3682  0.0724  0.6530
 7675SOL    HW134658   3.242   4.221  15.126 -0.3963 -0.8289  2.7485
 7675SOL    HW234659   3.141   4.132  15.188  0.2563  1.9158  1.7832
 7676SOL     OW34660   0.234   0.873  17.632  0.1072  0.9942 -0.3156
 7676SOL    HW134661   0.225   0.785  17.596  0.1106  0.0366  2.0367
 7676SOL    HW234662   0.147   0.910  17.615  0.0469  0.1286 -1.9130
 7677SOL     OW34663   1.713   0.281   4.191  0.3641  0.2515 -0.2311
 7677SOL    HW134664   1.804   0.297   4.166  0.3372 -0.5387 -0.8350
 7677SOL    HW234665   1.700   0.197   4.148 -0.3189 -1.0111  2.4544
 7678SOL     OW34666   0.908   2.270   3.054  0.0122 -0.0494  0.3758
 7678SOL    HW134667   0.985   2.326   3.066 -2.2781  3.0250  0.7167
 7678SOL    HW234668   0.903   2.233   3.142 -3.6801  1.4050  0.7603
 7679SOL     OW34669   3.843   1.271   7.339  0.1796 -1.0092 -0.5131
 7679SOL    HW134670   3.872   1.181   7.355 -1.5855 -1.2640  1.2331
 7679SOL    HW234671   3.919   1.314   7.300 -0.5305 -1.2422 -2.1502
 7680SOL     OW34672   0.404   3.502   0.983  0.1561  0.1893  0.6129
 7680SOL    HW134673   0.362   3.521   0.899 -0.3011  1.1557  1.0693
 7680SOL    HW234674   0.369   3.415   1.005 -2.9056  1.1531 -0.4814
 7681SOL     OW34675   1.644   0.636   3.390  0.4723  0.0863  0.3684
 7681SOL    HW134676   1.594   0.702   3.342  0.3393 -0.7402 -0.6326
 7681SOL    HW234677   1.678   0.682   3.467 -0.5710 -0.6061  1.2340
 7682SOL     OW34678   0.643   1.168  11.217 -0.4348  0.0242 -0.4796
 7682SOL    HW134679   0.664   1.243  11.161  2.9738 -0.2956  0.3541
 7682SOL    HW234680   0.720   1.112  11.210 -1.2424 -1.4582  2.3084
 7683SOL     OW34681   0.971   1.463  11.607  0.2323 -0.2035 -0.1609
 7683SOL    HW134682   0.974   1.499  11.518  1.4302 -0.7452 -0.3334
 7683SOL    HW234683   1.012   1.377  11.600  0.5815 -0.1158  0.9666
 7684SOL     OW34684   3.069   0.042  11.868 -0.0943 -0.0979  0.6532
 7684SOL    HW134685   3.139   0.105  11.885  0.5442 -0.7178  0.2867
 7684SOL    HW234686   3.098   4.707  11.926 -0.8519  0.2098  1.4016
 7685SOL     OW34687   1.607   0.317  17.647 -0.5106 -0.1434  0.1722
 7685SOL    HW134688   1.534   0.270  17.607 -1.2005  1.4558 -0.4346
 7685SOL    HW234689   1.600   0.390  17.584  0.4388 -1.5302 -1.5483
 7686SOL     OW34690   4.716   2.299  15.079  0.2596 -0.9903  0.6524
 7686SOL    HW134691   0.073   2.275  15.079  0.5003 -0.0216  1.4985
 7686SOL    HW234692   4.715   2.355  15.157  1.2046 -0.6650  0.4341
 7687SOL     OW34693   4.574   2.416   6.722  0.6396  0.4036 -0.2378
 7687SOL    HW134694   4.498   2.425   6.664  0.2430  0.3963  0.2739
 7687SOL    HW234695   4.576   2.323   6.746 -2.5822 -0.1338 -2.0311
 7688SOL     OW34696   2.955   3.352   9.685  0.0245  0.5833 -0.1437
 7688SOL    HW134697   3.049   3.367   9.677 -0.1377  1.1069 -1.0143
 7688SOL    HW234698   2.936   3.429   9.739 -0.0118  0.7722 -0.4259
 7689SOL     OW34699   0.124   2.903   1.918 -0.1845 -0.7152  0.3100
 7689SOL    HW134700   0.037   2.935   1.894  0.8240  1.3407 -0.5379
 7689SOL    HW234701   0.148   2.846   1.845 -1.7607  0.9745 -1.5219
 7690SOL     OW34702   3.668   4.320  10.317  0.7481  0.4830 -0.0441
 7690SOL    HW134703   3.585   4.334  10.363 -0.7139 -2.1465 -1.8545
 7690SOL    HW234704   3.685   4.230  10.346  1.3679  0.8571  0.7538
 7691SOL     OW34705   2.115   4.501  11.130 -0.0996 -0.2126  0.3203
 7691SOL    HW134706   2.065   4.494  11.049  2.2414  0.7868 -1.1900
 7691SOL    HW234707   2.145   4.410  11.135  0.6294 -0.0706 -1.6764
 7692SOL     OW34708   1.697   0.027   0.783 -0.4938 -0.0621  0.0446
 7692SOL    HW134709   1.777   4.711   0.774 -0.7516 -0.5507  0.5641
 7692SOL    HW234710   1.710   0.096   0.717 -1.8787 -1.5371 -1.7565
 7693SOL     OW34711   2.139   4.662   3.497  0.3124  0.8071  0.0785
 7693SOL    HW134712   2.172   4.708   3.420 -0.3431  0.8797 -0.1514
 7693SOL    HW234713   2.145   4.575   3.459  1.4415  0.4996  0.9268
 7694SOL     OW34714   2.334   4.575   7.838 -0.0964 -0.2945 -0.2924
 7694SOL    HW134715   2.328   4.587   7.744  0.8360 -0.6230 -0.3950
 7694SOL    HW234716   2.262   4.514   7.852 -0.8353  0.0093 -2.8480
 7695SOL     OW34717   1.838   4.393   0.985  0.1148  0.2481  0.0861
 7695SOL    HW134718   1.894   4.457   1.029 -1.9468  2.5861 -0.6711
 7695SOL    HW234719   1.828   4.439   0.902 -2.2959  1.5417  1.1189
 7696SOL     OW34720   3.397   2.234   9.349 -0.4570  0.0444 -0.5281
 7696SOL    HW134721   3.456   2.249   9.275  1.0676 -0.0736  0.6711
 7696SOL    HW234722   3.361   2.322   9.364 -1.7673 -0.6753  0.5341
 7697SOL     OW34723   3.897   3.226   3.121 -0.1970  0.0582 -0.1311
 7697SOL    HW134724   3.968   3.264   3.068 -1.9634  0.9406 -1.8407
 7697SOL    HW234725   3.834   3.229   3.050  2.0356 -1.0536 -2.1789
 7698SOL     OW34726   2.530   2.735   3.546 -0.0754 -0.2164  0.0576
 7698SOL    HW134727   2.600   2.733   3.481 -0.2236 -1.0924 -0.0711
 7698SOL    HW234728   2.577   2.703   3.623 -2.0717 -1.9356  0.5556
 7699SOL     OW34729   3.684   2.308   3.968 -0.9559  0.0908 -0.0258
 7699SOL    HW134730   3.685   2.212   3.970  1.0009  0.0938 -1.0234
 7699SOL    HW234731   3.707   2.326   3.877  2.0596 -1.7927  0.3594
 7700SOL     OW34732   3.417   3.679   5.497 -0.4855  0.1341 -0.3606
 7700SOL    HW134733   3.405   3.612   5.564 -0.3992  0.9529  0.4613
 7700SOL    HW234734   3.455   3.745   5.554  0.1972 -1.2551  0.7955
 7701SOL     OW34735   0.867   1.326  16.730  0.1103  0.6075  0.6217
 7701SOL    HW134736   0.852   1.416  16.702 -2.5229 -0.4503 -1.3911
 7701SOL    HW234737   0.962   1.317  16.737  0.2410  0.3978 -1.6098
 7702SOL     OW34738   2.347   0.866   0.450  0.1914  0.3384  0.3611
 7702SOL    HW134739   2.328   0.797   0.386 -2.0762  1.0249  0.3011
 7702SOL    HW234740   2.409   0.916   0.398 -0.4898  0.5374 -0.2704
 7703SOL     OW34741   3.829   4.555   8.104 -0.0408  0.1602  0.1912
 7703SOL    HW134742   3.854   4.626   8.162  0.6824 -0.1798  0.3041
 7703SOL    HW234743   3.734   4.545   8.115 -0.1339 -1.7062 -2.3223
 7704SOL     OW34744   0.343   3.165   4.073  0.0302  0.8523  0.3628
 7704SOL    HW134745   0.427   3.122   4.059  0.6134  1.4458  2.0509
 7704SOL    HW234746   0.319   3.112   4.149  1.0878 -1.3661 -0.8218
 7705SOL     OW34747   3.854   3.842   1.560  0.0959 -0.3407  0.0585
 7705SOL    HW134748   3.833   3.759   1.516  1.9925 -1.5318  1.4105
 7705SOL    HW234749   3.924   3.824   1.622 -0.3798 -0.7589  0.4744
 7706SOL     OW34750   1.389   1.575   8.188 -0.0743  0.3249  0.4228
 7706SOL    HW134751   1.440   1.649   8.218 -0.1242  0.6547 -0.3069
 7706SOL    HW234752   1.365   1.534   8.272 -1.0678  0.0679  0.0162
 7707SOL     OW34753   3.331   1.534   4.178 -0.5377  0.0464 -0.2547
 7707SOL    HW134754   3.265   1.585   4.131 -0.6838  0.4937  0.4375
 7707SOL    HW234755   3.401   1.583   4.136 -1.4608 -1.3716 -3.4874
 7708SOL     OW34756   3.987   4.383   5.475 -0.2520 -0.1325  0.3750
 7708SOL    HW134757   3.997   4.464   5.425 -0.7087 -1.0056 -1.1315
 7708SOL    HW234758   4.026   4.333   5.404 -1.4661 -1.4099  0.6255
 7709SOL     OW34759   2.268   3.748   9.378 -0.5156 -0.1302  0.4209
 7709SOL    HW134760   2.311   3.816   9.431  1.3168  0.9102 -2.3908
 7709SOL    HW234761   2.346   3.695   9.363 -0.8352 -0.4370 -0.1396
 7710SOL     OW34762   3.036   4.426   8.269 -0.3514  0.3944 -0.4842
 7710SOL    HW134763   2.997   4.340   8.257 -1.8395  0.8732  0.9091
 7710SOL    HW234764   3.055   4.432   8.363 -2.0787  1.0596 -0.1664
 7711SOL     OW34765   0.849   3.370   8.975 -0.0167 -0.2138 -0.2007
 7711SOL    HW134766   0.815   3.316   9.047  0.9775 -0.7533 -0.1322
 7711SOL    HW234767   0.775   3.425   8.949 -0.9718 -0.7307  1.3882
 7712SOL     OW34768   2.254   4.253   0.772  0.6346 -0.1838 -0.5254
 7712SOL    HW134769   2.268   4.216   0.859  1.7775  0.3571 -0.4817
 7712SOL    HW234770   2.321   4.322   0.776 -0.8345  1.0939  1.5434
 7713SOL     OW34771   1.649   0.467   9.835  0.0797 -0.6627  0.1184
 7713SOL    HW134772   1.708   0.432   9.768 -1.4679 -0.1007 -1.5461
 7713SOL    HW234773   1.692   0.553   9.834  2.2852 -1.7387  2.2930
 7714SOL     OW34774   4.182   2.481   3.763 -0.3758  0.3094  0.4750
 7714SOL    HW134775   4.146   2.497   3.676 -1.1360 -0.2169  0.6844
 7714SOL    HW234776   4.151   2.557   3.813  0.8666  0.7382  0.5905
 7715SOL     OW34777   1.850   1.942   4.893  0.0417 -0.4507  0.4469
 7715SOL    HW134778   1.890   1.997   4.960 -0.2349  0.3970 -0.0955
 7715SOL    HW234779   1.857   1.993   4.813 -0.3558  2.5563  2.3454
 7716SOL     OW34780   3.758   3.121   6.103  0.5197  0.2055  0.0212
 7716SOL    HW134781   3.788   3.102   6.013  1.4278  1.0752  0.1402
 7716SOL    HW234782   3.663   3.123   6.096  0.3653 -1.3951  1.6483
 7717SOL     OW34783   2.223   0.234   3.879  0.1622  0.4488 -0.2904
 7717SOL    HW134784   2.217   0.163   3.815  2.8268 -0.0483  0.0056
 7717SOL    HW234785   2.161   0.297   3.843 -0.7297 -0.5028 -0.4230
 7718SOL     OW34786   2.950   4.146   2.985  0.0769 -0.2901  0.5672
 7718SOL    HW134787   2.953   4.062   2.939 -0.6705  1.2153 -2.2228
 7718SOL    HW234788   2.999   4.204   2.926 -2.1027  0.0049 -0.9285
 7719SOL     OW34789   0.289   1.177  12.023  0.4720 -0.1506  1.1965
 7719SOL    HW134790   0.331   1.169  12.108  1.3337  1.0422  0.8905
 7719SOL    HW234791   0.278   1.272  12.017 -0.2172 -0.4896 -2.6975
 7720SOL     OW34792   4.636   4.321  11.092  0.1365 -0.1894 -0.5333
 7720SOL    HW134793   4.669   4.343  11.179  0.6358  0.2063 -0.8248
 7720SOL    HW234794   4.653   4.398  11.039 -0.8514  1.5863  1.7471
 7721SOL     OW34795   2.297   1.595  16.348  0.2019 -0.1335  0.1746
 7721SOL    HW134796   2.346   1.651  16.288 -1.5580 -0.7261 -1.8472
 7721SOL    HW234797   2.253   1.649  16.413 -0.4957  0.1805 -0.5516
 7722SOL     OW34798   2.713   3.746   5.118 -0.0621 -0.0789 -0.6977
 7722SOL    HW134799   2.707   3.782   5.207  0.7680 -0.5833 -0.4351
 7722SOL    HW234800   2.804   3.715   5.115  0.4254  1.2695  0.2045
 7723SOL     OW34801   4.073   1.299   6.408 -0.3946  0.4367 -0.1513
 7723SOL    HW134802   4.053   1.386   6.441  0.6512  0.1952  1.1306
 7723SOL    HW234803   4.168   1.307   6.413 -0.3429 -0.4605  0.3381
 7724SOL     OW34804   1.862   0.260   3.535 -0.1910  0.2783 -0.0429
 7724SOL    HW134805   1.873   0.238   3.628  1.9970  3.0468  0.3358
 7724SOL    HW234806   1.818   0.178   3.512 -0.3519  0.6721 -1.1154
 7725SOL     OW34807   1.774   4.638  14.758  0.3731  0.2135  0.1361
 7725SOL    HW134808   1.804   4.692  14.685  2.2219  0.9309  1.4067
 7725SOL    HW234809   1.774   4.709  14.823 -3.2576  0.1060  0.2534
 7726SOL     OW34810   0.608   0.565   7.172  0.3698 -0.2632 -0.3217
 7726SOL    HW134811   0.677   0.620   7.209 -0.9446  2.3810 -1.7695
 7726SOL    HW234812   0.667   0.518   7.113  0.0913 -0.4464 -0.4575
 7727SOL     OW34813   0.108   3.168  13.937  0.3301 -0.1250 -0.0143
 7727SOL    HW134814   0.150   3.230  13.878 -1.8779  0.7747 -0.6413
 7727SOL    HW234815   0.182   3.107  13.935  1.9090  1.8785 -1.7778
 7728SOL     OW34816   2.282   3.234  13.854  0.0324 -0.4403 -0.1061
 7728SOL    HW134817   2.275   3.141  13.835  1.4136 -0.3676 -0.9731
 7728SOL    HW234818   2.188   3.247  13.840  0.5234  3.2634 -0.0702
 7729SOL     OW34819   3.252   0.422  15.500 -0.3736 -0.6475  0.1802
 7729SOL    HW134820   3.346   0.430  15.481 -1.3254  2.7691 -3.1735
 7729SOL    HW234821   3.256   0.361  15.574  1.4409  0.3569  0.9201
 7730SOL     OW34822   3.246   4.552  10.623 -0.0513  0.2552 -0.1300
 7730SOL    HW134823   3.183   4.586  10.559 -0.9052 -0.9331  0.0814
 7730SOL    HW234824   3.230   4.594  10.708 -1.2069  0.0672 -0.2504
 7731SOL     OW34825   1.878   3.340   6.981 -0.3866  0.2805  0.5883
 7731SOL    HW134826   1.814   3.291   6.929 -0.1260 -0.9239  1.3993
 7731SOL    HW234827   1.935   3.270   7.013  0.9379  2.1575  2.3701
 7732SOL     OW34828   3.406   1.006  13.434  0.1282  0.4610 -0.5841
 7732SOL    HW134829   3.491   1.047  13.451 -0.9143  1.8200  1.2829
 7732SOL    HW234830   3.356   1.085  13.414  0.8777  1.2301  0.5729
 7733SOL     OW34831   2.192   3.710   4.084 -0.3777  0.4857  0.1620
 7733SOL    HW134832   2.120   3.657   4.051 -0.9130  0.9038  0.6487
 7733SOL    HW234833   2.161   3.738   4.171  0.9504 -0.1988  0.8571
 7734SOL     OW34834   0.026   3.983  10.236 -0.3430  0.1859  0.0016
 7734SOL    HW134835   0.097   3.941  10.188 -0.1414  0.6870 -0.1252
 7734SOL    HW234836   0.056   4.073  10.234  0.5115  0.0018  3.8672
 7735SOL     OW34837   0.431   4.519   0.546  0.0340  0.0449 -0.1167
 7735SOL    HW134838   0.433   4.457   0.619  0.7905  0.5419  0.2872
 7735SOL    HW234839   0.516   4.500   0.505 -0.2009  1.3181 -1.2112
 7736SOL     OW34840   0.415   4.529   9.697 -0.4035  0.1067 -0.1768
 7736SOL    HW134841   0.324   4.502   9.707  0.2766 -1.3971  1.7630
 7736SOL    HW234842   0.429   4.580   9.777  3.5167  0.3603 -1.0152
 7737SOL     OW34843   4.611   3.493   3.162  0.1171  0.4771  0.4208
 7737SOL    HW134844   4.609   3.545   3.082  1.6216  2.3481  1.5778
 7737SOL    HW234845   4.521   3.492   3.194 -0.0064  0.3218  0.0653
 7738SOL     OW34846   2.422   1.025   8.094 -0.1924 -0.7983 -0.7637
 7738SOL    HW134847   2.472   1.096   8.135 -0.7018 -1.5599  1.1882
 7738SOL    HW234848   2.475   0.950   8.122  1.8666  1.2717  0.8743
 7739SOL     OW34849   0.162   2.067   5.376 -0.0146  0.1315 -0.4892
 7739SOL    HW134850   0.067   2.064   5.366  0.0894 -2.6351 -0.5840
 7739SOL    HW234851   0.174   2.003   5.446  0.2052  2.8052  1.9180
 7740SOL     OW34852   4.373   3.876   9.030  0.2496  0.2165  0.4745
 7740SOL    HW134853   4.291   3.894   8.985  0.2852  0.9368  0.6933
 7740SOL    HW234854   4.358   3.788   9.065 -1.1384 -0.2116 -1.1889
 7741SOL     OW34855   2.643   0.266  17.589 -0.5074  0.3247 -0.4494
 7741SOL    HW134856   2.717   0.242  17.534 -0.5910  0.2452 -0.5263
 7741SOL    HW234857   2.605   0.335  17.534 -0.3985  0.1387 -0.7584
 7742SOL     OW34858   0.940   0.771   0.258 -0.0111  0.9269 -0.0193
 7742SOL    HW134859   0.890   0.694   0.231  0.0954  1.2209 -1.0578
 7742SOL    HW234860   0.951   0.817   0.174  0.4772  0.5930 -0.1417
 7743SOL     OW34861   1.568   1.103   0.058 -0.0669  0.7757  0.5455
 7743SOL    HW134862   1.512   1.072  17.729  0.5948 -0.4269  0.5469
 7743SOL    HW234863   1.511   1.097   0.135  0.2102  2.3153  0.8755
 7744SOL     OW34864   0.368   0.890   2.565 -0.4413 -0.4615  0.0640
 7744SOL    HW134865   0.427   0.927   2.630 -0.1652 -0.7564 -0.0193
 7744SOL    HW234866   0.369   0.798   2.591 -0.0387 -0.8815 -1.4269
 7745SOL     OW34867   0.171   3.644   1.086  0.1457 -0.0827  0.1757
 7745SOL    HW134868   0.225   3.576   1.047  0.9561  0.9116 -0.4209
 7745SOL    HW234869   0.214   3.649   1.171 -2.7480  1.3585  1.5627
 7746SOL     OW34870   0.529   2.315  17.408 -0.0753 -0.0141 -0.3765
 7746SOL    HW134871   0.547   2.406  17.430 -1.0670 -0.0486  0.5876
 7746SOL    HW234872   0.556   2.313  17.316 -0.7504 -0.0417 -0.5720
 7747SOL     OW34873   2.411   2.532   7.104 -0.0271 -0.2510  0.5140
 7747SOL    HW134874   2.471   2.585   7.052  1.0084 -1.2443  0.7132
 7747SOL    HW234875   2.363   2.601   7.149 -1.0205 -0.1402 -0.7053
 7748SOL     OW34876   1.215   1.922   4.988  0.0867  0.3049 -0.0824
 7748SOL    HW134877   1.224   1.827   4.982 -2.0367  0.1476 -0.7076
 7748SOL    HW234878   1.171   1.930   5.073 -0.1621 -0.9755 -0.0972
 7749SOL     OW34879   3.238   3.470   3.475 -0.1937  0.0813 -0.4382
 7749SOL    HW134880   3.269   3.386   3.507 -0.5413 -0.7645 -2.3064
 7749SOL    HW234881   3.280   3.531   3.535 -2.4082  1.5802 -0.4403
 7750SOL     OW34882   0.394   0.837  15.868  0.0829  0.5508  0.1987
 7750SOL    HW134883   0.326   0.793  15.816  0.3023  0.2653  0.1526
 7750SOL    HW234884   0.404   0.764  15.929 -0.5784  0.6976  0.4807
 7751SOL     OW34885   2.515   3.020   7.026 -0.0440 -0.0934 -0.0335
 7751SOL    HW134886   2.472   3.056   7.103 -1.6061 -0.7549 -0.5877
 7751SOL    HW234887   2.590   2.980   7.069 -0.7842  0.7097  1.9610
 7752SOL     OW34888   1.525   2.412   4.257 -0.1552 -0.1623  0.3730
 7752SOL    HW134889   1.524   2.407   4.162 -1.2458 -0.4550  0.3912
 7752SOL    HW234890   1.457   2.352   4.286 -0.5323  0.0897  0.0164
 7753SOL     OW34891   2.123   0.149   1.893  0.3478 -0.4082 -0.4628
 7753SOL    HW134892   2.039   0.195   1.881  0.2271 -0.3422  0.6595
 7753SOL    HW234893   2.126   0.086   1.821  0.1797 -2.1426  1.0816
 7754SOL     OW34894   2.210   0.525   8.412 -0.6764 -0.1734 -0.1148
 7754SOL    HW134895   2.209   0.565   8.325  1.9515 -0.3204 -0.2011
 7754SOL    HW234896   2.303   0.538   8.431 -0.6107  1.3526 -1.4219
 7755SOL     OW34897   4.468   4.006  13.439  0.0857 -0.0692 -0.1140
 7755SOL    HW134898   4.380   3.974  13.419  0.4467 -1.0996 -0.0285
 7755SOL    HW234899   4.486   3.947  13.512 -1.3195 -1.8702 -1.2510
 7756SOL     OW34900   3.472   3.402  13.199 -0.3472 -0.2320  0.3382
 7756SOL    HW134901   3.505   3.490  13.218  0.4540 -0.8598  1.8356
 7756SOL    HW234902   3.476   3.353  13.280 -0.9422  0.4479  0.7828
 7757SOL     OW34903   3.191   3.655   9.214  0.5640  0.2736 -0.1514
 7757SOL    HW134904   3.194   3.637   9.308  4.1306  0.6362 -0.1848
 7757SOL    HW234905   3.225   3.744   9.205  0.2885  0.0867 -2.9805
 7758SOL     OW34906   4.567   2.845   5.359  0.2379 -0.3172 -0.2735
 7758SOL    HW134907   4.532   2.756   5.364  3.0428 -1.3649  1.2918
 7758SOL    HW234908   4.651   2.826   5.317  1.0727  0.3414  1.0816
 7759SOL     OW34909   2.025   1.291   3.226 -0.5938  0.5078 -0.7038
 7759SOL    HW134910   2.034   1.202   3.193  1.9660  0.7866 -0.8126
 7759SOL    HW234911   2.025   1.269   3.320  0.5944  2.2818 -0.2733
 7760SOL     OW34912   3.545   2.548   1.569 -0.0716 -0.2312  0.4950
 7760SOL    HW134913   3.598   2.469   1.576  0.2957 -0.0085  0.2117
 7760SOL    HW234914   3.478   2.518   1.506  0.7133  1.3491 -1.1054
 7761SOL     OW34915   1.714   4.606   4.224 -0.3424 -0.2774  0.0386
 7761SOL    HW134916   1.794   4.609   4.172  0.6877  0.0735  1.6426
 7761SOL    HW234917   1.678   4.688   4.191  1.9869  1.4895  1.8674
 7762SOL     OW34918   0.911   4.700  11.895  0.0782  0.8234 -0.0478
 7762SOL    HW134919   0.925   0.040  11.838  0.0729  1.9994  1.5285
 7762SOL    HW234920   1.000   4.665  11.883 -0.3298 -0.2300 -0.0232
 7763SOL     OW34921   0.264   3.005   1.180  0.6395 -0.0248 -0.0486
 7763SOL    HW134922   0.315   2.949   1.121  0.4812  0.2389 -0.4341
 7763SOL    HW234923   0.182   3.012   1.131  1.8137  1.3839 -1.8008
 7764SOL     OW34924   3.989   2.741   1.484  0.1392  0.3472  0.7642
 7764SOL    HW134925   4.017   2.825   1.520 -1.4079  1.1878 -0.0260
 7764SOL    HW234926   3.907   2.770   1.444  1.6505  0.7514 -1.9987
 7765SOL     OW34927   0.874   2.695   5.816  0.1913  0.4906 -0.4697
 7765SOL    HW134928   0.914   2.721   5.733  1.1510  0.7610  0.0641
 7765SOL    HW234929   0.946   2.704   5.879  0.8656 -1.7861 -0.9125
 7766SOL     OW34930   1.706   0.232  16.563  0.8607  0.2767  0.3252
 7766SOL    HW134931   1.740   0.172  16.630  2.0705  0.2225 -0.3250
 7766SOL    HW234932   1.792   0.250  16.524  1.0891 -1.4829  0.0087
 7767SOL     OW34933   3.350   1.305   8.699 -0.1193 -0.1005 -0.3531
 7767SOL    HW134934   3.389   1.386   8.732 -0.7194  0.2234 -0.4287
 7767SOL    HW234935   3.261   1.339   8.693  0.4188  1.2737 -0.4724
 7768SOL     OW34936   1.540   2.211   6.276  0.5645 -0.1515 -0.1469
 7768SOL    HW134937   1.634   2.227   6.289  0.7303  2.0974 -4.1820
 7768SOL    HW234938   1.508   2.298   6.301  0.3043  0.0751 -1.2790
 7769SOL     OW34939   2.178   0.817  12.452 -0.0265  0.3713 -0.0615
 7769SOL    HW134940   2.182   0.906  12.417  0.3971  0.4516  0.1887
 7769SOL    HW234941   2.215   0.757  12.387  0.0672  0.9042 -0.4957
 7770SOL     OW34942   4.143   0.835  11.880 -0.2853 -0.3836 -0.1886
 7770SOL    HW134943   4.118   0.834  11.787  1.8460  0.4284 -0.7721
 7770SOL    HW234944   4.155   0.740  11.890  0.9649  0.0071  2.0767
 7771SOL     OW34945   2.809   0.194  17.385 -0.1982  0.0468 -0.1616
 7771SOL    HW134946   2.858   0.260  17.336  0.6554 -0.7795 -0.4116
 7771SOL    HW234947   2.873   0.141  17.432 -1.0435 -1.6318 -0.9002
 7772SOL     OW34948   3.433   4.077   5.477 -0.4680  0.3185  0.2371
 7772SOL    HW134949   3.478   3.997   5.448  0.5452  0.5541  1.1437
 7772SOL    HW234950   3.347   4.073   5.435 -0.3537 -0.2263  0.0450
 7773SOL     OW34951   3.685   4.664  15.098  0.4896  0.1454 -0.9299
 7773SOL    HW134952   3.717   0.011  15.062  0.7027 -0.7894 -2.8788
 7773SOL    HW234953   3.726   4.597  15.044  1.4365  0.5517 -0.7010
 7774SOL     OW34954   2.752   4.420   4.812  0.0241  0.1757  0.0291
 7774SOL    HW134955   2.803   4.470   4.748 -1.4208  1.0164 -0.4612
 7774SOL    HW234956   2.822   4.378   4.863  0.0969 -0.5936 -0.7110
 7775SOL     OW34957   2.294   1.146   6.183  0.0428  0.2459  0.1323
 7775SOL    HW134958   2.279   1.097   6.102 -1.3302  1.8770 -0.5836
 7775SOL    HW234959   2.245   1.087   6.239  2.8637 -0.4322  1.9039
 7776SOL     OW34960   4.130   1.791  11.494 -0.2625  0.3513 -0.2327
 7776SOL    HW134961   4.103   1.879  11.471 -2.3519  0.3189  2.0703
 7776SOL    HW234962   4.165   1.808  11.581 -2.0072  0.8985  0.3569
 7777SOL     OW34963   4.000   1.625   5.316 -0.2606  0.3337  0.5143
 7777SOL    HW134964   4.024   1.687   5.247  2.0723 -1.2437 -0.0502
 7777SOL    HW234965   4.070   1.561   5.311 -0.0627  0.4527  1.7253
 7778SOL     OW34966   3.499   4.720   3.970 -0.0871 -0.2556 -0.5002
 7778SOL    HW134967   3.422   4.663   3.964 -0.7412  0.5186  0.4757
 7778SOL    HW234968   3.516   4.701   4.062  1.1226 -0.4710 -0.7697
 7779SOL     OW34969   3.869   2.472   4.137 -0.0919  0.1764  0.0158
 7779SOL    HW134970   3.822   2.538   4.088 -0.9295 -0.1432  0.3928
 7779SOL    HW234971   3.806   2.401   4.122 -0.9766  1.3369 -1.7795
 7780SOL     OW34972   4.513   3.397   1.880 -0.2831  0.1272  0.2108
 7780SOL    HW134973   4.506   3.304   1.859 -0.2905  0.3543 -0.7754
 7780SOL    HW234974   4.606   3.417   1.892 -0.7733  1.9812  0.8017
 7781SOL     OW34975   0.963   1.775   6.613 -0.4976  0.0728  0.1562
 7781SOL    HW134976   1.018   1.710   6.570 -1.6475 -0.4513 -0.5164
 7781SOL    HW234977   0.879   1.755   6.573 -0.8519 -0.1281  0.9914
 7782SOL     OW34978   2.545   1.791  14.487  0.1604 -0.2776  0.0853
 7782SOL    HW134979   2.462   1.772  14.444  0.0609 -0.5133  0.3733
 7782SOL    HW234980   2.569   1.699  14.501  2.1405 -0.0237 -1.6226
 7783SOL     OW34981   1.208   3.713   5.176 -0.5160  0.2146 -0.4906
 7783SOL    HW134982   1.159   3.639   5.211 -2.0777  1.6816  0.4345
 7783SOL    HW234983   1.294   3.696   5.215 -1.8166 -0.8089  1.9456
 7784SOL     OW34984   4.135   1.673   8.610 -0.2911 -0.2987 -0.5111
 7784SOL    HW134985   4.104   1.698   8.523 -0.0657  1.2868 -0.1427
 7784SOL    HW234986   4.168   1.584   8.599 -0.9259 -0.3441 -1.9562
 7785SOL     OW34987   1.959   1.811   5.323 -0.5358  0.4002  0.4716
 7785SOL    HW134988   1.955   1.845   5.413  0.9351 -1.7301  1.3527
 7785SOL    HW234989   1.865   1.811   5.306 -0.1477  1.1172 -1.5544
 7786SOL     OW34990   4.536   2.757   7.890  0.1100 -0.1231  0.1046
 7786SOL    HW134991   4.442   2.770   7.881  0.4095  1.4085 -0.8722
 7786SOL    HW234992   4.573   2.835   7.848 -0.6170 -0.1149 -0.5210
 7787SOL     OW34993   4.454   3.139   9.426  0.2228 -0.7356  0.2166
 7787SOL    HW134994   4.396   3.114   9.498 -1.1185 -0.2730 -0.7104
 7787SOL    HW234995   4.479   3.229   9.445 -2.5592 -0.2698  1.5944
 7788SOL     OW34996   1.606   3.042   0.364  0.3809  0.2995  0.6328
 7788SOL    HW134997   1.607   3.136   0.382 -0.2131  0.5173 -0.4841
 7788SOL    HW234998   1.513   3.032   0.345  0.6755 -1.0462 -0.0803
 7789SOL     OW34999   4.077   2.072  16.623 -0.1701  0.3940  0.2467
 7789SOL    HW135000   4.163   2.110  16.607 -0.3875  1.8274  2.5366
 7789SOL    HW235001   4.053   2.115  16.705  1.5396  0.1798  0.8707
 7790SOL     OW35002   2.110   2.207   2.637 -1.0285 -0.5169 -0.4568
 7790SOL    HW135003   2.086   2.278   2.697  1.5557 -1.0606  1.2050
 7790SOL    HW235004   2.099   2.253   2.554 -2.6615 -0.0070  0.0473
 7791SOL     OW35005   4.678   0.348  11.516 -0.1194  0.0576  0.1942
 7791SOL    HW135006   4.727   0.278  11.560  0.2418  0.3051  0.1919
 7791SOL    HW235007   0.006   0.417  11.537 -1.4893  0.7275  2.1997
 7792SOL     OW35008   0.645   4.190   4.498 -0.0377  0.5050 -0.0810
 7792SOL    HW135009   0.709   4.184   4.568  0.2343 -0.1500 -0.3821
 7792SOL    HW235010   0.700   4.162   4.425  1.2748 -0.6777  1.3827
 7793SOL     OW35011   0.089   2.193   7.635  0.1657 -0.1292 -0.3589
 7793SOL    HW135012   0.056   2.177   7.723  0.3853  0.8124 -0.1044
 7793SOL    HW235013   0.018   2.165   7.577  1.4526  0.2434 -2.1446
 7794SOL     OW35014   2.612   0.846   3.216  0.4090  0.7898 -0.3408
 7794SOL    HW135015   2.624   0.905   3.142 -1.2239  1.3422 -0.1642
 7794SOL    HW235016   2.516   0.839   3.212  0.4172  0.2250  0.5118
 7795SOL     OW35017   3.438   2.782  11.336  0.3006 -0.6761 -0.3730
 7795SOL    HW135018   3.359   2.834  11.353 -1.6450 -3.7307  0.0611
 7795SOL    HW235019   3.453   2.798  11.242 -2.7960  1.2767 -0.5485
 7796SOL     OW35020   0.382   4.219   6.571  0.3598  0.5446 -0.0400
 7796SOL    HW135021   0.416   4.215   6.481 -2.1806  0.4786 -0.9894
 7796SOL    HW235022   0.419   4.134   6.595 -1.1787 -0.0152  0.3217
 7797SOL     OW35023   2.727   3.997   6.212  0.1929  0.5945 -0.2344
 7797SOL    HW135024   2.723   4.025   6.303 -2.0807 -0.6293  0.0378
 7797SOL    HW235025   2.795   4.053   6.174 -0.2491  1.5142  0.3177
 7798SOL     OW35026   0.413   0.301   6.659 -0.3868 -0.2264 -0.5176
 7798SOL    HW135027   0.455   0.345   6.585  2.3867 -0.6470  0.8204
 7798SOL    HW235028   0.381   0.220   6.619  0.2486 -1.0176  0.5672
 7799SOL     OW35029   3.302   0.218  14.160 -0.2498  0.0343  0.2493
 7799SOL    HW135030   3.328   0.169  14.082 -3.7167 -1.4344 -0.0057
 7799SOL    HW235031   3.259   0.296  14.123 -1.2768 -0.5085  0.3005
 7800SOL     OW35032   4.352   3.346   2.744 -0.4541  0.1011 -0.5061
 7800SOL    HW135033   4.421   3.329   2.808 -0.6077 -1.2163 -0.6958
 7800SOL    HW235034   4.379   3.299   2.665  3.0838 -1.1006  1.3975
 7801SOL     OW35035   0.149   3.498   3.740  0.3757 -0.5084 -0.0023
 7801SOL    HW135036   0.183   3.465   3.823  0.5524  1.1500  0.5990
 7801SOL    HW235037   0.065   3.537   3.766  0.2060 -0.9208  0.0589
 7802SOL     OW35038   0.498   0.994   2.771 -0.0991  0.2735  0.0749
 7802SOL    HW135039   0.585   0.979   2.808 -0.4979  0.0741  0.9184
 7802SOL    HW235040   0.486   1.088   2.777 -2.0777  0.1264 -1.5814
 7803SOL     OW35041   1.146   1.103   7.700 -0.2964 -0.4256  0.1112
 7803SOL    HW135042   1.189   1.129   7.782  0.8960  2.4336 -1.4462
 7803SOL    HW235043   1.084   1.037   7.734 -0.5721 -0.8586 -1.2436
 7804SOL     OW35044   2.089   2.491  16.051 -0.0983 -0.6522 -0.3903
 7804SOL    HW135045   2.096   2.400  16.077  1.6492 -0.4330 -0.1274
 7804SOL    HW235046   2.149   2.524  16.118 -0.1547  0.0253 -0.6700
 7805SOL     OW35047   4.183   2.934  16.602 -0.0895 -1.2853  0.5149
 7805SOL    HW135048   4.199   3.013  16.654  2.9925 -1.1910 -0.5842
 7805SOL    HW235049   4.110   2.897  16.652 -1.0733 -1.3221 -0.9680
 7806SOL     OW35050   0.508   3.298  17.283 -0.2620 -0.0152 -0.4936
 7806SOL    HW135051   0.451   3.347  17.341 -0.2482  0.3167 -0.7609
 7806SOL    HW235052   0.450   3.279  17.209 -0.3110  1.2253 -0.7738
 7807SOL     OW35053   4.568   2.373   7.250 -0.5563 -0.2853  0.4587
 7807SOL    HW135054   4.645   2.316   7.255 -1.2306 -1.1174  1.5894
 7807SOL    HW235055   4.603   2.453   7.290  0.6677 -1.3392  1.5263
 7808SOL     OW35056   0.564   3.555   7.978 -0.6559 -0.2716 -0.5486
 7808SOL    HW135057   0.476   3.518   7.970 -0.5841 -0.4131 -0.6813
 7808SOL    HW235058   0.612   3.483   7.936 -0.3318  0.3725 -1.2930
 7809SOL     OW35059   0.019   1.255   7.833  0.8386  0.2157 -0.1575
 7809SOL    HW135060   0.044   1.342   7.802  1.7286  0.2389  0.6096
 7809SOL    HW235061   4.663   1.251   7.806  0.2124  2.5560  1.5861
 7810SOL     OW35062   3.346   4.692   9.450 -0.5803 -0.6851 -0.0103
 7810SOL    HW135063   3.255   4.662   9.447 -0.4054 -1.4778  2.0934
 7810SOL    HW235064   3.385   4.609   9.477  0.3547  1.0077  3.9136
 7811SOL     OW35065   3.072   4.711   9.268  0.1090  0.3659 -0.2974
 7811SOL    HW135066   3.039   4.670   9.348 -0.1355  0.1637 -0.5009
 7811SOL    HW235067   2.986   4.735   9.234  0.1447  0.4383 -0.3368
 7812SOL     OW35068   2.628   1.925   6.495 -0.1045  0.7003 -0.0586
 7812SOL    HW135069   2.582   1.974   6.428 -0.5565  2.1313  1.2848
 7812SOL    HW235070   2.570   1.916   6.571  0.1745  0.4923  0.1324
 7813SOL     OW35071   2.657   2.674  14.937 -0.2389 -0.1918  0.4007
 7813SOL    HW135072   2.661   2.712  15.025 -1.5371 -0.5256  0.5916
 7813SOL    HW235073   2.593   2.730  14.893 -1.5034  0.9128  3.6097
 7814SOL     OW35074   2.028   0.454   6.390  0.0493 -0.4849 -0.4800
 7814SOL    HW135075   1.994   0.522   6.331 -1.8046 -1.2465 -0.2953
 7814SOL    HW235076   2.090   0.508   6.438 -1.5924 -1.1547  2.3838
 7815SOL     OW35077   0.491   2.487   8.151  0.1418  0.1917  0.0136
 7815SOL    HW135078   0.422   2.434   8.190 -0.8116  0.8212 -0.8110
 7815SOL    HW235079   0.437   2.566   8.152 -1.0246 -0.6075 -0.5348
 7816SOL     OW35080   1.425   4.128   3.249  0.0189  0.4295  0.2068
 7816SOL    HW135081   1.388   4.215   3.263 -0.9792  0.3749 -2.2543
 7816SOL    HW235082   1.354   4.070   3.224  0.2020  1.4674 -2.6438
 7817SOL     OW35083   2.914   3.425   6.885  0.1036 -0.8379  0.4551
 7817SOL    HW135084   2.840   3.374   6.919 -0.2858  0.6941  1.8949
 7817SOL    HW235085   2.889   3.508   6.925 -1.4549 -0.3472 -1.5563
 7818SOL     OW35086   2.502   1.275   1.039  0.6094 -0.7411 -0.1363
 7818SOL    HW135087   2.471   1.210   0.976 -1.6229  0.5076 -0.3296
 7818SOL    HW235088   2.511   1.339   0.969  0.2512 -1.2491 -0.6439
 7819SOL     OW35089   2.485   2.195   4.084  0.4629 -0.1441  0.5879
 7819SOL    HW135090   2.483   2.099   4.077 -0.3859 -0.0523 -0.3659
 7819SOL    HW235091   2.409   2.220   4.135 -0.8029 -1.5197 -0.6129
 7820SOL     OW35092   0.637   1.377   3.524 -0.2331 -0.0210 -0.2876
 7820SOL    HW135093   0.579   1.318   3.574  2.5827 -0.4581  2.4542
 7820SOL    HW235094   0.630   1.452   3.583  0.7956 -1.1901  1.3265
 7821SOL     OW35095   3.190   3.832   1.149 -0.4581 -0.4238  0.0505
 7821SOL    HW135096   3.109   3.829   1.098  0.6551  0.9484 -1.8005
 7821SOL    HW235097   3.225   3.910   1.105 -3.3686  0.3324 -0.9801
 7822SOL     OW35098   1.379   4.286   2.016 -0.0508  0.0146  0.1026
 7822SOL    HW135099   1.332   4.358   2.060  1.5019  0.6493  0.7304
 7822SOL    HW235100   1.446   4.335   1.968 -0.3763 -1.6751 -2.0626
 7823SOL     OW35101   0.899   2.429   0.592 -0.0845  0.4517  0.3029
 7823SOL    HW135102   0.926   2.338   0.576  1.4300  0.2634  3.8508
 7823SOL    HW235103   0.815   2.432   0.637  0.1144 -0.6723  0.7505
 7824SOL     OW35104   1.428   0.774   1.353 -0.5312 -0.6017  0.0519
 7824SOL    HW135105   1.470   0.705   1.405  0.2270 -0.3850 -0.2814
 7824SOL    HW235106   1.434   0.856   1.402  1.5490 -3.3196  4.3454
 7825SOL     OW35107   2.702   3.696   4.789  0.0455 -0.2854  0.6569
 7825SOL    HW135108   2.729   3.668   4.876  1.4272  0.2767  0.3999
 7825SOL    HW235109   2.672   3.615   4.747 -0.3833  0.4548 -0.4751
 7826SOL     OW35110   1.393   4.524   4.573 -0.1119  0.2670 -0.0819
 7826SOL    HW135111   1.468   4.495   4.625 -0.7448 -0.9117  0.1782
 7826SOL    HW235112   1.371   4.444   4.525  1.1648 -0.6335  0.8337
 7827SOL     OW35113   2.167   4.430   1.349  0.1795 -0.1850  0.0835
 7827SOL    HW135114   2.239   4.414   1.410  0.5087  0.1852 -0.2040
 7827SOL    HW235115   2.212   4.442   1.265 -0.3102 -1.8330 -0.4237
 7828SOL     OW35116   3.977   0.498  16.967  0.6669  0.1646 -0.2122
 7828SOL    HW135117   4.027   0.458  17.038 -2.4040 -1.3401  1.1216
 7828SOL    HW235118   4.013   0.585  16.980  2.0167 -0.4266 -0.0356
 7829SOL     OW35119   1.895   4.330   7.293 -0.3311  0.0060  0.2325
 7829SOL    HW135120   1.948   4.302   7.218  0.7799  0.9217  0.6753
 7829SOL    HW235121   1.837   4.254   7.297 -1.8642  1.0496 -1.9946
 7830SOL     OW35122   3.925   4.318   1.840 -0.1570  0.9147 -0.8597
 7830SOL    HW135123   3.969   4.283   1.763  0.6691  1.0066 -0.4286
 7830SOL    HW235124   3.895   4.236   1.878  2.0462  0.5791  0.1056
 7831SOL     OW35125   2.927   3.181  13.170  0.6290 -0.0034 -0.1592
 7831SOL    HW135126   2.995   3.224  13.221  0.5016  0.4458 -0.3651
 7831SOL    HW235127   2.938   3.235  13.092 -1.6453  1.5179  0.5691
 7832SOL     OW35128   1.017   0.838  13.449 -0.1875  0.2648 -0.2351
 7832SOL    HW135129   1.062   0.795  13.376  0.5083  0.4450  0.0905
 7832SOL    HW235130   1.076   0.819  13.522  0.1057 -0.1855 -0.5869
 7833SOL     OW35131   0.538   3.926   9.374 -0.3200 -0.0965  0.0394
 7833SOL    HW135132   0.582   3.969   9.448 -1.7316 -0.6320  1.1978
 7833SOL    HW235133   0.448   3.957   9.374 -1.1778 -2.6274  1.0097
 7834SOL     OW35134   4.476   3.356   9.795  0.8386  0.0268 -0.2310
 7834SOL    HW135135   4.521   3.291   9.741  1.4627  0.1598  0.1219
 7834SOL    HW235136   4.544   3.420   9.817  0.4613  1.2126 -2.5182
 7835SOL     OW35137   1.069   0.723  11.820 -0.3698 -0.0302  0.3381
 7835SOL    HW135138   1.159   0.731  11.851 -0.4612 -0.8075  0.7766
 7835SOL    HW235139   1.030   0.682  11.897  0.7553 -2.2181 -0.2890
 7836SOL     OW35140   2.077   2.047  15.772 -0.0285  0.2068  0.5951
 7836SOL    HW135141   2.152   2.090  15.813 -0.8096  1.8290  0.3193
 7836SOL    HW235142   2.073   1.977  15.837 -0.9993  1.2433  1.6733
 7837SOL     OW35143   2.440   2.032   5.524  0.3178  0.0140  0.2765
 7837SOL    HW135144   2.527   2.070   5.535  0.4818  0.3181 -2.0356
 7837SOL    HW235145   2.448   1.948   5.478  0.7679  0.2230 -0.0259
 7838SOL     OW35146   2.980   0.253   4.533  0.2414  0.3301 -0.6699
 7838SOL    HW135147   2.997   0.324   4.594  0.6101  1.7017 -2.3694
 7838SOL    HW235148   2.975   0.297   4.448 -2.8535 -0.2612 -0.8048
 7839SOL     OW35149   2.215   4.219  13.685  0.4047 -0.5467 -0.3602
 7839SOL    HW135150   2.299   4.213  13.639  1.5493 -1.4792  1.8939
 7839SOL    HW235151   2.212   4.128  13.714 -1.7989 -0.2874  0.2050
 7840SOL     OW35152   1.907   3.268   0.277 -0.0343  0.8082  0.2528
 7840SOL    HW135153   1.950   3.200   0.330 -0.2613  0.2543 -0.2695
 7840SOL    HW235154   1.970   3.271   0.205  0.2106 -1.0142  0.3700
 7841SOL     OW35155   4.586   4.561  13.872  0.0568  0.7300  0.3988
 7841SOL    HW135156   4.641   4.568  13.950  2.8486 -0.5040 -1.4794
 7841SOL    HW235157   4.547   4.474  13.877 -0.3281  0.7301 -2.8505
 7842SOL     OW35158   4.240   4.100   3.587 -0.0051 -0.5832  0.1674
 7842SOL    HW135159   4.311   4.054   3.633 -0.6752  0.8348  2.5937
 7842SOL    HW235160   4.240   4.184   3.632  2.4415 -1.4480  1.7928
 7843SOL     OW35161   3.043   3.161   6.872  0.2522 -0.2770  0.3984
 7843SOL    HW135162   3.017   3.122   6.788  0.2461 -1.5964  1.0112
 7843SOL    HW235163   3.048   3.255   6.853  0.3103 -0.6168 -1.2934
 7844SOL     OW35164   3.198   3.455   5.956 -0.0580  0.5064  0.1045
 7844SOL    HW135165   3.138   3.529   5.963  1.0161  1.3849  0.1056
 7844SOL    HW235166   3.235   3.450   6.045 -1.2283  2.1417  0.6834
 7845SOL     OW35167   0.938   4.601   2.235 -0.3142 -0.3843 -0.7134
 7845SOL    HW135168   0.911   4.529   2.178  1.4744 -0.8892 -0.8998
 7845SOL    HW235169   1.012   4.638   2.187  0.2725 -1.3222 -0.5162
 7846SOL     OW35170   2.031   1.119  12.551  0.1917 -0.0009  0.2986
 7846SOL    HW135171   1.992   1.194  12.506 -0.1868 -1.8086 -2.3607
 7846SOL    HW235172   2.122   1.147  12.555  0.9340 -2.2791 -0.8293
 7847SOL     OW35173   2.120   0.065  17.171  0.0589 -0.6797  0.4839
 7847SOL    HW135174   2.071   0.141  17.141 -0.0722 -1.1799 -0.5366
 7847SOL    HW235175   2.096   0.009  17.098  0.3627 -2.4632  1.7694
 7848SOL     OW35176   4.637   3.839   5.040  0.0512  0.3293 -0.2434
 7848SOL    HW135177   4.578   3.772   5.074  1.7054 -0.6090  0.7510
 7848SOL    HW235178   4.709   3.786   5.008  2.0311  1.7469  1.9120
 7849SOL     OW35179   2.318   0.523   5.008 -0.5457  0.0511 -0.1675
 7849SOL    HW135180   2.316   0.430   5.029 -0.8841  0.0801 -0.0755
 7849SOL    HW235181   2.280   0.512   4.920  0.0350 -3.5057  0.0522
 7850SOL     OW35182   3.457   3.564  15.125  0.5081 -0.0084  0.3124
 7850SOL    HW135183   3.417   3.485  15.161  0.9787  0.8935  2.8390
 7850SOL    HW235184   3.441   3.545  15.033  0.1943  0.9522  0.1654
 7851SOL     OW35185   2.765   1.260  12.897 -0.2109  0.4411  0.0545
 7851SOL    HW135186   2.856   1.231  12.903  0.8275  3.6823 -0.0472
 7851SOL    HW235187   2.783   1.350  12.925  0.4377  0.7876 -1.4601
 7852SOL     OW35188   3.845   1.636   7.883 -0.6070  0.3687 -0.4167
 7852SOL    HW135189   3.903   1.575   7.928  0.2658  1.4558 -0.0810
 7852SOL    HW235190   3.818   1.576   7.813  0.1262 -1.1855  0.6389
 7853SOL     OW35191   0.856   2.955   4.318  0.1516 -0.5452 -0.1903
 7853SOL    HW135192   0.901   2.884   4.365  0.8854 -0.9076 -1.4567
 7853SOL    HW235193   0.770   2.918   4.297  0.5803 -2.4365  1.3154
 7854SOL     OW35194   1.275   1.519   6.173  0.1436 -0.3999 -0.9568
 7854SOL    HW135195   1.274   1.574   6.251 -1.5281  0.3535 -1.5128
 7854SOL    HW235196   1.326   1.575   6.114 -1.1902  0.4249 -1.3273
 7855SOL     OW35197   0.497   1.737   7.039 -0.1292 -0.4854  0.2419
 7855SOL    HW135198   0.479   1.815   7.091 -0.1709 -0.4709  0.2056
 7855SOL    HW235199   0.415   1.712   6.996 -0.6572  0.4993  0.6869
 7856SOL     OW35200   2.447   3.971   0.922  0.9116  0.8006 -0.1911
 7856SOL    HW135201   2.423   3.921   0.844  0.1541 -0.6743  1.0102
 7856SOL    HW235202   2.473   3.905   0.986 -3.4900  1.0772  1.8648
 7857SOL     OW35203   2.043   1.635  13.572  0.4406  0.6039 -0.3483
 7857SOL    HW135204   1.954   1.649  13.606  1.1085  2.1003  0.8104
 7857SOL    HW235205   2.087   1.617  13.655  0.5501  1.5312 -0.1978
 7858SOL     OW35206   0.831   2.721  15.231 -0.0499 -0.8655 -0.5737
 7858SOL    HW135207   0.858   2.724  15.323  2.4049 -1.6723 -1.2752
 7858SOL    HW235208   0.901   2.774  15.193 -0.1494 -0.2653  0.0839
 7859SOL     OW35209   1.619   3.096   8.277  0.0304  0.5139  0.4407
 7859SOL    HW135210   1.592   3.080   8.187  1.4556 -0.5084  0.1905
 7859SOL    HW235211   1.540   3.092   8.331 -0.3925  3.2139  0.0043
 7860SOL     OW35212   0.070   1.030  11.899  0.7470  0.3083  0.3737
 7860SOL    HW135213   0.141   1.081  11.937  1.0048 -0.4880  0.9715
 7860SOL    HW235214   0.040   1.093  11.834  0.6850  0.9284  1.0022
 7861SOL     OW35215   0.926   2.906  14.032 -0.1558  0.4447 -0.4315
 7861SOL    HW135216   0.988   2.973  14.003  1.4586  0.2569  2.6722
 7861SOL    HW235217   0.860   2.955  14.082  1.4011 -0.8705  2.8920
 7862SOL     OW35218   4.590   2.226   8.891  0.0304  0.5624  0.3260
 7862SOL    HW135219   4.500   2.246   8.863  0.6242  0.2137 -1.8651
 7862SOL    HW235220   4.600   2.145   8.841  2.2186  0.2912  1.2038
 7863SOL     OW35221   2.452   1.671   4.724 -0.4507 -0.2049 -0.0036
 7863SOL    HW135222   2.504   1.725   4.665 -2.3764  3.3844  1.6032
 7863SOL    HW235223   2.394   1.741   4.752  0.7242  0.4098  0.8712
 7864SOL     OW35224   1.446   1.011   4.024  0.1934 -0.2629  0.3572
 7864SOL    HW135225   1.360   0.969   4.032 -0.0236 -0.2108 -1.6823
 7864SOL    HW235226   1.466   0.974   3.938 -1.1060  0.4200 -0.2489
 7865SOL     OW35227   1.388   2.476   1.845  0.7780  0.2040  0.0153
 7865SOL    HW135228   1.389   2.395   1.896  1.1552  0.1130 -0.1346
 7865SOL    HW235229   1.365   2.444   1.758 -0.6894  1.3946 -0.0466
 7866SOL     OW35230   2.906   4.055   5.337  0.8059 -0.5983  0.2779
 7866SOL    HW135231   2.971   4.082   5.272 -0.3904  0.5094 -0.4684
 7866SOL    HW235232   2.930   4.112   5.410  0.0248  0.3559 -0.2136
 7867SOL     OW35233   3.741   3.808   8.190 -0.6051  0.3032  0.4030
 7867SOL    HW135234   3.647   3.809   8.171 -0.2322  0.4974 -1.4149
 7867SOL    HW235235   3.766   3.851   8.109  0.1106 -0.7541  0.0595
 7868SOL     OW35236   3.778   4.402   0.154  0.1117  0.3074  0.0534
 7868SOL    HW135237   3.714   4.413   0.084  0.1916 -0.8368 -0.2006
 7868SOL    HW235238   3.749   4.472   0.212  0.2235  0.5289 -0.1567
 7869SOL     OW35239   4.062   0.618   8.721  0.0223 -0.1692  0.3078
 7869SOL    HW135240   4.014   0.645   8.800 -0.9170 -1.3208  0.1417
 7869SOL    HW235241   4.123   0.692   8.722 -0.2796  0.0863 -0.0862
 7870SOL     OW35242   1.103   0.461   3.713 -0.3579 -0.0037  0.4009
 7870SOL    HW135243   1.160   0.437   3.787 -0.4291 -3.5870 -0.7116
 7870SOL    HW235244   1.038   0.392   3.725 -1.5487  0.8869 -1.0073
 7871SOL     OW35245   3.862   1.144   4.148 -0.5132 -0.2579  0.2485
 7871SOL    HW135246   3.840   1.175   4.235 -0.4000  0.9383 -0.1528
 7871SOL    HW235247   3.825   1.210   4.090 -1.3868  1.0959  2.3595
 7872SOL     OW35248   0.374   2.965   6.534 -0.4009 -0.2381 -0.1144
 7872SOL    HW135249   0.431   2.996   6.604  0.4061  0.7167 -1.2039
 7872SOL    HW235250   0.325   2.899   6.582 -0.4260 -0.2626 -0.1737
 7873SOL     OW35251   2.949   3.925   2.839  0.2143  0.1228  0.2091
 7873SOL    HW135252   3.022   3.889   2.789  0.9986 -1.1954  2.2902
 7873SOL    HW235253   2.886   3.855   2.860  0.5910  0.4239  2.3499
 7874SOL     OW35254   1.729   3.321  15.577  0.2054  0.2795  0.7007
 7874SOL    HW135255   1.821   3.298  15.571 -0.1920 -0.6412 -1.8138
 7874SOL    HW235256   1.741   3.415  15.591 -0.1324  0.2688  1.0668
 7875SOL     OW35257   3.448   0.205   5.467  0.1055 -0.0609 -0.1910
 7875SOL    HW135258   3.470   0.176   5.379 -0.5001 -1.4209  0.1016
 7875SOL    HW235259   3.391   0.280   5.450  0.6949  0.9332  2.3149
 7876SOL     OW35260   2.350   1.900  12.302 -0.2926 -0.0261  0.5376
 7876SOL    HW135261   2.301   1.870  12.378 -2.8000 -2.3166 -2.0062
 7876SOL    HW235262   2.330   1.993  12.298 -0.6889 -0.1388 -0.0231
 7877SOL     OW35263   3.707   1.952   5.022  0.2065 -0.3446  0.0847
 7877SOL    HW135264   3.701   2.040   5.059 -0.2455 -0.8785  1.2983
 7877SOL    HW235265   3.721   1.898   5.100  0.3284  0.9895  0.9859
 7878SOL     OW35266   3.335   3.843  12.002 -0.2164 -0.2369  0.4624
 7878SOL    HW135267   3.377   3.807  12.080 -0.2329  0.5445  0.8380
 7878SOL    HW235268   3.254   3.879  12.037  0.6991 -0.1182  2.4601
 7879SOL     OW35269   1.666   1.135   7.447 -0.2141  0.5154  0.2105
 7879SOL    HW135270   1.653   1.057   7.501  0.6384 -0.9262 -1.6680
 7879SOL    HW235271   1.692   1.196   7.516 -0.4475  0.5132  0.3013
 7880SOL     OW35272   0.185   0.693  15.752 -0.1071  0.1113  0.4839
 7880SOL    HW135273   0.121   0.759  15.777 -0.4731  0.6185 -1.7746
 7880SOL    HW235274   0.138   0.610  15.745 -1.3256  0.9496 -1.2913
 7881SOL     OW35275   3.517   2.568   9.148  0.0269 -0.4872 -0.2444
 7881SOL    HW135276   3.429   2.562   9.186  0.3486 -1.2683  0.3893
 7881SOL    HW235277   3.573   2.584   9.224 -2.6479 -0.0512  1.6779
 7882SOL     OW35278   3.664   2.669   9.368 -0.1159 -0.0790 -0.7642
 7882SOL    HW135279   3.742   2.679   9.422 -1.2167  2.1871  0.4079
 7882SOL    HW235280   3.656   2.759   9.336 -1.0890 -0.1831 -0.8217
 7883SOL     OW35281   1.120   0.919   2.105  0.2181  0.5727  0.0279
 7883SOL    HW135282   1.100   1.012   2.116 -0.2817  0.1264  2.8948
 7883SOL    HW235283   1.048   0.884   2.053  0.1648  3.7404 -2.0238
 7884SOL     OW35284   2.863   0.735   8.115 -0.3963 -0.6310 -0.1716
 7884SOL    HW135285   2.891   0.644   8.111  0.4926 -0.3695  0.1316
 7884SOL    HW235286   2.950   0.772   8.127 -1.3567  1.7488 -0.5317
 7885SOL     OW35287   0.034   2.378   1.214 -0.0730 -0.7560 -0.3989
 7885SOL    HW135288   0.102   2.437   1.249  0.7014 -1.5324 -0.5877
 7885SOL    HW235289   4.694   2.434   1.228 -0.6613 -1.6162 -0.1738
 7886SOL     OW35290   2.942   0.523   6.806  0.4536 -0.3178 -0.1029
 7886SOL    HW135291   2.969   0.432   6.818  0.3942 -0.2164  0.8247
 7886SOL    HW235292   3.006   0.566   6.862  0.0891  0.0687  0.0108
 7887SOL     OW35293   1.141   3.819   1.287  0.1279  0.1650 -0.1970
 7887SOL    HW135294   1.159   3.763   1.211 -0.8412  1.9206 -1.7235
 7887SOL    HW235295   1.078   3.768   1.337  0.4863  0.9457  1.0538
 7888SOL     OW35296   1.797   4.322   3.815 -0.2059 -0.3764 -0.4129
 7888SOL    HW135297   1.798   4.313   3.720  0.4234  0.7116 -0.5059
 7888SOL    HW235298   1.891   4.332   3.825 -0.3036 -0.5265  0.6811
 7889SOL     OW35299   2.873   4.567   3.513 -0.1983  0.0940  0.1723
 7889SOL    HW135300   2.868   4.574   3.608  1.1282  0.2131  0.2374
 7889SOL    HW235301   2.903   4.656   3.498 -0.5762  0.1394 -0.3108
 7890SOL     OW35302   2.127   4.731   8.580  1.1098  0.3136 -0.3488
 7890SOL    HW135303   2.097   4.698   8.495  2.3559  0.9066 -1.0155
 7890SOL    HW235304   2.216   0.021   8.556  1.8960 -0.3340  1.9151
 7891SOL     OW35305   3.460   0.149   5.192 -0.0898 -0.4808 -0.4239
 7891SOL    HW135306   3.414   0.082   5.140  1.6500 -0.8040 -1.5682
 7891SOL    HW235307   3.422   0.227   5.152  0.3657 -0.6571 -1.2185
 7892SOL     OW35308   0.165   0.256  15.996  0.0545  0.4968  0.1464
 7892SOL    HW135309   0.160   0.269  16.091  0.0596 -1.7032  0.4609
 7892SOL    HW235310   0.173   0.161  15.994 -1.4736  0.4650 -3.3590
 7893SOL     OW35311   0.394   3.778  16.272  0.0806  0.5291 -0.1078
 7893SOL    HW135312   0.381   3.683  16.271 -0.9472  0.6502  1.1644
 7893SOL    HW235313   0.315   3.807  16.227 -0.9759  1.4325  2.3501
 7894SOL     OW35314   2.527   4.242   1.316  0.2095 -0.3129  0.1355
 7894SOL    HW135315   2.471   4.183   1.266  0.2001  0.3349 -0.6263
 7894SOL    HW235316   2.492   4.234   1.404  0.4668  2.3098  0.4791
 7895SOL     OW35317   0.702   2.128   0.612 -0.3649 -0.1390 -0.0467
 7895SOL    HW135318   0.776   2.143   0.553 -0.6291  2.7289  0.3803
 7895SOL    HW235319   0.747   2.093   0.689  2.2625 -0.1771 -1.5897
 7896SOL     OW35320   4.652   2.753   8.670 -0.1565 -0.0915  0.0735
 7896SOL    HW135321   4.688   2.756   8.759  3.4882  2.8523 -1.5116
 7896SOL    HW235322   4.605   2.670   8.661  2.3910 -1.3872 -0.9911
 7897SOL     OW35323   0.209   1.166   6.591  0.6771 -0.6164  0.5199
 7897SOL    HW135324   0.190   1.173   6.497 -1.3401  1.0407  1.0569
 7897SOL    HW235325   0.301   1.143   6.579  0.2735 -2.0552  0.2429
 7898SOL     OW35326   0.806   2.156  16.762 -0.3371 -0.4040  0.2456
 7898SOL    HW135327   0.845   2.155  16.849 -0.5890 -0.2027  0.3612
 7898SOL    HW235328   0.884   2.155  16.707  0.7833  1.1626  1.8324
 7899SOL     OW35329   1.183   2.933   6.827 -0.0781 -0.5188  0.4802
 7899SOL    HW135330   1.138   3.017   6.832 -0.8793 -1.0095  1.3822
 7899SOL    HW235331   1.256   2.949   6.767  0.7737 -0.4117  1.5368
 7900SOL     OW35332   0.677   3.216   8.328 -0.2903  0.0027 -0.1966
 7900SOL    HW135333   0.697   3.124   8.343  1.5766 -0.2097 -3.9508
 7900SOL    HW235334   0.675   3.243   8.420  0.2512  0.9982 -0.4857
 7901SOL     OW35335   3.025   2.611   7.849  0.1996  0.0274 -0.2103
 7901SOL    HW135336   2.965   2.664   7.797 -1.8377 -0.4086  1.7193
 7901SOL    HW235337   3.021   2.526   7.807 -1.6141 -0.5391  1.0961
 7902SOL     OW35338   2.114   0.246   7.176 -0.0500 -0.2216  0.4732
 7902SOL    HW135339   2.137   0.200   7.257  2.1472  0.7487  0.4037
 7902SOL    HW235340   2.166   0.325   7.190 -0.0831  0.3421 -2.4935
 7903SOL     OW35341   0.400   0.160   8.296 -0.2417 -0.2998  0.7405
 7903SOL    HW135342   0.426   0.200   8.213  0.5450  0.5217  1.3910
 7903SOL    HW235343   0.360   0.074   8.278 -1.4527  0.3384  0.3745
 7904SOL     OW35344   4.708   0.899   7.643 -0.1297  0.3191  0.0761
 7904SOL    HW135345   0.008   0.824   7.692 -1.0532  0.0386  0.3205
 7904SOL    HW235346   0.007   0.885   7.555  2.6787 -0.3452  1.2743
 7905SOL     OW35347   4.564   3.714  17.403  0.2487 -0.1139  0.4298
 7905SOL    HW135348   4.655   3.740  17.417  0.2821  0.2667 -0.5003
 7905SOL    HW235349   4.533   3.768  17.330  0.3055 -1.2486 -0.4188
 7906SOL     OW35350   3.997   0.545   6.006 -0.2130  0.1655  0.2156
 7906SOL    HW135351   4.083   0.523   6.041 -0.2973 -2.4766 -1.2876
 7906SOL    HW235352   3.986   0.628   6.052 -1.2402 -0.8937  1.8649
 7907SOL     OW35353   3.878   1.985  11.253  0.1250 -0.3215 -0.2351
 7907SOL    HW135354   3.869   1.908  11.197  1.1262 -1.7591  1.5740
 7907SOL    HW235355   3.803   2.038  11.227 -0.0487 -1.1004 -1.3345
 7908SOL     OW35356   3.229   3.259   9.133 -0.4071  0.1493  0.0888
 7908SOL    HW135357   3.279   3.329   9.090  2.0716 -0.4423  2.0380
 7908SOL    HW235358   3.304   3.205   9.157  1.3644  2.5249 -0.1655
 7909SOL     OW35359   0.889   0.228   9.061 -0.5914  0.3106 -0.1649
 7909SOL    HW135360   0.907   0.137   9.039 -0.7612  0.4080 -0.7144
 7909SOL    HW235361   0.829   0.253   8.991 -0.7546 -0.9861 -0.4881
 7910SOL     OW35362   3.462   3.522   0.179 -0.0396 -0.6672  0.7121
 7910SOL    HW135363   3.498   3.602   0.216 -1.9180  0.2610  0.5651
 7910SOL    HW235364   3.387   3.506   0.237 -1.9024  3.4628 -0.5579
 7911SOL     OW35365   3.527   3.364   4.805 -0.5869 -0.1484 -0.1686
 7911SOL    HW135366   3.535   3.418   4.884 -1.5941 -0.6326  0.2703
 7911SOL    HW235367   3.513   3.429   4.736 -0.1419 -0.7739 -0.8459
 7912SOL     OW35368   0.793   0.978   8.723 -0.3986  0.2583 -0.6654
 7912SOL    HW135369   0.874   0.937   8.690 -1.3144 -1.6140 -0.6048
 7912SOL    HW235370   0.742   0.996   8.644 -1.0650  0.3138 -0.2217
 7913SOL     OW35371   2.416   1.762   1.627 -0.4034 -0.2323 -0.5936
 7913SOL    HW135372   2.429   1.690   1.565  0.1822 -1.3127  0.7911
 7913SOL    HW235373   2.437   1.834   1.568  0.1799  0.2840  0.2494
 7914SOL     OW35374   2.714   1.928   8.208  0.5499 -0.2050  0.5741
 7914SOL    HW135375   2.634   1.932   8.259  0.7080 -1.7402  0.9436
 7914SOL    HW235376   2.767   1.868   8.260  1.3920 -0.7632 -0.9046
 7915SOL     OW35377   4.080   3.875   4.218  0.1747 -0.0916 -0.2320
 7915SOL    HW135378   4.110   3.787   4.193 -0.4240  0.4782 -2.9345
 7915SOL    HW235379   3.986   3.865   4.208  0.1121  0.2004  0.0647
 7916SOL     OW35380   2.774   3.444   2.205 -0.0808  0.6227  0.2414
 7916SOL    HW135381   2.834   3.447   2.131 -0.2982 -1.7191 -0.0453
 7916SOL    HW235382   2.818   3.503   2.266 -0.0488  0.1756  0.6531
 7917SOL     OW35383   3.261   1.285   7.839 -0.5734 -0.1051  0.1924
 7917SOL    HW135384   3.322   1.258   7.770 -0.2234 -0.3357  0.5893
 7917SOL    HW235385   3.325   1.325   7.898 -1.6975 -0.2272  1.4928
 7918SOL     OW35386   3.881   4.217   0.349  0.0081 -0.2825 -0.2322
 7918SOL    HW135387   3.874   4.160   0.273  2.6751 -2.4041  1.1057
 7918SOL    HW235388   3.976   4.208   0.356 -0.0773 -0.9756  0.0167
 7919SOL     OW35389   2.561   0.771   2.650 -0.5109 -0.0853 -0.4986
 7919SOL    HW135390   2.520   0.855   2.628  1.1021  0.9068  0.3026
 7919SOL    HW235391   2.627   0.799   2.713 -0.7600  1.9399 -1.1304
 7920SOL     OW35392   1.613   4.397   7.880  0.2737  0.6263  0.4538
 7920SOL    HW135393   1.618   4.370   7.789 -1.4674  1.7485  0.0133
 7920SOL    HW235394   1.593   4.316   7.927 -0.1611 -0.6891 -1.9965
 7921SOL     OW35395   3.953   0.289   8.393 -0.5109 -0.1977 -0.0092
 7921SOL    HW135396   3.893   0.360   8.415 -2.6360 -1.8885 -0.4096
 7921SOL    HW235397   3.989   0.269   8.479  0.1164 -0.3454 -0.3041
 7922SOL     OW35398   0.786   0.700   5.944  0.4339 -0.3413 -0.0992
 7922SOL    HW135399   0.865   0.658   5.977  0.9173  0.3205 -0.4039
 7922SOL    HW235400   0.740   0.719   6.026  1.1832 -0.8325  0.4347
 7923SOL     OW35401   4.312   1.661  16.593 -0.1783  0.1231 -0.1738
 7923SOL    HW135402   4.335   1.726  16.659  1.9603 -1.9538  1.1769
 7923SOL    HW235403   4.401   1.651  16.558  0.6436 -0.0227  1.9475
 7924SOL     OW35404   2.970   2.462  16.537  0.0334  0.2348  0.1225
 7924SOL    HW135405   3.040   2.499  16.590  1.3149 -1.1162 -0.6215
 7924SOL    HW235406   3.035   2.416  16.484 -0.8188 -1.2983  0.4001
 7925SOL     OW35407   3.353   1.706   6.176 -0.3474  0.2688  0.3339
 7925SOL    HW135408   3.318   1.618   6.185  0.8171 -0.5261 -2.8435
 7925SOL    HW235409   3.393   1.711   6.089  1.6786 -2.0375  1.1725
 7926SOL     OW35410   4.418   3.161   9.130 -0.0219 -0.0922  0.4457
 7926SOL    HW135411   4.446   3.079   9.171 -1.4167 -0.9612 -0.3456
 7926SOL    HW235412   4.485   3.226   9.152 -0.3873  0.4845 -0.1403
 7927SOL     OW35413   2.006   1.713   1.815  0.3967  0.1098 -0.0100
 7927SOL    HW135414   2.023   1.639   1.756  0.2805  0.4278 -0.4381
 7927SOL    HW235415   2.028   1.787   1.758  2.2822  0.0855  0.6935
 7928SOL     OW35416   4.141   0.144   6.077  0.1192 -0.3376  0.3639
 7928SOL    HW135417   4.129   0.185   6.163  1.4330  0.9936 -0.0858
 7928SOL    HW235418   4.071   0.078   6.075  0.0693 -0.2404 -1.1236
 7929SOL     OW35419   0.683   1.685   5.873 -0.0323  0.3754 -0.2631
 7929SOL    HW135420   0.767   1.640   5.866 -0.5332 -0.1059 -3.1287
 7929SOL    HW235421   0.702   1.730   5.956 -0.1190 -0.7486  0.3629
 7930SOL     OW35422   4.526   0.711   3.396 -0.3190 -0.2141 -0.1182
 7930SOL    HW135423   4.581   0.662   3.458 -0.1841 -1.2041 -1.0001
 7930SOL    HW235424   4.443   0.682   3.433 -0.6388 -1.0763 -1.5053
 7931SOL     OW35425   0.351   2.941  12.156 -0.0889 -0.1483 -0.9873
 7931SOL    HW135426   0.433   2.990  12.148 -0.5594  0.9538  1.0621
 7931SOL    HW235427   0.333   2.922  12.064 -0.4668 -1.2300 -0.6849
 7932SOL     OW35428   3.006   0.169   2.728 -0.1780  0.6234 -0.3813
 7932SOL    HW135429   2.998   0.263   2.744 -1.0748  0.8402 -2.0806
 7932SOL    HW235430   3.058   0.168   2.648  3.0117 -0.5644  1.7048
 7933SOL     OW35431   1.825   1.915  10.465 -0.1505 -0.1521  0.1423
 7933SOL    HW135432   1.854   2.005  10.451  1.3397 -0.4710  1.2205
 7933SOL    HW235433   1.799   1.896  10.375 -0.0475 -1.0453  0.2956
 7934SOL     OW35434   1.150   4.146   6.446  0.0924  0.9619 -0.1290
 7934SOL    HW135435   1.100   4.114   6.371  1.3493  1.1091 -1.0168
 7934SOL    HW235436   1.096   4.121   6.521  0.4014 -0.5169 -0.4057
 7935SOL     OW35437   1.042   2.183  14.718 -0.7513 -0.1416  0.4613
 7935SOL    HW135438   1.032   2.269  14.759  0.3500  1.2458 -2.1664
 7935SOL    HW235439   0.985   2.195  14.641 -3.5598  1.9424  2.8650
 7936SOL     OW35440   2.830   0.532   1.700 -0.0217 -0.1321  0.5163
 7936SOL    HW135441   2.899   0.590   1.667 -0.0817 -0.9574 -1.0543
 7936SOL    HW235442   2.820   0.562   1.790  1.1423 -1.9485  1.2364
 7937SOL     OW35443   4.514   3.877  14.158 -0.2601  0.2705  0.0667
 7937SOL    HW135444   4.488   3.933  14.231 -2.2920 -2.0151  1.1073
 7937SOL    HW235445   4.449   3.808  14.151 -2.1274  2.2359 -1.8072
 7938SOL     OW35446   4.654   2.536   9.313 -0.4733 -0.0641  0.0650
 7938SOL    HW135447   4.566   2.499   9.316 -0.5391  0.0369 -0.5670
 7938SOL    HW235448   4.662   2.601   9.383  0.4541  0.2089 -0.2826
 7939SOL     OW35449   2.033   2.583   9.661 -0.2593 -0.2199 -0.3312
 7939SOL    HW135450   2.048   2.501   9.708  3.6196  0.4017 -0.4343
 7939SOL    HW235451   2.123   2.600   9.633 -0.0459 -3.9685 -1.8542
 7940SOL     OW35452   2.097   3.185   8.100 -0.0271  0.7820 -0.3100
 7940SOL    HW135453   2.064   3.251   8.161 -1.1923 -1.4461  1.4516
 7940SOL    HW235454   2.034   3.114   8.115  1.9601 -1.0023 -0.3602
 7941SOL     OW35455   0.893   0.223   6.872 -0.5580  0.2463  0.1353
 7941SOL    HW135456   0.969   0.166   6.876  0.2506  1.3712  0.8145
 7941SOL    HW235457   0.830   0.162   6.833 -0.9283  0.4749  0.3653
 7942SOL     OW35458   2.747   2.070   5.337 -0.1458  0.0289 -0.4941
 7942SOL    HW135459   2.706   2.129   5.400  0.8582  0.8302 -0.5981
 7942SOL    HW235460   2.827   2.060   5.387 -1.0589 -0.8305  0.7945
 7943SOL     OW35461   3.105   1.785   7.656 -0.9267  0.2299  0.0926
 7943SOL    HW135462   3.135   1.699   7.687 -1.8001 -0.4211 -0.8775
 7943SOL    HW235463   3.176   1.831   7.612  0.3404 -1.0783  0.7456
 7944SOL     OW35464   2.091   1.909   7.877  0.2662  0.5062  0.3201
 7944SOL    HW135465   2.138   1.955   7.947 -0.7787  0.6224  0.9437
 7944SOL    HW235466   2.124   1.819   7.883 -0.1548  0.4372  1.5181
 7945SOL     OW35467   2.112   4.253  10.752  0.0198 -0.9986 -0.3425
 7945SOL    HW135468   2.071   4.273  10.667  0.2217 -3.4857 -1.0183
 7945SOL    HW235469   2.202   4.279  10.731  0.1839 -2.9035 -1.9718
 7946SOL     OW35470   3.465   2.500   4.923 -0.4676  0.1961  0.1919
 7946SOL    HW135471   3.545   2.457   4.893 -0.4822  0.6456 -0.5180
 7946SOL    HW235472   3.507   2.583   4.946 -2.0919  1.4938 -1.5115
 7947SOL     OW35473   2.668   0.728   0.017 -0.3315  0.2847 -0.4122
 7947SOL    HW135474   2.713   0.710  17.676  0.5053  0.3502  0.0209
 7947SOL    HW235475   2.740   0.702   0.075 -0.2392  0.0817 -0.6177
 7948SOL     OW35476   1.439   1.750   7.608  0.1602  0.4619  0.1632
 7948SOL    HW135477   1.359   1.791   7.640 -0.2830  0.7308 -1.3052
 7948SOL    HW235478   1.449   1.676   7.667  1.3792 -0.6185 -1.3697
 7949SOL     OW35479   4.280   1.676  13.434 -0.1251  0.0782 -0.9066
 7949SOL    HW135480   4.341   1.603  13.434 -1.1277 -0.7674 -0.0951
 7949SOL    HW235481   4.304   1.704  13.346 -1.4793 -0.5725 -1.5004
 7950SOL     OW35482   1.124   1.643   7.887 -0.6683  0.0558  0.2652
 7950SOL    HW135483   1.111   1.647   7.792 -0.8706 -0.0058  0.2885
 7950SOL    HW235484   1.056   1.703   7.918  0.0820  1.1928 -0.2935
 7951SOL     OW35485   3.181   2.085   1.646  0.1159 -0.0058  0.0593
 7951SOL    HW135486   3.134   2.107   1.566  1.0723  0.4020 -0.3737
 7951SOL    HW235487   3.214   2.169   1.676 -0.4965  0.2221  0.1005
 7952SOL     OW35488   2.551   4.089   1.720  0.1634  0.4902  0.0350
 7952SOL    HW135489   2.525   4.181   1.728 -0.5592  0.3328 -0.4568
 7952SOL    HW235490   2.497   4.062   1.646 -0.3498 -0.7769  0.8822
 7953SOL     OW35491   4.426   2.696  11.053 -0.4856 -0.4516  0.1456
 7953SOL    HW135492   4.499   2.739  11.097 -0.7560 -0.2358  0.3782
 7953SOL    HW235493   4.465   2.625  11.001 -0.8596 -0.7681  0.3030
 7954SOL     OW35494   3.280   1.703  16.717  0.2076 -0.2554  0.2162
 7954SOL    HW135495   3.315   1.753  16.790  1.9812 -0.6594 -0.3475
 7954SOL    HW235496   3.216   1.767  16.686 -0.6559 -1.0380  0.4152
 7955SOL     OW35497   4.554   1.503   8.990  0.1619 -0.2864 -0.0155
 7955SOL    HW135498   4.559   1.591   9.027  1.2036  1.0886 -3.4059
 7955SOL    HW235499   4.466   1.508   8.953  0.4365  1.1592 -0.4920
 7956SOL     OW35500   3.984   4.682   5.459 -0.0371 -0.0690 -0.0138
 7956SOL    HW135501   3.900   4.726   5.445  0.4823  0.3863 -1.7264
 7956SOL    HW235502   3.976   4.644   5.547  0.3921 -0.5715 -0.1917
 7957SOL     OW35503   0.393   3.415   8.455 -0.2061 -0.2484  0.5913
 7957SOL    HW135504   0.425   3.502   8.480 -1.6160  0.8412 -1.4197
 7957SOL    HW235505   0.309   3.405   8.501 -1.2467  0.7990 -1.0435
 7958SOL     OW35506   2.537   1.258   3.615 -0.0997  0.1422  0.1325
 7958SOL    HW135507   2.510   1.234   3.526 -1.6530 -0.3272  0.7207
 7958SOL    HW235508   2.475   1.207   3.667 -0.8924 -0.3890 -1.3294
 7959SOL     OW35509   4.443   2.582  10.571 -0.6213  0.0422  0.5596
 7959SOL    HW135510   4.533   2.571  10.540 -0.4167  2.2182  0.3887
 7959SOL    HW235511   4.446   2.523  10.647  0.3339 -1.7365 -0.8512
 7960SOL     OW35512   2.832   2.897   3.798 -0.1220 -0.5300 -0.4624
 7960SOL    HW135513   2.838   2.866   3.708  1.2140  1.3848 -1.0548
 7960SOL    HW235514   2.922   2.920   3.822 -0.1665  0.4390 -1.2210
 7961SOL     OW35515   1.402   4.650   8.631  0.0688  0.3251  0.1901
 7961SOL    HW135516   1.471   4.711   8.606 -0.4155  1.0035  0.4848
 7961SOL    HW235517   1.327   4.705   8.655 -0.8615 -1.0220  0.4051
 7962SOL     OW35518   0.991   0.369  15.966  0.1328 -0.1118  0.4149
 7962SOL    HW135519   0.938   0.408  15.896 -0.8790 -0.8791  0.7596
 7962SOL    HW235520   1.057   0.438  15.973  1.0550 -0.6233 -3.4128
 7963SOL     OW35521   4.611   3.094  10.143  0.1243  0.4762  0.2660
 7963SOL    HW135522   4.545   3.087  10.074  0.3648  0.4038  0.0447
 7963SOL    HW235523   4.595   3.014  10.194 -0.3257 -0.0177 -0.6573
 7964SOL     OW35524   4.462   1.566   8.458  0.3761 -0.1920  0.0008
 7964SOL    HW135525   4.461   1.472   8.480 -0.6428  0.1524  1.4496
 7964SOL    HW235526   4.422   1.597   8.540 -1.6387 -1.6322 -0.4386
 7965SOL     OW35527   2.187   0.939   9.539 -0.0895  0.0909  0.4633
 7965SOL    HW135528   2.258   0.928   9.475  1.5289  2.3189  1.8605
 7965SOL    HW235529   2.225   0.999   9.603  0.1668 -0.4362  0.8079
 7966SOL     OW35530   2.088   3.155   5.215 -0.2598 -0.1848 -0.2085
 7966SOL    HW135531   2.140   3.170   5.136 -2.4630 -3.6646 -2.3403
 7966SOL    HW235532   2.171   3.152   5.262 -0.3662 -1.4597 -0.0863
 7967SOL     OW35533   1.651   2.952   1.595 -0.1509 -0.1552 -0.0922
 7967SOL    HW135534   1.717   2.997   1.542  0.6760  1.4254  2.3026
 7967SOL    HW235535   1.571   2.963   1.543  0.0390 -0.6164 -0.4817
 7968SOL     OW35536   1.592   1.341   7.846 -0.5060 -0.0551  0.1096
 7968SOL    HW135537   1.659   1.380   7.789 -0.6762  0.7443  0.4556
 7968SOL    HW235538   1.641   1.292   7.913  1.6042  1.3760 -0.3760
 7969SOL     OW35539   0.508   1.082   2.435  0.2202  0.1268  0.5693
 7969SOL    HW135540   0.489   1.082   2.341  0.2926 -0.0448  0.5563
 7969SOL    HW235541   0.456   1.009   2.468  0.6381 -0.1178  0.6852
 7970SOL     OW35542   2.943   3.954   5.933  0.2864 -0.0530  0.3866
 7970SOL    HW135543   2.958   4.042   5.897  1.9957 -0.0296  1.1300
 7970SOL    HW235544   2.850   3.948   5.913  0.0335  1.3359  1.1244
 7971SOL     OW35545   4.440   1.514   4.165 -0.2501 -0.6025 -0.0773
 7971SOL    HW135546   4.532   1.508   4.190 -0.4543 -0.7616  0.6288
 7971SOL    HW235547   4.448   1.600   4.124  3.2223 -1.8479 -2.0602
 7972SOL     OW35548   2.371   4.528   7.280 -0.4446 -0.3910  0.0522
 7972SOL    HW135549   2.316   4.495   7.209 -0.6576  0.9855 -0.4177
 7972SOL    HW235550   2.451   4.489   7.244 -0.1422 -0.6921  1.0511
 7973SOL     OW35551   0.634   2.524   1.916  0.2523 -0.1629 -0.0468
 7973SOL    HW135552   0.668   2.468   1.846 -0.2396 -0.0280 -0.4015
 7973SOL    HW235553   0.559   2.556   1.864  0.9166  1.2236 -0.1427
 7974SOL     OW35554   4.517   1.676  16.867 -0.3456 -0.6203  0.2302
 7974SOL    HW135555   4.532   1.587  16.835 -1.8094 -1.1124  0.9416
 7974SOL    HW235556   4.573   1.671  16.944  0.6698 -0.9707 -0.5242
 7975SOL     OW35557   0.232   4.315   9.113 -0.7845 -0.8732  0.0269
 7975SOL    HW135558   0.299   4.330   9.180 -0.0635 -0.4840 -0.7717
 7975SOL    HW235559   0.162   4.350   9.167 -1.0869  1.2024 -1.7211
 7976SOL     OW35560   0.422   1.427   9.220  0.1115  0.3104  0.2861
 7976SOL    HW135561   0.475   1.409   9.297  0.4371 -1.0216 -0.2597
 7976SOL    HW235562   0.351   1.364   9.232  0.4237  0.0564  0.7950
 7977SOL     OW35563   1.672   3.952  12.280  0.1301 -0.5211  0.2040
 7977SOL    HW135564   1.689   3.859  12.296 -2.3531 -0.9116  0.6168
 7977SOL    HW235565   1.756   3.996  12.294 -0.1983 -0.0708  0.7667
 7978SOL     OW35566   2.266   2.216  11.170  0.1396 -0.1008 -0.1884
 7978SOL    HW135567   2.177   2.181  11.158  0.4334 -0.7146 -0.6244
 7978SOL    HW235568   2.267   2.235  11.263 -1.0672  1.9899 -0.6026
 7979SOL     OW35569   4.696   0.212   3.396  0.3914  0.0725  0.1796
 7979SOL    HW135570   0.034   0.205   3.335  0.1936 -0.6539  0.0178
 7979SOL    HW235571   4.732   0.171   3.474  1.5130 -1.6437 -1.2256
 7980SOL     OW35572   4.224   4.128   7.444 -0.3828 -0.3476  0.1966
 7980SOL    HW135573   4.197   4.096   7.530 -1.2586 -0.3725 -0.0834
 7980SOL    HW235574   4.319   4.114   7.448  0.1836  3.7906  1.2501
 7981SOL     OW35575   3.941   1.784   6.399 -0.0349 -0.2197  0.1332
 7981SOL    HW135576   3.912   1.815   6.313  0.7350  2.3908  0.8189
 7981SOL    HW235577   3.997   1.855   6.431 -1.6705 -0.0359  2.5639
 7982SOL     OW35578   4.347   2.025  16.496  0.3701  0.8254  0.7268
 7982SOL    HW135579   4.354   1.973  16.576 -0.8609 -0.8504 -0.2362
 7982SOL    HW235580   4.357   1.949  16.438 -2.0507  1.3938 -0.4306
 7983SOL     OW35581   2.844   3.348   4.359  0.2018 -0.4596 -0.2117
 7983SOL    HW135582   2.817   3.355   4.450  2.4317  0.5646  0.3662
 7983SOL    HW235583   2.911   3.283   4.383 -0.0811 -0.0884  1.5486
 7984SOL     OW35584   1.735   4.670   9.160 -0.6231  0.0061  0.0135
 7984SOL    HW135585   1.815   4.681   9.211 -0.4199  0.4688 -0.4048
 7984SOL    HW235586   1.760   4.603   9.095  1.6816  2.3585 -1.5512
 7985SOL     OW35587   2.208   0.840   2.533 -0.2313 -0.1067 -0.3530
 7985SOL    HW135588   2.199   0.791   2.615 -0.8621  1.8562  0.7373
 7985SOL    HW235589   2.240   0.771   2.475  0.8028 -1.4545  1.8090
 7986SOL     OW35590   3.236   1.543   4.757 -0.6199  0.3322  0.0793
 7986SOL    HW135591   3.259   1.616   4.813 -0.5866 -1.3139  2.1976
 7986SOL    HW235592   3.258   1.571   4.668  1.4171  0.7855  0.7368
 7987SOL     OW35593   2.572   0.660   4.190 -0.0406 -0.4342  0.4070
 7987SOL    HW135594   2.563   0.565   4.177 -2.3944 -0.2333  0.4653
 7987SOL    HW235595   2.562   0.696   4.102  2.6456  1.8533  1.0574
 7988SOL     OW35596   2.647   1.605   7.633  0.0280 -0.2667  0.4402
 7988SOL    HW135597   2.582   1.641   7.573 -0.9934 -1.2184  0.9642
 7988SOL    HW235598   2.721   1.662   7.615 -0.2526  0.1461  0.5799
 7989SOL     OW35599   2.792   1.902   4.662  0.2240 -0.2132  0.0502
 7989SOL    HW135600   2.827   1.981   4.622  1.5691 -1.4737 -1.2701
 7989SOL    HW235601   2.788   1.836   4.592  0.9869 -0.2749  0.0641
 7990SOL     OW35602   3.505   0.066   0.549 -0.0990 -0.1195  0.2571
 7990SOL    HW135603   3.565   0.122   0.500 -1.6990  0.7755 -0.6915
 7990SOL    HW235604   3.565   0.033   0.615  0.0167 -0.2078  0.1084
 7991SOL     OW35605   0.916   0.629   8.529  0.5569 -0.0762  0.1302
 7991SOL    HW135606   0.949   0.715   8.556  0.3866 -0.3773  1.2770
 7991SOL    HW235607   0.822   0.642   8.525  0.8552  2.3304  0.5039
 7992SOL     OW35608   4.264   4.219   5.396  0.0993  0.1051 -0.7897
 7992SOL    HW135609   4.311   4.182   5.470 -1.3770 -0.4588 -0.1163
 7992SOL    HW235610   4.288   4.311   5.388 -1.4800  0.4856 -1.2808
 7993SOL     OW35611   0.723   0.646   2.154 -0.3605  0.6351  0.6741
 7993SOL    HW135612   0.796   0.618   2.099  0.4670  0.1542  2.0117
 7993SOL    HW235613   0.723   0.579   2.223 -0.4060 -0.2332 -0.1756
 7994SOL     OW35614   3.934   3.078   6.811 -0.0847 -0.1290  0.3061
 7994SOL    HW135615   3.839   3.082   6.801  0.0791 -0.8749 -1.3810
 7994SOL    HW235616   3.969   3.068   6.723 -0.7689  1.5695 -0.1598
 7995SOL     OW35617   4.422   2.329  13.658  0.1066 -0.0773 -0.6849
 7995SOL    HW135618   4.413   2.411  13.706  0.4705  0.6665 -1.8574
 7995SOL    HW235619   4.355   2.335  13.590 -0.3945 -2.2285 -0.3751
 7996SOL     OW35620   2.462   1.782   3.069  0.6754  0.0007 -0.4554
 7996SOL    HW135621   2.376   1.765   3.030  1.0629  0.6617 -1.5993
 7996SOL    HW235622   2.518   1.780   2.991  0.1745 -0.0593 -0.8095
 7997SOL     OW35623   4.599   0.736  13.556  0.1450  0.3195 -0.3939
 7997SOL    HW135624   4.523   0.787  13.585  0.9618  1.4592 -0.2397
 7997SOL    HW235625   4.563   0.686  13.483 -1.2184 -0.1567  0.6009
 7998SOL     OW35626   0.652   3.294  10.429 -0.0635  0.5717 -0.3602
 7998SOL    HW135627   0.584   3.354  10.399 -0.0286  0.2475 -1.0832
 7998SOL    HW235628   0.634   3.224  10.367 -0.6919  1.0693 -0.7421
 7999SOL     OW35629   1.930   4.075  12.296 -0.0134  0.3572 -0.0378
 7999SOL    HW135630   1.971   4.100  12.379  0.6161  0.6536 -0.4376
 7999SOL    HW235631   1.977   3.992  12.287  4.0094  2.5784  0.5796
 8000SOL     OW35632   3.520   3.447   8.528  0.1577 -0.2359  0.2221
 8000SOL    HW135633   3.497   3.499   8.451  0.1213  1.2565  1.2483
 8000SOL    HW235634   3.607   3.479   8.554 -0.2002 -0.4977  1.6907
 8001SOL     OW35635   3.865   3.883  16.560 -0.5850  0.0066  0.4351
 8001SOL    HW135636   3.889   3.956  16.616  1.5655 -1.8338  1.9168
 8001SOL    HW235637   3.797   3.926  16.509  1.1765  1.9039 -0.2860
 8002SOL     OW35638   3.743   2.232   2.831 -0.3394 -0.5558 -0.1697
 8002SOL    HW135639   3.674   2.275   2.780  1.8341  1.5871 -1.3041
 8002SOL    HW235640   3.729   2.139   2.816  2.4794 -1.1178  0.6972
 8003SOL     OW35641   3.853   0.904   2.576 -0.5584  0.1001  0.2897
 8003SOL    HW135642   3.763   0.874   2.586 -0.7526  0.0573 -1.4416
 8003SOL    HW235643   3.823   0.979   2.525 -1.0964 -0.7539 -0.6648
 8004SOL     OW35644   3.981   0.324   8.069  0.1595  0.3532  0.1547
 8004SOL    HW135645   3.974   0.281   8.154  0.6243 -0.2985 -0.1360
 8004SOL    HW235646   4.074   0.318   8.046  0.0037  1.4047 -0.7660
 8005SOL     OW35647   2.089   1.378   1.176 -0.2467 -0.2884  1.1168
 8005SOL    HW135648   2.129   1.415   1.255  1.3028  0.4003  0.0159
 8005SOL    HW235649   2.149   1.305   1.165 -0.0516  0.1610 -0.8637
 8006SOL     OW35650   4.269   0.137  17.216  0.3561 -0.3838  0.0252
 8006SOL    HW135651   4.206   0.199  17.180 -0.5216 -0.3697  1.6108
 8006SOL    HW235652   4.228   0.107  17.297  0.2835  0.5458  0.3355
 8007SOL     OW35653   1.958   1.150  12.120 -0.4403 -0.1133  0.2368
 8007SOL    HW135654   2.009   1.203  12.181 -2.4811  0.6646  1.2397
 8007SOL    HW235655   1.998   1.063  12.122  1.5414  0.7465 -1.4918
 8008SOL     OW35656   3.595   1.365   9.887 -0.5527  0.0875 -0.1435
 8008SOL    HW135657   3.524   1.337   9.829 -1.3397  1.1499  0.3062
 8008SOL    HW235658   3.660   1.397   9.825  0.0051  0.5982  0.6945
 8009SOL     OW35659   3.907   0.380   2.445 -0.2555 -0.1569  0.5074
 8009SOL    HW135660   3.963   0.440   2.397  1.9097 -3.0928 -0.6463
 8009SOL    HW235661   3.822   0.392   2.404  0.6985  0.9407 -1.1356
 8010SOL     OW35662   1.058   0.857   3.179  0.0220 -0.2084 -0.1834
 8010SOL    HW135663   0.984   0.809   3.141  1.1131 -2.1129  0.1426
 8010SOL    HW235664   1.069   0.932   3.120  0.5725  0.2228  0.4718
 8011SOL     OW35665   3.468   2.688   3.994  0.0170 -0.4083  0.3719
 8011SOL    HW135666   3.562   2.673   4.004  0.0861 -1.0779 -1.2712
 8011SOL    HW235667   3.457   2.636   3.914 -1.4835 -1.3011  1.1710
 8012SOL     OW35668   3.429   3.752  15.924 -0.4529  0.4202  0.3144
 8012SOL    HW135669   3.400   3.815  15.859 -0.3535 -0.3935 -0.5239
 8012SOL    HW235670   3.429   3.798  16.008  3.2839  1.6415 -0.3778
 8013SOL     OW35671   3.036   4.100   3.237 -0.3973  0.3800  0.3887
 8013SOL    HW135672   2.996   4.174   3.282  3.5794  2.5714  0.3354
 8013SOL    HW235673   3.012   4.124   3.147  1.1785  1.0913  0.1527
 8014SOL     OW35674   0.276   2.339  16.983  0.0858 -0.0384  0.0423
 8014SOL    HW135675   0.287   2.408  16.918  2.0226  1.6047  2.0909
 8014SOL    HW235676   0.217   2.376  17.049  0.3629 -0.8358  0.7298
 8015SOL     OW35677   3.227   1.892   3.546 -0.2879 -0.4860 -0.2490
 8015SOL    HW135678   3.170   1.847   3.608  0.6340 -0.6126  0.4992
 8015SOL    HW235679   3.156   1.937   3.499 -0.2689 -2.8593 -2.5488
 8016SOL     OW35680   3.584   4.377   1.739  0.5319 -0.0694  0.0173
 8016SOL    HW135681   3.638   4.299   1.731  1.3247  0.7120 -2.2851
 8016SOL    HW235682   3.521   4.334   1.796  0.0554 -1.1064 -1.2917
 8017SOL     OW35683   1.582   1.293  14.044 -0.2839  0.1925  0.1520
 8017SOL    HW135684   1.638   1.248  13.980 -0.0373  0.7443 -0.0218
 8017SOL    HW235685   1.569   1.222  14.107  2.4897 -0.2477  0.2523
 8018SOL     OW35686   1.099   0.269   6.294 -0.6347  0.2293  0.0231
 8018SOL    HW135687   1.068   0.340   6.351 -1.0328  0.2631 -0.2342
 8018SOL    HW235688   1.183   0.240   6.329 -0.0820 -0.8353 -2.1568
 8019SOL     OW35689   3.685   4.022   7.775  0.1860 -0.1785 -0.4114
 8019SOL    HW135690   3.591   4.025   7.795  0.3778  0.1487  0.4238
 8019SOL    HW235691   3.721   3.986   7.856  2.0443  0.4038 -0.9856
 8020SOL     OW35692   2.529   2.211   5.866  0.0306 -0.0065  0.0667
 8020SOL    HW135693   2.598   2.256   5.915  0.9241  0.0564 -1.2392
 8020SOL    HW235694   2.575   2.128   5.856  1.2173  0.3641  2.4414
 8021SOL     OW35695   1.222   3.912  15.290 -0.2523  0.0476  0.3193
 8021SOL    HW135696   1.206   3.822  15.319  2.0670 -0.5546 -0.2877
 8021SOL    HW235697   1.145   3.916  15.232 -0.6720  0.1900  0.8801
 8022SOL     OW35698   0.088   2.278   3.425 -0.3370  0.1499 -0.5717
 8022SOL    HW135699   0.025   2.207   3.439  1.4690 -0.8377  2.3933
 8022SOL    HW235700   0.174   2.251   3.457 -1.1915  1.1197  2.4850
 8023SOL     OW35701   2.296   2.401   9.519  0.2155  0.0534 -0.3959
 8023SOL    HW135702   2.287   2.390   9.614  0.7796 -0.8118 -0.4432
 8023SOL    HW235703   2.250   2.328   9.479  1.0579 -0.4601 -0.4346
 8024SOL     OW35704   1.728   3.452   2.490  0.1059  0.0393  0.1811
 8024SOL    HW135705   1.657   3.464   2.553 -0.5750 -0.0941 -0.5707
 8024SOL    HW235706   1.738   3.539   2.451  3.0672 -0.6817 -0.6805
 8025SOL     OW35707   2.069   1.545   3.574  0.6650 -0.7240  0.2151
 8025SOL    HW135708   2.057   1.614   3.508  0.0933 -0.0412  1.0327
 8025SOL    HW235709   1.980   1.526   3.601  0.9292 -0.9337  0.9392
 8026SOL     OW35710   1.794   2.300   6.343  0.0104 -0.4261  0.1899
 8026SOL    HW135711   1.757   2.311   6.431  3.3330 -1.1481  1.6639
 8026SOL    HW235712   1.830   2.387   6.328 -0.5727 -0.3423 -0.7409
 8027SOL     OW35713   0.692   1.017   4.625 -0.6309 -0.4955 -0.2896
 8027SOL    HW135714   0.596   1.017   4.629 -0.5889 -0.3714  0.5997
 8027SOL    HW235715   0.715   1.018   4.718 -3.3616  0.5435  0.3914
 8028SOL     OW35716   4.452   2.459   7.029 -0.1013 -0.4446 -0.5024
 8028SOL    HW135717   4.480   2.422   7.113 -2.2181 -0.7383  0.0611
 8028SOL    HW235718   4.425   2.382   6.979 -0.0801  0.2451 -1.5899
 8029SOL     OW35719   0.050   4.691   3.075  0.2970 -0.4851  0.6464
 8029SOL    HW135720   4.715   4.684   3.139  0.3365  1.0278  0.8365
 8029SOL    HW235721   4.729   4.654   3.006 -0.0190  0.4413  0.4067
 8030SOL     OW35722   1.443   2.741   8.029  0.0282  0.3266 -0.2251
 8030SOL    HW135723   1.472   2.696   7.949  0.0668 -0.4101  0.2069
 8030SOL    HW235724   1.385   2.669   8.055  3.4385 -2.0518  0.7694
 8031SOL     OW35725   2.520   0.270   3.879  0.0931  0.2599 -0.2191
 8031SOL    HW135726   2.559   0.289   3.794  0.3446  0.2907 -0.0961
 8031SOL    HW235727   2.442   0.224   3.850  1.7545 -2.0466 -0.9787
 8032SOL     OW35728   3.992   3.942   1.841  0.0004 -0.0360 -0.2990
 8032SOL    HW135729   3.906   3.961   1.879  0.1992  0.1075  0.0779
 8032SOL    HW235730   3.988   3.848   1.858 -0.8445 -0.0818 -0.7558
 8033SOL     OW35731   2.553   1.658   5.657 -0.6547 -0.9755 -0.3220
 8033SOL    HW135732   2.465   1.678   5.688 -0.4575  0.2033 -0.5035
 8033SOL    HW235733   2.538   1.565   5.642 -0.7085 -0.9605 -0.3594
 8034SOL     OW35734   0.725   4.376  15.710 -0.1770  0.1208  0.3333
 8034SOL    HW135735   0.655   4.315  15.732 -0.7608  1.3913  1.9860
 8034SOL    HW235736   0.778   4.324  15.649 -0.5758 -0.9939  0.9304
 8035SOL     OW35737   1.071   1.239   3.194 -0.4415  0.5263 -0.6039
 8035SOL    HW135738   1.052   1.248   3.287  2.3299 -1.3236  0.1116
 8035SOL    HW235739   0.980   1.234   3.164 -1.3744  0.0495  2.4018
 8036SOL     OW35740   2.808   2.772   5.816 -0.0060  0.2301 -0.6075
 8036SOL    HW135741   2.835   2.754   5.726  0.2247 -3.1645  0.1300
 8036SOL    HW235742   2.747   2.698   5.822  0.7307 -0.5341 -2.5532
 8037SOL     OW35743   4.531   0.759   3.860 -0.0337  0.2512 -0.0411
 8037SOL    HW135744   4.466   0.786   3.795  0.0124 -0.1095 -0.2368
 8037SOL    HW235745   4.612   0.796   3.824 -0.1003 -0.2163 -0.6739
 8038SOL     OW35746   3.598   2.789  10.825 -0.3172 -0.0350 -0.1719
 8038SOL    HW135747   3.524   2.832  10.782 -0.8909  1.5976  2.4010
 8038SOL    HW235748   3.661   2.861  10.818  0.1549 -0.2489  1.7498
 8039SOL     OW35749   3.810   2.785   7.329 -0.2023  0.0741 -0.8842
 8039SOL    HW135750   3.828   2.851   7.396  2.2399 -1.0937 -0.3893
 8039SOL    HW235751   3.777   2.844   7.262 -0.3724  0.2096 -0.6819
 8040SOL     OW35752   4.102   1.886   3.937 -0.1968  0.6283  0.0665
 8040SOL    HW135753   4.130   1.805   3.895 -2.8029  0.3929 -1.1755
 8040SOL    HW235754   4.076   1.861   4.026  1.7905 -2.9059 -0.3346
 8041SOL     OW35755   3.948   0.875  10.047  0.1507 -0.1227  0.3857
 8041SOL    HW135756   3.880   0.933  10.014 -1.3114 -0.8409  2.0829
 8041SOL    HW235757   3.939   0.802   9.985  1.0044  0.5464 -0.5183
 8042SOL     OW35758   2.747   4.338   7.823 -0.3854  0.0454 -0.6429
 8042SOL    HW135759   2.661   4.306   7.796  0.1482 -0.0802 -2.1776
 8042SOL    HW235760   2.805   4.263   7.812 -0.5039 -0.1260 -0.1103
 8043SOL     OW35761   2.329   0.540   0.470  0.2472 -0.7958  0.2443
 8043SOL    HW135762   2.393   0.478   0.504  0.2660 -1.0830 -0.3227
 8043SOL    HW235763   2.253   0.489   0.441 -1.1640  1.6569 -0.3812
 8044SOL     OW35764   3.462   1.095   3.658  0.4818  0.1471  0.7545
 8044SOL    HW135765   3.447   1.187   3.679 -1.2202  0.0979 -0.2411
 8044SOL    HW235766   3.380   1.058   3.625  1.0844  1.2660 -1.9665
 8045SOL     OW35767   3.346   4.351   2.550 -0.6279 -0.1027  0.6217
 8045SOL    HW135768   3.365   4.375   2.641 -2.0639  0.0894  0.8653
 8045SOL    HW235769   3.328   4.434   2.506  0.7411 -0.4938 -0.7191
 8046SOL     OW35770   1.670   3.801   7.735 -0.0133  0.2816  0.6138
 8046SOL    HW135771   1.612   3.766   7.802  1.2811 -2.4623  0.3054
 8046SOL    HW235772   1.722   3.724   7.711 -2.3733 -0.8770 -0.7768
 8047SOL     OW35773   0.333   0.089   2.746 -0.0927 -0.0366 -0.2514
 8047SOL    HW135774   0.379   0.159   2.792 -0.3959 -0.7438  1.1122
 8047SOL    HW235775   0.242   0.108   2.770 -0.2449 -2.2933  0.9536
 8048SOL     OW35776   0.342   0.325   8.642 -0.3862  0.4270 -0.6913
 8048SOL    HW135777   0.256   0.351   8.674 -0.7240 -1.8955  0.3037
 8048SOL    HW235778   0.394   0.397   8.678 -2.7069  0.2165  3.1656
 8049SOL     OW35779   3.006   3.032  14.384  0.4209  0.1630  0.5842
 8049SOL    HW135780   3.026   2.965  14.319 -1.8248 -2.3606  2.4815
 8049SOL    HW235781   2.937   2.980  14.425 -1.3113  0.9502 -1.3525
 8050SOL     OW35782   3.216   2.512   4.206 -0.0130 -0.4671 -0.1539
 8050SOL    HW135783   3.213   2.509   4.302 -0.6889 -0.2282 -0.1683
 8050SOL    HW235784   3.242   2.603   4.196  0.4482 -0.5632  0.1896
 8051SOL     OW35785   2.966   3.296   5.408  0.2139  0.4165  0.0960
 8051SOL    HW135786   2.998   3.207   5.396 -1.8765 -0.3288 -0.0482
 8051SOL    HW235787   2.979   3.315   5.502  1.8298  1.3024 -0.3009
 8052SOL     OW35788   2.682   2.924   4.737 -0.2858  0.5454 -0.2834
 8052SOL    HW135789   2.665   2.834   4.764 -1.2721  1.0471  0.7201
 8052SOL    HW235790   2.696   2.922   4.642 -1.1783 -0.3394 -0.3966
 8053SOL     OW35791   2.285   4.080   7.771  0.5452 -0.4312  0.0234
 8053SOL    HW135792   2.208   4.077   7.714  2.0324 -2.2494 -1.8628
 8053SOL    HW235793   2.289   3.992   7.809  0.9057 -0.6041 -0.4097
 8054SOL     OW35794   1.736   1.378   8.282 -0.0283  0.2257 -0.2916
 8054SOL    HW135795   1.747   1.360   8.189 -1.2517 -0.3159 -0.3300
 8054SOL    HW235796   1.668   1.445   8.281 -1.3129 -1.1066 -1.7435
 8055SOL     OW35797   2.125   4.655  12.814 -0.2126  0.3129 -0.0836
 8055SOL    HW135798   2.191   4.592  12.843 -1.5919 -0.9360  0.3621
 8055SOL    HW235799   2.069   4.643  12.891 -0.1899 -1.2957 -0.3290
 8056SOL     OW35800   2.103   3.938  14.848 -0.1942 -0.3739  0.2247
 8056SOL    HW135801   2.162   3.895  14.786  0.8475  0.5460  0.5801
 8056SOL    HW235802   2.058   3.993  14.784 -0.2273  0.6156  1.0998
 8057SOL     OW35803   3.594   2.824   2.552  0.1073  0.5412 -0.0466
 8057SOL    HW135804   3.506   2.793   2.577 -0.2970  1.3372 -0.4832
 8057SOL    HW235805   3.629   2.834   2.641 -0.7422  1.3843  0.1920
 8058SOL     OW35806   4.399   4.120   5.603 -0.2021  0.0034  0.2550
 8058SOL    HW135807   4.423   4.162   5.685  0.0266 -1.3117  0.8574
 8058SOL    HW235808   4.471   4.057   5.598 -1.7382 -1.8046  0.8758
 8059SOL     OW35809   0.973   2.150   0.525  0.4507  0.1851 -0.0569
 8059SOL    HW135810   1.043   2.111   0.577  1.2631  0.0869 -1.2365
 8059SOL    HW235811   1.006   2.138   0.436 -0.6745 -2.3201 -0.1513
 8060SOL     OW35812   3.123   3.325   9.432  0.2727 -0.1687 -0.1474
 8060SOL    HW135813   3.155   3.415   9.435  0.0741 -0.1689  1.7697
 8060SOL    HW235814   3.145   3.298   9.343 -0.9726  3.1282 -1.4270
 8061SOL     OW35815   2.764   3.902   2.052 -0.6117 -0.4102  0.7535
 8061SOL    HW135816   2.705   3.912   2.127  0.3797 -0.4230  1.5343
 8061SOL    HW235817   2.739   3.818   2.013 -0.7213 -0.5395  1.0972
 8062SOL     OW35818   2.104   1.328  10.411  0.5606 -0.0509  0.1814
 8062SOL    HW135819   2.050   1.250  10.429 -0.8522  1.3978  2.2753
 8062SOL    HW235820   2.132   1.355  10.499  1.7012 -0.7643  0.0401
 8063SOL     OW35821   0.330   4.551   2.688 -0.6153  0.0407  0.0486
 8063SOL    HW135822   0.343   4.644   2.709 -2.7683  1.0293 -3.0224
 8063SOL    HW235823   0.421   4.534   2.666 -0.6420 -1.6014  1.1776
 8064SOL     OW35824   1.985   1.392   0.172 -0.0390  0.6021  0.3221
 8064SOL    HW135825   1.957   1.424   0.258  0.3128  0.6865  0.4059
 8064SOL    HW235826   1.934   1.311   0.173 -2.2726  2.0330  0.2745
 8065SOL     OW35827   1.923   4.389  12.041  0.1922  0.1773  0.1453
 8065SOL    HW135828   1.976   4.456  12.084 -0.1365 -0.3240  1.3433
 8065SOL    HW235829   1.845   4.375  12.096  0.0157  0.5358 -0.0110
 8066SOL     OW35830   0.159   0.492   3.725 -0.2520 -0.2043 -0.9525
 8066SOL    HW135831   0.097   0.439   3.775  1.4040  0.6295  1.9574
 8066SOL    HW235832   0.125   0.581   3.736  2.3680  0.5854  0.7362
 8067SOL     OW35833   2.077   1.695   6.020  0.5422 -0.1401 -0.3173
 8067SOL    HW135834   2.102   1.605   5.997  0.1430 -0.6702  1.2749
 8067SOL    HW235835   2.132   1.701   6.098 -0.2268 -1.9831  0.3813
 8068SOL     OW35836   1.138   4.150   1.439  0.1152  0.3258  0.4322
 8068SOL    HW135837   1.224   4.170   1.403  0.5376  1.4889  2.0791
 8068SOL    HW235838   1.087   4.228   1.418 -0.1695  0.6019  2.1435
 8069SOL     OW35839   3.725   4.150  11.333 -0.2052  0.0770 -0.0792
 8069SOL    HW135840   3.682   4.123  11.252  0.2812  0.9550 -0.6323
 8069SOL    HW235841   3.647   4.185  11.377  2.7898  0.5187  4.9979
 8070SOL     OW35842   4.548   2.759  14.629 -0.4900  0.4597 -0.2870
 8070SOL    HW135843   4.455   2.742  14.613 -0.5078 -0.3543  0.6802
 8070SOL    HW235844   4.582   2.830  14.575 -0.6146  0.0959 -0.8395
 8071SOL     OW35845   0.855   3.471   2.983  0.1076 -0.2103 -0.3047
 8071SOL    HW135846   0.885   3.447   2.896 -0.1850  0.5277 -0.6144
 8071SOL    HW235847   0.941   3.470   3.024  0.3856  1.5991 -0.8253
 8072SOL     OW35848   2.869   4.397   7.083  0.3328 -0.3096  0.0286
 8072SOL    HW135849   2.915   4.470   7.042 -1.3822  0.3033 -0.7579
 8072SOL    HW235850   2.874   4.418   7.177  0.8760 -1.5652  0.2839
 8073SOL     OW35851   4.228   0.868   3.207 -0.5585  0.0292 -0.1607
 8073SOL    HW135852   4.265   0.793   3.254  2.7057  0.7861 -1.5502
 8073SOL    HW235853   4.208   0.837   3.119  0.2013  1.9119 -0.9970
 8074SOL     OW35854   4.313   1.601  10.050 -0.6724 -0.1942  0.1925
 8074SOL    HW135855   4.406   1.581  10.037 -1.0167 -2.8220  1.6882
 8074SOL    HW235856   4.286   1.540  10.119  0.9431 -0.9543  0.1581
 8075SOL     OW35857   0.416   2.007   4.283  0.2212  0.2476  0.1527
 8075SOL    HW135858   0.497   2.051   4.257  0.8425 -2.1261 -1.8725
 8075SOL    HW235859   0.434   1.920   4.249  0.3551 -0.5688  2.3488
 8076SOL     OW35860   4.152   2.011   8.810  0.2335 -0.0167  0.1418
 8076SOL    HW135861   4.066   2.022   8.851  0.1063 -0.1026 -0.0990
 8076SOL    HW235862   4.130   1.984   8.720  1.8859  0.8312 -0.5146
 8077SOL     OW35863   1.813   3.874   9.013  0.3892  0.1133  0.1434
 8077SOL    HW135864   1.907   3.881   9.028  0.3572 -0.2879  0.5111
 8077SOL    HW235865   1.805   3.919   8.929  1.5941 -0.2276 -0.1390
 8078SOL     OW35866   4.226   0.053  11.972  0.3183  0.1241  0.9569
 8078SOL    HW135867   4.140   0.047  11.931  0.3528  1.2506  0.7189
 8078SOL    HW235868   4.217   4.710  12.027 -1.0009 -0.1658  0.3206
 8079SOL     OW35869   4.253   4.260   2.215  0.6851  0.5770 -0.4880
 8079SOL    HW135870   4.209   4.196   2.159  0.9097  0.8007 -0.9246
 8079SOL    HW235871   4.266   4.339   2.163  1.0620  0.6446 -0.2931
 8080SOL     OW35872   2.248   1.102   4.382  0.4161 -0.0520 -0.1752
 8080SOL    HW135873   2.199   1.152   4.447 -0.8523  1.4361 -2.2742
 8080SOL    HW235874   2.275   1.169   4.319 -1.5572  1.2179  0.3411
 8081SOL     OW35875   0.096   2.141  13.037  0.4987 -0.1080  0.2377
 8081SOL    HW135876   0.120   2.231  13.015  1.0614 -0.4787 -0.6652
 8081SOL    HW235877   0.170   2.125  13.096  1.6450  1.7217 -0.6901
 8082SOL     OW35878   1.359   2.086   3.959 -0.2398  0.1969 -0.5522
 8082SOL    HW135879   1.443   2.058   3.922  0.5134  1.6087  0.0617
 8082SOL    HW235880   1.369   2.052   4.048 -1.5152  1.3024  0.0165
 8083SOL     OW35881   3.608   1.082  15.569 -0.2142 -0.3582  0.2914
 8083SOL    HW135882   3.702   1.062  15.566 -0.0188  0.8192 -1.1972
 8083SOL    HW235883   3.593   1.108  15.478  1.7200  2.1666  0.7045
 8084SOL     OW35884   4.669   0.666   5.263  0.0283  0.1942 -0.2598
 8084SOL    HW135885   4.611   0.677   5.188  0.5461  2.6338 -0.2818
 8084SOL    HW235886   4.721   0.592   5.230  2.3201  1.2557  0.9694
 8085SOL     OW35887   4.643   1.434   5.422  0.4246 -0.2828  0.0050
 8085SOL    HW135888   4.635   1.342   5.447 -0.9891 -0.1478  0.0165
 8085SOL    HW235889   4.734   1.466   5.428 -0.5711  3.1006 -2.5090
 8086SOL     OW35890   3.281   3.113  16.746  0.0766  0.2663  0.0145
 8086SOL    HW135891   3.340   3.180  16.779  0.4021  0.5669 -1.1749
 8086SOL    HW235892   3.212   3.112  16.812 -1.2188  0.8194 -1.3185
 8087SOL     OW35893   0.422   1.085   8.673 -0.1075  0.0084  0.7308
 8087SOL    HW135894   0.472   1.049   8.599  2.0980  1.0384  1.7022
 8087SOL    HW235895   0.424   1.005   8.725  0.3550 -1.7878 -2.0173
 8088SOL     OW35896   2.723   1.761   6.812  0.0440 -0.1135 -0.0313
 8088SOL    HW135897   2.771   1.839   6.835  0.6255  0.1497 -2.1113
 8088SOL    HW235898   2.639   1.805   6.802 -0.4414 -1.3458 -1.4528
 8089SOL     OW35899   3.627   4.244   4.491 -0.1277  0.1506  0.3151
 8089SOL    HW135900   3.595   4.165   4.448 -1.0082  1.3250 -1.1900
 8089SOL    HW235901   3.706   4.207   4.530  0.8918  1.5385 -0.4220
 8090SOL     OW35902   3.680   1.006   2.803  0.0661 -0.3381 -0.2995
 8090SOL    HW135903   3.767   1.034   2.831 -0.1105 -0.3647  0.2894
 8090SOL    HW235904   3.659   0.953   2.880  2.3346  1.9060  1.8269
 8091SOL     OW35905   2.215   4.133   1.318  0.1533  0.4141  0.1212
 8091SOL    HW135906   2.194   4.222   1.345  0.8464  1.1638 -1.8145
 8091SOL    HW235907   2.141   4.077   1.341 -0.3643  0.8683 -0.4535
 8092SOL     OW35908   3.736   4.229   7.583 -0.4884 -0.3632  0.6540
 8092SOL    HW135909   3.765   4.161   7.522 -1.8299 -0.0600 -0.3126
 8092SOL    HW235910   3.710   4.181   7.662 -0.1990 -1.5814  0.0032
 8093SOL     OW35911   3.047   3.997  10.825  0.2197 -0.0379 -0.4669
 8093SOL    HW135912   3.114   3.985  10.758 -0.0567  1.7451 -1.0710
 8093SOL    HW235913   3.042   3.907  10.856  0.8806  0.2134  0.3660
 8094SOL     OW35914   2.244   2.028   5.744 -0.4692 -0.0276 -0.2088
 8094SOL    HW135915   2.288   2.023   5.660  0.6641 -2.6054  0.5391
 8094SOL    HW235916   2.313   1.979   5.790 -0.5424 -1.2966 -1.4629
 8095SOL     OW35917   1.187   2.780   2.714  0.0042 -0.0018  0.0860
 8095SOL    HW135918   1.166   2.861   2.668  2.1233  0.1583 -0.5900
 8095SOL    HW235919   1.119   2.724   2.675 -1.1553  1.3226  0.2225
 8096SOL     OW35920   0.071   2.748   5.246 -0.1844  0.0823  0.2770
 8096SOL    HW135921   0.043   2.676   5.189 -1.2581  1.1102 -0.4674
 8096SOL    HW235922   0.166   2.737   5.242 -0.0918  1.1176 -0.2939
 8097SOL     OW35923   0.379   0.859   6.250  0.1916  0.3688 -0.1191
 8097SOL    HW135924   0.387   0.769   6.282 -0.1665  0.5957  0.6072
 8097SOL    HW235925   0.466   0.893   6.270 -0.5189  1.0474  1.8294
 8098SOL     OW35926   0.589   0.695   1.887 -0.2613  0.5831  0.2331
 8098SOL    HW135927   0.524   0.687   1.957  0.7154 -1.6009  0.8925
 8098SOL    HW235928   0.666   0.671   1.938 -1.8403 -0.2883  2.2190
 8099SOL     OW35929   2.332   3.910   4.514  0.2395 -0.0532  0.3355
 8099SOL    HW135930   2.377   3.982   4.471 -0.6662  0.3209  0.0066
 8099SOL    HW235931   2.355   3.842   4.450 -1.0884  2.1708 -2.5034
 8100SOL     OW35932   3.994   3.890  10.758 -0.0229  0.5195  0.0602
 8100SOL    HW135933   4.044   3.843  10.692 -1.5125  0.5720 -1.1146
 8100SOL    HW235934   4.054   3.903  10.832  0.4262 -1.4023  0.0308
 8101SOL     OW35935   1.927   3.736   7.321 -0.3706  0.0939  0.1986
 8101SOL    HW135936   1.844   3.756   7.365 -0.8122  0.5252 -0.8203
 8101SOL    HW235937   1.914   3.750   7.227  0.7089 -1.1092 -0.1313
 8102SOL     OW35938   1.105   3.541   8.648 -0.1025 -0.3754 -0.4815
 8102SOL    HW135939   1.051   3.615   8.675 -0.2007  0.3654 -2.6663
 8102SOL    HW235940   1.180   3.584   8.606  1.7353 -1.5632  1.5897
 8103SOL     OW35941   0.033   2.417   7.004  0.1088  0.1245 -0.1994
 8103SOL    HW135942   4.687   2.459   6.977 -0.2521 -2.1580 -2.5784
 8103SOL    HW235943   0.095   2.482   7.039 -2.4496  1.8319  1.2092
 8104SOL     OW35944   1.538   3.502   2.663 -0.3573  0.2247  0.1475
 8104SOL    HW135945   1.483   3.510   2.741  0.4795 -0.4046  0.8031
 8104SOL    HW235946   1.474   3.509   2.591  0.5220  3.0524 -0.3463
 8105SOL     OW35947   0.196   3.648   4.317  0.0409  0.1717  0.2971
 8105SOL    HW135948   0.141   3.592   4.263 -1.3424  1.6742  0.1318
 8105SOL    HW235949   0.138   3.723   4.333 -0.3610 -0.1430  0.3292
 8106SOL     OW35950   0.530   1.410   9.502  0.6262  0.1575  0.2623
 8106SOL    HW135951   0.623   1.398   9.520  0.6201 -0.2015  0.0545
 8106SOL    HW235952   0.497   1.320   9.501 -0.9765  0.7338  0.1499
 8107SOL     OW35953   1.178   2.850  13.021 -0.2099  0.3826 -1.0101
 8107SOL    HW135954   1.263   2.877  12.987  0.4417  2.2240  2.0657
 8107SOL    HW235955   1.193   2.756  13.016 -1.0543  0.0222  3.5942
 8108SOL     OW35956   1.816   4.598   6.295 -0.2192 -0.0715  0.4886
 8108SOL    HW135957   1.797   4.513   6.333  3.5521 -1.5533 -0.9011
 8108SOL    HW235958   1.910   4.591   6.278 -0.2932  2.0561 -0.8147
 8109SOL     OW35959   4.244   2.527   9.156  0.0997 -0.6455 -0.5001
 8109SOL    HW135960   4.235   2.444   9.109 -0.2435 -0.5180 -0.6556
 8109SOL    HW235961   4.289   2.582   9.092 -1.6404 -0.5464 -1.6261
 8110SOL     OW35962   3.150   1.530   4.368 -0.3018 -0.0665  0.3835
 8110SOL    HW135963   3.163   1.615   4.409 -0.1912 -0.7923  1.8621
 8110SOL    HW235964   3.233   1.515   4.323 -0.3521  3.8049 -0.9408
 8111SOL     OW35965   3.030   0.463   8.142  0.0597  0.2405  0.0809
 8111SOL    HW135966   3.068   0.455   8.229  1.3809  1.9406 -0.3212
 8111SOL    HW235967   3.103   0.445   8.083  1.0019  0.4860  1.1658
 8112SOL     OW35968   0.649   4.683   9.422 -0.2570  0.6324  0.3397
 8112SOL    HW135969   0.604   0.012   9.477  2.8632  1.4348  1.9643
 8112SOL    HW235970   0.724   4.662   9.477  1.3563  2.0933 -1.2999
 8113SOL     OW35971   4.073   0.910  12.553  0.2944 -0.0765 -0.0720
 8113SOL    HW135972   4.151   0.890  12.606 -0.1055  0.9470  0.9175
 8113SOL    HW235973   4.068   1.006  12.556  1.4963 -0.0125 -0.3843
 8114SOL     OW35974   0.079   2.916   9.916 -0.0179  0.2867 -0.5848
 8114SOL    HW135975   4.730   2.909   9.873  0.2820 -3.9227 -0.4761
 8114SOL    HW235976   0.121   2.842   9.872 -2.6158 -2.4158  1.5022
 8115SOL     OW35977   3.344   2.208   3.304 -0.3656 -0.8163 -0.0557
 8115SOL    HW135978   3.342   2.276   3.237  0.9228 -1.2711 -0.5606
 8115SOL    HW235979   3.282   2.254   3.361 -1.4641 -1.6037 -0.6241
 8116SOL     OW35980   4.341   4.703   1.955 -0.6017  0.4409 -0.4553
 8116SOL    HW135981   4.392   0.043   1.984 -1.5320  0.3346  1.4861
 8116SOL    HW235982   4.278   0.021   1.907 -1.6172 -0.7273 -0.4505
 8117SOL     OW35983   1.672   2.923  14.285 -0.9817  0.0677 -0.2045
 8117SOL    HW135984   1.707   2.944  14.371  0.0623 -0.9502 -0.3867
 8117SOL    HW235985   1.684   3.007  14.240  2.7130 -0.1820  0.2853
 8118SOL     OW35986   0.458   2.121   8.236 -0.4518 -0.0282  0.0669
 8118SOL    HW135987   0.385   2.182   8.227  0.9965  1.5906 -0.6926
 8118SOL    HW235988   0.499   2.154   8.316  2.0383 -4.3286  0.5586
 8119SOL     OW35989   2.418   0.723   0.679 -0.5242 -0.5268 -0.5317
 8119SOL    HW135990   2.412   0.656   0.611  1.0544  0.3968 -1.5616
 8119SOL    HW235991   2.395   0.801   0.629  0.2168  0.5910  0.8553
 8120SOL     OW35992   2.304   3.944   6.290 -0.1141 -0.0220  0.6681
 8120SOL    HW135993   2.282   3.863   6.335 -0.5724 -0.8659 -1.0777
 8120SOL    HW235994   2.380   3.917   6.239 -1.0936 -1.4332 -0.0329
 8121SOL     OW35995   3.336   4.477  10.172  0.2737  0.0376  0.0316
 8121SOL    HW135996   3.388   4.515  10.101  2.2023 -0.3862  1.1977
 8121SOL    HW235997   3.261   4.447  10.120  0.8351 -2.0572  0.4033
 8122SOL     OW35998   3.944   4.013   6.357  0.4530 -0.1343 -0.0298
 8122SOL    HW135999   3.878   3.946   6.375  0.4116 -0.1826 -0.3562
 8122SOL    HW236000   4.017   3.977   6.407  0.8985  0.6342 -0.1248
 8123SOL     OW36001   0.465   0.726   3.805  0.1178 -0.3818 -0.3286
 8123SOL    HW136002   0.473   0.746   3.712 -0.5190  0.3190 -0.2290
 8123SOL    HW236003   0.377   0.761   3.813  0.4462  0.6572 -1.3542
 8124SOL     OW36004   3.075   1.500   7.878  0.1405  0.2248 -0.6460
 8124SOL    HW136005   2.991   1.477   7.839  0.2829 -0.2921 -0.6492
 8124SOL    HW236006   3.146   1.469   7.823  0.0583  0.8865 -1.1173
 8125SOL     OW36007   2.333   2.953  11.320 -0.0500 -0.5117 -0.0507
 8125SOL    HW136008   2.412   2.934  11.370  0.9698  3.1655 -0.2358
 8125SOL    HW236009   2.362   2.967  11.229  2.1766  1.3146  0.9337
 8126SOL     OW36010   0.819   1.795  14.710 -0.2012 -0.0166 -0.5775
 8126SOL    HW136011   0.895   1.782  14.767 -2.1010  0.1142  1.9844
 8126SOL    HW236012   0.750   1.807  14.775  1.1882  1.0816  0.7169
 8127SOL     OW36013   2.182   4.640   5.781  0.8629 -0.3505  0.2355
 8127SOL    HW136014   2.221   4.683   5.857  0.2893 -0.4461  0.5829
 8127SOL    HW236015   2.189   4.550   5.811  0.5457 -0.7538 -0.9161
 8128SOL     OW36016   3.207   1.049   8.499 -0.2275  0.0895 -0.1087
 8128SOL    HW136017   3.184   1.078   8.411 -0.5634  1.4818  0.4378
 8128SOL    HW236018   3.156   0.967   8.496  2.8900 -1.7866 -1.3552
 8129SOL     OW36019   0.183   2.576   1.349 -0.2170  0.0406  0.0372
 8129SOL    HW136020   0.158   2.669   1.351 -1.3093 -0.3036  1.8815
 8129SOL    HW236021   0.159   2.560   1.440 -0.4448 -2.1587 -0.4088
 8130SOL     OW36022   0.444   1.081   3.157 -0.0015  0.1976 -0.2568
 8130SOL    HW136023   0.505   1.011   3.180 -0.2934  0.5341  1.5616
 8130SOL    HW236024   0.498   1.150   3.196  3.0721 -2.9129  0.9612
 8131SOL     OW36025   4.084   2.805   3.036 -0.2905 -0.3360  0.3080
 8131SOL    HW136026   4.180   2.811   3.029 -0.4632 -0.5861 -2.0842
 8131SOL    HW236027   4.065   2.711   3.035 -2.1898  0.0441  1.4571
 8132SOL     OW36028   0.529   2.461  13.795  0.1800  0.8860 -0.4942
 8132SOL    HW136029   0.534   2.398  13.867 -2.2195  1.5441  0.2536
 8132SOL    HW236030   0.435   2.455  13.778 -0.0807  0.9887  0.9617
 8133SOL     OW36031   0.032   0.115  13.860 -0.4401  0.2139 -0.1704
 8133SOL    HW136032   0.085   0.051  13.812 -1.3464 -0.7118  0.0524
 8133SOL    HW236033   4.729   0.175  13.797  0.5564  1.6582  0.6094
 8134SOL     OW36034   3.822   0.563   8.043  0.3681  0.2767  0.3597
 8134SOL    HW136035   3.905   0.606   8.063  2.3258 -2.4531 -1.7282
 8134SOL    HW236036   3.844   0.476   8.076  2.2364  0.6195  0.0141
 8135SOL     OW36037   1.210   4.458   5.494 -0.8602  0.6779  0.6498
 8135SOL    HW136038   1.168   4.521   5.553 -0.6665  1.1862  0.2521
 8135SOL    HW236039   1.140   4.394   5.484  1.6530 -2.1724  1.4606
 8136SOL     OW36040   3.178   1.695   2.910  0.0547  0.1688  0.4309
 8136SOL    HW136041   3.139   1.647   2.837 -0.2491 -0.6340  1.1256
 8136SOL    HW236042   3.270   1.674   2.896  0.0875 -0.1670  1.1624
 8137SOL     OW36043   4.045   0.173   4.206 -0.2028  0.2779 -0.1924
 8137SOL    HW136044   4.010   0.235   4.142  3.6528  0.0797 -2.5097
 8137SOL    HW236045   3.967   0.139   4.249 -1.5173  0.3521 -2.4929
 8138SOL     OW36046   4.057   3.914   8.911 -0.1112  0.3144 -0.2452
 8138SOL    HW136047   3.994   3.978   8.878 -0.3802  1.5690  2.7259
 8138SOL    HW236048   4.102   3.886   8.831 -1.4304  0.0345 -0.8794
 8139SOL     OW36049   0.023   0.841   3.704 -0.0235  0.0740 -0.0194
 8139SOL    HW136050   0.093   0.863   3.764  0.5926 -0.1244 -0.6649
 8139SOL    HW236051   0.052   0.865   3.616  0.3207 -0.4260 -0.0422
 8140SOL     OW36052   0.432   4.395  10.637 -0.2676 -0.6807 -0.7640
 8140SOL    HW136053   0.441   4.305  10.607 -2.4176 -1.2972  0.4384
 8140SOL    HW236054   0.398   4.375  10.724  0.4249  1.1798 -0.0722
 8141SOL     OW36055   2.851   3.585   3.008  0.0625  0.2973 -0.1196
 8141SOL    HW136056   2.831   3.546   2.923 -1.4560  0.4048  0.1953
 8141SOL    HW236057   2.767   3.601   3.050 -0.0524 -2.0342  0.5396
 8142SOL     OW36058   2.654   3.719   4.009 -0.1365  0.0758 -0.0562
 8142SOL    HW136059   2.645   3.810   4.040  1.1858 -0.7250  2.7329
 8142SOL    HW236060   2.697   3.739   3.926  0.6785  1.0392  0.6015
 8143SOL     OW36061   1.980   3.736   7.626  0.2066  0.2268 -0.3837
 8143SOL    HW136062   1.928   3.669   7.582 -0.3796  0.4133  0.0236
 8143SOL    HW236063   2.066   3.728   7.584 -0.2164  3.5840 -1.8670
 8144SOL     OW36064   2.187   4.365   2.769 -0.0858  0.2132 -0.3130
 8144SOL    HW136065   2.140   4.439   2.808 -0.3631 -0.8884  1.4689
 8144SOL    HW236066   2.214   4.418   2.695  1.9140 -0.3693  0.0002
 8145SOL     OW36067   2.775   1.042   9.177 -0.1820  0.0542 -0.2077
 8145SOL    HW136068   2.824   0.971   9.219 -0.7246  0.6183  1.3900
 8145SOL    HW236069   2.706   0.995   9.131 -1.0602 -0.1463  1.2936
 8146SOL     OW36070   1.692   0.632   3.665 -0.0433  0.0199  0.0091
 8146SOL    HW136071   1.685   0.548   3.710  0.6066 -0.2244 -0.3451
 8146SOL    HW236072   1.689   0.692   3.739 -0.2051  3.1117 -2.4956
 8147SOL     OW36073   0.431   1.862   4.965  0.1405 -0.3619  0.0343
 8147SOL    HW136074   0.402   1.783   5.012  2.4725 -1.5953 -0.6159
 8147SOL    HW236075   0.372   1.920   5.013 -1.4005 -0.7992 -1.3342
 8148SOL     OW36076   0.524   0.886   9.781  0.3928 -0.2642 -0.1584
 8148SOL    HW136077   0.601   0.850   9.736  0.6050 -0.0047 -0.0007
 8148SOL    HW236078   0.568   0.929   9.854 -1.3817  2.3907 -0.6464
 8149SOL     OW36079   1.952   1.570   7.943  0.0684  0.9404  0.3896
 8149SOL    HW136080   2.037   1.588   7.982  0.8427  2.7118 -2.0926
 8149SOL    HW236081   1.971   1.608   7.857 -1.9179 -2.1615 -1.4393
 8150SOL     OW36082   4.632   2.195  12.263  0.2636  0.3290 -0.0339
 8150SOL    HW136083   4.662   2.170  12.175  0.3428  1.4747 -0.3326
 8150SOL    HW236084   4.544   2.158  12.258  1.3166 -2.2559  0.6242
 8151SOL     OW36085   0.396   0.498   1.782 -0.6597  0.0440  0.2058
 8151SOL    HW136086   0.358   0.576   1.741 -1.1571 -1.0353 -1.3702
 8151SOL    HW236087   0.471   0.537   1.826  0.5176 -1.9053 -0.1253
 8152SOL     OW36088   0.843   0.992  13.277 -0.2649 -0.1515  0.3224
 8152SOL    HW136089   0.856   0.925  13.210 -1.5477  1.3719 -1.4423
 8152SOL    HW236090   0.878   0.946  13.354 -0.0043  0.3097  0.4721
 8153SOL     OW36091   3.028   4.047   8.271  0.1026 -0.0778 -0.3051
 8153SOL    HW136092   3.124   4.043   8.263  0.2778 -0.1761  1.8056
 8153SOL    HW236093   3.022   4.106   8.345  0.5150  1.7447 -1.7149
 8154SOL     OW36094   3.933   0.301   9.501 -0.2933 -0.0382 -0.2717
 8154SOL    HW136095   3.957   0.393   9.496 -0.0606 -0.0855  0.0407
 8154SOL    HW236096   3.998   0.270   9.563  0.2007 -0.3604 -0.9477
 8155SOL     OW36097   4.074   0.444   1.165 -0.2193  0.1017 -0.0242
 8155SOL    HW136098   4.161   0.410   1.186 -0.2841  0.1645  0.3440
 8155SOL    HW236099   4.082   0.539   1.173 -1.1432  0.1352  0.5474
 8156SOL     OW36100   2.076   4.714   8.093 -0.5549  0.6621  0.4136
 8156SOL    HW136101   2.133   4.637   8.099 -0.5909  0.2938 -3.9533
 8156SOL    HW236102   2.059   4.709   7.999  1.4143  1.9705 -0.0152
 8157SOL     OW36103   2.035   1.610   7.663 -0.4957  0.6640  0.3728
 8157SOL    HW136104   1.982   1.591   7.586 -0.2696  1.5453  0.0031
 8157SOL    HW236105   2.072   1.524   7.684  1.2939  1.0553 -1.1455
 8158SOL     OW36106   2.003   2.859   4.296  0.1257 -0.2713  0.2703
 8158SOL    HW136107   1.917   2.866   4.255 -0.3106  0.1583  1.2761
 8158SOL    HW236108   2.049   2.805   4.231 -0.3338 -0.0284 -0.2571
 8159SOL     OW36109   0.588   1.306   5.994  0.5583 -0.3495 -0.2390
 8159SOL    HW136110   0.681   1.281   5.996  0.6548 -0.0620 -1.6344
 8159SOL    HW236111   0.588   1.375   6.060 -0.3773  0.3012 -0.9227
 8160SOL     OW36112   1.244   3.750  14.318 -0.0323 -0.1009 -0.2163
 8160SOL    HW136113   1.215   3.734  14.228  1.4500  3.9789 -1.4201
 8160SOL    HW236114   1.305   3.676  14.326  0.8316  0.6665  0.2704
 8161SOL     OW36115   2.532   1.128  15.293  0.6244 -0.0440  0.5430
 8161SOL    HW136116   2.575   1.085  15.219  1.0539  1.3545 -0.0258
 8161SOL    HW236117   2.546   1.221  15.273  1.3608 -0.7141 -2.1374
 8162SOL     OW36118   2.969   3.440   1.525 -0.6699 -0.1509 -0.6559
 8162SOL    HW136119   2.974   3.439   1.430  2.3904 -1.6137 -0.4792
 8162SOL    HW236120   2.962   3.532   1.549 -1.0146 -0.6550  1.1937
 8163SOL     OW36121   3.721   3.363  10.882 -0.3864  0.2246  0.5728
 8163SOL    HW136122   3.672   3.445  10.868 -1.6923 -0.7939 -0.9255
 8163SOL    HW236123   3.706   3.349  10.975 -3.7957  2.1301  0.3246
 8164SOL     OW36124   0.582   4.674   7.867  0.0460  0.7828  0.4196
 8164SOL    HW136125   0.563   4.589   7.907 -0.2355 -0.1253 -1.6394
 8164SOL    HW236126   0.653   4.650   7.807  0.3797  0.2667  1.0138
 8165SOL     OW36127   3.471   1.787  15.332 -0.4502  0.4346  0.0484
 8165SOL    HW136128   3.403   1.827  15.278  0.5872  0.3281 -1.3362
 8165SOL    HW236129   3.487   1.713  15.273 -3.4589  0.8492 -1.2643
 8166SOL     OW36130   2.264   3.157   3.593  0.2193 -0.2031 -0.4234
 8166SOL    HW136131   2.276   3.249   3.613 -0.8057 -0.1091 -0.2255
 8166SOL    HW236132   2.353   3.122   3.591  0.6303  0.8472 -0.1841
 8167SOL     OW36133   4.708   4.139   2.362 -0.0041  0.6797  0.0134
 8167SOL    HW136134   4.621   4.173   2.343 -0.1033 -0.9771 -2.4613
 8167SOL    HW236135   4.691   4.053   2.401  1.1357 -0.3457 -1.7420
 8168SOL     OW36136   1.699   4.084  11.504  0.4087 -0.1506  0.6705
 8168SOL    HW136137   1.625   4.142  11.490  0.1954 -0.3147  1.1096
 8168SOL    HW236138   1.770   4.146  11.490  1.3438 -0.8768  2.1144
 8169SOL     OW36139   2.394   1.868   5.918 -0.4153 -0.8617  0.0486
 8169SOL    HW136140   2.474   1.822   5.942 -0.7028 -0.7616  1.1704
 8169SOL    HW236141   2.362   1.880   6.007  0.4628  2.7797 -0.1370
 8170SOL     OW36142   0.511   3.649   8.536 -0.1724 -0.0982  0.1268
 8170SOL    HW136143   0.565   3.721   8.504  0.5899 -0.4504  0.6057
 8170SOL    HW236144   0.542   3.638   8.626 -2.3776 -1.0836  0.7715
 8171SOL     OW36145   0.340   0.281   1.991 -0.0499 -0.4764  0.1879
 8171SOL    HW136146   0.414   0.327   2.031  0.4082  1.9345 -3.4190
 8171SOL    HW236147   0.318   0.345   1.924 -0.6665 -2.3363 -1.3980
 8172SOL     OW36148   0.892   3.371   5.927 -0.1393  0.0621 -0.3520
 8172SOL    HW136149   0.930   3.450   5.965  0.8301  0.9108 -3.0430
 8172SOL    HW236150   0.798   3.387   5.936 -0.5385 -1.4129 -1.8882
 8173SOL     OW36151   2.652   0.263  15.129  0.5527 -0.4613 -0.6113
 8173SOL    HW136152   2.657   0.213  15.210 -1.0407 -1.4608 -1.1164
 8173SOL    HW236153   2.715   0.218  15.072  2.2541 -2.1674  2.6495
 8174SOL     OW36154   3.123   2.103  10.708  0.2509 -0.4802 -0.1933
 8174SOL    HW136155   3.103   2.191  10.741 -1.1372 -0.3517 -1.3842
 8174SOL    HW236156   3.099   2.041  10.776  0.9278  0.0932  0.5784
 8175SOL     OW36157   2.382   3.186  11.613  0.3799 -0.2864  0.1962
 8175SOL    HW136158   2.348   3.234  11.537  1.9637 -0.4063 -0.5933
 8175SOL    HW236159   2.456   3.246  11.627 -0.1650 -0.0640  2.0728
 8176SOL     OW36160   3.290   4.297   3.935  0.3368 -0.0685  0.3631
 8176SOL    HW136161   3.217   4.249   3.896 -0.6952  0.5699  1.4941
 8176SOL    HW236162   3.365   4.260   3.889 -1.1386 -1.7430 -0.7193
 8177SOL     OW36163   1.437   1.521  10.472  0.2951  0.5039 -0.0423
 8177SOL    HW136164   1.449   1.467  10.550  0.1924 -1.2311 -1.2267
 8177SOL    HW236165   1.345   1.503  10.453  0.7320 -0.9600 -0.7711
 8178SOL     OW36166   3.291   3.021   3.029  0.4631 -0.5842 -0.0028
 8178SOL    HW136167   3.213   2.965   3.024 -0.4417  0.7834 -1.4262
 8178SOL    HW236168   3.306   3.024   3.123  0.7545 -1.2400 -0.0284
 8179SOL     OW36169   1.824   2.781  14.120 -0.6897 -0.3102 -0.2859
 8179SOL    HW136170   1.814   2.857  14.062  0.9599  2.3271  2.9048
 8179SOL    HW236171   1.785   2.820  14.198  1.9717  0.6453  0.5533
 8180SOL     OW36172   0.770   2.427   5.398  0.9868  0.0882  0.4564
 8180SOL    HW136173   0.864   2.429   5.415  0.7974 -0.6205  1.6121
 8180SOL    HW236174   0.732   2.358   5.454 -1.8729  1.7048  0.5069
 8181SOL     OW36175   4.735   4.202   5.748 -0.4119  0.0422 -0.2016
 8181SOL    HW136176   0.042   4.276   5.705  0.6634 -0.2107  0.4489
 8181SOL    HW236177   4.643   4.229   5.741 -0.3602  0.3965  0.5505
 8182SOL     OW36178   3.755   0.128   5.426 -0.0518  0.4520 -0.5057
 8182SOL    HW136179   3.676   0.074   5.434 -0.0606  0.4559 -0.5676
 8182SOL    HW236180   3.763   0.138   5.332  0.7776  3.3821 -0.0995
 8183SOL     OW36181   0.403   1.015   8.002 -0.0266 -0.7007  0.3912
 8183SOL    HW136182   0.384   1.108   7.987 -0.5764 -0.6000  1.6529
 8183SOL    HW236183   0.390   0.981   7.914 -0.9753  2.0010 -0.5119
 8184SOL     OW36184   0.353   1.296   8.954 -0.1521  0.2084  0.3823
 8184SOL    HW136185   0.378   1.238   9.026  1.0132  0.0557 -0.1384
 8184SOL    HW236186   0.427   1.285   8.894 -0.5475  1.4760 -0.3477
 8185SOL     OW36187   0.546   3.298   1.361  0.0435 -1.2489  0.6143
 8185SOL    HW136188   0.614   3.330   1.302 -0.5425  1.4345  1.3835
 8185SOL    HW236189   0.602   3.258   1.427 -0.1415 -1.0983  0.8651
 8186SOL     OW36190   2.968   4.681   8.794  0.0495 -0.3024 -0.7039
 8186SOL    HW136191   2.942   4.589   8.794 -1.2288  0.0506 -0.3329
 8186SOL    HW236192   2.948   4.712   8.706 -0.2392  0.3639 -0.4065
 8187SOL     OW36193   3.996   0.072   7.744 -0.6440  0.5391  0.0038
 8187SOL    HW136194   4.061   0.060   7.674 -0.1115 -0.0202  0.5907
 8187SOL    HW236195   4.053   0.034   7.811 -0.1521  1.1281 -0.0711
 8188SOL     OW36196   3.622   0.684   9.714  0.4171 -0.3675 -1.1956
 8188SOL    HW136197   3.528   0.689   9.728  0.0505 -2.3797 -3.0071
 8188SOL    HW236198   3.636   0.613   9.652 -1.8750 -1.4326 -0.4785
 8189SOL     OW36199   3.510   4.000   6.254  0.4394  0.7311 -0.6900
 8189SOL    HW136200   3.543   4.010   6.343  0.4879  1.5646 -0.8048
 8189SOL    HW236201   3.495   4.091   6.228  0.2658  1.0940  0.6881
 8190SOL     OW36202   2.237   0.009   5.401 -0.6686 -0.1952  0.1553
 8190SOL    HW136203   2.239   0.088   5.347 -0.6351 -1.0368 -1.0653
 8190SOL    HW236204   2.322   0.017   5.444 -0.5893 -3.3332  0.6130
 8191SOL     OW36205   1.869   4.428   6.534 -0.6468  0.2491 -0.1784
 8191SOL    HW136206   1.819   4.360   6.580 -0.9921  0.1944 -0.6263
 8191SOL    HW236207   1.929   4.367   6.491  0.9732 -0.3982  3.0294
 8192SOL     OW36208   2.195   0.644   6.487  0.0509  0.1329  0.1158
 8192SOL    HW136209   2.280   0.680   6.464 -1.1620  1.6587 -1.9217
 8192SOL    HW236210   2.167   0.706   6.555 -2.7478 -0.8749 -0.0971
 8193SOL     OW36211   4.091   3.908  10.354 -0.1166 -0.3839 -0.0073
 8193SOL    HW136212   4.106   3.814  10.347 -1.6444 -0.6256 -0.0374
 8193SOL    HW236213   4.006   3.915  10.311 -1.4139  2.4404  3.0345
 8194SOL     OW36214   3.064   1.980   8.520 -0.2170 -0.4198  0.3074
 8194SOL    HW136215   3.107   2.002   8.437 -1.2492  0.3603 -0.0254
 8194SOL    HW236216   3.136   1.943   8.572  1.4124  0.2913 -1.4472
 8195SOL     OW36217   2.682   4.553   6.032  0.2932 -0.0096 -0.4319
 8195SOL    HW136218   2.761   4.595   6.066 -0.3366  1.3420 -0.6295
 8195SOL    HW236219   2.633   4.634   6.021  1.3817  1.0222  2.4224
 8196SOL     OW36220   2.905   0.137   5.704  0.0478 -0.4423  0.1996
 8196SOL    HW136221   2.845   0.176   5.641 -0.8178 -1.5914  0.3175
 8196SOL    HW236222   2.964   0.209   5.727  1.3174 -0.9644 -1.4105
 8197SOL     OW36223   4.029   2.624   6.308 -0.0481 -0.0337 -0.3526
 8197SOL    HW136224   4.088   2.570   6.254 -0.5037  1.9971 -2.8739
 8197SOL    HW236225   4.084   2.701   6.317 -0.9162  0.5824 -0.3485
 8198SOL     OW36226   0.968   4.366   2.448 -0.2182 -0.2299  0.6327
 8198SOL    HW136227   1.004   4.455   2.451  1.1483 -0.7867  0.6879
 8198SOL    HW236228   0.941   4.363   2.357  0.0219  1.8401  0.5023
 8199SOL     OW36229   1.968   3.487   9.610 -0.0113 -0.0187 -0.4051
 8199SOL    HW136230   1.899   3.540   9.571  0.8053  2.5389  1.6907
 8199SOL    HW236231   2.025   3.484   9.533 -0.6239 -0.5122 -0.8423
 8200SOL     OW36232   3.113   2.734   6.770 -0.3133  0.3285 -0.2078
 8200SOL    HW136233   3.119   2.701   6.859 -1.0912 -0.8847 -0.6061
 8200SOL    HW236234   3.197   2.705   6.734 -0.1747 -1.4301  1.5821
 8201SOL     OW36235   3.103   0.924  11.613 -0.2400 -0.2753  0.0555
 8201SOL    HW136236   3.115   0.916  11.708  3.0162  1.5928 -0.2006
 8201SOL    HW236237   3.155   0.999  11.585 -0.7524  0.3634  0.8001
 8202SOL     OW36238   1.554   0.452  14.388 -0.1893  0.2554 -0.5664
 8202SOL    HW136239   1.562   0.527  14.447  0.9784 -0.2923 -0.0416
 8202SOL    HW236240   1.480   0.481  14.334 -1.2057 -0.3456  0.4983
 8203SOL     OW36241   3.349   0.375   7.341 -0.4322 -0.4693  0.5767
 8203SOL    HW136242   3.397   0.296   7.366  2.2765  0.3519 -2.0478
 8203SOL    HW236243   3.256   0.350   7.342 -0.7684  0.7959  0.3565
 8204SOL     OW36244   3.649   3.256   6.745  0.7459 -0.5018 -0.1875
 8204SOL    HW136245   3.646   3.228   6.653  1.2667  0.7432 -0.5750
 8204SOL    HW236246   3.556   3.251   6.769  0.8632  1.4690  0.6271
 8205SOL     OW36247   1.169   3.544   7.166 -0.4256 -0.3413 -0.1713
 8205SOL    HW136248   1.221   3.609   7.214 -3.5249  0.4658  2.1245
 8205SOL    HW236249   1.216   3.536   7.084 -1.2388  0.1480 -0.6940
 8206SOL     OW36250   0.898   3.661   1.035 -0.1522 -0.0530  0.5338
 8206SOL    HW136251   0.814   3.615   1.029 -0.6147  0.8998 -0.2903
 8206SOL    HW236252   0.866   3.749   1.056 -3.0038 -0.9809  0.1113
 8207SOL     OW36253   0.273   2.173   6.570  0.1572 -0.3496 -0.3131
 8207SOL    HW136254   0.228   2.114   6.631 -0.2404 -0.1226 -0.3884
 8207SOL    HW236255   0.204   2.238   6.560 -0.1982 -0.5769  0.6648
 8208SOL     OW36256   0.101   4.357   1.873  0.1335 -0.2144  0.3530
 8208SOL    HW136257   0.018   4.397   1.848  0.5826  0.9092  0.6705
 8208SOL    HW236258   0.069   4.268   1.889  1.0639 -0.1865  2.3925
 8209SOL     OW36259   4.034   0.538   5.745  0.0759 -0.2814 -0.0192
 8209SOL    HW136260   4.016   0.543   5.839 -0.7691 -0.4554 -0.1784
 8209SOL    HW236261   4.077   0.453   5.732 -0.4438 -0.4804 -0.4296
 8210SOL     OW36262   4.348   2.247   6.889 -0.2189 -0.0404 -0.0186
 8210SOL    HW136263   4.398   2.165   6.887 -0.8707 -0.3580 -2.6876
 8210SOL    HW236264   4.284   2.229   6.958  0.3007 -1.0830  0.2049
 8211SOL     OW36265   2.407   0.620  13.839  0.3195  0.1450 -0.5792
 8211SOL    HW136266   2.440   0.533  13.817 -0.0846 -0.4324  1.1457
 8211SOL    HW236267   2.479   0.670  13.800  0.0729  0.7464 -0.2648
 8212SOL     OW36268   0.241   2.539  14.697  0.0477  0.3300 -0.1998
 8212SOL    HW136269   0.335   2.528  14.709  0.1449  0.3358 -0.9626
 8212SOL    HW236270   0.193   2.460  14.720 -0.4627  0.8149  0.4279
 8213SOL     OW36271   1.785   1.507   8.512 -0.0986  0.4450 -1.0261
 8213SOL    HW136272   1.861   1.463   8.550 -0.6011  1.2931  0.9290
 8213SOL    HW236273   1.762   1.451   8.437  1.5519 -0.6796 -0.7035
 8214SOL     OW36274   0.183   4.236   3.209  0.5798 -0.1435 -0.3168
 8214SOL    HW136275   0.129   4.167   3.170 -1.0542  0.2015  1.3734
 8214SOL    HW236276   0.115   4.302   3.199 -1.8368 -2.2186  2.6285
 8215SOL     OW36277   0.939   2.299   1.548  0.1732 -0.0165 -0.6438
 8215SOL    HW136278   0.990   2.293   1.630 -0.8602  1.5272  0.1030
 8215SOL    HW236279   0.964   2.220   1.500 -1.9853 -0.6442 -0.7382
 8216SOL     OW36280   3.507   1.465  12.380  0.1799 -0.1378 -0.3155
 8216SOL    HW136281   3.508   1.437  12.472  0.3388 -0.7803 -0.5098
 8216SOL    HW236282   3.598   1.451  12.355  1.0828 -1.2044  3.6231
 8217SOL     OW36283   4.353   3.069   9.972  0.0661  0.5277 -1.1375
 8217SOL    HW136284   4.383   3.009   9.904  1.0173 -0.7413  0.4084
 8217SOL    HW236285   4.293   3.124   9.921 -0.9156 -0.4690 -1.0516
 8218SOL     OW36286   1.895   0.756  12.420  0.2103 -0.2740  0.3370
 8218SOL    HW136287   1.871   0.846  12.396  1.5629  0.3119  1.1385
 8218SOL    HW236288   1.986   0.765  12.450  0.5722 -2.7043 -0.0932
 8219SOL     OW36289   3.290   3.519  12.732 -0.3150 -0.6620  0.2504
 8219SOL    HW136290   3.309   3.519  12.826  2.4385 -0.6600 -0.2945
 8219SOL    HW236291   3.373   3.510  12.684  0.8423 -0.7339  2.2508
 8220SOL     OW36292   4.380   2.453   5.994 -0.1034  0.6222  0.5381
 8220SOL    HW136293   4.374   2.494   5.908  0.2392 -1.9611 -0.7329
 8220SOL    HW236294   4.426   2.519   6.045  0.9418  0.4941 -0.2184
 8221SOL     OW36295   2.722   4.546  10.455 -0.1234 -0.2717  0.1978
 8221SOL    HW136296   2.725   4.619  10.517  2.8321  0.5024 -0.8695
 8221SOL    HW236297   2.651   4.582  10.402  0.2615 -0.5396 -0.4999
 8222SOL     OW36298   4.556   2.426  11.761  0.1845  0.6847 -0.0926
 8222SOL    HW136299   4.559   2.518  11.734  0.9587  0.6894 -0.0006
 8222SOL    HW236300   4.636   2.424  11.813 -0.4012  1.0569  0.8107
 8223SOL     OW36301   4.278   3.998   8.042  0.0195 -0.4031 -0.1964
 8223SOL    HW136302   4.198   3.963   8.082 -0.3952 -0.5339 -1.1236
 8223SOL    HW236303   4.295   4.085   8.078 -0.3813 -0.6329  0.5320
 8224SOL     OW36304   4.718   3.815   4.327  0.2490 -0.6207  0.1242
 8224SOL    HW136305   4.719   3.881   4.396 -0.6962 -0.2465 -0.2180
 8224SOL    HW236306   4.720   3.874   4.251  0.6252  0.8389  1.2693
 8225SOL     OW36307   2.672   1.224   7.894 -0.2791  0.0165  0.0820
 8225SOL    HW136308   2.636   1.306   7.860  0.8161 -0.1860 -1.5672
 8225SOL    HW236309   2.742   1.208   7.831 -0.4736  0.1599 -0.1702
 8226SOL     OW36310   2.449   1.206   7.453 -0.2787 -0.4771  0.2248
 8226SOL    HW136311   2.361   1.237   7.432  0.5483  1.8366  0.1893
 8226SOL    HW236312   2.502   1.285   7.451  1.1299 -1.3807  1.7192
 8227SOL     OW36313   0.573   1.701   8.275  0.9383 -0.7962 -0.2063
 8227SOL    HW136314   0.498   1.692   8.334  1.4679 -1.6365  0.3402
 8227SOL    HW236315   0.640   1.651   8.321  0.2478 -1.4973  0.0340
 8228SOL     OW36316   1.160   0.127   1.402  0.2247  0.2077  0.7957
 8228SOL    HW136317   1.086   0.150   1.345  0.2353  1.7577  1.4068
 8228SOL    HW236318   1.226   0.100   1.338  0.5007 -0.1471  1.2336
 8229SOL     OW36319   1.277   1.678   1.596 -0.1672  0.1292 -0.0699
 8229SOL    HW136320   1.268   1.751   1.658  4.1380  0.3397  0.3433
 8229SOL    HW236321   1.188   1.648   1.578 -0.4111  1.4991 -1.1202
 8230SOL     OW36322   3.569   2.279   9.124 -0.0089 -0.3670 -0.6015
 8230SOL    HW136323   3.612   2.263   9.040  0.2563 -1.5030 -0.2512
 8230SOL    HW236324   3.537   2.368   9.111  0.0579 -0.6511 -2.6655
 8231SOL     OW36325   0.599   2.809  12.524  0.1717  0.7426 -0.3833
 8231SOL    HW136326   0.531   2.827  12.589 -0.2800 -1.3348 -0.2775
 8231SOL    HW236327   0.625   2.719  12.544 -3.0892  0.1757  1.2622
 8232SOL     OW36328   2.311   4.509   8.407 -0.0851 -0.1787 -0.3713
 8232SOL    HW136329   2.251   4.495   8.334  0.1754 -1.3511 -0.3634
 8232SOL    HW236330   2.345   4.597   8.390  0.1232  0.1716  1.8139
 8233SOL     OW36331   3.496   2.437   6.912 -0.1114  0.1104 -0.3394
 8233SOL    HW136332   3.459   2.368   6.857 -1.5791  0.6421 -0.0222
 8233SOL    HW236333   3.457   2.517   6.875  1.4025  1.0976  0.2027
 8234SOL     OW36334   4.376   3.860   8.478 -0.2827  0.2988 -0.3508
 8234SOL    HW136335   4.445   3.823   8.422  0.7174  0.2116  0.9348
 8234SOL    HW236336   4.416   3.828   8.559  1.9589  1.7121 -0.9117
 8235SOL     OW36337   4.473   4.205   8.477 -0.6105  0.2446  0.0557
 8235SOL    HW136338   4.514   4.142   8.536 -0.7850  1.6291  1.6522
 8235SOL    HW236339   4.541   4.273   8.477  0.8519 -1.2369  1.0553
 8236SOL     OW36340   4.623   3.046   0.812 -0.1294 -0.7693 -0.0863
 8236SOL    HW136341   4.686   3.046   0.885  0.0344 -0.3145 -0.2299
 8236SOL    HW236342   4.624   2.959   0.773 -1.6904 -1.5446  1.5644
 8237SOL     OW36343   3.200   0.801  15.314  0.0765 -0.4536  0.5686
 8237SOL    HW136344   3.204   0.817  15.408 -0.4544  1.1175  0.3204
 8237SOL    HW236345   3.170   0.710  15.320 -2.1467  0.2025 -0.6520
 8238SOL     OW36346   1.819   0.405  16.205  0.2963  0.8606 -0.4031
 8238SOL    HW136347   1.862   0.322  16.186  0.9125  1.1459 -0.2676
 8238SOL    HW236348   1.736   0.379  16.246  0.0030  0.2655 -1.3852
 8239SOL     OW36349   0.357   4.357   6.091 -0.1429 -0.4352 -0.3275
 8239SOL    HW136350   0.331   4.276   6.134  0.1403  0.2718  1.1862
 8239SOL    HW236351   0.409   4.310   6.025 -0.4812  0.7419 -1.4265
 8240SOL     OW36352   2.639   2.248   5.511  0.3110  0.0120 -0.1436
 8240SOL    HW136353   2.551   2.287   5.508  1.2639  2.1251 -0.7400
 8240SOL    HW236354   2.674   2.288   5.591 -1.0439  0.3544  0.2850
 8241SOL     OW36355   2.195   3.339  15.781  0.3781  0.0172 -0.0519
 8241SOL    HW136356   2.153   3.348  15.695  1.8513  0.2551 -0.7395
 8241SOL    HW236357   2.124   3.315  15.841  0.0372  2.6088  0.5953
 8242SOL     OW36358   2.100   2.408   6.965 -0.0152  0.3101 -0.1970
 8242SOL    HW136359   2.028   2.449   7.013 -0.5461  0.5104 -1.1468
 8242SOL    HW236360   2.135   2.342   7.025  1.0560 -0.0029 -1.1570
 8243SOL     OW36361   4.705   0.758   7.060 -0.2369  0.5762 -0.2437
 8243SOL    HW136362   4.685   0.736   6.969  2.0119 -1.4256 -0.2506
 8243SOL    HW236363   4.647   0.831   7.083 -0.0836  0.3845  0.7505
 8244SOL     OW36364   0.845   1.457   1.298 -0.2376 -0.0966  0.3802
 8244SOL    HW136365   0.787   1.515   1.347 -0.0511 -0.7467  1.3747
 8244SOL    HW236366   0.870   1.524   1.234  1.1896  0.4942  1.5547
 8245SOL     OW36367   1.804   0.195   6.529  0.6174  0.5669  0.0887
 8245SOL    HW136368   1.855   0.126   6.572 -0.2743 -0.8851 -1.1793
 8245SOL    HW236369   1.860   0.197   6.451 -0.1952 -1.1983 -0.5463
 8246SOL     OW36370   4.507   3.618  15.827  0.3560  0.3192  0.4791
 8246SOL    HW136371   4.559   3.544  15.795 -3.1200 -1.7429 -0.3762
 8246SOL    HW236372   4.454   3.637  15.750 -0.9832 -0.7011  1.1362
 8247SOL     OW36373   4.126   1.558  13.981 -0.3713  0.6842  0.6154
 8247SOL    HW136374   4.199   1.519  14.029 -1.8625 -0.8820  1.5832
 8247SOL    HW236375   4.108   1.644  14.020 -2.1856  0.1518  0.9312
 8248SOL     OW36376   3.454   2.146   2.594  0.9448  0.5883  0.0831
 8248SOL    HW136377   3.360   2.159   2.576  1.0447 -1.4655 -2.0117
 8248SOL    HW236378   3.441   2.107   2.680  1.1200  0.9461  0.2695
 8249SOL     OW36379   1.755   3.538  16.275 -0.8247 -0.2302 -0.0398
 8249SOL    HW136380   1.790   3.602  16.212 -2.6545 -0.3686 -1.1934
 8249SOL    HW236381   1.661   3.530  16.263 -1.1614  0.3669  2.2659
 8250SOL     OW36382   1.016   3.631   5.593  0.6847 -0.7028 -0.5438
 8250SOL    HW136383   0.944   3.586   5.548  1.0551 -2.1119  0.2732
 8250SOL    HW236384   0.976   3.718   5.585 -1.6617 -1.7540 -0.5078
 8251SOL     OW36385   3.120   3.425  16.464 -0.1496  0.1953 -0.0749
 8251SOL    HW136386   3.101   3.395  16.553  2.1353  0.1492  0.3879
 8251SOL    HW236387   3.086   3.356  16.407  0.7392  0.6186 -1.1112
 8252SOL     OW36388   3.813   4.499   4.807  0.4463  0.0737  0.4438
 8252SOL    HW136389   3.743   4.511   4.871 -0.8467 -0.7507 -0.8129
 8252SOL    HW236390   3.810   4.589   4.773 -0.4809 -0.2887 -0.4476
 8253SOL     OW36391   4.287   0.653   1.993  0.8491  0.0256  0.8613
 8253SOL    HW136392   4.343   0.637   1.917 -0.5554  0.1645 -0.1961
 8253SOL    HW236393   4.343   0.713   2.042  0.9413  0.4826  0.1968
 8254SOL     OW36394   4.696   1.003   5.930  0.1239  0.4318 -0.0935
 8254SOL    HW136395   4.715   1.023   5.838 -2.1849  0.5657 -0.5302
 8254SOL    HW236396   0.044   1.023   5.972 -0.1880 -1.0062  1.2400
 8255SOL     OW36397   1.464   2.237  15.310  0.2864  0.0547 -0.2483
 8255SOL    HW136398   1.540   2.285  15.343 -0.5849  1.0337  0.3528
 8255SOL    HW236399   1.482   2.148  15.341  1.8002 -0.3297 -2.2875
 8256SOL     OW36400   1.181   1.560  13.835 -0.4683  0.3503 -0.4078
 8256SOL    HW136401   1.100   1.597  13.870  0.5758  2.0774  0.2082
 8256SOL    HW236402   1.222   1.524  13.913 -1.5602 -0.6303 -0.2802
 8257SOL     OW36403   1.262   2.738  10.643 -0.1949 -0.3698  0.0306
 8257SOL    HW136404   1.337   2.697  10.687 -0.7640 -0.5063  0.8695
 8257SOL    HW236405   1.302   2.770  10.563 -0.5384 -1.2655 -0.4942
 8258SOL     OW36406   0.171   0.806   2.373 -0.3753  0.0433 -0.2778
 8258SOL    HW136407   0.200   0.846   2.455  2.2503 -1.0273 -0.6807
 8258SOL    HW236408   0.140   0.724   2.412 -1.4077 -0.3289 -1.9120
 8259SOL     OW36409   0.333   1.987   0.025 -0.1365 -0.1788  0.2212
 8259SOL    HW136410   0.398   1.917   0.034 -1.1729 -0.9481  1.7029
 8259SOL    HW236411   0.375   2.067  17.736 -1.1072 -0.0050 -0.6507
 8260SOL     OW36412   4.325   4.675  13.851  0.4984  0.1856  0.0593
 8260SOL    HW136413   4.368   0.013  13.807  1.4196  0.1089  0.8151
 8260SOL    HW236414   4.398   4.628  13.893 -0.5100  0.1704  1.8068
 8261SOL     OW36415   2.564   1.383  13.439 -0.3329 -0.0063 -0.3409
 8261SOL    HW136416   2.608   1.319  13.382  1.3301  0.8342 -0.0178
 8261SOL    HW236417   2.483   1.338  13.462 -0.8385 -0.2248 -2.5402
 8262SOL     OW36418   3.912   0.087   5.190  0.5244  0.3372 -0.6655
 8262SOL    HW136419   3.934   0.034   5.114 -0.4451  0.7388 -1.2186
 8262SOL    HW236420   3.999   0.073   5.227  0.5490 -0.2522 -0.9468
 8263SOL     OW36421   4.239   0.430  13.249 -0.0906 -0.0344  0.2404
 8263SOL    HW136422   4.262   0.517  13.215  1.6393 -0.1550  1.0840
 8263SOL    HW236423   4.281   0.433  13.335 -0.5856  0.6532  0.4556
 8264SOL     OW36424   4.490   2.471   9.820  0.2798  0.2921 -0.6395
 8264SOL    HW136425   4.551   2.466   9.894 -1.6084 -2.3671  0.7389
 8264SOL    HW236426   4.540   2.445   9.742  0.2982  0.2441 -0.6119
 8265SOL     OW36427   0.940   0.016   2.955 -0.2349 -0.6429  0.3545
 8265SOL    HW136428   0.943   4.733   3.049 -1.7505 -0.6833  0.3863
 8265SOL    HW236429   0.945   4.665   2.917  1.0513 -0.9108  1.1096
 8266SOL     OW36430   0.884   1.803   5.474  0.1060 -0.3389 -0.2599
 8266SOL    HW136431   0.966   1.760   5.453  0.3732 -0.4677  1.0327
 8266SOL    HW236432   0.821   1.745   5.432 -2.8606  2.0084  0.9426
 8267SOL     OW36433   2.711   0.182  14.557 -0.1111  0.1352  0.3223
 8267SOL    HW136434   2.722   0.253  14.493 -0.8729  0.0916  0.1442
 8267SOL    HW236435   2.654   0.122  14.509  0.4431  0.9662 -1.3753
 8268SOL     OW36436   3.752   0.036  14.200  0.8796 -0.8840  0.1190
 8268SOL    HW136437   3.678   0.076  14.154  1.3972  0.5119  0.4962
 8268SOL    HW236438   3.808   0.111  14.182  0.2396 -0.4858 -0.1967
 8269SOL     OW36439   1.297   0.758  15.229  0.4762 -0.1198 -0.0278
 8269SOL    HW136440   1.390   0.768  15.207  0.5742 -1.0803 -0.0215
 8269SOL    HW236441   1.296   0.752  15.325 -0.7224 -0.3677 -0.0635
 8270SOL     OW36442   2.546   2.728   1.504  0.0467 -0.0784  0.2458
 8270SOL    HW136443   2.562   2.691   1.417  0.3410  1.6680 -0.4412
 8270SOL    HW236444   2.555   2.647   1.554  2.3356 -0.7262 -1.2243
 8271SOL     OW36445   4.648   0.235  17.173  0.2319 -0.3158  0.0846
 8271SOL    HW136446   4.717   0.293  17.205  1.2417 -1.5989  0.2172
 8271SOL    HW236447   4.569   0.281  17.202  2.3289  2.0546  1.9843
 8272SOL     OW36448   4.595   0.059   5.423  0.1638  0.2288 -0.0545
 8272SOL    HW136449   4.628   0.008   5.349 -1.4732 -0.5989 -0.2194
 8272SOL    HW236450   4.550   0.119   5.364  0.0482 -0.3242 -0.5279
 8273SOL     OW36451   3.867   3.724   5.765 -0.1165 -0.4833 -0.2958
 8273SOL    HW136452   3.894   3.759   5.850 -0.7724  0.2940 -0.4041
 8273SOL    HW236453   3.807   3.651   5.774 -1.7264  0.9476  0.5794
 8274SOL     OW36454   2.580   4.284   9.858 -0.7475 -0.4578  0.0028
 8274SOL    HW136455   2.608   4.307   9.946  1.0812 -0.9589 -0.4439
 8274SOL    HW236456   2.514   4.219   9.878 -1.3196 -0.2065 -1.0608
 8275SOL     OW36457   3.943   2.071   8.999  0.4971 -0.6333  0.1439
 8275SOL    HW136458   3.890   2.150   8.996 -0.2488 -1.1516 -0.4403
 8275SOL    HW236459   3.946   2.061   9.094 -0.4791 -1.1155  0.1279
 8276SOL     OW36460   1.603   2.106   4.507 -0.0074 -0.4503  0.2756
 8276SOL    HW136461   1.574   2.059   4.585  0.1907  0.7621  1.0777
 8276SOL    HW236462   1.621   2.034   4.447  1.0114 -1.3631  1.6832
 8277SOL     OW36463   2.214   1.908  13.061 -0.7971 -0.4782 -0.3449
 8277SOL    HW136464   2.122   1.937  13.065 -0.9664 -1.1381  0.6443
 8277SOL    HW236465   2.220   1.838  13.126  1.9427 -2.7673 -3.1015
 8278SOL     OW36466   2.442   4.305   8.683  0.0904 -0.2646  0.5594
 8278SOL    HW136467   2.488   4.273   8.761  1.3959 -1.8430 -0.8570
 8278SOL    HW236468   2.386   4.230   8.664 -1.3982  0.9525  0.1012
 8279SOL     OW36469   1.063   1.884  12.007 -0.0735  0.5126  0.0189
 8279SOL    HW136470   1.025   1.885  11.919  1.0994  0.5712 -0.4992
 8279SOL    HW236471   1.031   1.799  12.038  1.2934  0.2137  0.6323
 8280SOL     OW36472   3.530   0.291   6.909 -0.1163  0.1046  0.1413
 8280SOL    HW136473   3.498   0.381   6.911 -0.3508 -0.0215  2.6720
 8280SOL    HW236474   3.482   0.247   6.839 -1.0360  2.8760 -0.9464
 8281SOL     OW36475   3.011   1.956   1.806  0.2747  0.1399  0.5327
 8281SOL    HW136476   2.927   1.972   1.762  0.3418  0.3380  0.4736
 8281SOL    HW236477   3.080   2.001   1.756  0.8651  0.6675  1.8239
 8282SOL     OW36478   1.339   1.679   8.753 -0.2032  0.3800  0.4850
 8282SOL    HW136479   1.324   1.750   8.816  1.8518  2.2923 -1.1684
 8282SOL    HW236480   1.422   1.707   8.714  0.3865 -3.1847 -0.8054
 8283SOL     OW36481   0.688   3.966   9.142  0.3080  0.5219  0.1913
 8283SOL    HW136482   0.632   3.981   9.218  0.6255  0.5140  0.4255
 8283SOL    HW236483   0.774   3.992   9.175 -0.9046  1.9001  2.2953
 8284SOL     OW36484   1.334   1.890   5.657  0.2691  0.0982 -0.2322
 8284SOL    HW136485   1.253   1.839   5.654  0.6021 -0.4099 -0.6228
 8284SOL    HW236486   1.339   1.918   5.566  1.0049 -0.4076 -0.3401
 8285SOL     OW36487   1.190   4.044   5.142  0.4572  1.0901 -0.2140
 8285SOL    HW136488   1.268   4.075   5.096  1.4427 -0.5989  0.3491
 8285SOL    HW236489   1.220   3.978   5.204  1.4851 -0.4923 -2.4285
 8286SOL     OW36490   4.248   3.858   5.273 -0.0526 -0.5961  0.2357
 8286SOL    HW136491   4.304   3.873   5.196 -0.7487 -1.6487 -0.4686
 8286SOL    HW236492   4.278   3.927   5.332 -2.2373 -1.2215  2.0631
 8287SOL     OW36493   4.397   1.631   2.556  0.6104  0.6962 -0.5143
 8287SOL    HW136494   4.474   1.574   2.566  0.3891  0.5032  0.0883
 8287SOL    HW236495   4.333   1.561   2.544  0.9343 -0.0589  2.1068
 8288SOL     OW36496   3.514   0.164  17.240  0.4506  0.3440  0.1840
 8288SOL    HW136497   3.531   0.116  17.321  0.3807 -0.6466 -0.3850
 8288SOL    HW236498   3.419   0.166  17.231  0.4293 -1.2824  0.0277
 8289SOL     OW36499   1.720   2.903  14.907  0.0563 -0.3039 -0.0192
 8289SOL    HW136500   1.781   2.975  14.922 -1.9624  1.8939 -2.5083
 8289SOL    HW236501   1.772   2.843  14.853 -1.1948 -0.9977 -0.4633
 8290SOL     OW36502   0.124   1.493   7.686 -0.5333  0.1164 -0.1080
 8290SOL    HW136503   0.165   1.572   7.650  1.0348 -1.5332 -1.9704
 8290SOL    HW236504   0.135   1.430   7.614  2.6895 -0.7130  1.1137
 8291SOL     OW36505   4.350   4.140   4.480  0.1029 -0.0932  0.5041
 8291SOL    HW136506   4.295   4.215   4.503  1.5672  1.9196 -2.5786
 8291SOL    HW236507   4.287   4.069   4.489  0.8624 -0.8246  0.0898
 8292SOL     OW36508   2.202   4.269   7.991  0.2821 -0.2992  0.0781
 8292SOL    HW136509   2.116   4.228   7.978 -0.1756  0.9713 -0.9593
 8292SOL    HW236510   2.249   4.234   7.915  0.2513 -2.1775  0.9181
 8293SOL     OW36511   2.646   1.399   5.401  0.4897 -0.1651 -0.2836
 8293SOL    HW136512   2.577   1.399   5.467  1.1536  3.1083  0.3895
 8293SOL    HW236513   2.646   1.304   5.384  0.3439 -0.6924  2.6349
 8294SOL     OW36514   2.827   2.513   2.404  0.5185 -0.4969 -0.1415
 8294SOL    HW136515   2.829   2.445   2.472 -0.5351 -1.0269 -0.6396
 8294SOL    HW236516   2.866   2.470   2.328  0.3929 -0.5244 -0.1906
 8295SOL     OW36517   3.109   2.005  14.020 -0.3995  0.1309 -0.1585
 8295SOL    HW136518   3.155   2.029  14.101 -1.6370  1.1652  0.2454
 8295SOL    HW236519   3.018   2.028  14.036 -0.0415  0.3702  1.5499
 8296SOL     OW36520   0.535   4.347  16.185 -0.6953  0.7085  0.1214
 8296SOL    HW136521   0.560   4.437  16.207 -2.6847  1.3348 -0.2050
 8296SOL    HW236522   0.610   4.322  16.130 -1.2410 -2.2260  0.7456
 8297SOL     OW36523   3.573   4.323   5.531 -0.7485 -0.3657 -0.2917
 8297SOL    HW136524   3.492   4.343   5.484 -1.8481 -1.8827  0.9877
 8297SOL    HW236525   3.538   4.265   5.598  0.1578  1.7330  1.9655
 8298SOL     OW36526   4.588   2.481   0.176  0.0178  0.0241 -1.0095
 8298SOL    HW136527   4.545   2.467   0.260  0.3567  0.7285 -0.7178
 8298SOL    HW236528   4.670   2.522   0.204 -0.0083  0.6171 -1.7800
 8299SOL     OW36529   2.319   1.897   0.696  0.3454  0.5326 -0.4664
 8299SOL    HW136530   2.258   1.962   0.733 -2.0465 -1.7721 -0.3292
 8299SOL    HW236531   2.344   1.931   0.610 -1.7028  1.2132 -0.8114
 8300SOL     OW36532   1.052   2.550   1.225 -0.3168  0.3729 -0.5080
 8300SOL    HW136533   1.094   2.464   1.226  1.1294  1.0919  0.5260
 8300SOL    HW236534   1.123   2.611   1.244  0.1969 -0.1925 -0.6085
 8301SOL     OW36535   1.071   2.784   9.059 -0.4292  0.3217 -0.5140
 8301SOL    HW136536   1.164   2.802   9.073  0.0924 -1.9633 -1.0146
 8301SOL    HW236537   1.072   2.693   9.030 -0.5595  0.1015  0.1753
 8302SOL     OW36538   2.051   2.521   1.853  0.2153  0.4115 -0.4582
 8302SOL    HW136539   2.007   2.461   1.913 -2.0630  0.2460 -2.2716
 8302SOL    HW236540   2.070   2.462   1.780  1.1953 -0.1923  0.2759
 8303SOL     OW36541   4.438   1.905   2.616 -0.2042 -0.4787 -0.2535
 8303SOL    HW136542   4.436   1.825   2.564 -2.5834 -0.1078 -0.7242
 8303SOL    HW236543   4.349   1.935   2.600  0.3181  0.4189 -1.3686
 8304SOL     OW36544   2.913   2.348  14.011 -0.3889  0.0111  0.2384
 8304SOL    HW136545   2.988   2.395  13.975  0.2025 -1.9943 -1.1258
 8304SOL    HW236546   2.886   2.308  13.928  0.6416  0.9320 -0.5476
 8305SOL     OW36547   1.381   2.235  16.507  0.2370 -0.1464  0.5377
 8305SOL    HW136548   1.423   2.321  16.506 -2.0968  0.9709  0.0637
 8305SOL    HW236549   1.448   2.189  16.457 -0.5359  0.0596 -0.6802
 8306SOL     OW36550   1.869   3.822  14.532 -0.7030 -0.5992  0.6518
 8306SOL    HW136551   1.820   3.742  14.516 -1.6889  0.0170  0.5905
 8306SOL    HW236552   1.892   3.843  14.442  2.6887 -1.2740  1.3408
 8307SOL     OW36553   0.306   0.383  15.529  0.0820  0.0503 -0.2574
 8307SOL    HW136554   0.212   0.400  15.541  0.0976 -0.6404  0.8506
 8307SOL    HW236555   0.324   0.290  15.538 -0.5262  0.0863  1.2710
 8308SOL     OW36556   4.621   4.060   8.686 -0.0039  0.1231  0.2535
 8308SOL    HW136557   4.686   4.128   8.705  0.1039 -0.3869  1.6577
 8308SOL    HW236558   4.670   3.979   8.701  1.6569  0.5281 -2.8761
 8309SOL     OW36559   2.442   3.315  12.580 -0.0778  0.7163  0.2983
 8309SOL    HW136560   2.443   3.370  12.658  0.3994  0.7460  0.2680
 8309SOL    HW236561   2.351   3.319  12.550  0.6168  0.8915 -1.7743
 8310SOL     OW36562   3.359   1.101   1.586  0.2119  0.0408 -0.5254
 8310SOL    HW136563   3.311   1.071   1.509 -1.2961  0.7368  0.1335
 8310SOL    HW236564   3.431   1.152   1.548  1.2866 -0.3211  1.0513
 8311SOL     OW36565   1.304   1.246   7.882  0.0431 -0.2161 -0.3919
 8311SOL    HW136566   1.262   1.311   7.938 -1.1021 -2.8187  1.7329
 8311SOL    HW236567   1.396   1.271   7.881  0.0724 -0.4105 -2.7110
 8312SOL     OW36568   3.347   3.606   8.727  0.1362  0.5124  0.2752
 8312SOL    HW136569   3.388   3.644   8.649  0.2156  1.0885  0.5935
 8312SOL    HW236570   3.420   3.608   8.789  0.1932  0.5909  0.2065
 8313SOL     OW36571   4.216   4.048   7.732 -0.1532 -0.2265  0.0098
 8313SOL    HW136572   4.132   4.020   7.769 -1.8786  3.2198 -1.2195
 8313SOL    HW236573   4.246   4.107   7.802  2.1905 -0.6559 -0.6506
 8314SOL     OW36574   0.386   1.116   5.368  0.2013 -0.3773  0.0021
 8314SOL    HW136575   0.439   1.076   5.437  0.1723  0.0723  0.2859
 8314SOL    HW236576   0.307   1.063   5.370  0.8774 -1.2924  3.1437
 8315SOL     OW36577   4.452   3.005  17.288  0.1234  0.1405  0.4440
 8315SOL    HW136578   4.502   2.986  17.367  0.4932  1.1043  0.4404
 8315SOL    HW236579   4.491   3.085  17.252 -0.4031 -0.3986 -1.3608
 8316SOL     OW36580   2.370   0.252   2.221 -0.4090 -0.3928  0.3451
 8316SOL    HW136581   2.451   0.264   2.173 -1.5051  1.1385 -1.1250
 8316SOL    HW236582   2.394   0.308   2.295 -2.1867 -0.6674  1.1475
 8317SOL     OW36583   3.715   1.026   1.938  0.5937 -0.1412  0.1451
 8317SOL    HW136584   3.696   0.988   1.852 -1.7665  0.6638  0.3264
 8317SOL    HW236585   3.647   1.092   1.929  1.0069  0.3517  0.6005
 8318SOL     OW36586   4.136   3.170   2.404 -0.6910 -0.1799 -0.5169
 8318SOL    HW136587   4.220   3.178   2.449 -1.1604  0.5762  0.2404
 8318SOL    HW236588   4.162   3.167   2.311  1.4646 -2.4246  0.1609
 8319SOL     OW36589   3.163   1.545   2.658 -0.3236 -0.0443  0.1766
 8319SOL    HW136590   3.192   1.537   2.567 -1.9018 -0.6394 -0.2728
 8319SOL    HW236591   3.235   1.575   2.713  0.2137  1.8275 -1.5762
 8320SOL     OW36592   2.206   0.975   6.390 -0.0612  0.2600 -0.5693
 8320SOL    HW136593   2.157   1.028   6.453  0.5976  0.6915 -0.4227
 8320SOL    HW236594   2.135   0.930   6.345  1.0310 -0.1841 -1.8667
 8321SOL     OW36595   2.378   1.114   0.847  0.2292  0.3747 -0.7150
 8321SOL    HW136596   2.425   1.134   0.766  0.8685 -1.1865 -0.7312
 8321SOL    HW236597   2.294   1.138   0.806 -0.3410 -0.7957 -0.2308
 8322SOL     OW36598   3.639   4.497   9.338  0.0981  0.5046 -0.1260
 8322SOL    HW136599   3.630   4.421   9.396 -0.0516 -1.2577 -2.4791
 8322SOL    HW236600   3.551   4.509   9.302  0.5362  0.3643 -1.2528
 8323SOL     OW36601   0.741   1.225   8.907  0.2173  0.4931 -0.1056
 8323SOL    HW136602   0.791   1.145   8.888  1.2935  1.3331 -0.7893
 8323SOL    HW236603   0.700   1.212   8.993  0.4593 -0.7469 -0.1771
 8324SOL     OW36604   3.687   0.863  12.635  0.2956 -0.4179  0.0559
 8324SOL    HW136605   3.683   0.893  12.726 -1.0781 -0.4365  0.0113
 8324SOL    HW236606   3.598   0.827  12.627 -0.7377  1.8899  0.9914
 8325SOL     OW36607   3.145   1.248   2.306 -0.0127 -0.4204  0.1587
 8325SOL    HW136608   3.066   1.197   2.291  1.4869 -2.2444 -1.4978
 8325SOL    HW236609   3.184   1.244   2.219  1.1676 -1.4824  0.7455
 8326SOL     OW36610   1.784   2.756   1.158  0.0623 -0.2116 -0.2466
 8326SOL    HW136611   1.726   2.730   1.086  0.4027  0.0362 -0.6127
 8326SOL    HW236612   1.838   2.823   1.116  1.2050 -0.8335  0.2391
 8327SOL     OW36613   2.141   1.358   7.749  0.0381 -0.1525 -0.2342
 8327SOL    HW136614   2.153   1.305   7.828  0.8867 -1.2161 -1.0787
 8327SOL    HW236615   2.221   1.344   7.698 -0.9239 -1.0001 -1.5127
 8328SOL     OW36616   1.510   3.166   2.864  0.3544  0.3076 -0.3867
 8328SOL    HW136617   1.539   3.199   2.949 -1.2806  1.9287 -0.4533
 8328SOL    HW236618   1.433   3.114   2.887 -0.5169  1.5872 -0.4474
 8329SOL     OW36619   2.017   0.879   3.899  0.7173 -0.2957  0.0064
 8329SOL    HW136620   1.930   0.860   3.865  1.0072  0.8907 -1.4179
 8329SOL    HW236621   2.002   0.911   3.988 -0.9904 -2.5499  0.5287
 8330SOL     OW36622   0.075   4.411   6.242 -0.2712 -0.2794  0.5207
 8330SOL    HW136623   4.722   4.375   6.243 -0.0768 -0.7474  1.3352
 8330SOL    HW236624   0.082   4.437   6.334  1.7476  2.6437 -0.4799
 8331SOL     OW36625   1.503   4.120   4.292 -0.4005 -0.2711  0.2346
 8331SOL    HW136626   1.429   4.160   4.338  1.0423  1.9639  0.5818
 8331SOL    HW236627   1.550   4.203   4.290  0.1437 -0.5968 -0.2848
 8332SOL     OW36628   2.446   4.369  17.196 -0.1085 -0.2793 -0.2006
 8332SOL    HW136629   2.360   4.410  17.204  0.2702  0.1406  1.9156
 8332SOL    HW236630   2.479   4.421  17.122 -0.0433 -2.4171 -1.6605
 8333SOL     OW36631   2.533   1.044  12.506  0.5385 -0.0147 -0.2637
 8333SOL    HW136632   2.563   1.059  12.416  2.8774 -1.3930  0.2785
 8333SOL    HW236633   2.606   1.087  12.550 -0.4665  2.4726 -1.0444
 8334SOL     OW36634   2.714   1.697   4.893  0.5920 -0.2754  0.0125
 8334SOL    HW136635   2.748   1.682   4.982  3.9906 -2.2863 -1.6322
 8334SOL    HW236636   2.654   1.766   4.920 -0.3909 -1.1938  0.2105
 8335SOL     OW36637   1.684   3.368  14.789  0.1362 -0.0103  0.1072
 8335SOL    HW136638   1.645   3.282  14.773 -2.4461  1.0736  0.6438
 8335SOL    HW236639   1.614   3.428  14.762  0.0235 -0.1761  0.0268
 8336SOL     OW36640   0.925   2.231   6.337  0.6013 -0.0762 -0.0822
 8336SOL    HW136641   0.910   2.183   6.255  0.8654  2.1024 -1.4169
 8336SOL    HW236642   0.836   2.262   6.354  0.9125  0.4631  0.5458
 8337SOL     OW36643   4.013   2.910   0.348 -0.5316  0.0485 -0.1095
 8337SOL    HW136644   3.939   2.970   0.334 -1.1217 -0.7529 -0.4474
 8337SOL    HW236645   4.023   2.886   0.256  3.3916  2.9107 -0.3956
 8338SOL     OW36646   2.379   1.132   7.794 -0.3768 -0.5135 -0.3970
 8338SOL    HW136647   2.432   1.212   7.797 -2.3279  0.7989 -0.8493
 8338SOL    HW236648   2.364   1.118   7.888 -0.7831  1.3021 -0.1921
 8339SOL     OW36649   1.951   3.204  12.872 -0.3143  0.1272 -0.0100
 8339SOL    HW136650   1.948   3.137  12.804 -0.5642  1.4960 -1.3464
 8339SOL    HW236651   1.987   3.152  12.944  0.3710  0.8700  0.1873
 8340SOL     OW36652   2.500   3.603  17.070  0.3272 -0.5440 -0.8474
 8340SOL    HW136653   2.558   3.676  17.093 -0.5898 -0.0854  0.0387
 8340SOL    HW236654   2.485   3.618  16.977 -0.6680  0.5668 -0.5161
 8341SOL     OW36655   4.559   0.025  15.032  0.0834 -0.0205  0.0488
 8341SOL    HW136656   4.517   0.104  14.998  1.1423  0.4322 -0.2047
 8341SOL    HW236657   4.524   4.702  14.965  0.8572  0.3511 -0.6883
 8342SOL     OW36658   2.526   2.958  11.514  0.2301  0.5410 -0.0160
 8342SOL    HW136659   2.515   2.903  11.592 -0.0243  0.4065 -0.1469
 8342SOL    HW236660   2.507   3.046  11.548  0.4319  0.4506  0.3242
 8343SOL     OW36661   3.676   0.352   3.080  0.6480 -0.3302 -0.4201
 8343SOL    HW136662   3.655   0.382   3.169  1.7224  0.6120 -0.4779
 8343SOL    HW236663   3.684   0.433   3.030  0.8345  1.2728  2.1481
 8344SOL     OW36664   3.989   2.698  13.945 -0.1261 -0.5150  0.5632
 8344SOL    HW136665   4.014   2.788  13.926  2.1250 -1.1978  0.2842
 8344SOL    HW236666   3.999   2.710  14.039  1.2585 -0.7563  0.4455
 8345SOL     OW36667   0.147   0.454   0.543  0.7649 -0.3280  0.0811
 8345SOL    HW136668   0.102   0.394   0.602 -0.8106 -0.2190 -1.0233
 8345SOL    HW236669   0.238   0.430   0.559  0.8172  0.4451  0.9923
 8346SOL     OW36670   3.235   0.514   6.005 -0.1770  0.3220  0.1914
 8346SOL    HW136671   3.319   0.485   5.970 -0.9591 -0.8238 -0.7448
 8346SOL    HW236672   3.177   0.440   6.023 -0.3666  0.2774 -0.5854
 8347SOL     OW36673   3.890   4.584   4.255 -0.8004  0.0989  0.3355
 8347SOL    HW136674   3.875   4.501   4.210 -0.0112 -0.6967  1.5496
 8347SOL    HW236675   3.858   4.556   4.340 -0.9189  1.4250  0.7249
 8348SOL     OW36676   2.044   3.760   4.340  0.3742 -0.0571  0.6132
 8348SOL    HW136677   1.966   3.705   4.346  0.2394  0.1510  0.7485
 8348SOL    HW236678   2.109   3.694   4.363  0.8175 -0.6190 -2.2499
 8349SOL     OW36679   3.339   0.295   1.907  0.0923 -0.0191 -0.4275
 8349SOL    HW136680   3.362   0.283   1.814  0.7172 -0.9490 -0.1486
 8349SOL    HW236681   3.414   0.347   1.934 -0.2424  1.5973 -2.6129
 8350SOL     OW36682   0.638   1.804   8.873 -0.2531  0.2903 -0.6672
 8350SOL    HW136683   0.719   1.777   8.831  0.5137  3.4931 -1.1937
 8350SOL    HW236684   0.596   1.722   8.901 -2.4677  1.7245  0.2301
 8351SOL     OW36685   4.176   0.507   7.926  0.2346  0.1939 -0.0781
 8351SOL    HW136686   4.246   0.564   7.894 -0.1822  1.2296  0.8847
 8351SOL    HW236687   4.157   0.552   8.008 -0.5814 -1.0171  0.4026
 8352SOL     OW36688   3.087   1.528  16.666 -0.8145 -0.3298 -0.2882
 8352SOL    HW136689   3.123   1.454  16.618 -1.7758 -2.1623  1.8152
 8352SOL    HW236690   3.167   1.559  16.708 -0.0943  0.4932 -2.2599
 8353SOL     OW36691   1.869   2.875   6.819  0.4354 -0.4565  0.1379
 8353SOL    HW136692   1.797   2.835   6.770 -0.5774  1.0209  0.4160
 8353SOL    HW236693   1.889   2.809   6.885  0.6865  0.6929  1.2009
 8354SOL     OW36694   4.631   2.315   9.655  0.3000 -0.1102  0.1638
 8354SOL    HW136695   4.603   2.301   9.564  1.2694  0.6682 -0.2558
 8354SOL    HW236696   4.724   2.297   9.643  0.2364 -0.0997 -0.3605
 8355SOL     OW36697   4.288   2.939   2.330  0.2327  0.1450 -0.3590
 8355SOL    HW136698   4.264   2.852   2.362  0.6517  1.1968  2.7938
 8355SOL    HW236699   4.202   2.980   2.341 -0.1050 -0.7997  0.5698
 8356SOL     OW36700   3.704   3.188   7.085 -0.0770  0.1632 -0.4485
 8356SOL    HW136701   3.701   3.105   7.131 -2.1657  0.8874  0.7166
 8356SOL    HW236702   3.701   3.153   6.996  0.0689 -1.0507  0.0237
 8357SOL     OW36703   2.013   1.039   3.121 -0.3516  0.1226  0.1774
 8357SOL    HW136704   1.968   0.988   3.188 -2.1186  0.4466 -0.7438
 8357SOL    HW236705   2.078   0.973   3.100  0.4177  0.6392  0.9561
 8358SOL     OW36706   1.671   4.071   7.898  0.0470  0.5103  0.1399
 8358SOL    HW136707   1.595   4.017   7.877  1.6209 -1.2912 -0.9084
 8358SOL    HW236708   1.633   4.123   7.969 -0.9736  0.8627 -0.6618
 8359SOL     OW36709   1.805   2.186  16.116  0.7590  0.0070  0.2902
 8359SOL    HW136710   1.779   2.100  16.149  0.8273 -0.1490 -0.0681
 8359SOL    HW236711   1.899   2.196  16.132  0.4414  1.1668  1.4561
 8360SOL     OW36712   1.060   2.282   7.797 -0.1561 -0.1607  0.2950
 8360SOL    HW136713   1.142   2.235   7.780 -1.2850 -1.3349 -1.8778
 8360SOL    HW236714   1.012   2.202   7.820 -3.0290  1.5205  0.1847
 8361SOL     OW36715   3.571   1.319   7.148 -0.0579 -0.6419 -0.5615
 8361SOL    HW136716   3.593   1.399   7.100 -1.6220  0.4841  0.6072
 8361SOL    HW236717   3.658   1.284   7.166  0.5371  1.3268  0.3213
 8362SOL     OW36718   1.290   0.709  14.080  0.1101  0.0733 -0.1749
 8362SOL    HW136719   1.234   0.786  14.087 -1.3798 -1.1906  1.9973
 8362SOL    HW236720   1.258   0.664  14.002 -0.0660  0.2075 -0.1800
 8363SOL     OW36721   2.928   3.154  15.837  0.5460  0.0319  0.4229
 8363SOL    HW136722   2.957   3.242  15.813  2.6482 -1.4627 -2.4816
 8363SOL    HW236723   2.836   3.176  15.821  0.4903  0.1286  0.8779
 8364SOL     OW36724   4.541   2.988   5.602  0.1964 -0.0052  0.2985
 8364SOL    HW136725   4.497   2.904   5.618 -0.8917  0.1728 -1.7357
 8364SOL    HW236726   4.590   2.960   5.525  0.8423 -1.0322  1.0771
 8365SOL     OW36727   1.186   2.079   0.787  0.7579 -0.2354 -0.0698
 8365SOL    HW136728   1.198   2.104   0.695  0.4652  1.5721  0.3880
 8365SOL    HW236729   1.279   2.082   0.811  0.4822  1.6624  0.7536
 8366SOL     OW36730   4.561   1.331   5.085 -0.4096  0.0498  0.8897
 8366SOL    HW136731   4.525   1.372   5.006 -0.4762  0.5985  1.2056
 8366SOL    HW236732   4.576   1.411   5.135 -2.1094  0.4199  0.8107
 8367SOL     OW36733   0.229   0.948   5.738 -0.1581 -0.3236  0.1588
 8367SOL    HW136734   0.293   0.903   5.682 -0.1641 -0.1700  0.0297
 8367SOL    HW236735   0.280   0.977   5.814 -1.0647 -0.4205  0.8076
 8368SOL     OW36736   3.673   1.301   9.425  0.3285  1.1478 -0.6158
 8368SOL    HW136737   3.628   1.334   9.347  2.0144  2.0341 -1.2130
 8368SOL    HW236738   3.599   1.270   9.477  0.8812 -2.2319 -1.8287
 8369SOL     OW36739   1.429   1.989   0.372  0.5514 -0.4139  0.3303
 8369SOL    HW136740   1.463   2.050   0.307 -0.0253 -0.0178  0.4004
 8369SOL    HW236741   1.411   1.916   0.313 -2.1229 -0.5652  1.3389
 8370SOL     OW36742   2.944   0.009   2.068  0.1774  0.0179 -0.1774
 8370SOL    HW136743   3.033   0.029   2.040  0.7107  0.1522  1.6733
 8370SOL    HW236744   2.954   4.653   2.094 -1.5577  0.0992  0.7746
 8371SOL     OW36745   0.003   4.150   7.061 -0.3328 -0.2753  0.1275
 8371SOL    HW136746   0.084   4.200   7.062 -0.3161 -0.2834 -0.9123
 8371SOL    HW236747   4.678   4.221   7.044 -0.1970 -0.3234 -0.5573
 8372SOL     OW36748   0.083   0.432   4.295  0.1052  0.7422  0.0641
 8372SOL    HW136749   0.009   0.408   4.351  1.2893 -1.3501  0.7121
 8372SOL    HW236750   0.066   0.369   4.225 -0.3284  1.4161 -0.4444
 8373SOL     OW36751   1.774   0.858  15.131 -0.2109  0.2202 -0.2812
 8373SOL    HW136752   1.707   0.790  15.135  2.7172 -2.7872 -3.1169
 8373SOL    HW236753   1.736   0.919  15.068 -0.0641  0.1976 -0.3907
 8374SOL     OW36754   3.450   1.282   8.390 -0.0350 -0.2188  0.2148
 8374SOL    HW136755   3.364   1.302   8.353 -0.7759 -0.8683  1.6052
 8374SOL    HW236756   3.430   1.247   8.477 -1.4272  0.3908  0.1283
 8375SOL     OW36757   1.498   3.562  16.359  0.2815  0.3428 -0.2143
 8375SOL    HW136758   1.545   3.564  16.443 -3.3095 -0.1870  1.8132
 8375SOL    HW236759   1.409   3.535  16.383  1.1402  0.7848  3.4042
 8376SOL     OW36760   4.212   4.619  11.327  0.5156 -0.1526  0.6870
 8376SOL    HW136761   4.305   4.609  11.308 -0.5463 -3.8895 -2.6237
 8376SOL    HW236762   4.214   4.649  11.418  1.0740  2.1940 -0.0968
 8377SOL     OW36763   2.655   1.013  15.536 -0.2243  0.0158 -0.1107
 8377SOL    HW136764   2.607   0.937  15.568 -1.0484  0.6133  0.0693
 8377SOL    HW236765   2.630   1.016  15.444 -0.1412  0.4448 -0.1188
 8378SOL     OW36766   0.821   2.667  10.012 -0.7619 -0.1672  0.3447
 8378SOL    HW136767   0.821   2.639   9.920 -1.9716  1.0149 -0.0058
 8378SOL    HW236768   0.753   2.604  10.036 -0.5360 -0.6533 -0.2955
 8379SOL     OW36769   3.619   4.379   1.253 -0.2804 -0.0163  0.0669
 8379SOL    HW136770   3.652   4.468   1.238  2.2529 -1.1318 -0.9963
 8379SOL    HW236771   3.682   4.328   1.203 -2.0253  1.0957 -3.2788
 8380SOL     OW36772   1.538   3.717   7.958 -0.2602 -0.0143 -0.6516
 8380SOL    HW136773   1.453   3.724   8.001 -0.6142 -3.6543 -0.7978
 8380SOL    HW236774   1.599   3.694   8.029 -1.1603 -1.4558 -0.3383
 8381SOL     OW36775   2.064   0.086   2.617 -0.3070  0.3063  0.6935
 8381SOL    HW136776   2.154   0.119   2.608  0.5052 -2.2548 -0.6606
 8381SOL    HW236777   2.091   4.730   2.612  4.2740  1.7060 -0.4105
 8382SOL     OW36778   0.113   4.119  11.625 -0.5106 -0.0645  0.0848
 8382SOL    HW136779   0.112   4.083  11.714 -0.7090 -0.9673 -0.2750
 8382SOL    HW236780   0.034   4.172  11.632  0.4566  1.4762 -0.8424
 8383SOL     OW36781   3.767   4.118   1.956  0.3686  0.2657 -0.2004
 8383SOL    HW136782   3.694   4.065   1.924  0.8940 -0.4618 -0.1965
 8383SOL    HW236783   3.748   4.119   2.049 -1.0356  3.1868 -0.5019
 8384SOL     OW36784   2.327   3.372   0.252  0.1886 -0.2429  0.1502
 8384SOL    HW136785   2.400   3.314   0.276  0.5802  0.6103  1.0071
 8384SOL    HW236786   2.270   3.356   0.328 -1.9193  0.4826 -1.2680
 8385SOL     OW36787   3.234   2.390  16.751 -0.0783  0.1696 -0.2881
 8385SOL    HW136788   3.239   2.354  16.663 -0.0488  1.2035 -0.7140
 8385SOL    HW236789   3.206   2.480  16.733 -0.3071  0.0712 -0.4161
 8386SOL     OW36790   1.917   2.465   9.013  0.7501 -0.5169 -0.2911
 8386SOL    HW136791   1.864   2.386   9.015 -1.9048  1.2813  1.2385
 8386SOL    HW236792   1.990   2.436   8.958 -0.0066  0.5103 -1.8713
 8387SOL     OW36793   1.492   1.926   8.662 -0.0612  0.2880  0.0269
 8387SOL    HW136794   1.565   1.956   8.608 -0.4714 -0.0069 -0.6852
 8387SOL    HW236795   1.535   1.859   8.714 -1.0206  1.2339  2.0715
 8388SOL     OW36796   1.764   2.833   5.750 -0.1868 -0.5427  0.3267
 8388SOL    HW136797   1.852   2.816   5.783  0.3614 -0.7826 -1.2752
 8388SOL    HW236798   1.733   2.743   5.763  0.8318 -1.0726 -1.0771
 8389SOL     OW36799   1.450   3.351   1.806 -0.2336 -0.1321  0.3054
 8389SOL    HW136800   1.442   3.419   1.873 -2.0950 -0.0121 -0.0479
 8389SOL    HW236801   1.451   3.406   1.727 -0.2559  1.9046  1.7066
 8390SOL     OW36802   3.381   3.638   6.910 -0.2680  0.0569  0.4725
 8390SOL    HW136803   3.354   3.720   6.868 -1.7356  0.9035  3.0388
 8390SOL    HW236804   3.377   3.676   6.998 -1.0626  0.2893  0.3328
 8391SOL     OW36805   1.165   0.977   3.427  0.0562  0.3484 -0.2704
 8391SOL    HW136806   1.100   0.972   3.497  2.6410  0.2035  2.1136
 8391SOL    HW236807   1.112   0.941   3.356 -1.1261  1.9136 -0.1797
 8392SOL     OW36808   3.826   2.920   7.584 -0.4873 -0.2124  0.3953
 8392SOL    HW136809   3.901   2.979   7.582 -1.5041  1.1174  1.2616
 8392SOL    HW236810   3.803   2.935   7.676  2.5995  1.2732  0.9140
 8393SOL     OW36811   2.240   1.353   3.623 -0.4874 -0.6101  0.1819
 8393SOL    HW136812   2.156   1.392   3.601  1.1951  2.3984 -0.9538
 8393SOL    HW236813   2.297   1.401   3.563 -1.1727  0.8509  0.6913
 8394SOL     OW36814   4.468   4.684  14.669  0.5272  0.6909 -0.1164
 8394SOL    HW136815   4.415   4.731  14.733  0.4129  1.0994 -0.5100
 8394SOL    HW236816   4.477   4.604  14.721 -1.3990 -1.2094 -2.6802
 8395SOL     OW36817   0.639   3.316   8.609 -0.1827  0.5853 -0.1502
 8395SOL    HW136818   0.577   3.380   8.574  0.7434  2.4239  1.5985
 8395SOL    HW236819   0.585   3.256   8.661  0.3475 -1.1395 -1.5517
 8396SOL     OW36820   2.447   1.098   3.375  0.1308 -0.0803  0.0305
 8396SOL    HW136821   2.370   1.112   3.320 -0.7081 -1.7129  0.7920
 8396SOL    HW236822   2.516   1.141   3.323  0.2395  0.2631  0.4532
 8397SOL     OW36823   0.486   2.223   9.204 -0.5239  0.2917  0.1770
 8397SOL    HW136824   0.453   2.301   9.159  1.3208  2.7990  3.2108
 8397SOL    HW236825   0.504   2.157   9.137  1.7566  1.5455 -0.4397
 8398SOL     OW36826   2.395   3.390  17.719 -0.2910  0.6291 -0.0520
 8398SOL    HW136827   2.434   3.476  17.699 -0.8410  1.1131  0.9874
 8398SOL    HW236828   2.368   3.403   0.068 -2.7415 -3.1638 -0.2351
 8399SOL     OW36829   4.255   4.358   7.291  0.8217  0.3158 -0.3108
 8399SOL    HW136830   4.197   4.316   7.227 -2.4320  2.2635  1.4070
 8399SOL    HW236831   4.284   4.283   7.344 -1.7019 -1.1628 -1.0430
 8400SOL     OW36832   2.586   4.483  16.783 -0.0497  0.1717 -0.5258
 8400SOL    HW136833   2.510   4.434  16.751  1.3597 -2.4279  0.1025
 8400SOL    HW236834   2.547   4.568  16.802 -0.3458 -0.5641  2.1007
 8401SOL     OW36835   0.586   2.508   7.887  0.2583  0.1270 -0.1687
 8401SOL    HW136836   0.568   2.488   7.979  1.4960  0.2865  0.1204
 8401SOL    HW236837   0.682   2.507   7.884  0.2213  2.2352 -2.0496
 8402SOL     OW36838   1.450   4.006   9.613  0.5398  0.0933  0.2560
 8402SOL    HW136839   1.446   4.094   9.650  0.3686  0.5152 -0.7552
 8402SOL    HW236840   1.455   4.032   9.520 -0.6557 -0.2244  0.1078
 8403SOL     OW36841   0.383   3.371   6.630  0.4848  0.1841 -0.2494
 8403SOL    HW136842   0.329   3.318   6.571 -0.5220 -0.6978  1.4408
 8403SOL    HW236843   0.432   3.428   6.571  0.9847 -0.7239 -0.7177
 8404SOL     OW36844   3.829   1.437   3.292  0.1403  0.4956 -0.5146
 8404SOL    HW136845   3.799   1.391   3.214  0.5236 -2.2521  0.9606
 8404SOL    HW236846   3.924   1.428   3.289  0.3162  1.8104  0.8977
 8405SOL     OW36847   3.636   3.686   2.036 -0.1595 -0.0513  0.3812
 8405SOL    HW136848   3.697   3.653   2.102 -0.4155 -2.3105 -0.5434
 8405SOL    HW236849   3.627   3.615   1.974 -1.8129 -0.3267  0.9511
 8406SOL     OW36850   1.278   1.440  12.877  0.2634  0.4152  0.5580
 8406SOL    HW136851   1.272   1.536  12.871 -0.5809  0.3584  0.5384
 8406SOL    HW236852   1.202   1.413  12.928  1.6441 -2.1507  1.2548
 8407SOL     OW36853   1.634   1.642   3.500  0.2609  0.0567  0.0601
 8407SOL    HW136854   1.584   1.651   3.581 -0.1547  0.3865 -0.2376
 8407SOL    HW236855   1.688   1.721   3.510 -0.5367  0.4758  0.9921
 8408SOL     OW36856   0.326   3.444   1.437 -0.2157  0.6421 -0.0691
 8408SOL    HW136857   0.403   3.402   1.399 -0.9063 -0.9912  0.3352
 8408SOL    HW236858   0.365   3.466   1.521  0.5492 -1.4265  0.1281
 8409SOL     OW36859   4.591   3.845   3.153  0.1213  0.4259  0.0448
 8409SOL    HW136860   4.507   3.855   3.108 -0.0109  0.0740  0.2159
 8409SOL    HW236861   4.558   3.861   3.241  0.7665  1.8830  0.0297
 8410SOL     OW36862   1.159   1.321   5.956 -0.0408  0.0892  0.0728
 8410SOL    HW136863   1.217   1.320   5.880 -0.5118 -0.6284 -0.2692
 8410SOL    HW236864   1.184   1.405   5.995 -1.2518  0.0467  0.9693
 8411SOL     OW36865   0.543   0.961  16.693  0.4193  0.1822  0.2251
 8411SOL    HW136866   0.515   1.033  16.749  0.7767  3.3461 -3.6334
 8411SOL    HW236867   0.627   0.998  16.667  0.9635 -1.5194 -0.4103
 8412SOL     OW36868   2.651   3.452  16.179 -0.1862  0.0911  0.1875
 8412SOL    HW136869   2.604   3.423  16.257 -0.7345 -2.3170 -1.0356
 8412SOL    HW236870   2.620   3.542  16.174 -1.4414 -0.3666 -0.2703
 8413SOL     OW36871   4.193   0.237   8.571 -0.2392  0.1216  0.0774
 8413SOL    HW136872   4.248   0.232   8.649 -1.1658  1.0990  0.7947
 8413SOL    HW236873   4.217   0.326   8.544  1.5132  0.0326  1.3818
 8414SOL     OW36874   4.548   4.407  15.128  0.2708 -0.0178  0.0855
 8414SOL    HW136875   4.630   4.449  15.156 -0.2559 -0.2784  1.9807
 8414SOL    HW236876   4.566   4.321  15.166  0.3041  1.1977  2.7766
 8415SOL     OW36877   0.438   0.388  11.854  0.6866 -0.0251 -0.0121
 8415SOL    HW136878   0.510   0.352  11.905  1.7980  1.1837 -0.7108
 8415SOL    HW236879   0.425   0.468  11.905  0.2651  0.2591 -0.5648
 8416SOL     OW36880   1.020   3.257   5.299 -0.3930  0.2971 -0.1305
 8416SOL    HW136881   0.943   3.217   5.340  0.3041  0.4879  1.3354
 8416SOL    HW236882   1.006   3.339   5.345 -1.0674  0.0056  0.1855
 8417SOL     OW36883   0.397   3.993   2.642 -0.0142 -1.0119  0.0215
 8417SOL    HW136884   0.369   4.083   2.661 -1.6649 -1.4640 -0.2461
 8417SOL    HW236885   0.474   3.986   2.699 -0.4244  1.6341  0.8756
 8418SOL     OW36886   2.559   2.415   4.729  0.4036 -0.4522 -0.2681
 8418SOL    HW136887   2.536   2.507   4.715 -0.1579  0.1165  4.1782
 8418SOL    HW236888   2.495   2.389   4.795 -0.9647 -0.2757 -1.5282
 8419SOL     OW36889   0.585   4.702  15.404 -0.5181 -0.0030 -0.7110
 8419SOL    HW136890   0.604   0.056  15.377 -2.5317  0.4980 -0.4840
 8419SOL    HW236891   0.647   4.647  15.355  0.0308  0.2969 -0.3455
 8420SOL     OW36892   4.379   2.021   6.458  0.4669  0.0078 -0.9936
 8420SOL    HW136893   4.421   1.991   6.377 -0.3119  2.6424 -2.3759
 8420SOL    HW236894   4.359   2.110   6.430  0.7345  0.8072  1.3558
 8421SOL     OW36895   4.284   1.662   3.871  0.1716 -0.8041  0.1693
 8421SOL    HW136896   4.219   1.652   3.801 -1.0743 -1.6173  1.4276
 8421SOL    HW236897   4.240   1.613   3.941 -0.3762 -0.1848  0.2669
 8422SOL     OW36898   1.106   1.163   5.495  0.0180  0.0638  0.1566
 8422SOL    HW136899   1.100   1.120   5.410  1.9663 -0.1133  0.1129
 8422SOL    HW236900   1.047   1.102   5.541  0.2269  0.4290  0.9101
 8423SOL     OW36901   3.570   1.021   5.498  0.6075  0.2269  0.2373
 8423SOL    HW136902   3.526   1.105   5.489  0.4626  0.0897 -0.3025
 8423SOL    HW236903   3.497   0.960   5.488  0.8492 -0.0850  0.3498
 8424SOL     OW36904   3.796   4.370   2.167  0.8659  0.0479  0.6317
 8424SOL    HW136905   3.845   4.409   2.095 -0.1673 -0.4487 -0.3409
 8424SOL    HW236906   3.836   4.283   2.176  1.2573  0.1500 -0.1482
 8425SOL     OW36907   1.840   3.193  14.371 -0.3016 -0.0722  0.3556
 8425SOL    HW136908   1.767   3.221  14.426  1.4389  2.4433  1.3838
 8425SOL    HW236909   1.800   3.186  14.284  2.7565  0.8333 -1.0947
 8426SOL     OW36910   2.404   0.358   4.536  0.3865 -0.1275  0.0394
 8426SOL    HW136911   2.370   0.437   4.495  0.9550  0.5726  0.9116
 8426SOL    HW236912   2.370   0.294   4.473  1.2078 -0.0665 -0.4711
 8427SOL     OW36913   2.416   2.832   6.586  0.0656  0.8043  0.3134
 8427SOL    HW136914   2.393   2.849   6.678 -1.1094  1.5892 -0.1367
 8427SOL    HW236915   2.506   2.861   6.603 -0.7871  2.2353  2.4300
 8428SOL     OW36916   1.846   0.499   5.404 -0.0537 -0.1132 -0.4220
 8428SOL    HW136917   1.925   0.530   5.449 -0.1738  1.1044 -1.0519
 8428SOL    HW236918   1.837   0.565   5.335  1.4116  0.3026 -0.2144
 8429SOL     OW36919   1.737   4.542   8.263  0.7432 -0.0374  0.3315
 8429SOL    HW136920   1.681   4.619   8.267  0.8880  0.2669 -3.3290
 8429SOL    HW236921   1.673   4.473   8.280  0.7120  0.1885  1.1304
 8430SOL     OW36922   4.177   1.937   0.651 -0.4641  0.0341 -0.3072
 8430SOL    HW136923   4.185   2.031   0.632 -2.7641  0.1380 -0.7567
 8430SOL    HW236924   4.198   1.901   0.565  0.3302  1.4226 -0.6962
 8431SOL     OW36925   3.298   3.908   4.932 -0.3425  0.0466 -0.6700
 8431SOL    HW136926   3.378   3.952   4.960 -0.5522  0.3651 -0.5708
 8431SOL    HW236927   3.328   3.821   4.957  0.8055  0.6834  0.1760
 8432SOL     OW36928   3.701   3.044   4.912 -0.0648 -0.3663 -0.3761
 8432SOL    HW136929   3.721   3.081   4.827 -0.0208 -0.8882 -0.5926
 8432SOL    HW236930   3.605   3.047   4.916 -0.1040 -0.7861 -1.1021
 8433SOL     OW36931   4.504   3.438   5.719 -0.0306 -0.5107 -0.4614
 8433SOL    HW136932   4.423   3.425   5.670  0.3679 -2.0800 -0.6993
 8433SOL    HW236933   4.518   3.344   5.731  0.0935 -0.4409 -0.0651
 8434SOL     OW36934   3.249   0.376   5.423 -0.2681 -0.4008 -0.1638
 8434SOL    HW136935   3.182   0.307   5.422 -0.5837 -0.0908 -0.2404
 8434SOL    HW236936   3.202   0.441   5.372 -0.3067 -0.9892 -0.8859
 8435SOL     OW36937   2.318   1.363   3.024  0.2694  0.0464  0.0232
 8435SOL    HW136938   2.245   1.421   3.006 -0.0081  0.0756  1.2170
 8435SOL    HW236939   2.325   1.356   3.119  0.8687  2.3768  0.1488
 8436SOL     OW36940   3.326   0.530  16.888 -0.4356  0.3384 -0.6366
 8436SOL    HW136941   3.389   0.575  16.946 -0.4026  0.4540 -0.7619
 8436SOL    HW236942   3.320   0.442  16.923  1.9574  0.8923  1.1655
 8437SOL     OW36943   4.570   4.414   7.062  0.3086  0.2120  0.5120
 8437SOL    HW136944   4.605   4.503   7.076  0.3645 -0.0310  1.9656
 8437SOL    HW236945   4.557   4.384   7.152 -0.4549 -2.2675 -0.4473
 8438SOL     OW36946   0.972   1.930   2.150 -0.2551  0.3050 -0.1029
 8438SOL    HW136947   0.970   1.900   2.242  2.9416 -0.6205 -0.3101
 8438SOL    HW236948   0.950   2.022   2.161 -0.0992  0.0916  2.0049
 8439SOL     OW36949   4.156   3.436   0.535 -0.2615  0.2406  0.3208
 8439SOL    HW136950   4.195   3.488   0.606 -1.4791  1.9087 -0.2343
 8439SOL    HW236951   4.223   3.368   0.539  0.6503  1.1584  0.8959
 8440SOL     OW36952   4.259   3.188  12.599  0.2897  0.1739  0.4850
 8440SOL    HW136953   4.225   3.275  12.578 -2.0132 -1.0073 -0.6361
 8440SOL    HW236954   4.178   3.138  12.615 -0.7702  1.3077 -1.3650
 8441SOL     OW36955   3.848   3.397   2.750  0.2187 -0.0349 -0.5359
 8441SOL    HW136956   3.811   3.310   2.767  1.4136 -0.0366  2.0733
 8441SOL    HW236957   3.940   3.376   2.735  0.3426  0.1680 -0.0618
 8442SOL     OW36958   0.549   4.644   5.869 -0.2278 -0.1457 -0.6547
 8442SOL    HW136959   0.585   4.613   5.952 -1.5564  0.8150  0.2911
 8442SOL    HW236960   0.458   4.661   5.894 -0.8165 -3.7912 -0.3138
 8443SOL     OW36961   4.080   0.790   7.760  0.3035  0.2128 -0.2737
 8443SOL    HW136962   3.991   0.797   7.794  0.2852 -2.5699  0.2539
 8443SOL    HW236963   4.075   0.839   7.678 -0.7437 -0.8549 -0.8558
 8444SOL     OW36964   1.928   1.150  17.619  0.4937 -0.9460  0.0706
 8444SOL    HW136965   1.918   1.127  17.711  1.8841  0.7020  0.6348
 8444SOL    HW236966   1.853   1.104  17.582 -2.0618  2.3502  1.1529
 8445SOL     OW36967   3.874   0.360   9.211 -0.0743  0.0472  1.1028
 8445SOL    HW136968   3.895   0.304   9.136  0.1138  0.3881  0.8995
 8445SOL    HW236969   3.887   0.306   9.289  2.6821 -1.6077 -0.4884
 8446SOL     OW36970   3.579   4.233   9.487 -0.4138  0.0739 -0.1682
 8446SOL    HW136971   3.626   4.179   9.424  1.2644  0.4605  0.7368
 8446SOL    HW236972   3.610   4.205   9.574  1.2501 -0.9789 -1.1004
 8447SOL     OW36973   3.634   0.958  12.899 -0.4759  0.5188 -0.0449
 8447SOL    HW136974   3.636   1.046  12.936 -0.0808  0.4069  0.1962
 8447SOL    HW236975   3.559   0.919  12.946 -0.3239  0.5780  0.2493
 8448SOL     OW36976   1.108   0.702   7.968  0.2823  0.4204  0.2979
 8448SOL    HW136977   1.076   0.712   8.058  0.3721 -0.0203  0.3812
 8448SOL    HW236978   1.183   0.761   7.975  1.1136 -0.5808 -0.0582
 8449SOL     OW36979   4.005   2.164   5.911 -0.2203  0.2597 -0.2502
 8449SOL    HW136980   4.038   2.084   5.952  0.4097  2.3954  3.4362
 8449SOL    HW236981   3.914   2.140   5.925 -0.8660  1.9614 -1.5380
 8450SOL     OW36982   2.326   3.711   5.487  0.0149 -0.0969 -0.2160
 8450SOL    HW136983   2.383   3.647   5.528  1.4389  1.3891  0.1213
 8450SOL    HW236984   2.385   3.764   5.433 -1.6373 -1.9545 -3.8496
 8451SOL     OW36985   1.154   4.585  11.948 -0.0006  0.4482 -0.2874
 8451SOL    HW136986   1.208   4.631  12.012  0.4545 -0.7120  0.1581
 8451SOL    HW236987   1.172   4.491  11.946  0.1182  0.4657  0.0325
 8452SOL     OW36988   0.806   2.544  10.644  0.6625 -0.1285 -0.6911
 8452SOL    HW136989   0.756   2.507  10.572 -3.1166  1.3367  1.1813
 8452SOL    HW236990   0.761   2.628  10.654  1.1709  0.1516 -0.7429
 8453SOL     OW36991   0.691   3.558   6.780  0.1126 -0.3927 -1.0479
 8453SOL    HW136992   0.686   3.651   6.803 -0.8508  0.2012 -3.6387
 8453SOL    HW236993   0.636   3.515   6.845  3.2395 -1.0610  1.1572
 8454SOL     OW36994   4.091   4.290   5.184 -0.2470 -0.1401  0.1812
 8454SOL    HW136995   4.105   4.383   5.163 -2.6152 -0.5148 -3.0729
 8454SOL    HW236996   4.175   4.254   5.155 -0.7233 -1.2317  0.1706
 8455SOL     OW36997   2.195   1.815   7.381  0.1588  0.1227 -0.4477
 8455SOL    HW136998   2.151   1.866   7.449  1.8282 -0.3502  0.9840
 8455SOL    HW236999   2.124   1.776   7.330 -1.2070 -0.7977  2.1377
 8456SOL     OW37000   1.785   4.031   4.278 -0.1698 -0.2472 -0.3329
 8456SOL    HW137001   1.730   4.101   4.311  1.7010  1.6462 -1.2130
 8456SOL    HW237002   1.791   3.975   4.356 -1.3235 -0.0768 -0.1253
 8457SOL     OW37003   4.637   3.020  13.906  0.0286  0.8356 -0.6931
 8457SOL    HW137004   4.683   3.105  13.902  2.1162 -0.2215  0.3612
 8457SOL    HW237005   4.604   3.028  13.996 -0.0132  2.2024 -0.8226
 8458SOL     OW37006   3.833   1.790   2.655  0.2337 -0.3673 -0.1749
 8458SOL    HW137007   3.754   1.753   2.616  0.0846 -0.4222  0.1737
 8458SOL    HW237008   3.900   1.739   2.611 -0.5068 -1.3564 -0.1632
 8459SOL     OW37009   4.113   3.343   3.004 -0.0067 -0.0184  0.0255
 8459SOL    HW137010   4.137   3.344   2.911 -1.9573  0.8574 -0.4601
 8459SOL    HW237011   4.195   3.318   3.047 -0.2430 -0.5999  0.1379
 8460SOL     OW37012   3.127   0.706   5.473 -0.3295 -0.2045  0.3145
 8460SOL    HW137013   3.048   0.671   5.432 -1.1091  0.4293  1.2686
 8460SOL    HW237014   3.119   0.657   5.555  0.1887  1.4544  1.3652
 8461SOL     OW37015   1.069   2.521  10.443 -0.2555  0.1989  0.4952
 8461SOL    HW137016   1.094   2.486  10.357  0.1196 -1.7773  1.4033
 8461SOL    HW237017   1.003   2.454  10.461  2.1645 -2.7002 -1.3735
 8462SOL     OW37018   3.290   4.492   6.934 -0.3745 -0.4294 -0.3386
 8462SOL    HW137019   3.240   4.411   6.946  0.3746 -0.6492  1.2492
 8462SOL    HW237020   3.322   4.502   7.024 -2.6189  1.6133  0.2476
 8463SOL     OW37021   3.981   3.174   8.373  0.2538  0.5970  0.0388
 8463SOL    HW137022   4.070   3.209   8.372  0.6419 -0.3809  0.5132
 8463SOL    HW237023   3.993   3.080   8.360 -3.0999  0.3923 -1.4514
 8464SOL     OW37024   1.299   3.568   2.850  0.3039 -0.0544  0.2447
 8464SOL    HW137025   1.207   3.584   2.831  0.3750  0.2598  0.1651
 8464SOL    HW237026   1.299   3.473   2.835 -0.6239  0.0780 -0.5802
 8465SOL     OW37027   1.160   1.474  13.215  0.3593 -0.4367 -0.0301
 8465SOL    HW137028   1.076   1.502  13.181  1.0332  1.7781  0.1231
 8465SOL    HW237029   1.140   1.390  13.258 -1.4975  0.5178  0.9619
 8466SOL     OW37030   0.236   2.818   8.505 -0.7048  0.7240 -0.6153
 8466SOL    HW137031   0.146   2.847   8.488 -0.8699  1.7436  1.9281
 8466SOL    HW237032   0.223   2.727   8.534 -0.1748  0.1428 -2.2117
 8467SOL     OW37033   2.649   4.326   8.512  0.4886 -0.0291  0.1014
 8467SOL    HW137034   2.625   4.352   8.423 -1.3295 -0.5849  0.4248
 8467SOL    HW237035   2.560   4.309   8.545  1.5652  0.6469  3.3788
 8468SOL     OW37036   3.155   0.195   9.124 -0.3437 -0.1939  0.1955
 8468SOL    HW137037   3.116   0.136   9.189  2.2706  1.5223  3.3176
 8468SOL    HW237038   3.236   0.146   9.115 -0.3726 -0.1776 -0.1553
 8469SOL     OW37039   3.608   0.266   3.984 -0.4632 -0.1385  0.1408
 8469SOL    HW137040   3.555   0.310   3.918  0.9888 -0.9166 -1.5458
 8469SOL    HW237041   3.580   0.176   3.996 -0.8235 -0.2543 -1.6386
 8470SOL     OW37042   4.548   3.441  11.856  0.2320  0.4824 -0.3909
 8470SOL    HW137043   4.566   3.472  11.767  2.3279 -1.5450 -0.6852
 8470SOL    HW237044   4.635   3.423  11.893 -0.3367 -0.0947  0.6666
 8471SOL     OW37045   1.282   0.733  11.341 -0.6205 -0.1439 -0.0880
 8471SOL    HW137046   1.371   0.752  11.310 -1.9961  2.6443 -2.2283
 8471SOL    HW237047   1.233   0.691  11.271 -0.2237  1.2599 -1.2140
 8472SOL     OW37048   3.044   1.739   3.662 -0.3314 -0.1938 -0.3097
 8472SOL    HW137049   3.016   1.656   3.700 -0.3268 -0.5522 -1.0947
 8472SOL    HW237050   2.998   1.790   3.727 -0.9885 -1.7864  0.4759
 8473SOL     OW37051   2.084   4.206   5.256  0.9006  0.0851 -0.7929
 8473SOL    HW137052   2.092   4.231   5.164  0.1449 -1.2200 -1.2128
 8473SOL    HW237053   2.053   4.291   5.288  1.5149  0.2222 -0.5518
 8474SOL     OW37054   2.072   3.134   8.691  0.0780  0.3111  0.1856
 8474SOL    HW137055   2.077   3.042   8.716  1.9521  0.7490  1.3482
 8474SOL    HW237056   2.110   3.184   8.763  0.4659  1.8148 -1.0710
 8475SOL     OW37057   1.739   0.460  16.745  0.1230 -0.4380 -0.0526
 8475SOL    HW137058   1.739   0.379  16.795  0.8249  0.1422  0.8772
 8475SOL    HW237059   1.682   0.443  16.670  1.7072 -1.1921 -1.0956
 8476SOL     OW37060   1.003   0.441   9.228  0.0142 -0.0944 -0.1262
 8476SOL    HW137061   1.020   0.515   9.170 -0.8997 -1.4102 -2.0620
 8476SOL    HW237062   0.988   0.367   9.170  0.2396 -0.2287 -0.0119
 8477SOL     OW37063   2.472   2.561   7.466  0.2727 -0.1108 -0.4821
 8477SOL    HW137064   2.509   2.615   7.395  0.5154  0.5166  0.1244
 8477SOL    HW237065   2.523   2.581   7.544 -1.2704 -0.5800  0.6410
 8478SOL     OW37066   3.430   2.325   4.204 -0.3041 -0.5167  0.3597
 8478SOL    HW137067   3.357   2.380   4.178 -0.5443 -0.7463  0.5453
 8478SOL    HW237068   3.459   2.285   4.122 -1.9119 -1.6017  0.3119
 8479SOL     OW37069   1.930   2.776   4.535 -0.5072 -0.3243 -1.4249
 8479SOL    HW137070   1.958   2.805   4.448  0.6639  0.9143 -0.6326
 8479SOL    HW237071   1.987   2.828   4.591 -0.4797 -1.0548 -0.7770
 8480SOL     OW37072   4.330   0.695   7.812  0.1012  0.1105  0.2267
 8480SOL    HW137073   4.384   0.698   7.733 -1.0191 -1.9102 -0.6101
 8480SOL    HW237074   4.244   0.731   7.794  0.5202  0.6661 -0.6393
 8481SOL     OW37075   2.892   0.419   1.284 -0.2088 -0.0697 -0.1008
 8481SOL    HW137076   2.957   0.482   1.252 -1.1070  0.6368 -0.5498
 8481SOL    HW237077   2.885   0.363   1.207  0.1800 -1.2490  0.7209
 8482SOL     OW37078   2.166   2.678  10.707 -0.0934  0.2911 -0.0314
 8482SOL    HW137079   2.172   2.624  10.785  2.2543 -2.7980 -2.3432
 8482SOL    HW237080   2.259   2.679  10.685 -0.0401 -0.9949  0.1633
 8483SOL     OW37081   2.908   1.709  16.618  0.7370 -0.1686 -0.3351
 8483SOL    HW137082   2.958   1.790  16.604 -1.5955  1.3781  0.1894
 8483SOL    HW237083   2.981   1.648  16.629  1.6155  0.8046 -0.7769
 8484SOL     OW37084   2.417   3.263   8.298  0.3390  0.1860 -0.8800
 8484SOL    HW137085   2.476   3.317   8.352 -0.3547 -1.0945  1.1674
 8484SOL    HW237086   2.331   3.282   8.336 -0.7334 -3.3819 -1.5363
 8485SOL     OW37087   2.220   2.737   7.567  0.3803  0.2399 -0.0264
 8485SOL    HW137088   2.284   2.674   7.534  1.1481  2.5890 -3.0450
 8485SOL    HW237089   2.206   2.702   7.655 -0.0477 -0.9252 -0.5446
 8486SOL     OW37090   1.826   1.507   5.305 -0.5805 -0.1530 -0.0479
 8486SOL    HW137091   1.889   1.555   5.359  0.5376 -0.5443 -0.9936
 8486SOL    HW237092   1.751   1.524   5.362 -1.0350 -1.3478 -0.3107
 8487SOL     OW37093   2.274   1.545   8.278  0.2716  0.6010 -0.1249
 8487SOL    HW137094   2.267   1.456   8.242  2.5228  0.6726 -0.7430
 8487SOL    HW237095   2.246   1.591   8.199 -0.8393 -1.4152 -0.9249
 8488SOL     OW37096   4.209   3.144   2.127 -0.0026 -0.2279 -0.5401
 8488SOL    HW137097   4.208   3.056   2.089  0.8121 -0.0781 -0.9083
 8488SOL    HW237098   4.236   3.192   2.048 -1.6809 -2.1908 -2.3209
 8489SOL     OW37099   3.970   3.452  10.750  0.1379  0.4294  0.3704
 8489SOL    HW137100   3.880   3.464  10.781  0.3200 -0.9092  1.3787
 8489SOL    HW237101   3.978   3.504  10.670 -0.9072  0.8870  0.5565
 8490SOL     OW37102   0.452   4.468  17.371  0.1115  0.1798  0.1435
 8490SOL    HW137103   0.363   4.441  17.349 -0.1099  0.5351  0.6123
 8490SOL    HW237104   0.435   4.562  17.383 -0.9554  0.0726 -0.5382
 8491SOL     OW37105   3.428   2.022   8.155  0.3742  0.1631  0.3440
 8491SOL    HW137106   3.503   1.963   8.159  1.7888  1.8959 -1.0147
 8491SOL    HW237107   3.421   2.015   8.060  0.1066  0.1382  0.3632
 8492SOL     OW37108   1.897   1.891   4.185 -0.3589 -0.4740  0.0452
 8492SOL    HW137109   1.881   1.799   4.205  1.6822 -0.7282  0.5240
 8492SOL    HW237110   1.817   1.936   4.211  0.6520  2.0689 -1.2361
 8493SOL     OW37111   2.086   2.954   4.682 -0.2108 -0.5763  0.5677
 8493SOL    HW137112   2.025   2.965   4.755  0.0547 -1.6925  0.9598
 8493SOL    HW237113   2.146   2.885   4.712  1.3370  0.3263 -0.4265
 8494SOL     OW37114   4.240   2.293  17.373 -0.3946 -0.7788  0.1550
 8494SOL    HW137115   4.333   2.271  17.364 -0.0228  0.4871  0.8274
 8494SOL    HW237116   4.206   2.265  17.288  0.8903  1.6742 -1.1815
 8495SOL     OW37117   4.569   1.820   3.644  0.1734 -0.6680 -0.1280
 8495SOL    HW137118   4.498   1.860   3.694 -0.9655 -2.2927 -0.4270
 8495SOL    HW237119   4.523   1.804   3.561 -0.8510  0.0412  0.3033
 8496SOL     OW37120   1.965   1.184   7.343  0.1421  0.2445  0.8663
 8496SOL    HW137121   1.961   1.101   7.391  0.7014  0.4777  1.3242
 8496SOL    HW237122   1.876   1.182   7.308 -0.1698 -1.2940  1.7582
 8497SOL     OW37123   4.641   3.225  10.367  0.0450  0.1017  0.7287
 8497SOL    HW137124   4.656   3.178  10.285 -2.4764  0.5501  0.0287
 8497SOL    HW237125   4.547   3.216  10.381 -0.0539  1.1929  0.7709
 8498SOL     OW37126   3.885   1.786   5.823  0.2135  0.0539 -0.3338
 8498SOL    HW137127   3.932   1.780   5.740 -1.6837 -3.5951 -1.1795
 8498SOL    HW237128   3.939   1.722   5.869  1.9430  1.3442 -0.5900
 8499SOL     OW37129   4.658   1.998   9.090 -0.0975 -0.0942  0.9891
 8499SOL    HW137130   4.603   2.070   9.120 -0.9558  0.4510 -1.8412
 8499SOL    HW237131   4.600   1.966   9.021 -0.8961  0.2783  1.4893
 8500SOL     OW37132   4.198   0.739   5.571  0.1359 -0.1355 -0.0358
 8500SOL    HW137133   4.159   0.656   5.598 -0.8115 -0.3204 -1.9672
 8500SOL    HW237134   4.268   0.748   5.636  0.2643  0.5575 -0.2758
 8501SOL     OW37135   4.433   3.892   9.454 -0.0470 -0.5614  0.5075
 8501SOL    HW137136   4.409   3.907   9.545  0.6444 -1.6535  0.8704
 8501SOL    HW237137   4.496   3.964   9.445 -1.9412  0.8768 -1.0973
 8502SOL     OW37138   3.216   3.866   8.664 -0.2388  0.4793  0.2421
 8502SOL    HW137139   3.137   3.880   8.611 -0.0224 -0.3646 -0.3072
 8502SOL    HW237140   3.291   3.868   8.604 -0.9900  1.2505 -0.6838
 8503SOL     OW37141   0.880   0.603   5.229 -0.4074  0.1726  0.0191
 8503SOL    HW137142   0.805   0.610   5.288 -0.2534  2.2593 -0.0502
 8503SOL    HW237143   0.877   0.679   5.171 -0.8299 -1.2337 -1.8285
 8504SOL     OW37144   2.294   4.453   1.121  0.2306  0.0556 -0.1635
 8504SOL    HW137145   2.335   4.368   1.130  0.0672 -0.1667 -1.4313
 8504SOL    HW237146   2.318   4.480   1.032  0.2984 -0.6557 -0.3566
 8505SOL     OW37147   2.710   2.004   3.974 -0.3265 -0.1607  0.0976
 8505SOL    HW137148   2.736   1.913   3.960 -1.5158 -0.6658  1.1906
 8505SOL    HW237149   2.629   1.999   4.025 -1.6210 -0.0254 -1.9643
 8506SOL     OW37150   3.663   3.670   4.143  0.1643  0.0446 -0.4149
 8506SOL    HW137151   3.732   3.636   4.200 -0.0846 -3.5816 -2.2483
 8506SOL    HW237152   3.704   3.657   4.057  0.6639 -0.7496 -0.0553
 8507SOL     OW37153   2.393   2.047   7.471 -0.1396  0.1950  0.2550
 8507SOL    HW137154   2.393   2.082   7.382 -0.4555 -0.9668 -0.2075
 8507SOL    HW237155   2.345   1.965   7.455 -0.0847  0.2741 -0.3271
 8508SOL     OW37156   3.562   4.166   1.514  0.5749 -0.0965  0.5745
 8508SOL    HW137157   3.491   4.117   1.558 -0.2775 -1.0271 -1.8699
 8508SOL    HW237158   3.513   4.236   1.470 -0.2014  0.7177  2.6683
 8509SOL     OW37159   3.347   0.426  12.557 -0.1856 -0.5229  0.0367
 8509SOL    HW137160   3.273   0.406  12.498 -0.9453  1.3490  0.3843
 8509SOL    HW237161   3.412   0.375  12.508 -1.0756 -0.9052 -0.7598
 8510SOL     OW37162   2.311   0.407  15.500  0.0636  0.2196  0.1020
 8510SOL    HW137163   2.392   0.401  15.550  0.0045 -2.1189 -0.0870
 8510SOL    HW237164   2.271   0.329  15.540 -0.3507  0.3489 -0.0595
 8511SOL     OW37165   4.666   1.960   5.813  0.3776 -0.1709  0.8894
 8511SOL    HW137166   4.650   1.868   5.793 -0.1862  0.2508 -0.5519
 8511SOL    HW237167   0.025   1.949   5.824  0.6338  1.9975  0.8846
 8512SOL     OW37168   3.237   1.114   6.479  0.2785 -0.2079  0.1766
 8512SOL    HW137169   3.172   1.149   6.541  3.0822  2.0020  1.8531
 8512SOL    HW237170   3.278   1.195   6.449 -2.6291  0.5349 -1.8002
 8513SOL     OW37171   0.415   2.469   5.995  0.5105 -0.0096  0.7216
 8513SOL    HW137172   0.344   2.531   5.978 -0.3359 -0.8341  1.2243
 8513SOL    HW237173   0.443   2.454   5.905  1.2881 -3.0729  1.4847
 8514SOL     OW37174   0.156   4.556   3.890 -0.3225  0.1332  0.0280
 8514SOL    HW137175   0.081   4.601   3.929  1.6133  2.6510  0.8950
 8514SOL    HW237176   0.130   4.465   3.900  1.0673 -0.2377  0.2099
 8515SOL     OW37177   4.332   3.629   7.804 -0.2529 -0.6925  0.5254
 8515SOL    HW137178   4.371   3.711   7.773  0.1658 -1.3483 -0.7028
 8515SOL    HW237179   4.297   3.654   7.890  0.1872  0.0557  0.4835
 8516SOL     OW37180   2.792   2.867   1.576 -0.2314  0.1330  0.4379
 8516SOL    HW137181   2.696   2.871   1.572 -0.2335 -0.9906 -0.6104
 8516SOL    HW237182   2.804   2.820   1.494 -0.3768 -1.5231  1.3559
 8517SOL     OW37183   2.416   4.240   3.473  0.3051 -0.0379 -0.4003
 8517SOL    HW137184   2.498   4.280   3.444  1.1264 -1.0467  0.4687
 8517SOL    HW237185   2.455   4.176   3.533  2.2305  1.9811  0.5169
 8518SOL     OW37186   2.536   0.074  14.398  0.4534 -0.3929 -0.5224
 8518SOL    HW137187   2.479   0.149  14.380  1.7685  0.6672 -0.2451
 8518SOL    HW237188   2.519   0.014  14.326 -2.4990  0.6654 -0.7194
 8519SOL     OW37189   3.310   1.786  13.298  0.3078 -0.5625  0.4374
 8519SOL    HW137190   3.388   1.780  13.353  0.6604 -1.3844 -0.1433
 8519SOL    HW237191   3.247   1.817  13.362  0.7944  2.3568 -0.5280
 8520SOL     OW37192   0.796   1.494   0.923  0.0208 -0.0604 -0.5400
 8520SOL    HW137193   0.727   1.558   0.939 -0.7591 -1.1320  0.3950
 8520SOL    HW237194   0.863   1.540   0.973 -1.5919  0.6416  0.9464
 8521SOL     OW37195   3.258   3.099   9.917 -0.3636 -0.8578  0.0892
 8521SOL    HW137196   3.345   3.058   9.919  0.2515  0.5238  1.3079
 8521SOL    HW237197   3.261   3.111  10.012  2.9379 -0.9627 -0.0024
 8522SOL     OW37198   1.454   3.553  14.255  0.0291  0.4210  0.0156
 8522SOL    HW137199   1.473   3.461  14.271  3.2996  1.5017  2.4081
 8522SOL    HW237200   1.497   3.558  14.170 -2.6276  1.1022 -1.2847
 8523SOL     OW37201   0.331   1.600   3.564 -0.4454 -0.1103  0.3028
 8523SOL    HW137202   0.264   1.629   3.625 -1.7305 -1.2900 -0.5537
 8523SOL    HW237203   0.296   1.525   3.517  1.4284 -0.5673 -0.3660
 8524SOL     OW37204   0.805   4.309   8.370  0.2181  0.3564  1.0005
 8524SOL    HW137205   0.872   4.281   8.308 -0.1886  1.9905 -0.1783
 8524SOL    HW237206   0.769   4.223   8.390 -1.6587  1.1344  0.9096
 8525SOL     OW37207   2.950   1.795   2.406 -0.3129  0.2524  0.0222
 8525SOL    HW137208   2.866   1.806   2.360 -1.1736  0.2659  1.5925
 8525SOL    HW237209   2.999   1.733   2.353 -1.2888 -1.7068  1.4113
 8526SOL     OW37210   4.429   0.195   2.088  0.4296 -0.3351 -0.1939
 8526SOL    HW137211   4.367   0.267   2.094 -1.3380 -1.7574 -1.5995
 8526SOL    HW237212   4.412   0.151   2.171 -0.0325 -0.2427 -0.2411
 8527SOL     OW37213   4.735   3.966   9.645  0.3565  0.1483  0.6267
 8527SOL    HW137214   4.707   3.994   9.558  2.1359 -0.1093 -0.0308
 8527SOL    HW237215   4.670   4.016   9.694 -0.0552  0.3534 -0.1135
 8528SOL     OW37216   3.403   0.495   4.051  0.0446 -0.4419  0.0246
 8528SOL    HW137217   3.455   0.416   4.064 -0.7185 -0.7647  1.1178
 8528SOL    HW237218   3.350   0.500   4.131  0.3291  2.6320 -0.0002
 8529SOL     OW37219   0.614   0.545   5.830 -1.0316  0.2863  0.2448
 8529SOL    HW137220   0.684   0.589   5.878 -0.8357  2.2318 -1.7883
 8529SOL    HW237221   0.550   0.514   5.895  1.8857  0.5571  3.2136
 8530SOL     OW37222   2.056   2.755  13.208  0.4196  0.3922 -0.2564
 8530SOL    HW137223   2.131   2.699  13.189  0.7928  0.8395 -0.0992
 8530SOL    HW237224   2.066   2.767  13.303  1.4365 -1.0785 -0.1737
 8531SOL     OW37225   3.227   3.070   4.100 -0.6461  0.1451  0.4225
 8531SOL    HW137226   3.167   3.143   4.114  1.1814  1.6825  0.0821
 8531SOL    HW237227   3.308   3.113   4.126 -0.6404 -0.7829  1.9395
 8532SOL     OW37228   0.324   2.878   3.736 -0.1522  0.3247 -0.0472
 8532SOL    HW137229   0.288   2.936   3.803 -0.1753  0.9179 -0.5800
 8532SOL    HW237230   0.250   2.873   3.676 -0.1722  3.6821 -0.2802
 8533SOL     OW37231   2.574   3.005   7.382  0.0693 -0.0121  0.4195
 8533SOL    HW137232   2.490   2.999   7.337  0.8887  2.0109 -1.3945
 8533SOL    HW237233   2.569   3.095   7.414 -1.4862  0.3305 -0.7754
 8534SOL     OW37234   4.051   2.750  14.396  0.0023  0.2205 -0.4668
 8534SOL    HW137235   4.068   2.688  14.326  0.6927  0.8785 -0.8809
 8534SOL    HW237236   4.048   2.831  14.345  1.7803  0.1272 -0.7079
 8535SOL     OW37237   4.217   3.375   5.983  0.1404  0.5462 -0.2301
 8535SOL    HW137238   4.237   3.346   5.894 -1.3705 -0.4694 -0.2447
 8535SOL    HW237239   4.163   3.303   6.016  1.5318  0.1679  1.2046
 8536SOL     OW37240   4.623   0.568   8.715 -0.7338  0.2817  0.4602
 8536SOL    HW137241   4.581   0.597   8.796  2.9187  0.5553  2.2359
 8536SOL    HW237242   4.649   0.655   8.685  0.4960 -0.3115 -0.1815
 8537SOL     OW37243   0.365   2.837   5.471  0.5755  0.4370  0.3237
 8537SOL    HW137244   0.425   2.770   5.502  0.8102 -0.4894 -2.1000
 8537SOL    HW237245   0.411   2.916   5.500 -0.5356  0.8594  0.9262
 8538SOL     OW37246   2.622   3.190   0.624  0.0215  0.0366  0.2816
 8538SOL    HW137247   2.561   3.255   0.589  1.8430  2.3715  1.4718
 8538SOL    HW237248   2.594   3.192   0.716  1.9045  1.3332  0.8227
 8539SOL     OW37249   2.705   2.981   7.691  0.1299 -0.0551 -0.2400
 8539SOL    HW137250   2.678   2.985   7.782 -0.4562 -0.7223 -0.3837
 8539SOL    HW237251   2.701   3.073   7.667 -0.8914 -0.1989 -0.5857
 8540SOL     OW37252   2.911   4.166  13.438 -0.2255 -0.1460 -0.0341
 8540SOL    HW137253   2.936   4.187  13.528  0.8277 -1.3615 -0.0420
 8540SOL    HW237254   2.994   4.133  13.404 -0.5510 -1.7855  0.7388
 8541SOL     OW37255   3.540   1.826   9.169  0.4681  0.5296 -0.1888
 8541SOL    HW137256   3.572   1.893   9.229  3.1981 -1.2260  0.2932
 8541SOL    HW237257   3.624   1.804   9.130  1.5760 -0.0392  2.4969
 8542SOL     OW37258   2.790   1.179  16.363  0.1164  0.1226  0.3935
 8542SOL    HW137259   2.784   1.101  16.417 -0.2485 -0.6744 -0.7893
 8542SOL    HW237260   2.753   1.241  16.426 -3.3509 -3.1757  1.5538
 8543SOL     OW37261   1.922   3.268   4.923 -0.0091  0.2606  0.4175
 8543SOL    HW137262   1.839   3.314   4.907 -0.4308 -0.9351 -0.7463
 8543SOL    HW237263   1.935   3.277   5.018 -3.4037 -0.0506  0.9235
 8544SOL     OW37264   0.501   1.235   7.150  0.6426  0.4156 -0.0293
 8544SOL    HW137265   0.418   1.187   7.147  0.9896 -0.3080  2.0851
 8544SOL    HW237266   0.563   1.164   7.136  0.9907  0.8480 -0.6822
 8545SOL     OW37267   4.016   4.503   7.372  0.0248  0.5413  0.5945
 8545SOL    HW137268   4.097   4.472   7.331 -0.3455  0.2841  0.0727
 8545SOL    HW237269   4.048   4.590   7.397  0.9379 -0.2581  2.2200
 8546SOL     OW37270   1.704   2.197   7.270 -0.4769  0.5836  0.3025
 8546SOL    HW137271   1.655   2.273   7.303  0.5661  0.6636  1.6755
 8546SOL    HW237272   1.778   2.184   7.329  0.1926 -1.8291 -1.0933
 8547SOL     OW37273   2.480   3.182   3.992 -0.1920 -0.4147  0.0776
 8547SOL    HW137274   2.442   3.266   4.018 -3.3377 -1.6410 -0.5157
 8547SOL    HW237275   2.535   3.169   4.069  0.6330  0.4194 -0.3820
 8548SOL     OW37276   4.547   3.755   8.291 -0.2685  0.0579  0.4515
 8548SOL    HW137277   4.563   3.815   8.218 -0.1791 -0.5745 -0.0625
 8548SOL    HW237278   4.483   3.692   8.256 -1.4256  0.5619  1.6775
 8549SOL     OW37279   0.721   0.051   3.249  0.8378 -0.3120 -0.0208
 8549SOL    HW137280   0.783   4.722   3.214  3.2005  2.1982 -0.5069
 8549SOL    HW237281   0.777   0.087   3.318  0.2215 -0.4041  0.5250
 8550SOL     OW37282   1.687   3.998   2.456 -0.0188  0.3473 -0.1152
 8550SOL    HW137283   1.753   4.063   2.431 -0.5783 -0.5344 -3.9173
 8550SOL    HW237284   1.705   3.917   2.408 -0.6626  0.3165 -0.3031
 8551SOL     OW37285   3.652   1.839   3.539 -0.6144  0.3173  0.0210
 8551SOL    HW137286   3.690   1.780   3.475  1.2944  1.1926  0.3655
 8551SOL    HW237287   3.598   1.888   3.476  0.2832  1.8786  0.4736
 8552SOL     OW37288   3.179   3.942   7.364  0.6582 -0.1516  0.3054
 8552SOL    HW137289   3.091   3.965   7.333  0.0029  0.1059  2.3400
 8552SOL    HW237290   3.226   3.912   7.287 -2.7641 -2.4605 -0.8487
 8553SOL     OW37291   3.471   0.804   5.969  0.3101  0.1088 -0.7929
 8553SOL    HW137292   3.537   0.863   5.933  2.7579 -1.4882  1.0481
 8553SOL    HW237293   3.420   0.772   5.895 -0.0417  1.1547 -0.9997
 8554SOL     OW37294   1.830   0.100   6.194 -0.0234 -0.0127  0.0186
 8554SOL    HW137295   1.914   0.109   6.240  0.3248 -0.1933 -0.5876
 8554SOL    HW237296   1.791   0.028   6.243 -1.0084 -0.1932 -1.0159
 8555SOL     OW37297   0.921   1.257   9.732 -0.6210 -0.2865  0.4531
 8555SOL    HW137298   0.926   1.185   9.669 -2.5476 -1.8191  2.0374
 8555SOL    HW237299   0.857   1.230   9.798 -0.9555  3.2640  1.5767
 8556SOL     OW37300   1.276   3.361   7.662 -0.1943 -0.4016 -0.4173
 8556SOL    HW137301   1.208   3.310   7.706 -1.5204  1.1126 -0.7302
 8556SOL    HW237302   1.217   3.416   7.612 -0.7874  0.3598  1.1096
 8557SOL     OW37303   3.403   0.964   4.366 -0.0934  0.1684  0.5548
 8557SOL    HW137304   3.344   0.995   4.297  1.2882  3.0103  0.6474
 8557SOL    HW237305   3.483   0.943   4.318  0.6637 -2.6049  3.1123
 8558SOL     OW37306   0.321   4.697   1.435  0.6794  0.2183  0.5579
 8558SOL    HW137307   0.408   4.712   1.473  0.5397  2.6449 -0.1181
 8558SOL    HW237308   0.287   4.633   1.498  0.3177 -0.7461 -0.6150
 8559SOL     OW37309   2.388   0.956   4.685  0.0988  0.1832  0.6130
 8559SOL    HW137310   2.436   0.987   4.607 -2.3048  1.0405 -0.5177
 8559SOL    HW237311   2.457   0.929   4.745  1.8037  3.2566  0.0458
 8560SOL     OW37312   3.216   3.132   5.573  0.1173  0.0521 -0.3830
 8560SOL    HW137313   3.142   3.166   5.624  0.1301  1.3178 -1.2116
 8560SOL    HW237314   3.219   3.044   5.610 -1.5416  0.5477  0.9190
 8561SOL     OW37315   3.961   0.760   6.198 -0.9843  0.4492  0.0931
 8561SOL    HW137316   4.008   0.786   6.277  1.6181  1.1121 -1.6598
 8561SOL    HW237317   3.871   0.775   6.229 -0.8836  0.7498  0.2460
 8562SOL     OW37318   2.667   2.036   2.272 -0.1150 -0.2965  0.2421
 8562SOL    HW137319   2.586   2.073   2.235  0.7405 -0.0653 -1.4235
 8562SOL    HW237320   2.652   1.949   2.233 -0.3082 -0.8600  1.5756
 8563SOL     OW37321   2.860   1.180   7.686  0.4112  0.2219  0.5693
 8563SOL    HW137322   2.946   1.148   7.657  0.3218  0.0391  0.5035
 8563SOL    HW237323   2.814   1.107   7.645  1.8342 -2.0470  2.9875
 8564SOL     OW37324   2.057   3.369  11.671 -0.0659  0.2321 -0.2362
 8564SOL    HW137325   2.076   3.299  11.734 -0.8379  1.3917  1.2852
 8564SOL    HW237326   2.142   3.375  11.628  0.1063 -0.7006 -0.0306
 8565SOL     OW37327   1.950   4.173   6.525 -0.7540  0.0517 -0.1778
 8565SOL    HW137328   1.916   4.084   6.514 -0.6720  0.1026 -0.7966
 8565SOL    HW237329   2.037   4.162   6.564 -0.4614 -1.9077 -1.3784
 8566SOL     OW37330   2.762   4.298   8.965 -0.1867 -0.0113  0.1468
 8566SOL    HW137331   2.694   4.366   8.961  0.3398  0.5223  0.2588
 8566SOL    HW237332   2.732   4.231   8.904 -1.6111 -0.9933  1.9540
 8567SOL     OW37333   1.000   0.150   1.155  0.6547 -0.3054  0.0713
 8567SOL    HW137334   1.028   0.228   1.107 -1.0252  0.1327 -0.2101
 8567SOL    HW237335   0.963   0.101   1.082  1.6803  0.5928 -1.0633
 8568SOL     OW37336   4.508   0.500   0.393  0.4351 -0.0094  0.3340
 8568SOL    HW137337   4.567   0.551   0.449  1.1845 -0.0929 -0.3918
 8568SOL    HW237338   4.437   0.489   0.456 -1.2083 -0.7271 -1.6445
 8569SOL     OW37339   3.874   3.829  10.203 -0.0805 -0.3389 -0.0372
 8569SOL    HW137340   3.815   3.904  10.207 -0.0797 -0.4889  2.8326
 8569SOL    HW237341   3.891   3.811  10.110  3.1782  1.5312  0.1946
 8570SOL     OW37342   2.556   4.584  17.065  0.5052 -0.2561  0.0083
 8570SOL    HW137343   2.569   4.642  17.140  0.9898  0.7081 -0.8112
 8570SOL    HW237344   2.535   4.640  16.990  1.4413  0.7741  0.5124
 8571SOL     OW37345   1.344   1.440  15.470  0.8436  0.1888  0.3891
 8571SOL    HW137346   1.315   1.497  15.399 -1.2440 -0.8114  0.4450
 8571SOL    HW237347   1.358   1.353  15.433  1.3675  0.5869 -0.3496
 8572SOL     OW37348   4.290   2.165   5.356  0.5576  0.0674  0.2822
 8572SOL    HW137349   4.262   2.254   5.380 -0.3725 -0.8380  2.5200
 8572SOL    HW237350   4.292   2.116   5.438 -0.0207 -2.1410 -1.0248
 8573SOL     OW37351   2.335   2.718   3.065  0.1732  0.0139 -0.1325
 8573SOL    HW137352   2.313   2.684   3.151  1.2063 -0.6934 -0.1456
 8573SOL    HW237353   2.337   2.642   3.007 -1.6147 -0.4996  0.4753
 8574SOL     OW37354   1.314   1.833  12.506 -0.7023  0.3240 -0.0662
 8574SOL    HW137355   1.255   1.778  12.557  0.4958 -0.3788  0.5680
 8574SOL    HW237356   1.269   1.836  12.422  1.2360  0.3315 -1.0954
 8575SOL     OW37357   1.561   3.295  14.307 -0.0666  0.1150 -0.6899
 8575SOL    HW137358   1.505   3.234  14.354 -1.1114  2.2877  0.8715
 8575SOL    HW237359   1.588   3.228  14.243 -0.0889  0.2856 -0.8782
 8576SOL     OW37360   3.994   2.221   6.283 -0.0908 -0.4231  0.3464
 8576SOL    HW137361   3.932   2.148   6.280 -0.0955 -0.4796  2.2460
 8576SOL    HW237362   4.070   2.169   6.259 -0.2986  0.3844 -2.0872
 8577SOL     OW37363   0.965   0.344   8.253 -0.6804 -0.3344  0.1939
 8577SOL    HW137364   0.930   0.279   8.314  1.2586  0.3103  1.9898
 8577SOL    HW237365   1.022   0.294   8.195  0.0010  0.3800  0.2492
 8578SOL     OW37366   2.280   0.681  16.575 -0.1772 -0.4716 -0.0609
 8578SOL    HW137367   2.315   0.736  16.645  1.9676 -0.2524 -1.2993
 8578SOL    HW237368   2.359   0.661  16.524  1.2993 -1.0378  2.4644
 8579SOL     OW37369   1.590   4.355   5.253 -0.6053  0.4775  0.0671
 8579SOL    HW137370   1.517   4.368   5.193  0.0444  0.9657 -0.6076
 8579SOL    HW237371   1.619   4.442   5.281  2.7264 -0.8413  0.7466
 8580SOL     OW37372   3.770   0.095   4.267  0.0716 -0.3869 -0.5694
 8580SOL    HW137373   3.796   0.005   4.289 -0.8266 -0.3842  0.4878
 8580SOL    HW237374   3.691   0.071   4.218 -1.2272  2.5706  0.0907
 8581SOL     OW37375   2.110   2.459   3.984 -0.0278 -0.2683  0.7627
 8581SOL    HW137376   2.084   2.446   4.076  1.9111  1.1505  1.5021
 8581SOL    HW237377   2.196   2.421   3.972  1.4638  3.4476 -0.3222
 8582SOL     OW37378   1.096   4.163  15.774  0.0169 -0.3696 -0.5789
 8582SOL    HW137379   1.174   4.199  15.732 -1.3095  0.7454 -2.1226
 8582SOL    HW237380   1.032   4.233  15.764 -0.9483 -1.2076 -0.3338
 8583SOL     OW37381   1.972   1.901  15.576 -0.1831  0.8038  0.1556
 8583SOL    HW137382   2.007   1.953  15.648 -0.7406 -0.4096  1.3067
 8583SOL    HW237383   2.036   1.932  15.511  0.3468 -0.7735 -0.0816
 8584SOL     OW37384   1.117   4.217   3.564  0.1117 -0.4731  0.8807
 8584SOL    HW137385   1.062   4.231   3.642 -0.2506  1.9047  0.2078
 8584SOL    HW237386   1.076   4.143   3.519 -0.4814 -0.4386  1.3578
 8585SOL     OW37387   4.642   2.022   4.331  0.3583 -0.0602 -0.2700
 8585SOL    HW137388   4.599   1.939   4.312  0.6692 -0.0342 -1.1044
 8585SOL    HW237389   4.725   2.006   4.374 -0.9265 -1.5708  1.6274
 8586SOL     OW37390   4.139   3.406  11.925 -0.0276 -0.1588 -0.5512
 8586SOL    HW137391   4.148   3.431  11.833  0.5088  0.6421 -0.2841
 8586SOL    HW237392   4.058   3.447  11.953  0.6005  1.0721 -0.5179
 8587SOL     OW37393   2.940   4.190   4.340  0.4373  1.3189 -0.0046
 8587SOL    HW137394   3.019   4.144   4.370  0.9599  1.1980 -1.5488
 8587SOL    HW237395   2.903   4.132   4.274  1.8026  0.0688  0.3204
 8588SOL     OW37396   3.918   3.464   7.840  0.7379  0.3085 -0.2212
 8588SOL    HW137397   3.916   3.398   7.771  0.8181  0.0022  0.0681
 8588SOL    HW237398   3.853   3.529   7.813  1.1582 -0.4164 -3.0389
 8589SOL     OW37399   1.211   1.860   7.672 -0.2225 -0.6104  0.4871
 8589SOL    HW137400   1.187   1.778   7.629  2.4807 -0.2885 -1.6671
 8589SOL    HW237401   1.162   1.930   7.628 -1.0379 -1.7106 -0.3505
 8590SOL     OW37402   0.656   2.825   0.410  0.1759 -0.5728  0.2060
 8590SOL    HW137403   0.739   2.850   0.451  0.4261  0.5626 -0.9966
 8590SOL    HW237404   0.693   2.802   0.325  0.1255 -0.9054  0.2738
 8591SOL     OW37405   1.723   1.948  16.222 -0.4563  0.1506  0.2010
 8591SOL    HW137406   1.705   1.887  16.294 -2.2527 -0.8164 -1.0628
 8591SOL    HW237407   1.767   1.889  16.161 -2.8331  0.1139 -1.4942
 8592SOL     OW37408   1.095   2.471   9.023 -0.3997  0.2667  0.1859
 8592SOL    HW137409   1.087   2.402   9.088 -0.7924  0.1672  0.0334
 8592SOL    HW237410   1.189   2.477   9.011 -0.5381 -0.9263 -1.5760
 8593SOL     OW37411   1.886   1.387   5.072 -0.2053  0.1145  0.4145
 8593SOL    HW137412   1.849   1.437   5.144  1.0528 -1.2697  2.0203
 8593SOL    HW237413   1.981   1.396   5.085  0.2852 -2.8210 -1.0380
 8594SOL     OW37414   4.586   2.757   8.178 -0.2345  0.6553  0.1393
 8594SOL    HW137415   4.679   2.736   8.177 -1.4551 -4.6461 -0.1666
 8594SOL    HW237416   4.571   2.754   8.083  1.5578  1.7442 -0.1845
 8595SOL     OW37417   4.011   0.265   1.899  0.3765  0.1576 -0.0953
 8595SOL    HW137418   3.995   0.338   1.958 -1.4389 -0.3868  0.0832
 8595SOL    HW237419   3.988   0.309   1.817  0.4848 -1.7788 -1.1660
 8596SOL     OW37420   2.967   1.009   2.834  0.0823  0.1249  1.1183
 8596SOL    HW137421   2.989   1.101   2.841 -0.1009  0.2591 -0.0799
 8596SOL    HW237422   3.049   0.969   2.863 -0.1356  0.4725  2.2276
 8597SOL     OW37423   1.866   2.599   3.590  0.0848 -0.0003 -0.4209
 8597SOL    HW137424   1.780   2.640   3.599 -0.3224 -0.9291 -0.1164
 8597SOL    HW237425   1.909   2.661   3.649  1.4540  0.1109 -1.5226
 8598SOL     OW37426   3.614   1.336   2.717  0.4847  0.2243 -0.1353
 8598SOL    HW137427   3.701   1.355   2.682  1.2919 -2.2904  0.5713
 8598SOL    HW237428   3.596   1.255   2.670  0.7671  0.1994 -0.2017
 8599SOL     OW37429   3.175   0.135  12.567  0.2682  0.2432  0.0463
 8599SOL    HW137430   3.097   0.191  12.571 -1.0710 -1.5029 -1.7143
 8599SOL    HW237431   3.155   0.073  12.497 -0.8359  0.7391 -0.0793
 8600SOL     OW37432   0.447   2.486   3.961  0.0278  0.3982 -0.3498
 8600SOL    HW137433   0.363   2.466   3.917 -0.7947  0.2477  1.3087
 8600SOL    HW237434   0.513   2.467   3.894 -0.2981 -2.4091  0.1308
 8601SOL     OW37435   2.621   0.622   3.906  0.0510  0.5023  0.3647
 8601SOL    HW137436   2.581   0.535   3.900 -0.5435  0.9189 -1.9994
 8601SOL    HW237437   2.590   0.660   3.823 -0.1702  0.2862  0.3459
 8602SOL     OW37438   3.090   0.714   7.926  0.7764  0.1814 -0.1194
 8602SOL    HW137439   3.134   0.761   7.997  0.7319  0.9699 -0.6102
 8602SOL    HW237440   3.056   0.786   7.873  0.0894  0.5182  0.7866
 8603SOL     OW37441   1.628   1.808  16.429  0.6625 -0.1320 -0.5255
 8603SOL    HW137442   1.603   1.719  16.404 -0.8621  0.7264 -2.1117
 8603SOL    HW237443   1.585   1.817  16.514 -1.7691 -0.0924 -1.7573
 8604SOL     OW37444   1.444   4.684   5.061  0.6621  0.0150  0.6532
 8604SOL    HW137445   1.361   4.723   5.088  0.7647  0.5299  0.2413
 8604SOL    HW237446   1.443   4.693   4.966 -1.2244 -0.7378  0.6148
 8605SOL     OW37447   2.018   4.574   1.864 -0.1770  0.0938 -0.8027
 8605SOL    HW137448   1.962   4.547   1.791  1.2930 -1.5996 -1.2952
 8605SOL    HW237449   2.101   4.602   1.824  1.9716 -2.9857  1.4944
 8606SOL     OW37450   2.309   4.061   5.715  0.2364  0.1496 -0.0332
 8606SOL    HW137451   2.243   4.057   5.646  1.8574  2.4022 -1.7424
 8606SOL    HW237452   2.381   4.011   5.676  0.5555  0.0809  0.6401
 8607SOL     OW37453   1.829   1.070   6.540 -0.5975  0.4504 -0.6397
 8607SOL    HW137454   1.856   0.978   6.540 -2.0616  0.0078 -1.8596
 8607SOL    HW237455   1.763   1.079   6.471 -0.5427 -2.1791 -1.0316
 8608SOL     OW37456   4.521   2.192   5.023  0.0550  0.8881  0.0456
 8608SOL    HW137457   4.488   2.268   5.071 -0.9234  0.4478  0.0773
 8608SOL    HW237458   4.571   2.151   5.094 -1.1376 -0.2373  0.2388
 8609SOL     OW37459   0.573   2.703   9.118 -0.3193 -1.1271  0.1165
 8609SOL    HW137460   0.552   2.642   9.189 -0.3902 -3.3048 -1.7851
 8609SOL    HW237461   0.666   2.721   9.131 -0.5873 -0.0265  0.4475
 8610SOL     OW37462   2.961   3.639   5.106 -0.0983 -0.3872  0.3307
 8610SOL    HW137463   3.048   3.662   5.138  0.2695  1.5640 -2.0395
 8610SOL    HW237464   2.974   3.580   5.031  1.4252 -1.0116  1.0823
 8611SOL     OW37465   3.477   3.519   1.307  0.0006 -0.5746  0.0115
 8611SOL    HW137466   3.568   3.531   1.333 -0.1315 -0.0932  0.2579
 8611SOL    HW237467   3.432   3.536   1.389  1.5399  1.2527  0.4841
 8612SOL     OW37468   3.901   2.327   9.593 -0.3598 -0.9237  0.1302
 8612SOL    HW137469   3.928   2.303   9.504 -3.0551 -0.3661 -0.8371
 8612SOL    HW237470   3.982   2.362   9.631 -1.2499  0.5466  0.6483
 8613SOL     OW37471   3.407   1.516  13.015  0.2547  0.1362 -0.3681
 8613SOL    HW137472   3.381   1.461  12.941  3.5130 -0.6234 -0.9437
 8613SOL    HW237473   3.349   1.591  13.010  0.3654  0.2497  0.0926
 8614SOL     OW37474   2.078   4.617   4.377 -0.0669  0.4405  0.3387
 8614SOL    HW137475   2.058   4.633   4.285 -2.0620  0.7524  0.8092
 8614SOL    HW237476   2.053   4.525   4.387  1.5734 -0.1316 -0.9227
 8615SOL     OW37477   1.743   4.594  10.730 -0.2331 -0.2874  0.2609
 8615SOL    HW137478   1.835   4.619  10.719 -0.2264 -0.4971 -0.1665
 8615SOL    HW237479   1.716   4.664  10.788  2.0670  0.2397  0.6808
 8616SOL     OW37480   2.515   1.067   4.474  0.1179 -0.5201 -0.3737
 8616SOL    HW137481   2.530   1.160   4.490 -0.4333 -0.5076  0.0698
 8616SOL    HW237482   2.424   1.051   4.447 -0.3139 -1.6333  1.7516
 8617SOL     OW37483   3.396   2.474   4.665  0.2648 -0.0699 -0.2542
 8617SOL    HW137484   3.396   2.482   4.761 -1.3879 -1.9175 -0.0905
 8617SOL    HW237485   3.392   2.378   4.671  1.5524  0.0234  2.3211
 8618SOL     OW37486   4.252   1.413   2.512 -0.5313 -0.5478 -0.3773
 8618SOL    HW137487   4.199   1.352   2.461 -1.6174  0.1098 -0.0154
 8618SOL    HW237488   4.232   1.386   2.602  0.1533 -0.3029 -0.1509
 8619SOL     OW37489   2.914   0.430   2.324  0.0261 -0.0865  0.5292
 8619SOL    HW137490   2.851   0.494   2.291 -0.4145  0.0590  1.6397
 8619SOL    HW237491   2.886   0.349   2.283  0.8378  0.8797 -1.9499
 8620SOL     OW37492   1.978   3.397   5.337  0.2253  0.4635  0.2176
 8620SOL    HW137493   2.042   3.451   5.291 -0.7277  1.2732 -0.1527
 8620SOL    HW237494   1.984   3.313   5.290 -0.3197  1.1116 -0.9995
 8621SOL     OW37495   2.108   0.697   7.230  0.1071  0.1324 -0.1175
 8621SOL    HW137496   2.168   0.623   7.236 -1.2495 -0.9471  0.2241
 8621SOL    HW237497   2.094   0.714   7.323 -1.2701  0.2492 -0.3459
 8622SOL     OW37498   1.809   0.002   8.786  0.2123  0.0270  0.0234
 8622SOL    HW137499   1.885   0.059   8.777  1.1920 -1.2361  0.2856
 8622SOL    HW237500   1.796   0.011   8.880  0.9381 -0.2436  0.1482
 8623SOL     OW37501   3.584   4.206   6.461 -0.2956  0.0069  0.1049
 8623SOL    HW137502   3.564   4.299   6.445 -1.8527 -0.4869 -0.8427
 8623SOL    HW237503   3.636   4.207   6.541 -0.2676 -0.3405  0.0912
 8624SOL     OW37504   0.536   2.214  10.423  0.4089  0.0755  0.2684
 8624SOL    HW137505   0.496   2.129  10.408 -0.0287  0.5049 -0.9176
 8624SOL    HW237506   0.615   2.204  10.370  0.9106  0.8452  0.8675
 8625SOL     OW37507   0.452   0.221   3.732  0.5113 -0.1551  0.1106
 8625SOL    HW137508   0.386   0.152   3.731  2.8114 -2.3793  0.9871
 8625SOL    HW237509   0.431   0.276   3.657 -1.8594  0.9438  1.5972
 8626SOL     OW37510   1.856   4.068  11.105 -0.3111  0.4246 -0.1498
 8626SOL    HW137511   1.924   4.002  11.116 -0.5558 -0.0273 -1.2543
 8626SOL    HW237512   1.905   4.138  11.062  1.3369 -1.2586 -1.0296
 8627SOL     OW37513   4.505   2.284   4.374 -0.2979 -0.4850 -0.2709
 8627SOL    HW137514   4.558   2.342   4.429 -0.0411 -0.7731 -0.2175
 8627SOL    HW237515   4.570   2.228   4.331 -1.6834 -2.9326  0.8710
 8628SOL     OW37516   1.134   0.497   5.791 -0.2550 -0.3659 -0.2779
 8628SOL    HW137517   1.071   0.513   5.721 -0.5382 -4.0233 -0.8821
 8628SOL    HW237518   1.176   0.417   5.760  1.0507 -0.5108  1.8559
 8629SOL     OW37519   2.932   3.723   1.591  0.0915  0.0279  0.2236
 8629SOL    HW137520   2.905   3.812   1.567 -0.5715 -0.7835 -1.9947
 8629SOL    HW237521   2.848   3.698   1.631  0.1898  2.0563  1.7419
 8630SOL     OW37522   0.280   0.136  16.533  0.5265 -0.1093  0.2801
 8630SOL    HW137523   0.286   0.042  16.547 -0.5590  0.0413  1.7003
 8630SOL    HW237524   0.246   0.170  16.615  0.0557 -3.2164  1.3589
 8631SOL     OW37525   0.015   0.037   8.057  0.3126  0.0350 -0.4644
 8631SOL    HW137526   0.000   0.113   8.001 -1.2175  2.2759  2.9922
 8631SOL    HW237527   0.110   0.031   8.048  0.1947 -3.2453  0.2637
 8632SOL     OW37528   2.962   1.486   3.756  0.4831 -0.2183  0.2851
 8632SOL    HW137529   2.872   1.460   3.777  0.4945  1.3051  2.3044
 8632SOL    HW237530   2.974   1.421   3.687 -0.2374  0.2055 -0.2483
 8633SOL     OW37531   2.095   2.524   6.518  0.0954 -0.3105  0.0757
 8633SOL    HW137532   2.055   2.610   6.530  0.2607 -0.2056 -0.1422
 8633SOL    HW237533   2.069   2.491   6.432 -1.6804 -2.9746  1.6083
 8634SOL     OW37534   0.379   3.245  11.371 -0.4463 -0.1067 -0.3268
 8634SOL    HW137535   0.347   3.213  11.287 -0.8242  2.7318 -1.2692
 8634SOL    HW237536   0.400   3.334  11.342 -1.2345  0.4703  0.8699
 8635SOL     OW37537   0.708   2.153  10.222 -0.4915  0.4759 -0.1634
 8635SOL    HW137538   0.792   2.195  10.203  0.5145 -0.3457  2.4642
 8635SOL    HW237539   0.730   2.066  10.189 -0.2355  0.6803 -0.5251
 8636SOL     OW37540   0.210   2.141   9.827  0.0473 -0.3373  0.1933
 8636SOL    HW137541   0.215   2.211   9.892  1.9163 -0.5072  0.2268
 8636SOL    HW237542   0.149   2.086   9.876 -0.3250 -0.2939 -0.2153
 8637SOL     OW37543   3.916   4.732   0.225 -0.0645  0.4955  0.2289
 8637SOL    HW137544   3.833   4.705   0.263  0.4199  1.8678  2.2952
 8637SOL    HW237545   3.975   4.718   0.299 -0.5234 -1.3920  0.2349
 8638SOL     OW37546   1.411   1.758   0.207  0.4197  0.0406 -0.0697
 8638SOL    HW137547   1.461   1.782   0.129 -0.1387  0.7771 -0.2037
 8638SOL    HW237548   1.369   1.682   0.166  1.4064 -0.8967  0.6497
 8639SOL     OW37549   3.038   3.242   5.080  0.1088  0.4355 -0.2076
 8639SOL    HW137550   2.959   3.236   5.133  0.1622  1.5910  0.0050
 8639SOL    HW237551   3.053   3.336   5.068 -0.3447  0.5578  0.1789
 8640SOL     OW37552   0.209   2.633  12.054  0.4916  0.1172  0.3865
 8640SOL    HW137553   0.239   2.721  12.033  0.6753 -0.0027  0.1386
 8640SOL    HW237554   0.130   2.657  12.103  1.3465 -0.0391  1.8529
 8641SOL     OW37555   2.357   1.259   1.501 -0.2888 -0.1774 -0.6749
 8641SOL    HW137556   2.304   1.198   1.552 -0.3895  1.0447  0.6997
 8641SOL    HW237557   2.303   1.337   1.490  1.4969  1.1034 -0.4015
 8642SOL     OW37558   0.518   2.503   8.573  0.4225  0.4341 -0.2791
 8642SOL    HW137559   0.496   2.567   8.640 -3.1465 -0.9322 -0.1682
 8642SOL    HW237560   0.574   2.559   8.519  0.8009 -1.6638 -2.0340
 8643SOL     OW37561   1.098   2.674   5.952 -0.4092  1.0231 -0.2888
 8643SOL    HW137562   1.109   2.599   6.011  1.3833  0.4321 -1.3684
 8643SOL    HW237563   1.116   2.746   6.012  1.1471  1.1585 -0.9324
 8644SOL     OW37564   0.621   3.666   8.771  0.4426 -0.0723 -0.0255
 8644SOL    HW137565   0.624   3.762   8.766 -0.8033 -0.0014  0.4857
 8644SOL    HW237566   0.709   3.647   8.739  0.1076 -0.0739 -0.9419
 8645SOL     OW37567   1.330   2.654   2.185 -0.4798  0.2779 -0.5080
 8645SOL    HW137568   1.419   2.637   2.215 -0.5768  0.3135 -0.1946
 8645SOL    HW237569   1.338   2.707   2.106 -0.8589 -0.1884 -0.8586
 8646SOL     OW37570   0.334   4.699   7.114  0.6965  0.6619  0.2348
 8646SOL    HW137571   0.377   4.682   7.030 -0.6856 -1.2028 -0.0925
 8646SOL    HW237572   0.244   4.676   7.094  1.3321 -2.4291  0.9232
 8647SOL     OW37573   0.037   1.481  12.533 -0.8049 -0.1481  0.1384
 8647SOL    HW137574   4.684   1.468  12.566 -0.9179  0.9122  0.2688
 8647SOL    HW237575   0.084   1.482  12.616 -0.1016 -0.0602 -0.2650
 8648SOL     OW37576   3.211   1.179   2.874 -0.0847 -0.3432 -0.6404
 8648SOL    HW137577   3.253   1.102   2.835  1.0544  0.2094 -0.5139
 8648SOL    HW237578   3.225   1.235   2.798  0.4308  0.4154  0.0109
 8649SOL     OW37579   1.176   2.230   9.455 -0.4970  0.6542  0.0704
 8649SOL    HW137580   1.224   2.159   9.498 -0.0049  1.4401  0.8169
 8649SOL    HW237581   1.236   2.295   9.490 -1.3718  1.2026  0.5368
 8650SOL     OW37582   4.400   0.910  17.369 -0.2314 -0.7093  0.0491
 8650SOL    HW137583   4.345   0.983  17.401 -2.3832 -1.0800 -2.7957
 8650SOL    HW237584   4.408   0.940  17.279 -3.4339 -2.3908 -0.7962
 8651SOL     OW37585   0.956   1.759   5.045 -0.5533 -0.0805  0.0551
 8651SOL    HW137586   0.933   1.776   4.954  1.2528  0.4123 -0.3120
 8651SOL    HW237587   0.885   1.699   5.068 -1.8377  2.1960  1.9769
 8652SOL     OW37588   3.930   3.654   7.591  0.4483 -0.0263 -0.1904
 8652SOL    HW137589   3.880   3.720   7.542 -0.8560  0.3541  1.6853
 8652SOL    HW237590   3.901   3.573   7.550 -0.3272 -0.3480  1.0069
 8653SOL     OW37591   1.999   3.810   9.291  0.0267 -0.2316  0.1787
 8653SOL    HW137592   2.052   3.747   9.340  0.3871  0.1680  0.3025
 8653SOL    HW237593   1.942   3.832   9.364  0.5409  0.5370  0.3452
 8654SOL     OW37594   3.570   4.399   0.473  0.9140  0.1179  0.1648
 8654SOL    HW137595   3.562   4.340   0.398  0.3017  2.0034 -1.2468
 8654SOL    HW237596   3.664   4.410   0.489  1.5124 -0.8035 -2.6367
 8655SOL     OW37597   3.289   0.129   1.573 -0.0924  0.2081 -0.4834
 8655SOL    HW137598   3.251   0.065   1.632  0.7888 -1.8398 -2.1518
 8655SOL    HW237599   3.208   0.154   1.529 -2.3827 -1.6453  2.7116
 8656SOL     OW37600   1.243   2.121   0.536  0.6104 -0.4005  0.4605
 8656SOL    HW137601   1.248   2.210   0.501 -0.7769 -0.2386  0.6709
 8656SOL    HW237602   1.319   2.078   0.498 -0.3457 -2.3596  0.7810
 8657SOL     OW37603   1.663   3.761   4.995  0.7611  0.3381 -0.2599
 8657SOL    HW137604   1.663   3.772   5.090 -1.6841  1.3903 -0.3702
 8657SOL    HW237605   1.753   3.784   4.972  0.7433  1.4285  0.7432
 8658SOL     OW37606   2.428   3.343   3.344  0.2852 -0.1942 -0.0628
 8658SOL    HW137607   2.491   3.335   3.272  0.6361 -0.8879  0.3322
 8658SOL    HW237608   2.440   3.261   3.391  0.6192  0.1253  0.4040
 8659SOL     OW37609   4.645   1.424  17.349  0.2432 -0.3371 -0.3187
 8659SOL    HW137610   4.672   1.383  17.267  0.5496 -0.4167 -0.1791
 8659SOL    HW237611   4.696   1.505  17.348 -2.7484  1.5587  0.1048
 8660SOL     OW37612   3.595   3.432   5.065 -0.7032 -0.1830 -0.2199
 8660SOL    HW137613   3.546   3.470   5.137 -1.1591  0.7802 -1.0421
 8660SOL    HW237614   3.623   3.349   5.104  1.1895  0.9201  0.7830
 8661SOL     OW37615   2.005   0.409   1.650 -0.2373  0.5828  0.3561
 8661SOL    HW137616   1.978   0.327   1.691 -0.4146 -0.6721 -2.2356
 8661SOL    HW237617   1.982   0.469   1.720 -0.4434  0.7097  0.1795
 8662SOL     OW37618   4.271   3.443   6.761 -0.6325 -0.3367 -0.1180
 8662SOL    HW137619   4.330   3.478   6.828 -1.0934 -2.1377  1.2324
 8662SOL    HW237620   4.245   3.514   6.703  1.0124  0.9293  0.7118
 8663SOL     OW37621   4.631   2.548   7.749  0.7617 -0.0069 -0.1818
 8663SOL    HW137622   4.596   2.620   7.801  1.7884 -0.0677  0.5940
 8663SOL    HW237623   4.708   2.593   7.713  0.0548 -0.8400 -2.7136
 8664SOL     OW37624   3.022   4.297  11.479  0.0752 -0.1231  0.1287
 8664SOL    HW137625   2.991   4.370  11.425  0.9905  1.3265  1.5556
 8664SOL    HW237626   2.960   4.231  11.451  1.0390 -0.3426 -1.5042
 8665SOL     OW37627   4.145   0.885   6.032  0.2157 -0.1321  0.7760
 8665SOL    HW137628   4.087   0.832   6.086  0.4312  0.6520  1.7835
 8665SOL    HW237629   4.226   0.840   6.057 -0.6264 -1.5930  0.8476
 8666SOL     OW37630   4.347   1.545   9.531 -0.0046  0.1994 -0.0581
 8666SOL    HW137631   4.324   1.552   9.439 -1.4089  0.6229  0.3222
 8666SOL    HW237632   4.266   1.571   9.576 -0.3964  0.7992 -1.1117
 8667SOL     OW37633   2.007   4.567  11.592 -0.0457 -0.7794 -0.0235
 8667SOL    HW137634   2.049   4.503  11.650 -1.4060  1.0279  2.9688
 8667SOL    HW237635   1.915   4.562  11.619 -0.7486 -2.9038 -2.9260
 8668SOL     OW37636   2.874   0.653  10.297 -0.2482  0.2783 -0.1778
 8668SOL    HW137637   2.919   0.605  10.366 -1.0069 -0.3063 -0.0835
 8668SOL    HW237638   2.865   0.738  10.339  2.8376  0.2183  0.5895
 8669SOL     OW37639   1.238   3.929   7.178 -0.3875  0.3574 -0.3497
 8669SOL    HW137640   1.307   3.969   7.230 -0.1996  2.2622 -2.1105
 8669SOL    HW237641   1.172   3.996   7.163 -0.6608  0.7202  2.5254
 8670SOL     OW37642   3.712   0.456   1.756 -0.6780  0.1136  1.1815
 8670SOL    HW137643   3.648   0.391   1.728  0.9569 -1.4044  1.0152
 8670SOL    HW237644   3.796   0.419   1.730 -1.1908 -1.1492  1.3533
 8671SOL     OW37645   0.087   3.542   7.106  0.3252 -0.9630 -0.0947
 8671SOL    HW137646   0.012   3.537   7.047  0.6909 -2.0564 -0.4684
 8671SOL    HW237647   0.157   3.511   7.048 -0.5222 -0.1496 -1.5402
 8672SOL     OW37648   1.195   1.650   4.866 -0.2590  0.3334 -0.1456
 8672SOL    HW137649   1.240   1.647   4.781  1.0725  0.3892  0.5544
 8672SOL    HW237650   1.123   1.703   4.832 -0.6210  1.0824  1.8264
 8673SOL     OW37651   2.837   1.386   3.145  0.3548  0.2944 -0.5380
 8673SOL    HW137652   2.839   1.479   3.123 -1.7077  1.1794  3.1069
 8673SOL    HW237653   2.926   1.359   3.121  0.6753 -1.5573  2.7354
 8674SOL     OW37654   1.867   3.620   1.842 -0.2622 -1.1212 -0.3382
 8674SOL    HW137655   1.781   3.622   1.883 -0.2565  1.7693 -0.4339
 8674SOL    HW237656   1.872   3.525   1.836 -1.6788 -1.2978  1.3104
 8675SOL     OW37657   2.432   2.758   4.093  0.2337  0.4749  0.2773
 8675SOL    HW137658   2.498   2.688   4.099 -0.0318  0.1800 -0.3120
 8675SOL    HW237659   2.476   2.838   4.066  0.0152  0.7621  0.7769
 8676SOL     OW37660   1.664   2.404   4.982 -0.3872  0.5159  0.1324
 8676SOL    HW137661   1.681   2.338   5.049 -1.6614  0.7854  0.7173
 8676SOL    HW237662   1.676   2.481   5.038  3.7441  0.0216 -0.0107
 8677SOL     OW37663   1.383   2.673  14.810 -0.3473  0.0980  0.1020
 8677SOL    HW137664   1.336   2.630  14.738  1.1123  0.8013 -1.2757
 8677SOL    HW237665   1.370   2.606  14.877  3.6014  0.9056  1.6433
 8678SOL     OW37666   3.704   1.181   8.237 -0.2099  0.4758 -0.7637
 8678SOL    HW137667   3.622   1.195   8.285  0.1284 -2.3729  0.6885
 8678SOL    HW237668   3.713   1.087   8.256 -3.2236  0.2707 -0.2898
 8679SOL     OW37669   3.125   3.218   4.504 -0.2677  0.4094  0.2809
 8679SOL    HW137670   3.156   3.134   4.469  1.5806  1.4327 -0.5486
 8679SOL    HW237671   3.203   3.241   4.556  0.6466 -0.5562 -0.6618
 8680SOL     OW37672   3.449   3.140   2.356 -0.1466  0.1805 -0.4930
 8680SOL    HW137673   3.492   3.121   2.272 -0.9047  0.1475 -0.8694
 8680SOL    HW237674   3.523   3.160   2.413 -0.0856  2.4182 -1.3507
 8681SOL     OW37675   0.358   3.640   2.469  0.0001  0.0650 -0.0183
 8681SOL    HW137676   0.408   3.560   2.487 -1.4052 -0.7906  0.1296
 8681SOL    HW237677   0.312   3.651   2.552  0.4208  1.8195 -0.0275
 8682SOL     OW37678   4.217   2.224   9.042  0.6574 -0.1760  0.1380
 8682SOL    HW137679   4.202   2.146   8.988  1.1951  1.0692 -1.8054
 8682SOL    HW237680   4.126   2.252   9.051  0.2107 -1.3644 -0.5703
 8683SOL     OW37681   2.181   1.635   8.521 -0.6125  0.2161  0.0029
 8683SOL    HW137682   2.197   1.573   8.450 -1.8540 -0.6081  0.4442
 8683SOL    HW237683   2.142   1.701   8.463 -2.1920  1.0226  1.9756
 8684SOL     OW37684   4.204   2.548   4.156 -0.1827  0.3075 -0.1789
 8684SOL    HW137685   4.156   2.575   4.234  0.4449  1.1480 -0.0795
 8684SOL    HW237686   4.251   2.629   4.133  1.0462 -0.3851 -0.1255
 8685SOL     OW37687   2.223   2.836   2.575 -0.3829 -0.1483 -0.0334
 8685SOL    HW137688   2.241   2.929   2.590 -1.1545 -0.1295  0.7409
 8685SOL    HW237689   2.133   2.837   2.606 -0.4955  1.7816 -0.4256
 8686SOL     OW37690   0.789   3.524   5.427  0.2219 -0.0322 -0.1535
 8686SOL    HW137691   0.772   3.461   5.357 -0.5017  0.4771 -0.4312
 8686SOL    HW237692   0.735   3.487   5.497 -2.4829  1.6924 -1.3078
 8687SOL     OW37693   2.649   1.349   0.426 -0.4924 -0.2566 -0.3141
 8687SOL    HW137694   2.669   1.303   0.345  0.5401 -2.5209  1.2132
 8687SOL    HW237695   2.638   1.437   0.391  0.9945  0.0034 -0.1276
 8688SOL     OW37696   0.075   2.066   1.882  0.1801  0.2801  0.5437
 8688SOL    HW137697   0.094   2.105   1.968 -3.6953 -1.2056  2.0810
 8688SOL    HW237698   0.133   1.991   1.892  1.9926  1.8000  1.5377
 8689SOL     OW37699   2.788   2.811   7.087 -0.1717 -0.2615 -0.3476
 8689SOL    HW137700   2.774   2.749   7.016  1.9491 -1.1405  0.0036
 8689SOL    HW237701   2.763   2.763   7.167  0.9999  1.5088  1.0818
 8690SOL     OW37702   0.696   3.231   5.648 -0.2238 -0.4520  0.2601
 8690SOL    HW137703   0.684   3.182   5.729 -0.5334  0.0588  0.5294
 8690SOL    HW237704   0.747   3.170   5.595  3.0258  0.6045  2.2029
 8691SOL     OW37705   2.133   3.376  13.119  0.3592  0.1267  0.4938
 8691SOL    HW137706   2.200   3.386  13.187  1.2887 -1.2468 -0.2161
 8691SOL    HW237707   2.130   3.281  13.112  1.0446  0.1384  0.0110
 8692SOL     OW37708   1.313   2.667   5.686  0.4356  0.2105 -0.2326
 8692SOL    HW137709   1.386   2.650   5.626 -1.1077 -1.2067 -1.6694
 8692SOL    HW237710   1.356   2.671   5.771  0.8933  3.3676 -0.5828
 8693SOL     OW37711   4.600   1.971   3.200  0.0074 -0.1712 -0.4767
 8693SOL    HW137712   4.576   2.064   3.190  1.2342  0.1027 -0.8521
 8693SOL    HW237713   4.556   1.948   3.281 -1.3964 -0.1243 -1.2140
 8694SOL     OW37714   1.003   3.662  13.874 -0.0786  0.7059 -0.1276
 8694SOL    HW137715   0.918   3.703  13.889 -1.0830 -1.3039 -0.3309
 8694SOL    HW237716   1.009   3.663  13.779  0.1638 -1.5058 -0.1433
 8695SOL     OW37717   2.348   1.764   3.917  0.2878  0.5317  0.2298
 8695SOL    HW137718   2.295   1.685   3.924 -0.1771  0.7992 -0.3317
 8695SOL    HW237719   2.363   1.767   3.823 -0.9313  2.2441  0.0897
 8696SOL     OW37720   1.234   2.110   7.450 -0.3981  0.2259  0.2375
 8696SOL    HW137721   1.214   2.115   7.357  0.0407  0.2970  0.1446
 8696SOL    HW237722   1.152   2.081   7.490  0.1970 -3.5069 -1.2411
 8697SOL     OW37723   4.595   2.266  12.983  0.6136  0.0494  0.1104
 8697SOL    HW137724   4.683   2.230  12.981  0.4744 -0.2536 -0.4092
 8697SOL    HW237725   4.554   2.233  12.903 -1.6058  2.3143  0.3077
 8698SOL     OW37726   1.822   2.960   0.509  0.2506  0.3339  0.1331
 8698SOL    HW137727   1.750   3.006   0.468 -0.1360 -0.2741  0.1246
 8698SOL    HW237728   1.848   2.913   0.430  3.4391  0.8682  0.8696
 8699SOL     OW37729   0.951   4.201   7.389 -0.0264  0.0004  0.0487
 8699SOL    HW137730   1.002   4.278   7.362 -1.0708  1.2235  1.5877
 8699SOL    HW237731   0.869   4.201   7.339  0.0259  0.9295 -0.0395
 8700SOL     OW37732   1.992   0.370   4.710  0.4900 -0.3896  0.0850
 8700SOL    HW137733   2.079   0.408   4.723  1.1381 -1.2825 -1.6168
 8700SOL    HW237734   2.012   0.358   4.617 -0.0414  0.3724 -0.1280
 8701SOL     OW37735   4.105   2.405   2.264  0.5414 -0.1452  0.3113
 8701SOL    HW137736   4.033   2.347   2.289 -0.2858  0.4345 -0.7328
 8701SOL    HW237737   4.174   2.364   2.316  0.2939 -0.8609  0.0788
 8702SOL     OW37738   0.585   2.824   7.720 -0.2207  0.2125 -0.3081
 8702SOL    HW137739   0.502   2.866   7.743  0.9496  0.6348  3.1582
 8702SOL    HW237740   0.580   2.751   7.782 -0.7261 -0.9716 -1.7368
 8703SOL     OW37741   3.624   1.660   1.883  0.0423  0.0334  0.2125
 8703SOL    HW137742   3.673   1.713   1.945  1.4969 -0.0400 -0.8814
 8703SOL    HW237743   3.617   1.710   1.802  0.0389 -1.4720 -0.7319
 8704SOL     OW37744   3.518   3.367   4.233  0.1918 -0.0997 -0.1117
 8704SOL    HW137745   3.554   3.309   4.166  0.6041 -0.3146  0.2974
 8704SOL    HW237746   3.482   3.444   4.188  2.5810  1.8667  1.3651
 8705SOL     OW37747   0.494   3.110   6.747  0.4111 -1.0530 -0.4369
 8705SOL    HW137748   0.460   3.054   6.816  1.9923  0.5778  1.6745
 8705SOL    HW237749   0.450   3.192   6.772 -2.0788 -2.3943 -0.3580
 8706SOL     OW37750   3.930   3.309   2.211  0.3266  0.2820 -0.2011
 8706SOL    HW137751   3.906   3.216   2.220  1.6378 -0.0921 -0.4756
 8706SOL    HW237752   4.025   3.312   2.221  0.0372  1.7984  2.0149
 8707SOL     OW37753   1.020   2.903   3.609  0.4498  0.3587 -0.3129
 8707SOL    HW137754   0.981   2.989   3.594  1.0867  0.4886 -1.2839
 8707SOL    HW237755   1.027   2.914   3.703 -0.0181 -2.3262  0.0211
 8708SOL     OW37756   3.703   2.143   6.665  0.2001 -0.2962  0.8774
 8708SOL    HW137757   3.640   2.132   6.594  1.1778  0.0942 -0.0683
 8708SOL    HW237758   3.719   2.237   6.658  0.6272 -0.2124  3.1808
 8709SOL     OW37759   3.410   4.623  16.344  0.1566 -0.7861 -0.4276
 8709SOL    HW137760   3.393   4.717  16.345 -0.9411 -1.0014  1.5058
 8709SOL    HW237761   3.466   4.621  16.266  0.0703 -1.9791 -0.4590
 8710SOL     OW37762   0.934   3.185   1.923 -0.2147 -0.4477  0.1525
 8710SOL    HW137763   0.866   3.133   1.880  0.4055  0.1444 -1.5426
 8710SOL    HW237764   0.934   3.275   1.892 -2.9030 -0.7221 -0.6641
 8711SOL     OW37765   0.887   0.731   6.680  0.1868 -0.0823 -0.4103
 8711SOL    HW137766   0.835   0.691   6.751 -2.4916  4.6519  0.2844
 8711SOL    HW237767   0.972   0.726   6.724 -0.1196 -1.1552  0.0664
 8712SOL     OW37768   2.527   1.467   6.358 -0.2688  0.3318  0.5919
 8712SOL    HW137769   2.449   1.435   6.403 -2.7118  4.3730 -0.7356
 8712SOL    HW237770   2.593   1.433   6.419  2.4250  2.6399 -1.0242
 8713SOL     OW37771   3.506   0.533  16.070 -0.4938  0.5982  0.6180
 8713SOL    HW137772   3.482   0.535  16.162 -1.0716 -1.3085  0.5190
 8713SOL    HW237773   3.594   0.571  16.078  0.0307 -0.5858  0.4949
 8714SOL     OW37774   2.344   4.184   6.377  0.2538  0.0798 -0.5822
 8714SOL    HW137775   2.272   4.237   6.341  0.2286  0.5844  0.2112
 8714SOL    HW237776   2.318   4.101   6.336  0.4333  0.9686 -2.4902
 8715SOL     OW37777   1.034   1.223   3.649  0.2263  0.2406 -0.7957
 8715SOL    HW137778   1.053   1.130   3.661 -1.3462  0.0517  0.2194
 8715SOL    HW237779   0.970   1.229   3.579  0.4147  0.8091 -0.9185
 8716SOL     OW37780   0.998   3.285   9.394  0.2996  0.2410  0.8628
 8716SOL    HW137781   1.006   3.208   9.451  1.5982 -0.7314 -0.6263
 8716SOL    HW237782   0.962   3.350   9.453 -1.2624  1.3605 -1.3119
 8717SOL     OW37783   3.380   3.871   0.271 -0.1826  0.9639  0.1428
 8717SOL    HW137784   3.366   3.885   0.177 -2.3989 -2.1510  0.0227
 8717SOL    HW237785   3.475   3.861   0.262 -0.0320  0.2382  2.6456
 8718SOL     OW37786   3.379   1.072  10.712  0.3722 -0.0751  0.8525
 8718SOL    HW137787   3.465   1.113  10.719  0.8076 -0.8153 -0.2183
 8718SOL    HW237788   3.346   1.102  10.797  0.8900  0.3282  0.9156
 8719SOL     OW37789   1.533   3.699  11.345  0.1190 -0.1705  0.5296
 8719SOL    HW137790   1.571   3.611  11.348  1.4591  0.4177  0.6895
 8719SOL    HW237791   1.480   3.689  11.266 -0.2926  1.6075  0.5848
 8720SOL     OW37792   4.326   1.790   8.231 -0.3224 -0.3645  0.2010
 8720SOL    HW137793   4.353   1.805   8.141 -0.0350  1.2096  0.5406
 8720SOL    HW237794   4.391   1.725   8.259  1.2084  1.6452  1.3330
 8721SOL     OW37795   0.323   1.601   9.499 -0.1347 -0.4514 -0.0510
 8721SOL    HW137796   0.409   1.568   9.524  0.1614 -0.6334 -1.2895
 8721SOL    HW237797   0.343   1.672   9.439 -0.6776 -1.1461 -1.0528
 8722SOL     OW37798   0.671   4.024   6.603 -0.1650 -0.0586  0.2426
 8722SOL    HW137799   0.762   4.053   6.614 -0.4628  0.1104  2.3445
 8722SOL    HW237800   0.652   4.066   6.519 -0.0927 -1.3346 -0.4060
 8723SOL     OW37801   1.221   0.740  13.612  0.7782  0.3751 -0.0032
 8723SOL    HW137802   1.296   0.731  13.553  0.8422 -1.6748  0.4062
 8723SOL    HW237803   1.253   0.736  13.702 -2.4822  0.1822  1.1641
 8724SOL     OW37804   2.985   3.846   3.348 -0.2122 -0.2029  0.3894
 8724SOL    HW137805   2.972   3.939   3.329  0.9266 -0.2656 -0.7449
 8724SOL    HW237806   3.007   3.809   3.262  0.1284 -0.4833  0.5982
 8725SOL     OW37807   1.797   2.159  10.887 -0.8982  0.3833  0.0442
 8725SOL    HW137808   1.721   2.141  10.943 -0.7797 -0.1754  0.0309
 8725SOL    HW237809   1.772   2.108  10.810  1.3727  1.4837 -1.4161
 8726SOL     OW37810   2.340   1.949  16.583  0.3095  0.8077  0.0025
 8726SOL    HW137811   2.306   1.859  16.583 -1.4077  1.4425 -3.0503
 8726SOL    HW237812   2.420   1.939  16.634  0.6732  3.7031 -0.0024
 8727SOL     OW37813   0.318   1.952   5.597 -0.0359 -0.0844 -0.1681
 8727SOL    HW137814   0.384   1.894   5.634  0.3584 -0.3415 -1.2589
 8727SOL    HW237815   0.257   1.953   5.671 -0.7103  0.5219 -0.7356
 8728SOL     OW37816   2.310   2.200   7.671  0.1516 -0.0717 -0.2678
 8728SOL    HW137817   2.333   2.148   7.594 -2.6686 -0.4310 -0.8614
 8728SOL    HW237818   2.379   2.191   7.736  0.5734  1.4414 -0.4882
 8729SOL     OW37819   3.936   2.975   2.899  0.2410 -0.1728  0.1911
 8729SOL    HW137820   3.988   3.047   2.861  0.7527 -1.0286 -0.7453
 8729SOL    HW237821   3.992   2.906   2.936 -0.6421  0.1525  2.1115
 8730SOL     OW37822   4.507   3.064   4.336  0.1959 -0.0182  0.8745
 8730SOL    HW137823   4.520   3.001   4.407  1.1779  1.3113  1.8694
 8730SOL    HW237824   4.596   3.067   4.302 -0.2608 -0.9213 -0.4251
 8731SOL     OW37825   1.118   0.486   5.131  0.1045 -0.7205  0.3718
 8731SOL    HW137826   1.183   0.554   5.149 -1.3601  1.4418 -2.4449
 8731SOL    HW237827   1.038   0.529   5.161  0.7120  0.1480  0.7469
 8732SOL     OW37828   3.839   2.570  16.670 -0.1242  0.1490  0.1198
 8732SOL    HW137829   3.858   2.549  16.761 -1.3777  0.8438  0.5422
 8732SOL    HW237830   3.744   2.579  16.675 -0.0144  1.1764  0.3029
 8733SOL     OW37831   4.445   2.130   9.882  0.1918  0.4098 -0.7059
 8733SOL    HW137832   4.451   2.052   9.826  0.9728 -0.9307  1.2462
 8733SOL    HW237833   4.535   2.162   9.882  0.6335 -0.7896  0.0272
 8734SOL     OW37834   3.626   2.815   5.991  0.4905  0.5567 -0.6610
 8734SOL    HW137835   3.593   2.820   6.081 -1.3382  0.8286 -1.3395
 8734SOL    HW237836   3.664   2.727   5.984 -2.5083 -0.7821  0.0668
 8735SOL     OW37837   2.185   0.107  11.868 -0.0477  0.6038  0.2674
 8735SOL    HW137838   2.152   0.108  11.778 -0.8340  0.0255  0.5477
 8735SOL    HW237839   2.181   0.198  11.895 -0.6744  0.9797 -1.0572
 8736SOL     OW37840   1.494   2.950   6.262  0.5358  0.2138 -0.0062
 8736SOL    HW137841   1.501   2.925   6.170  0.8314  1.1450 -0.2288
 8736SOL    HW237842   1.398   2.947   6.262  0.4072  3.7101  3.2001
 8737SOL     OW37843   0.812   3.895   8.819 -0.5382  0.3115  0.0237
 8737SOL    HW137844   0.807   3.978   8.866 -2.1107 -0.4357  1.1826
 8737SOL    HW237845   0.832   3.823   8.879  0.9133  0.3178 -0.4464
 8738SOL     OW37846   3.677   2.720   4.614  0.0039  0.6470 -0.1905
 8738SOL    HW137847   3.589   2.757   4.610 -0.4462 -0.1109  2.6844
 8738SOL    HW237848   3.726   2.760   4.543 -0.9162  1.4689 -0.3562
 8739SOL     OW37849   3.969   2.965   5.031  0.1050  0.6038  0.0439
 8739SOL    HW137850   3.877   2.986   5.018 -0.2226  0.6814  2.5393
 8739SOL    HW237851   3.973   2.872   5.052  0.0780  0.7062  0.4924
 8740SOL     OW37852   3.789   3.335   3.788  0.3635 -0.4314 -0.2040
 8740SOL    HW137853   3.740   3.393   3.730 -1.7751  0.7117  2.7925
 8740SOL    HW237854   3.873   3.336   3.741  0.3134  2.0291 -0.2341
 8741SOL     OW37855   1.196   2.258   9.188  0.2466 -0.7497 -0.0552
 8741SOL    HW137856   1.172   2.251   9.280 -0.5944 -1.4241 -0.3204
 8741SOL    HW237857   1.141   2.186   9.157 -0.1621 -0.2741 -0.4246
 8742SOL     OW37858   4.201   1.216  15.119 -0.3502  0.0332  0.1045
 8742SOL    HW137859   4.191   1.121  15.127 -1.3931  0.0539 -0.8761
 8742SOL    HW237860   4.179   1.232  15.028 -0.7409  0.9291  0.3462
 8743SOL     OW37861   3.255   2.990   9.349  0.1295 -0.2653  0.0567
 8743SOL    HW137862   3.350   2.998   9.336  0.0196  2.2136  0.7374
 8743SOL    HW237863   3.244   3.036   9.433  0.2311  1.5731 -0.9310
 8744SOL     OW37864   1.013   4.036  14.023  0.2394 -0.3531 -0.1628
 8744SOL    HW137865   0.983   4.034  13.932 -0.1087 -1.0972 -0.0372
 8744SOL    HW237866   1.011   4.131  14.035  0.3260 -0.4493  0.6288
 8745SOL     OW37867   3.520   4.177   8.524 -0.0361  0.1698 -0.5270
 8745SOL    HW137868   3.540   4.236   8.451 -1.1564  2.9367  1.4264
 8745SOL    HW237869   3.604   4.159   8.566  0.3007 -0.1434 -1.3318
 8746SOL     OW37870   0.929   0.286  11.827 -0.1451  0.2068  0.5503
 8746SOL    HW137871   0.839   0.319  11.828  0.3519  1.5952 -0.9723
 8746SOL    HW237872   0.981   0.365  11.816  0.9009 -0.4308  0.8549
 8747SOL     OW37873   3.470   3.005  15.978 -0.0214  0.0268 -0.2881
 8747SOL    HW137874   3.464   2.951  15.899 -1.0098 -0.4094  0.0747
 8747SOL    HW237875   3.502   3.086  15.939 -0.9233  0.3896 -0.2914
 8748SOL     OW37876   1.635   3.554   4.795 -0.0452  0.1090  0.1991
 8748SOL    HW137877   1.715   3.582   4.750 -0.8226  0.0552 -1.2396
 8748SOL    HW237878   1.630   3.629   4.854 -1.4428 -0.4702  0.8153
 8749SOL     OW37879   0.093   3.657   3.205  0.1836 -0.0274  0.4211
 8749SOL    HW137880   0.021   3.714   3.234 -0.3504 -0.4086 -0.1514
 8749SOL    HW237881   0.045   3.574   3.197 -0.5206  0.4604 -0.4286
 8750SOL     OW37882   2.165   3.993   4.714 -0.0749  0.2537 -0.1242
 8750SOL    HW137883   2.205   3.976   4.799  0.8193 -1.8088 -0.9437
 8750SOL    HW237884   2.237   3.973   4.653 -1.3197 -2.1776 -0.8069
 8751SOL     OW37885   4.159   3.952   2.952 -0.1326 -0.4160  0.0070
 8751SOL    HW137886   4.089   4.016   2.946  1.8326  1.7730  0.2172
 8751SOL    HW237887   4.115   3.869   2.935 -0.5227 -0.7142  2.5503
 8752SOL     OW37888   2.822   2.959  10.708 -0.3626 -0.0155  0.0982
 8752SOL    HW137889   2.763   2.896  10.750 -0.1886 -0.0277  0.3224
 8752SOL    HW237890   2.793   2.943  10.618  0.1231 -1.5201  0.2097
 8753SOL     OW37891   2.190   2.998   3.356  0.5451  0.1064 -0.3697
 8753SOL    HW137892   2.237   3.026   3.435  1.2480 -0.2735 -0.6516
 8753SOL    HW237893   2.182   2.905   3.374  2.9560  0.4228  2.2497
 8754SOL     OW37894   1.385   2.195   2.745  0.3563  0.1067 -0.0420
 8754SOL    HW137895   1.375   2.291   2.742 -1.8054 -0.0898  0.3820
 8754SOL    HW237896   1.322   2.169   2.678 -0.0930 -0.5465  0.6281
 8755SOL     OW37897   4.327   4.654   5.195 -0.8118 -0.6705 -0.4257
 8755SOL    HW137898   4.393   4.715   5.162 -1.4657  0.1697 -0.1713
 8755SOL    HW237899   4.249   4.675   5.145 -1.7359 -2.1477  0.3904
 8756SOL     OW37900   1.388   0.642   2.284  0.1699 -0.2140  0.4523
 8756SOL    HW137901   1.442   0.568   2.311  0.9012  0.8369  1.8957
 8756SOL    HW237902   1.347   0.662   2.368  0.2715  0.3781  0.3583
 8757SOL     OW37903   4.085   3.272   2.709  0.5139  0.3536  0.1012
 8757SOL    HW137904   4.173   3.309   2.718  0.9809 -0.7613  0.2422
 8757SOL    HW237905   4.097   3.185   2.748  0.6483  0.0260 -0.6661
 8758SOL     OW37906   1.538   0.954   5.800  0.9436  0.5955 -0.7624
 8758SOL    HW137907   1.552   0.895   5.727  0.1773  0.4579 -0.8024
 8758SOL    HW237908   1.465   1.002   5.760 -0.3862  0.7239  1.7760
 8759SOL     OW37909   2.543   0.118   0.069  0.3925  0.1450  1.0399
 8759SOL    HW137910   2.599   0.131  17.734  0.8592  2.6779  1.8125
 8759SOL    HW237911   2.582   0.031   0.070  0.8657  0.2267 -4.7166
 8760SOL     OW37912   2.408   0.226   2.974  0.0657  0.1419 -0.4800
 8760SOL    HW137913   2.409   0.317   2.944  0.5764 -0.8752 -3.4803
 8760SOL    HW237914   2.329   0.232   3.028  0.1023 -0.4081 -0.3703
 8761SOL     OW37915   4.475   2.303  12.463  0.0334 -0.0478  0.0697
 8761SOL    HW137916   4.545   2.284  12.401  0.9077 -0.3499  1.1341
 8761SOL    HW237917   4.395   2.302  12.412  0.4943  1.9880 -0.7126
 8762SOL     OW37918   4.259   0.313   0.762 -0.3300 -0.0658  0.1712
 8762SOL    HW137919   4.168   0.326   0.738  0.1431  0.5427 -1.2790
 8762SOL    HW237920   4.286   0.404   0.753  0.2705 -0.3177 -0.5401
 8763SOL     OW37921   3.789   3.675  15.214 -0.1558  0.0471 -0.5016
 8763SOL    HW137922   3.846   3.688  15.138 -0.0712 -1.4701 -0.6858
 8763SOL    HW237923   3.748   3.591  15.194  2.3609 -1.2641 -0.1217
 8764SOL     OW37924   0.967   1.141   2.691  0.3431  0.0728  0.0306
 8764SOL    HW137925   1.057   1.137   2.723  0.6126  1.9563 -0.4500
 8764SOL    HW237926   0.981   1.134   2.597 -0.5784 -0.2326 -0.0788
 8765SOL     OW37927   1.060   0.989  16.301 -0.1054  0.0387  0.1160
 8765SOL    HW137928   1.061   1.052  16.229  0.1006  0.6383  0.6485
 8765SOL    HW237929   1.119   1.024  16.367 -0.5740 -0.0652  0.5944
 8766SOL     OW37930   1.253   1.074   1.823 -0.3527 -0.8134  0.0923
 8766SOL    HW137931   1.168   1.033   1.833 -0.8365  0.6734  2.2564
 8766SOL    HW237932   1.249   1.131   1.747  0.3802  0.6593  1.1393
 8767SOL     OW37933   2.486   1.210  16.448 -0.1678  0.3754 -0.4169
 8767SOL    HW137934   2.393   1.211  16.429 -0.2070 -3.1103 -0.3606
 8767SOL    HW237935   2.503   1.303  16.460 -0.2268  0.2562  0.6262
 8768SOL     OW37936   3.704   1.300   2.175  0.2207 -0.5501 -0.7833
 8768SOL    HW137937   3.614   1.330   2.185  0.3055  0.0241 -1.7038
 8768SOL    HW237938   3.727   1.347   2.095  1.3108  1.4451  0.7143
 8769SOL     OW37939   2.545   3.849   1.165 -0.1322 -0.7282 -0.4775
 8769SOL    HW137940   2.560   3.755   1.152  0.4288 -0.7408  0.2948
 8769SOL    HW237941   2.451   3.845   1.180 -0.0664 -1.5070 -0.2839
 8770SOL     OW37942   2.935   0.511   6.511 -0.4415 -0.4925 -0.0205
 8770SOL    HW137943   3.009   0.450   6.504  1.0830  1.2082  1.1414
 8770SOL    HW237944   2.953   0.546   6.599  0.9301  2.8590 -1.6508
 8771SOL     OW37945   3.515   0.230   6.491  0.0043  0.0208 -0.7208
 8771SOL    HW137946   3.543   0.141   6.511 -0.8489 -0.1291 -0.1774
 8771SOL    HW237947   3.596   0.271   6.462 -0.9090  2.4287  0.1145
 8772SOL     OW37948   1.144   3.475   4.212  0.3053 -0.4990  0.9665
 8772SOL    HW137949   1.193   3.554   4.190 -0.8193 -0.0906 -0.0855
 8772SOL    HW237950   1.163   3.449   4.303  2.8182 -2.9044 -0.2624
 8773SOL     OW37951   3.294   3.988   8.225  0.5732  0.5092  0.2216
 8773SOL    HW137952   3.369   3.986   8.165 -0.0682  1.3044 -0.5981
 8773SOL    HW237953   3.334   3.986   8.312 -1.8226  1.3902  1.3418
 8774SOL     OW37954   4.396   0.091   9.412  0.3953 -0.6125 -0.0510
 8774SOL    HW137955   4.302   0.102   9.430  0.5073  0.0540  0.1309
 8774SOL    HW237956   4.418   0.184   9.401 -0.6838 -0.1981  1.3116
 8775SOL     OW37957   0.596   2.267  17.157 -0.3204  0.3101  0.0737
 8775SOL    HW137958   0.633   2.338  17.105  0.0710 -0.7439 -1.0773
 8775SOL    HW237959   0.558   2.219  17.085  0.6900  2.1301 -1.6730
 8776SOL     OW37960   4.553   0.321   4.364 -0.7386 -0.1993  0.1011
 8776SOL    HW137961   4.545   0.387   4.432 -1.9588  0.2681 -0.4967
 8776SOL    HW237962   4.475   0.331   4.310 -1.3611 -0.1892  0.9937
 8777SOL     OW37963   2.335   0.502  16.795  0.1947 -0.0331  0.4701
 8777SOL    HW137964   2.352   0.557  16.719 -1.4690 -1.3155 -0.8337
 8777SOL    HW237965   2.242   0.478  16.800 -0.1194  1.5301  1.8738
 8778SOL     OW37966   0.316   0.033   5.963 -0.1144  0.0893 -0.3498
 8778SOL    HW137967   0.262   0.038   5.885 -0.1921 -3.6637 -0.5250
 8778SOL    HW237968   0.248   4.722   6.012 -0.9499  1.3240 -0.3057
 8779SOL     OW37969   3.503   4.304   5.822  0.1086 -0.0557 -0.2466
 8779SOL    HW137970   3.433   4.332   5.881 -0.1498  1.5347 -1.3055
 8779SOL    HW237971   3.485   4.210   5.815 -2.4437  0.3546  0.5969
 8780SOL     OW37972   0.422   1.901  15.844  0.0507 -0.0101  0.1381
 8780SOL    HW137973   0.480   1.886  15.769  1.0389  0.7890  0.7440
 8780SOL    HW237974   0.395   1.810  15.856  0.4304  0.1403  2.1124
 8781SOL     OW37975   4.031   1.590   5.947  0.2187  0.0759 -0.3371
 8781SOL    HW137976   3.970   1.537   5.998 -1.1957 -0.8065 -2.9715
 8781SOL    HW237977   4.074   1.524   5.894 -0.2324 -1.0029  0.6461
 8782SOL     OW37978   0.733   2.191   5.081 -0.1559 -0.2952 -0.2518
 8782SOL    HW137979   0.752   2.120   5.144 -3.2870 -0.6959  0.2551
 8782SOL    HW237980   0.675   2.242   5.137 -2.3969 -2.3771 -0.6413
 8783SOL     OW37981   1.476   3.242   3.928 -0.7959  0.1861 -0.2057
 8783SOL    HW137982   1.524   3.320   3.900 -1.2186 -0.0013 -1.4728
 8783SOL    HW237983   1.387   3.270   3.945 -0.6750  0.6524 -0.3373
 8784SOL     OW37984   3.162   4.426   1.915  0.2625  0.0226  0.0359
 8784SOL    HW137985   3.225   4.417   1.988 -0.1793 -0.7754  0.3264
 8784SOL    HW237986   3.155   4.335   1.886  1.8067  0.1628 -0.7972
 8785SOL     OW37987   3.469   2.189  10.943  0.5343  0.3363 -0.6822
 8785SOL    HW137988   3.541   2.211  10.885  1.3349  0.3726  0.3199
 8785SOL    HW237989   3.479   2.094  10.942  0.0796  0.2597  1.5414
 8786SOL     OW37990   3.483   2.465   6.603 -0.3287  0.0019  0.8209
 8786SOL    HW137991   3.441   2.383   6.631 -1.4525  0.8744  1.7423
 8786SOL    HW237992   3.573   2.455   6.633 -0.6027 -0.7873  1.3811
 8787SOL     OW37993   3.896   2.323  14.918 -0.3565 -0.0163  0.2616
 8787SOL    HW137994   3.804   2.311  14.941 -0.9086  1.8002 -0.9943
 8787SOL    HW237995   3.895   2.418  14.909 -1.5281  0.0341  0.9275
 8788SOL     OW37996   2.231   0.553   7.660  0.2347 -0.2173  0.1275
 8788SOL    HW137997   2.185   0.471   7.672 -1.7256  1.1413  1.8896
 8788SOL    HW237998   2.310   0.514   7.624 -0.2585 -0.5010 -0.6509
 8789SOL     OW37999   0.532   1.571   4.522  0.2476 -0.0418  0.6003
 8789SOL    HW138000   0.561   1.645   4.575  1.6087 -1.1693  1.4060
 8789SOL    HW238001   0.599   1.507   4.545 -1.5543 -1.7192  1.1661
 8790SOL     OW38002   4.080   2.512  17.392 -0.0314 -0.2756 -0.2901
 8790SOL    HW138003   4.139   2.436  17.383  0.4863  0.1785 -0.7267
 8790SOL    HW238004   4.093   2.542  17.482 -2.6989 -1.1914  0.3799
 8791SOL     OW38005   4.509   3.995  15.430  0.3266 -0.1312 -0.5783
 8791SOL    HW138006   4.482   3.904  15.439  0.1426 -0.0431 -0.2221
 8791SOL    HW238007   4.452   4.027  15.500 -0.7949  1.5615 -2.2618
 8792SOL     OW38008   2.857   0.537   3.559  0.3694 -0.6752  0.2051
 8792SOL    HW138009   2.851   0.588   3.478  2.0104  0.8904  1.0695
 8792SOL    HW238010   2.782   0.560   3.613  0.0019 -0.6426 -0.3156
 8793SOL     OW38011   2.546   2.405  13.728 -0.0680 -0.0886 -0.0096
 8793SOL    HW138012   2.575   2.314  13.729 -0.4384 -0.2198 -0.9379
 8793SOL    HW238013   2.630   2.444  13.703 -0.7921  1.7740  0.4430
 8794SOL     OW38014   0.365   4.269  11.563  0.3487 -0.4174  0.0591
 8794SOL    HW138015   0.275   4.246  11.585  0.8124  0.5422  2.9214
 8794SOL    HW238016   0.350   4.283  11.469 -1.6906 -2.3870  0.0830
 8795SOL     OW38017   3.871   3.740   9.909  0.2216  0.5394  0.8295
 8795SOL    HW138018   3.924   3.665   9.882 -2.6532 -0.9119 -0.8362
 8795SOL    HW238019   3.943   3.800   9.927  0.8497 -0.3275  1.2123
 8796SOL     OW38020   4.559   0.402   7.522 -0.0131  0.4610  0.2096
 8796SOL    HW138021   4.496   0.409   7.451 -1.9977 -1.7294  1.7398
 8796SOL    HW238022   4.641   0.398   7.473 -0.7664 -0.0842 -0.9994
 8797SOL     OW38023   1.492   0.988   1.923  0.4269  0.1724  0.0836
 8797SOL    HW138024   1.513   1.072   1.964  1.3115 -0.5542  1.0804
 8797SOL    HW238025   1.403   1.000   1.888  0.3595 -1.8657 -0.4157
 8798SOL     OW38026   1.853   2.197   4.040  0.2784  0.1692 -0.4379
 8798SOL    HW138027   1.942   2.200   4.076 -0.4518 -0.4616  1.4318
 8798SOL    HW238028   1.804   2.226   4.117 -1.8622  0.6270 -1.9793
 8799SOL     OW38029   4.490   2.472  14.425  0.7642 -1.0033 -0.0912
 8799SOL    HW138030   4.435   2.523  14.484  2.1991 -0.7127  1.0222
 8799SOL    HW238031   4.570   2.525  14.420 -0.3920  0.8931  1.3212
 8800SOL     OW38032   1.831   2.405  13.933  0.0041  0.6069 -0.2635
 8800SOL    HW138033   1.801   2.431  14.020  2.5857  0.0634  0.7707
 8800SOL    HW238034   1.777   2.460  13.876 -3.9197 -2.7117  0.2227
 8801SOL     OW38035   1.116   1.669   7.286 -0.0080 -0.2376 -0.3170
 8801SOL    HW138036   1.201   1.632   7.310 -1.1765 -0.9440  2.6199
 8801SOL    HW238037   1.084   1.587   7.249 -1.7056  1.0980 -1.8384
 8802SOL     OW38038   1.624   3.951   7.221 -0.0552  0.1151 -0.5021
 8802SOL    HW138039   1.685   3.929   7.151  0.9259 -1.2442  0.7903
 8802SOL    HW238040   1.613   3.869   7.269  1.9215  0.0431 -0.1782
 8803SOL     OW38041   3.861   3.731   6.362 -1.1870 -0.1755 -0.3539
 8803SOL    HW138042   3.934   3.676   6.333 -0.7069  1.4080 -2.1090
 8803SOL    HW238043   3.793   3.725   6.294 -0.6663  3.0466 -1.1397
 8804SOL     OW38044   0.634   4.365   7.539 -0.1104 -0.6686  0.9228
 8804SOL    HW138045   0.605   4.456   7.546  1.3563  0.1136 -3.0228
 8804SOL    HW238046   0.714   4.363   7.592  0.8237  2.4004 -0.3701
 8805SOL     OW38047   4.006   1.898   4.476  0.0583 -0.3194  0.1517
 8805SOL    HW138048   4.048   1.953   4.542  3.2737 -1.8342 -0.6293
 8805SOL    HW238049   3.960   1.972   4.436 -1.0610 -0.2749  1.5220
 8806SOL     OW38050   1.327   2.618   9.030 -0.0050  0.0547  0.3007
 8806SOL    HW138051   1.362   2.702   9.001 -0.9112  0.6963  1.0523
 8806SOL    HW238052   1.371   2.607   9.114 -0.5677 -1.9297  0.3442
 8807SOL     OW38053   0.769   2.096   7.174  0.4785  0.3166 -0.2462
 8807SOL    HW138054   0.841   2.033   7.180  0.1979  0.0881  0.6793
 8807SOL    HW238055   0.745   2.083   7.082 -0.9658  1.9912 -0.1265
 8808SOL     OW38056   2.338   4.139   5.368  0.1542  0.1044  0.2757
 8808SOL    HW138057   2.265   4.145   5.307 -1.1267 -2.7454  1.5032
 8808SOL    HW238058   2.373   4.051   5.351 -0.1853  0.3128 -1.5074
 8809SOL     OW38059   1.594   1.223  17.140 -0.5817 -0.4919  0.4133
 8809SOL    HW138060   1.536   1.170  17.085 -0.5657  0.9536 -1.0223
 8809SOL    HW238061   1.536   1.297  17.157  0.5752  0.3065  0.8613
 8810SOL     OW38062   3.881   1.227   6.645  0.8090  0.4522 -0.0508
 8810SOL    HW138063   3.887   1.229   6.550 -1.5693  0.8845 -0.2108
 8810SOL    HW238064   3.788   1.250   6.653  0.2278 -2.2383  1.0372
 8811SOL     OW38065   3.447   3.874   9.360 -0.0837  0.5120  0.1927
 8811SOL    HW138066   3.465   3.861   9.453  0.9681 -0.6595 -0.1768
 8811SOL    HW238067   3.537   3.879   9.327 -0.9560 -0.3659 -2.3598
 8812SOL     OW38068   3.055   0.052   0.648  0.1682 -0.8236  0.0928
 8812SOL    HW138069   3.043   0.136   0.604 -1.7500 -0.2276  1.7442
 8812SOL    HW238070   3.067   0.003   0.567  0.1036 -1.0418  0.2154
 8813SOL     OW38071   2.244   3.251  14.181 -0.3395  0.9001  0.5785
 8813SOL    HW138072   2.177   3.205  14.129  0.0179 -0.6064  1.4677
 8813SOL    HW238073   2.288   3.314  14.124  0.2094 -0.5184 -0.5656
 8814SOL     OW38074   2.230   3.997   1.845 -0.0801 -0.1257 -0.2315
 8814SOL    HW138075   2.271   3.981   1.759  0.0074 -0.1211 -0.1909
 8814SOL    HW238076   2.291   3.968   1.913  0.4432  0.5076 -0.4340
 8815SOL     OW38077   0.262   1.349   5.145  0.7034  0.5546 -0.3571
 8815SOL    HW138078   0.181   1.307   5.118  1.0840 -0.9908  0.8559
 8815SOL    HW238079   0.282   1.317   5.233  2.0020 -2.1569 -1.6495
 8816SOL     OW38080   1.007   3.118   4.150 -0.2157  0.2371 -0.1085
 8816SOL    HW138081   1.024   3.030   4.115  0.6737  1.0838 -1.7874
 8816SOL    HW238082   0.959   3.090   4.228  2.7476 -0.9708  1.2992
 8817SOL     OW38083   4.175   2.671   9.375  0.3347  0.7276 -0.3801
 8817SOL    HW138084   4.184   2.616   9.297  0.0819 -1.4814  1.1268
 8817SOL    HW238085   4.176   2.761   9.344  3.1864  0.2554 -1.5999
 8818SOL     OW38086   0.891   2.467   4.584 -0.2663  0.4978 -0.3932
 8818SOL    HW138087   0.887   2.563   4.576 -2.2688  0.6178  2.0472
 8818SOL    HW238088   0.908   2.455   4.677  0.5751 -0.1850 -0.6437
 8819SOL     OW38089   4.097   2.274  17.132 -0.4867 -0.0399 -0.0224
 8819SOL    HW138090   4.070   2.223  17.056 -1.1858  0.0398  0.1732
 8819SOL    HW238091   4.018   2.324  17.151 -0.4528  0.0552 -0.1255
 8820SOL     OW38092   1.620   0.143   5.365 -0.2813 -0.2850  0.0868
 8820SOL    HW138093   1.702   0.183   5.337 -1.2440  2.8578  1.7533
 8820SOL    HW238094   1.562   0.217   5.348 -2.6645 -2.3846 -0.9093
 8821SOL     OW38095   0.404   2.582   6.396 -0.3075 -0.3796  0.2525
 8821SOL    HW138096   0.362   2.652   6.446  0.0648  1.3802 -1.9093
 8821SOL    HW238097   0.339   2.540   6.339 -1.8880 -0.3265  2.0184
 8822SOL     OW38098   4.088   4.630   4.529 -0.2782 -0.1210 -0.1520
 8822SOL    HW138099   3.997   4.660   4.534  0.3484  1.8409 -0.1966
 8822SOL    HW238100   4.107   4.646   4.436 -1.0479  1.5560 -0.0212
 8823SOL     OW38101   2.571   3.198  13.797 -0.1434 -0.2312 -0.0564
 8823SOL    HW138102   2.492   3.202  13.850  1.4575  0.4752  2.2596
 8823SOL    HW238103   2.595   3.291  13.799  1.1482 -0.5911  1.0144
 8824SOL     OW38104   1.007   2.762   2.227 -0.0296  0.4354  0.1202
 8824SOL    HW138105   1.080   2.823   2.242 -0.7248  1.4912 -0.7236
 8824SOL    HW238106   0.982   2.799   2.142  1.1109  1.6610  0.3046
 8825SOL     OW38107   2.673   2.257   3.851  0.5838  0.1235  0.0510
 8825SOL    HW138108   2.697   2.174   3.893 -0.3815  0.9110  2.0922
 8825SOL    HW238109   2.580   2.254   3.870  0.1398  0.0214 -2.0932
 8826SOL     OW38110   2.195   3.970  13.781 -0.1837  0.6994 -0.5174
 8826SOL    HW138111   2.271   3.922  13.812 -1.3366 -1.2001 -0.6777
 8826SOL    HW238112   2.139   3.970  13.859  0.1114 -2.6598 -0.3318
 8827SOL     OW38113   2.125   1.892   3.689  0.0678  0.1013  0.2841
 8827SOL    HW138114   2.180   1.815   3.702 -2.3220 -1.4754  0.8583
 8827SOL    HW238115   2.084   1.904   3.774  1.0717  1.1711  0.6199
 8828SOL     OW38116   2.258   1.254   9.367  0.3600  0.7867  0.3538
 8828SOL    HW138117   2.344   1.217   9.384 -0.0295  0.5759  1.9610
 8828SOL    HW238118   2.266   1.347   9.388 -0.7364  0.9885 -0.1039
 8829SOL     OW38119   0.597   1.919   1.052  0.3977  0.0819  0.2049
 8829SOL    HW138120   0.626   2.008   1.029  1.8214 -0.4339  0.0037
 8829SOL    HW238121   0.511   1.923   1.011  0.1758 -1.6371  0.5288
 8830SOL     OW38122   1.482   3.531   6.451 -0.1568 -0.2984 -0.2332
 8830SOL    HW138123   1.557   3.477   6.476  1.0692  1.7332  0.4936
 8830SOL    HW238124   1.426   3.476   6.396 -0.8489 -0.5867  0.7578
 8831SOL     OW38125   0.698   2.863   5.366 -0.2739 -0.1354 -0.6029
 8831SOL    HW138126   0.639   2.910   5.307  0.2519  0.6367 -0.5197
 8831SOL    HW238127   0.779   2.855   5.315 -1.4542 -0.0283 -2.4847
 8832SOL     OW38128   2.582   3.528   1.564 -0.1626  0.1876  0.0907
 8832SOL    HW138129   2.534   3.573   1.633 -0.1069  1.9617 -1.0088
 8832SOL    HW238130   2.600   3.597   1.500  1.0824 -0.4373 -0.2387
 8833SOL     OW38131   0.818   2.716   4.489  0.8652 -0.1340 -0.2847
 8833SOL    HW138132   0.730   2.728   4.451  1.5152  1.7580 -1.2220
 8833SOL    HW238133   0.793   2.747   4.576  0.6467 -2.2417  0.4046
 8834SOL     OW38134   4.697   0.118   4.543 -0.5838 -0.7958  0.4581
 8834SOL    HW138135   4.607   0.094   4.563 -1.0743  1.2399  0.6745
 8834SOL    HW238136   4.687   0.193   4.484  1.0470 -0.1051  1.0511
 8835SOL     OW38137   3.559   2.353   7.691 -0.3892 -0.0323  0.1073
 8835SOL    HW138138   3.464   2.363   7.696 -0.5597 -1.6047  0.1649
 8835SOL    HW238139   3.568   2.296   7.767 -1.5402 -1.9501 -1.1885
 8836SOL     OW38140   4.629   0.173  10.316  0.0530  0.1261  0.1915
 8836SOL    HW138141   4.632   0.104  10.382 -2.8239 -0.5894 -0.4202
 8836SOL    HW238142   4.623   0.114  10.240  0.1364  0.9656 -0.4697
 8837SOL     OW38143   4.590   1.354   9.897 -0.0515 -0.0463  0.0210
 8837SOL    HW138144   4.499   1.325   9.901 -0.0082 -0.3147 -0.8772
 8837SOL    HW238145   4.580   1.406   9.817 -3.2859 -0.1027  0.3808
 8838SOL     OW38146   1.826   2.730   2.438  0.2165 -0.3196  0.2200
 8838SOL    HW138147   1.860   2.807   2.484  1.3059  0.0878 -1.2658
 8838SOL    HW238148   1.875   2.663   2.486  1.7721  1.2638  0.8385
 8839SOL     OW38149   4.062   3.986  17.044  0.0593  0.1395 -0.1454
 8839SOL    HW138150   3.980   4.034  17.032  0.7870  0.9460 -2.0386
 8839SOL    HW238151   4.043   3.901  17.005  1.4187  0.5444 -1.7449
 8840SOL     OW38152   4.457   3.154   8.638 -0.0808  0.2175  0.0943
 8840SOL    HW138153   4.478   3.200   8.719 -0.9190  2.0361 -0.7262
 8840SOL    HW238154   4.543   3.114   8.627  0.1681  0.0243  2.7384
 8841SOL     OW38155   3.021   0.674   2.067  0.4152  0.0213 -0.6418
 8841SOL    HW138156   2.966   0.731   2.121  2.2097  1.9584 -0.8635
 8841SOL    HW238157   3.010   0.717   1.982  3.2301  1.0451 -0.4709
 8842SOL     OW38158   1.360   1.847   6.090  0.0647 -0.2786  1.0911
 8842SOL    HW138159   1.453   1.866   6.078  0.3092 -2.4407 -0.4996
 8842SOL    HW238160   1.324   1.907   6.155  2.0316  1.9083  0.1776
 8843SOL     OW38161   2.342   0.069   6.916 -0.1657 -0.3194  0.2063
 8843SOL    HW138162   2.381   4.725   6.880 -0.8026 -0.2716 -0.5858
 8843SOL    HW238163   2.411   0.130   6.889  0.3935 -0.7585  0.6515
 8844SOL     OW38164   3.052   2.786   8.367 -0.0440  0.4849 -0.0090
 8844SOL    HW138165   3.049   2.733   8.288 -0.3048  2.5443 -1.3998
 8844SOL    HW238166   3.075   2.712   8.423  1.5388 -1.0713 -2.7013
 8845SOL     OW38167   1.560   0.241   0.301 -0.1060  0.2144 -0.2062
 8845SOL    HW138168   1.575   0.325   0.343 -0.5287  0.4182 -0.4700
 8845SOL    HW238169   1.631   0.228   0.238  0.3666 -1.2337  0.6014
 8846SOL     OW38170   3.602   0.655   2.675 -0.1489 -0.0493 -0.1482
 8846SOL    HW138171   3.697   0.653   2.691 -0.3728  1.5974  1.3421
 8846SOL    HW238172   3.596   0.601   2.596  0.6871 -1.8489  1.0049
 8847SOL     OW38173   1.660   0.343   1.725 -0.3564 -0.0902 -0.1000
 8847SOL    HW138174   1.648   0.311   1.635  0.9084 -0.0776 -0.2727
 8847SOL    HW238175   1.573   0.374   1.750 -0.8488 -0.4897 -1.3312
 8848SOL     OW38176   0.009   1.167   4.922 -0.1342  0.2852 -0.1943
 8848SOL    HW138177   4.673   1.106   4.906  0.4469 -0.8983  1.6377
 8848SOL    HW238178   4.697   1.245   4.951 -1.7175 -1.2021  1.2019
 8849SOL     OW38179   3.340   3.698   2.435 -0.2958 -0.3197  0.6215
 8849SOL    HW138180   3.419   3.644   2.439 -0.9252 -1.4613 -2.6701
 8849SOL    HW238181   3.284   3.644   2.492  0.8465 -0.4494  1.6375
 8850SOL     OW38182   0.124   0.779   8.830 -0.2255 -0.2353 -0.4342
 8850SOL    HW138183   0.111   0.874   8.832  1.2968 -0.0475  1.0765
 8850SOL    HW238184   0.076   0.751   8.908  1.1977  0.9835  0.8986
 8851SOL     OW38185   4.145   3.262   6.303  0.1973  0.1718  0.0317
 8851SOL    HW138186   4.075   3.198   6.306  0.6040 -0.1706  2.4168
 8851SOL    HW238187   4.106   3.314   6.374 -1.9398  1.0347 -1.7816
 8852SOL     OW38188   1.200   1.928  12.249  0.8308  0.1747  0.0897
 8852SOL    HW138189   1.292   1.934  12.222  0.6096  1.0377 -0.4973
 8852SOL    HW238190   1.146   1.923  12.170 -0.1646 -0.9806  0.8453
 8853SOL     OW38191   4.288   0.034   2.617  0.4058  0.5119  0.5545
 8853SOL    HW138192   4.229   0.109   2.611 -1.2143 -0.7550  0.4054
 8853SOL    HW238193   4.217   4.714   2.650  0.4906 -0.0426 -0.1978
 8854SOL     OW38194   0.237   0.375   8.085 -0.2875 -0.0559 -0.4514
 8854SOL    HW138195   0.189   0.351   8.164  1.2093 -1.0821  0.1618
 8854SOL    HW238196   0.165   0.351   8.027 -0.8525  3.3241 -1.1350
 8855SOL     OW38197   3.790   1.805   9.066  0.0684  0.1363  0.3820
 8855SOL    HW138198   3.815   1.896   9.050 -0.5183  0.4015  1.0033
 8855SOL    HW238199   3.826   1.758   8.991  0.4032  0.1498  0.5323
 8856SOL     OW38200   4.220   0.293   2.438 -0.0371 -0.4350 -0.4276
 8856SOL    HW138201   4.136   0.314   2.478  0.6981  0.8799  0.4240
 8856SOL    HW238202   4.264   0.378   2.438  1.0863 -1.0106  0.0291
 8857SOL     OW38203   4.218   3.204  12.920 -0.3642 -0.1595 -0.8563
 8857SOL    HW138204   4.303   3.171  12.891  1.9712  2.6723  2.6839
 8857SOL    HW238205   4.214   3.285  12.869  0.5136 -0.3166 -1.1843
 8858SOL     OW38206   4.228   2.424   5.382  0.5913  0.2695 -0.0572
 8858SOL    HW138207   4.184   2.460   5.305  0.0401 -1.3238 -0.4785
 8858SOL    HW238208   4.161   2.426   5.450  1.2311 -2.3112  0.6463
 8859SOL     OW38209   2.493   4.382   0.617 -0.1600 -0.0561  0.3893
 8859SOL    HW138210   2.500   4.436   0.538  0.6245  0.7378  0.9902
 8859SOL    HW238211   2.571   4.328   0.608 -1.3384 -1.5719 -0.5465
 8860SOL     OW38212   0.464   2.821   5.769  0.3744  0.6449  0.8017
 8860SOL    HW138213   0.505   2.770   5.699 -0.2732  0.6680  0.4012
 8860SOL    HW238214   0.391   2.767   5.800 -0.7290  1.3142 -0.6354
 8861SOL     OW38215   0.248   0.618   2.612  0.7745  0.0837  0.2233
 8861SOL    HW138216   0.186   0.548   2.593  0.5764 -0.0708  1.4563
 8861SOL    HW238217   0.189   0.677   2.658  0.8091  1.5223 -1.5756
 8862SOL     OW38218   4.078   1.720   2.109  0.2657  0.0621  0.3916
 8862SOL    HW138219   4.154   1.776   2.129  0.8427 -0.4480 -0.3684
 8862SOL    HW238220   4.101   1.674   2.029  2.0533  1.6777 -0.0375
 8863SOL     OW38221   3.600   3.746   8.644  0.2989 -0.1587 -0.0972
 8863SOL    HW138222   3.649   3.664   8.648  1.3015  0.5195  1.6183
 8863SOL    HW238223   3.651   3.802   8.703 -1.0627 -0.2654  1.2020
 8864SOL     OW38224   1.564   0.898   0.997 -0.6466  0.2708  0.3064
 8864SOL    HW138225   1.610   0.816   1.016 -0.1614  0.5626  0.3816
 8864SOL    HW238226   1.586   0.941   1.080  0.8336  0.5644 -0.2351
 8865SOL     OW38227   3.906   0.940   1.669 -0.1930  0.1778  0.4441
 8865SOL    HW138228   3.963   0.921   1.744  0.2139  1.9201  0.5744
 8865SOL    HW238229   3.844   0.867   1.665 -0.3524  0.3888 -0.8124
 8866SOL     OW38230   1.639   3.329   6.548 -0.2294 -0.4849  0.2328
 8866SOL    HW138231   1.703   3.304   6.481  0.2919  0.9470  0.1788
 8866SOL    HW238232   1.623   3.243   6.585  0.3031 -1.1717 -1.1507
 8867SOL     OW38233   0.975   0.520   6.048 -0.1961 -0.2534  0.9301
 8867SOL    HW138234   1.025   0.556   6.121 -0.4399  2.2841 -0.1497
 8867SOL    HW238235   1.035   0.476   5.988 -2.4024 -1.4013 -0.4374
 8868SOL     OW38236   2.899   1.301   3.431 -0.0078  0.4894 -0.0182
 8868SOL    HW138237   2.979   1.353   3.446 -0.4384  1.2488 -0.3508
 8868SOL    HW238238   2.838   1.357   3.383  0.5235  0.4830 -0.7168
 8869SOL     OW38239   2.722   3.628   1.969  0.1969 -0.0685 -0.4310
 8869SOL    HW138240   2.697   3.605   2.059  2.8676 -1.2534  0.0089
 8869SOL    HW238241   2.794   3.565   1.968  1.1403  0.9896  1.8643
 8870SOL     OW38242   0.786   2.952   8.373 -0.2521  0.2460 -0.5078
 8870SOL    HW138243   0.879   2.965   8.352  0.1322  0.9265  1.6522
 8870SOL    HW238244   0.806   2.928   8.463 -0.6258 -0.7548 -0.6943
 8871SOL     OW38245   1.718   4.125  17.339 -0.3451 -0.0833  0.0936
 8871SOL    HW138246   1.680   4.037  17.343  2.3748 -1.3084 -0.8670
 8871SOL    HW238247   1.644   4.176  17.370 -1.5517 -0.5103 -2.0722
 8872SOL     OW38248   1.459   0.208  16.798 -0.0547  0.3615 -0.0955
 8872SOL    HW138249   1.426   0.267  16.732  1.1299  1.0558 -0.0711
 8872SOL    HW238250   1.531   0.259  16.836 -2.3421  1.0716  3.3135
 8873SOL     OW38251   1.199   2.180   8.319  0.3315 -0.2785  0.5794
 8873SOL    HW138252   1.128   2.147   8.264  2.7161 -3.3915 -0.5927
 8873SOL    HW238253   1.260   2.110   8.342  1.4863 -0.2917 -2.6394
 8874SOL     OW38254   2.339   1.329  10.259  0.3888  0.1189  0.0593
 8874SOL    HW138255   2.315   1.391  10.190 -0.0357 -0.8356 -0.6397
 8874SOL    HW238256   2.255   1.313  10.301  1.3585  2.0374  2.7846
 8875SOL     OW38257   0.916   1.234   6.600  0.4134  0.0302 -0.4249
 8875SOL    HW138258   0.853   1.218   6.529 -0.4240 -0.4298  0.4104
 8875SOL    HW238259   0.923   1.146   6.637 -0.5062  0.7348  1.4224
 8876SOL     OW38260   4.401   2.472   9.350  0.4612 -0.0808  0.2650
 8876SOL    HW138261   4.360   2.491   9.266  1.4389 -0.2741 -0.2628
 8876SOL    HW238262   4.331   2.492   9.412  2.5703 -0.8522  2.9198
 8877SOL     OW38263   1.206   4.625   6.051 -0.0833  0.0444 -0.5057
 8877SOL    HW138264   1.220   4.583   6.136 -0.5315 -0.4843 -0.6916
 8877SOL    HW238265   1.283   4.681   6.057 -0.4963  0.5983 -0.3415
 8878SOL     OW38266   3.377   3.557   2.102  0.3059  0.5361  0.2227
 8878SOL    HW138267   3.414   3.639   2.069  3.2446 -0.5964  0.6636
 8878SOL    HW238268   3.421   3.541   2.186 -1.2018 -0.4294  0.8288
 8879SOL     OW38269   1.816   3.881   3.689  0.2123  0.3810 -0.2273
 8879SOL    HW138270   1.723   3.899   3.671  0.6568  1.3467 -1.5077
 8879SOL    HW238271   1.801   3.787   3.675 -0.3363  0.5796 -0.9720
 8880SOL     OW38272   3.487   2.376   6.010  0.4149 -0.1255 -0.2380
 8880SOL    HW138273   3.537   2.390   5.929  1.2499 -0.8109  0.1551
 8880SOL    HW238274   3.460   2.463   6.038  0.7653 -0.4701  1.2045
 8881SOL     OW38275   2.054   1.861  13.356 -0.3514 -0.2216  0.2788
 8881SOL    HW138276   1.979   1.881  13.300 -0.5012  1.4890  1.0933
 8881SOL    HW238277   2.018   1.791  13.412  0.4168 -0.9051 -0.0749
 8882SOL     OW38278   3.353   0.540   5.628 -0.5057  0.3230 -0.1029
 8882SOL    HW138279   3.295   0.476   5.587  0.4188 -0.3407 -0.3876
 8882SOL    HW238280   3.435   0.492   5.612  0.7532  1.6271  2.5081
 8883SOL     OW38281   0.693   3.874   3.195  0.1383 -0.0555 -0.3674
 8883SOL    HW138282   0.640   3.853   3.118  0.4490  0.9985 -0.8760
 8883SOL    HW238283   0.778   3.850   3.158  0.1086  0.6125 -0.8750
 8884SOL     OW38284   2.634   4.636  14.165 -0.3875 -0.4365  0.0946
 8884SOL    HW138285   2.705   4.635  14.229  2.3016 -1.9929 -2.9367
 8884SOL    HW238286   2.680   4.612  14.084  1.6698  0.3167  1.0691
 8885SOL     OW38287   3.858   1.957   8.570 -0.5895 -0.3343  0.3819
 8885SOL    HW138288   3.884   1.867   8.587 -0.5387 -0.6529 -1.3687
 8885SOL    HW238289   3.944   1.993   8.549  0.1491 -2.9633 -1.0986
 8886SOL     OW38290   3.208   2.756   5.926 -0.0108 -0.3482  0.8986
 8886SOL    HW138291   3.221   2.804   5.845 -1.4294 -2.8324 -0.8012
 8886SOL    HW238292   3.120   2.719   5.920  0.9245 -2.3700 -0.4940
 8887SOL     OW38293   0.529   1.449   5.630  0.2798  0.2601 -0.0314
 8887SOL    HW138294   0.443   1.412   5.651  0.7122 -1.2828 -0.9775
 8887SOL    HW238295   0.570   1.477   5.712  1.5978  0.1764 -0.6633
 8888SOL     OW38296   3.851   4.715   3.404 -0.4318 -0.0109 -0.1122
 8888SOL    HW138297   3.859   0.024   3.320 -1.4151  1.5428  0.6230
 8888SOL    HW238298   3.880   0.040   3.472  0.1956 -0.1126 -0.2871
 8889SOL     OW38299   2.119   1.280   2.208  0.7036 -0.5132 -0.3545
 8889SOL    HW138300   2.071   1.239   2.280 -1.6603 -0.9225 -2.1560
 8889SOL    HW238301   2.064   1.284   2.130 -1.5308  1.8604  1.3170
 8890SOL     OW38302   4.296   0.054   4.096  0.8100  0.2043  0.0116
 8890SOL    HW138303   4.302   4.702   4.134  1.2932  0.0520 -0.4091
 8890SOL    HW238304   4.206   0.083   4.111 -0.4167 -2.3455 -2.3514
 8891SOL     OW38305   0.792   1.567   2.003  0.3713 -0.1611 -0.3911
 8891SOL    HW138306   0.746   1.526   2.077 -1.1564  1.7156 -0.3111
 8891SOL    HW238307   0.766   1.659   1.999  0.6919  0.0078  1.2372
 8892SOL     OW38308   3.047   2.735  14.834 -0.3696 -0.1831  0.3630
 8892SOL    HW138309   3.100   2.695  14.765 -0.9212  1.1279 -0.8093
 8892SOL    HW238310   2.998   2.801  14.784 -1.2830 -0.5157  0.8050
 8893SOL     OW38311   2.966   2.395   7.704 -0.6735 -0.1963 -0.0764
 8893SOL    HW138312   2.924   2.340   7.771 -1.1797  0.7091  0.3495
 8893SOL    HW238313   2.997   2.328   7.643 -1.2649 -0.5228 -0.0197
 8894SOL     OW38314   0.627   2.619   1.488 -0.6153  0.2268  0.2562
 8894SOL    HW138315   0.602   2.627   1.396  0.8730 -0.7086 -0.2340
 8894SOL    HW238316   0.717   2.590   1.479 -1.0536 -0.3372 -2.2033
 8895SOL     OW38317   1.810   0.321   8.106  0.0724  0.1259  0.3409
 8895SOL    HW138318   1.782   0.313   8.015  0.2788  0.9203  0.2152
 8895SOL    HW238319   1.835   0.413   8.107  1.6585 -0.3003  0.2295
 8896SOL     OW38320   3.989   0.164   4.573 -0.0286 -0.2063  0.0307
 8896SOL    HW138321   3.976   0.254   4.602 -0.2013  0.3025 -1.6249
 8896SOL    HW238322   4.078   0.169   4.537 -0.2804  2.7083 -0.1266
 8897SOL     OW38323   1.723   0.274  16.924  0.1336 -0.0924  0.1805
 8897SOL    HW138324   1.729   0.186  16.887  1.8851  0.4233 -0.7956
 8897SOL    HW238325   1.736   0.247  17.014  0.0124  2.3120  0.9179
 8898SOL     OW38326   0.368   3.651  12.089  0.1759  0.2029  0.3741
 8898SOL    HW138327   0.286   3.625  12.047  0.9690 -0.8125 -0.5410
 8898SOL    HW238328   0.367   3.742  12.061  0.6817  0.9478  2.7584
 8899SOL     OW38329   2.695   2.346   6.044 -0.8441  0.0293 -0.1416
 8899SOL    HW138330   2.788   2.368   6.053 -0.7026  0.6532 -3.0190
 8899SOL    HW238331   2.662   2.320   6.130  0.6253  1.6364  0.9101
 8900SOL     OW38332   2.961   2.842   7.639 -0.1308  0.1970 -0.1261
 8900SOL    HW138333   2.901   2.907   7.675  0.2770 -0.2131  1.2667
 8900SOL    HW238334   2.952   2.859   7.545 -2.1121  2.1148  0.4292
 8901SOL     OW38335   3.046   3.871   6.188  0.1435 -0.0038  0.1851
 8901SOL    HW138336   3.010   3.888   6.101  0.3491 -0.3525  0.0310
 8901SOL    HW238337   3.073   3.958   6.217  0.6283  0.0476 -0.4138
 8902SOL     OW38338   1.330   4.650  10.172  0.1668 -0.5100 -0.2400
 8902SOL    HW138339   1.254   4.640  10.114 -0.6517  0.8660  0.5896
 8902SOL    HW238340   1.394   4.597  10.124  0.3016 -1.9406  1.5109
 8903SOL     OW38341   2.057   3.351   3.460 -0.1850  1.0212  0.1337
 8903SOL    HW138342   2.055   3.358   3.364 -0.3834  0.7600  0.1170
 8903SOL    HW238343   2.131   3.294   3.480 -0.0826  0.7705 -0.9551
 8904SOL     OW38344   2.384   1.594  10.466  0.1797 -0.5713  0.4627
 8904SOL    HW138345   2.303   1.588  10.415  0.2692  1.3790  0.1294
 8904SOL    HW238346   2.357   1.566  10.553  1.1962 -3.0324  0.0131
 8905SOL     OW38347   2.984   4.636   6.999  0.1572  0.0754 -0.7326
 8905SOL    HW138348   2.956   4.718   7.039  0.8542  0.3651 -0.8326
 8905SOL    HW238349   3.073   4.616   7.029 -0.7941  0.0211  2.0719
 8906SOL     OW38350   0.762   3.737   6.353 -0.5766 -0.0006  0.1140
 8906SOL    HW138351   0.752   3.658   6.407 -1.2428  1.3795  2.0113
 8906SOL    HW238352   0.829   3.785   6.402 -1.7981  2.0519 -0.2853
 8907SOL     OW38353   3.751   3.639   7.204  0.1170 -0.0309  0.1938
 8907SOL    HW138354   3.836   3.606   7.175 -0.0722  1.0692 -1.6416
 8907SOL    HW238355   3.757   3.733   7.189 -1.6176 -0.1824 -1.5453
 8908SOL     OW38356   3.483   2.571   8.742 -0.6524  0.0075 -0.2634
 8908SOL    HW138357   3.496   2.607   8.655  4.1983 -0.7112  0.1624
 8908SOL    HW238358   3.561   2.606   8.785 -1.4488  0.1992  1.0358
 8909SOL     OW38359   3.773   2.507   7.630 -0.1972  0.0288  0.1028
 8909SOL    HW138360   3.702   2.447   7.604  0.2346  0.6340 -2.5347
 8909SOL    HW238361   3.746   2.534   7.718  2.1387 -0.8828  1.0775
 8910SOL     OW38362   3.846   1.269  16.638  0.2585  0.4345  0.1042
 8910SOL    HW138363   3.875   1.346  16.590 -1.2123  1.2133  0.4685
 8910SOL    HW238364   3.753   1.279  16.619 -0.6019  1.2632  4.6940
 8911SOL     OW38365   4.007   2.615   3.935  0.0045  0.1348 -0.4029
 8911SOL    HW138366   4.047   2.544   3.986  1.2065  2.9814  2.5981
 8911SOL    HW238367   4.010   2.685   3.999 -0.6592 -0.4126  0.2149
 8912SOL     OW38368   4.481   2.871   4.550  0.7723 -0.2244  0.1129
 8912SOL    HW138369   4.496   2.954   4.595  1.4570  0.2633 -1.0004
 8912SOL    HW238370   4.502   2.810   4.621 -0.6548 -1.5598 -0.6330
 8913SOL     OW38371   0.155   2.895   7.202  0.0369  0.0601 -0.1097
 8913SOL    HW138372   0.195   2.964   7.255 -1.2174  0.3933  0.4066
 8913SOL    HW238373   0.157   2.930   7.113  0.1865  3.1651  1.1229
 8914SOL     OW38374   1.788   4.270   5.052  0.5391 -0.3039 -0.5671
 8914SOL    HW138375   1.812   4.179   5.033 -1.1058 -0.6967 -0.7039
 8914SOL    HW238376   1.743   4.262   5.136  1.6047 -1.2712 -0.0751
 8915SOL     OW38377   0.339   0.919   6.005 -0.7322 -0.1281  0.1520
 8915SOL    HW138378   0.326   0.902   6.099  1.5387  1.4051  0.7446
 8915SOL    HW238379   0.290   0.849   5.961 -0.8438  0.3578 -0.4909
 8916SOL     OW38380   3.678   2.865   2.832 -0.4579  1.2011  0.1644
 8916SOL    HW138381   3.671   2.881   2.926 -1.5958 -0.3682  0.3349
 8916SOL    HW238382   3.774   2.863   2.825 -0.6820 -0.0340 -2.4987
 8917SOL     OW38383   2.391   4.583   6.533 -0.0471  0.1457 -0.6931
 8917SOL    HW138384   2.359   4.529   6.606 -2.6328  1.0185 -1.1714
 8917SOL    HW238385   2.315   4.642   6.529 -0.3694 -0.3334 -1.9469
 8918SOL     OW38386   3.575   0.704  14.683 -0.7036 -0.0999 -0.8077
 8918SOL    HW138387   3.587   0.798  14.667 -0.5441  0.1929  1.0338
 8918SOL    HW238388   3.483   0.705  14.708  0.3218  1.6815  2.9345
 8919SOL     OW38389   1.646   3.246   6.859 -0.0000 -0.1018  0.0263
 8919SOL    HW138390   1.697   3.202   6.792  1.0320  2.2711 -0.7473
 8919SOL    HW238391   1.567   3.191   6.865  0.1116 -0.1582  0.9878
 8920SOL     OW38392   4.556   1.617  15.446  0.0184  0.0979  0.0507
 8920SOL    HW138393   4.588   1.691  15.394 -0.9274  0.6478  0.2621
 8920SOL    HW238394   4.641   1.580  15.471 -1.8570 -4.3436 -0.0882
 8921SOL     OW38395   0.990   1.128   7.468  0.1990  0.3570  0.3590
 8921SOL    HW138396   1.066   1.185   7.463 -0.0143  0.5811 -0.3590
 8921SOL    HW238397   1.037   1.046   7.452 -2.2120 -0.4495 -2.6281
 8922SOL     OW38398   2.151   3.801  15.079  0.0190  0.5299 -0.2839
 8922SOL    HW138399   2.135   3.858  15.004 -3.1664  0.6445  0.4984
 8922SOL    HW238400   2.208   3.735  15.039  2.3677  1.2632  1.8145
 8923SOL     OW38401   4.414   1.603   5.924 -0.4419 -0.0434  0.3132
 8923SOL    HW138402   4.464   1.556   5.990  1.4979  1.5113 -0.0675
 8923SOL    HW238403   4.334   1.551   5.918 -1.1459  1.0774 -0.1146
 8924SOL     OW38404   3.628   2.651   5.594  0.0734 -0.1365  0.0710
 8924SOL    HW138405   3.639   2.564   5.633 -0.5858 -0.2455  0.0029
 8924SOL    HW238406   3.666   2.622   5.512 -1.1879 -0.8703 -0.2449
 8925SOL     OW38407   4.286   3.594   0.704  0.1735 -0.3424  0.0303
 8925SOL    HW138408   4.243   3.673   0.671  2.4254  2.1851  3.0301
 8925SOL    HW238409   4.294   3.602   0.799  3.2837 -0.0107 -0.2495
 8926SOL     OW38410   1.367   0.591   4.853 -0.0845 -0.3194  0.3477
 8926SOL    HW138411   1.276   0.616   4.838 -0.3047 -1.3920 -0.0861
 8926SOL    HW238412   1.346   0.499   4.872 -0.4462 -0.7301 -2.0918
 8927SOL     OW38413   4.652   4.551   1.599 -0.5143 -0.2409  0.2398
 8927SOL    HW138414   0.000   4.516   1.569 -1.0636  0.0103 -1.5800
 8927SOL    HW238415   4.681   4.618   1.661  0.2299 -0.5793  0.2631
 8928SOL     OW38416   0.685   0.702   8.429 -0.5590  0.2621  0.3012
 8928SOL    HW138417   0.639   0.627   8.391  0.6603 -0.9380  1.1944
 8928SOL    HW238418   0.722   0.741   8.351 -1.6332  1.9927  0.6597
 8929SOL     OW38419   1.996   4.165   7.698  0.2656 -0.1026  0.1929
 8929SOL    HW138420   1.966   4.169   7.788  2.1995  0.0335  0.8362
 8929SOL    HW238421   1.933   4.105   7.659 -0.9402  2.3960 -1.6984
 8930SOL     OW38422   0.233   1.796   3.931 -0.2533 -0.0961  0.0188
 8930SOL    HW138423   0.178   1.726   3.895  0.0588 -0.3188 -0.0231
 8930SOL    HW238424   0.296   1.747   3.984 -1.3006  0.0681  1.4257
 8931SOL     OW38425   2.610   0.219   8.107  0.4618 -0.9582  0.6579
 8931SOL    HW138426   2.656   0.302   8.098  1.5938 -1.6001  0.6016
 8931SOL    HW238427   2.635   0.166   8.032 -1.8083  0.1784 -0.9127
 8932SOL     OW38428   2.503   3.873   9.417  0.3735 -0.1200  0.6664
 8932SOL    HW138429   2.563   3.912   9.353 -2.0577  2.3058 -0.1629
 8932SOL    HW238430   2.552   3.793   9.439 -0.2805 -1.1119 -1.5145
 8933SOL     OW38431   3.408   2.580  17.660 -0.2984 -0.4085 -0.1827
 8933SOL    HW138432   3.474   2.594  17.728  0.1756 -2.7657 -0.1609
 8933SOL    HW238433   3.435   2.497  17.623  0.2361 -1.3975  2.3955
 8934SOL     OW38434   4.561   0.973   6.288  0.0334  0.0732  0.3181
 8934SOL    HW138435   4.585   1.015   6.370 -2.0932  1.4834  0.2226
 8934SOL    HW238436   4.588   0.882   6.298 -1.8436 -0.3713  1.2776
 8935SOL     OW38437   2.955   3.476   4.881  0.0290  0.1288  0.1791
 8935SOL    HW138438   2.935   3.407   4.817 -0.1051 -1.6691  2.1717
 8935SOL    HW238439   3.018   3.531   4.834  0.1138  0.3848  0.6013
 8936SOL     OW38440   2.956   1.278  16.158  1.2257  0.4613  0.0661
 8936SOL    HW138441   3.021   1.230  16.210  2.6495 -0.2554 -2.3763
 8936SOL    HW238442   2.893   1.283  16.230 -0.6389 -1.5511 -1.4397
 8937SOL     OW38443   0.734   3.388   6.205 -0.3922 -0.1077 -0.1555
 8937SOL    HW138444   0.791   3.466   6.207 -1.4110  0.5593  2.6772
 8937SOL    HW238445   0.670   3.408   6.138 -1.9019  0.1284  1.3657
 8938SOL     OW38446   2.734   1.954   7.939 -0.0582  0.0011  0.4510
 8938SOL    HW138447   2.677   1.877   7.942 -0.7201  0.5204  1.3617
 8938SOL    HW238448   2.725   1.974   8.032  0.3798 -4.0335  1.3678
 8939SOL     OW38449   0.907   2.592   0.338 -0.5485 -0.1278 -0.2071
 8939SOL    HW138450   0.930   2.534   0.411  0.4973  3.5499  2.3681
 8939SOL    HW238451   0.899   2.526   0.269 -1.2906 -0.6223  0.3428
 8940SOL     OW38452   1.642   2.731   7.508  0.6834 -0.2132 -0.0041
 8940SOL    HW138453   1.683   2.683   7.580  0.5810  1.0414  0.9002
 8940SOL    HW238454   1.552   2.727   7.543  1.1309 -2.3560  0.9024
 8941SOL     OW38455   2.812   3.387   9.430 -0.2410 -0.3077  0.2927
 8941SOL    HW138456   2.892   3.359   9.473  0.7287 -0.7228 -1.8021
 8941SOL    HW238457   2.853   3.406   9.346 -0.3737 -0.8112  0.1169
 8942SOL     OW38458   1.417   2.593  10.859  0.1197 -0.4606  0.3948
 8942SOL    HW138459   1.351   2.589  10.928 -0.8469 -3.2450 -0.6979
 8942SOL    HW238460   1.492   2.554  10.904  0.2437 -0.0561  0.5367
 8943SOL     OW38461   2.167   3.124  11.760 -0.0451 -0.2898 -0.7769
 8943SOL    HW138462   2.202   3.052  11.813 -0.3531 -1.3262 -1.9958
 8943SOL    HW238463   2.233   3.125  11.690  0.5577  1.7347 -0.1982
 8944SOL     OW38464   3.864   1.804   3.079  0.0979 -0.7088 -0.0882
 8944SOL    HW138465   3.950   1.771   3.051  0.7020  2.5301 -2.0888
 8944SOL    HW238466   3.794   1.760   3.030  0.3143  0.5597 -1.5423
 8945SOL     OW38467   2.469   1.315  10.935 -0.0933 -0.2817  0.1800
 8945SOL    HW138468   2.522   1.286  11.009  0.2035  1.0314  0.4752
 8945SOL    HW238469   2.506   1.269  10.860  1.3148 -0.9145  1.2663
 8946SOL     OW38470   1.531   2.421   2.454 -0.0369  0.2173 -0.5163
 8946SOL    HW138471   1.463   2.443   2.518  1.7119  1.5500  0.9140
 8946SOL    HW238472   1.557   2.510   2.431  0.4655  0.4209  0.8131
 8947SOL     OW38473   4.280   2.179   9.475  0.5838 -0.0624 -0.7612
 8947SOL    HW138474   4.291   2.113   9.408  0.3830  0.7786 -1.6156
 8947SOL    HW238475   4.300   2.261   9.430 -0.8209  0.4919 -0.3484
 8948SOL     OW38476   0.090   2.398   2.608  0.6847 -0.2005 -0.0462
 8948SOL    HW138477   0.081   2.484   2.565 -2.1520 -1.2138 -1.4554
 8948SOL    HW238478   4.733   2.384   2.624  0.1377 -0.2107 -3.1446
 8949SOL     OW38479   0.730   4.000   5.029  0.7546 -0.3643 -0.1523
 8949SOL    HW138480   0.761   4.029   5.114  2.6062 -2.0257 -0.2563
 8949SOL    HW238481   0.785   3.921   5.032 -1.6909 -2.0661 -0.1035
 8950SOL     OW38482   4.309   0.928  13.678 -0.5053 -0.2896  0.4867
 8950SOL    HW138483   4.350   0.915  13.764  1.0863  0.7029 -0.1190
 8950SOL    HW238484   4.264   1.011  13.695 -1.6293 -1.2951  2.4043
 8951SOL     OW38485   1.811   4.559   5.009  0.4499  0.2169 -0.0128
 8951SOL    HW138486   1.774   4.583   5.093  1.8188  0.3273  0.5680
 8951SOL    HW238487   1.801   4.465   5.023 -0.9345  0.4998  0.8758
 8952SOL     OW38488   0.685   1.706   9.583 -0.7262 -0.4008 -0.0660
 8952SOL    HW138489   0.662   1.677   9.671  0.3340  1.0689  0.6877
 8952SOL    HW238490   0.694   1.620   9.541 -1.3570  0.4780 -2.0402
 8953SOL     OW38491   2.488   4.541   0.378 -0.8569  0.1635  0.5509
 8953SOL    HW138492   2.543   4.618   0.366  0.4165 -0.7254  0.7426
 8953SOL    HW238493   2.491   4.493   0.296  2.0329 -2.2683  2.0781
 8954SOL     OW38494   4.276   1.803  11.256  0.1178 -0.3170 -0.7401
 8954SOL    HW138495   4.262   1.788  11.350  3.0697  1.6459  0.0151
 8954SOL    HW238496   4.186   1.799  11.223  0.5617 -0.8601 -1.8809
 8955SOL     OW38497   3.401   1.340  15.023 -0.0042 -0.2259 -0.3611
 8955SOL    HW138498   3.440   1.391  14.951  2.4714 -1.0833  0.3804
 8955SOL    HW238499   3.319   1.390  15.030 -0.6700 -1.2700 -0.6221
 8956SOL     OW38500   4.526   2.495  16.175  0.6703 -0.2874  0.0816
 8956SOL    HW138501   4.516   2.515  16.269  2.1343  1.0139 -0.0336
 8956SOL    HW238502   4.621   2.501  16.170  0.7307 -0.5104  0.8780
 8957SOL     OW38503   1.117   1.361   6.341  0.3391  0.0619 -0.1912
 8957SOL    HW138504   1.021   1.353   6.343  0.3869 -1.0426 -2.4355
 8957SOL    HW238505   1.137   1.412   6.263 -1.2036 -1.0229 -1.3050
 8958SOL     OW38506   3.831   0.202   8.981  0.2457 -0.3659 -0.2211
 8958SOL    HW138507   3.739   0.225   8.972  0.3147  1.4246  3.6376
 8958SOL    HW238508   3.817   0.112   9.010  0.4680 -0.2902  0.1256
 8959SOL     OW38509   3.343   3.323   1.863  0.0002  0.6525 -0.2770
 8959SOL    HW138510   3.328   3.370   1.782  0.1560 -0.7745 -1.1301
 8959SOL    HW238511   3.298   3.374   1.931  0.7182  0.7266  0.1453
 8960SOL     OW38512   3.588   2.116   3.109 -0.4094 -0.2417  0.6156
 8960SOL    HW138513   3.598   2.182   3.178  3.3121 -0.0216 -0.1155
 8960SOL    HW238514   3.493   2.114   3.095 -0.0946  0.7043 -1.5455
 8961SOL     OW38515   2.867   0.153   0.099  0.2645  0.1319  0.0204
 8961SOL    HW138516   2.897   0.063   0.087  1.1390  0.1470  2.1128
 8961SOL    HW238517   2.868   0.148   0.195  0.4065  0.0571  0.0147
 8962SOL     OW38518   4.062   3.115   9.249 -0.1397  0.0035  0.2432
 8962SOL    HW138519   3.986   3.118   9.191  0.6713 -0.6349 -0.8666
 8962SOL    HW238520   4.105   3.189   9.206 -1.1359  0.5208  0.1422
 8963SOL     OW38521   3.628   0.303   8.063 -0.0510  0.0560 -0.2635
 8963SOL    HW138522   3.573   0.280   8.139 -1.8017 -1.7128 -2.0666
 8963SOL    HW238523   3.608   0.397   8.066  0.1706  0.0670  1.0078
 8964SOL     OW38524   2.199   2.961  13.763  0.1935  0.5986 -0.0616
 8964SOL    HW138525   2.103   2.970  13.763  0.2488  1.1871 -2.6972
 8964SOL    HW238526   2.211   2.877  13.806 -2.3909 -0.0877 -0.6661
 8965SOL     OW38527   0.395   0.905   9.165 -0.0135  0.4943  0.3872
 8965SOL    HW138528   0.319   0.959   9.145  0.7389  1.7659  0.9674
 8965SOL    HW238529   0.364   0.828   9.213  0.7843 -0.7573 -1.0958
 8966SOL     OW38530   3.627   3.779  13.629 -0.3863 -0.2393  0.4098
 8966SOL    HW138531   3.649   3.864  13.591  0.2342 -0.3413  0.5469
 8966SOL    HW238532   3.538   3.793  13.660 -0.2626  0.8168  0.2733
 8967SOL     OW38533   0.645   4.548   4.828 -0.3644  0.5907  0.2735
 8967SOL    HW138534   0.624   4.479   4.891  0.5760 -1.2762 -1.4730
 8967SOL    HW238535   0.725   4.516   4.786 -1.6853 -1.5558 -0.5552
 8968SOL     OW38536   1.699   0.898  15.397 -0.1866 -0.2403 -0.6361
 8968SOL    HW138537   1.773   0.916  15.339 -1.3595 -1.5888 -2.5647
 8968SOL    HW238538   1.670   0.986  15.420  1.3592  1.2055 -4.1465
 8969SOL     OW38539   4.017   3.577   7.143  0.7476 -0.3160  0.0100
 8969SOL    HW138540   4.063   3.657   7.119  0.8239 -0.0540  1.0309
 8969SOL    HW238541   4.085   3.520   7.179  0.8990 -1.1118 -1.5315
 8970SOL     OW38542   1.261   2.349   3.975  0.7256  0.0859 -0.0559
 8970SOL    HW138543   1.293   2.260   3.956 -0.0526 -0.2893  0.3819
 8970SOL    HW238544   1.224   2.339   4.063  2.0594  0.0926  0.5067
 8971SOL     OW38545   3.314   1.264   5.578 -0.0800 -0.3482 -0.4634
 8971SOL    HW138546   3.222   1.249   5.598  0.1332  1.0892  1.4976
 8971SOL    HW238547   3.340   1.327   5.645 -1.4871  2.2569 -2.3652
 8972SOL     OW38548   3.891   2.530  15.655 -0.1312  0.2366  0.4182
 8972SOL    HW138549   3.892   2.463  15.724  3.0505  0.1208  0.2780
 8972SOL    HW238550   3.954   2.505  15.588  0.8090 -0.0802  1.4085
 8973SOL     OW38551   1.495   3.583   8.446  0.0519  0.1349 -0.0080
 8973SOL    HW138552   1.548   3.510   8.479 -0.9994 -0.8029 -0.3933
 8973SOL    HW238553   1.432   3.603   8.515 -2.5547  0.0047 -2.3473
 8974SOL     OW38554   2.550   1.500   1.995  0.1790 -0.2336 -0.3000
 8974SOL    HW138555   2.605   1.544   1.931  1.8634  0.3544  1.5731
 8974SOL    HW238556   2.508   1.568   2.048  0.8008  0.6806 -0.9877
 8975SOL     OW38557   2.499   1.187   9.161  0.2256 -0.6042  0.2563
 8975SOL    HW138558   2.563   1.120   9.136  0.7141  0.2605 -0.8328
 8975SOL    HW238559   2.509   1.187   9.256  2.8933 -0.7306 -0.0085
 8976SOL     OW38560   4.633   3.626   8.496  0.0694  0.8089  0.0803
 8976SOL    HW138561   4.682   3.696   8.539 -1.2144  2.0788 -0.5071
 8976SOL    HW238562   4.620   3.682   8.420 -1.1788  1.5360  0.8193
 8977SOL     OW38563   3.401   2.748   2.827  0.5520  0.1935 -0.0044
 8977SOL    HW138564   3.419   2.655   2.836 -2.8111 -0.3740  1.1394
 8977SOL    HW238565   3.437   2.778   2.910 -4.2739  0.6294  1.9789
 8978SOL     OW38566   2.557   4.046   3.611  0.6067 -0.2888 -0.0500
 8978SOL    HW138567   2.529   4.034   3.702  2.4134  2.4949  0.8535
 8978SOL    HW238568   2.627   3.981   3.614 -0.0970 -1.1020 -1.1354
 8979SOL     OW38569   4.324   4.074  15.605  0.1495 -0.2536 -0.0049
 8979SOL    HW138570   4.286   4.155  15.572 -0.6189  0.5134  2.7722
 8979SOL    HW238571   4.283   4.059  15.690 -1.0212  2.3349 -0.1440
 8980SOL     OW38572   3.064   4.645  10.441 -0.7689 -0.2304 -0.0248
 8980SOL    HW138573   3.013   4.726  10.439 -1.5906 -0.7297  0.7400
 8980SOL    HW238574   3.068   4.625  10.347  0.1900  2.1674 -0.5043
 8981SOL     OW38575   0.849   3.507  11.796  0.4701  0.1326  0.1894
 8981SOL    HW138576   0.845   3.516  11.891  0.8574 -0.2793  0.2473
 8981SOL    HW238577   0.943   3.513  11.778  0.3731  0.5858 -0.1765
 8982SOL     OW38578   1.807   4.047   0.407  0.4193  0.7543  0.2606
 8982SOL    HW138579   1.778   4.105   0.336  0.4201 -0.4517 -0.7139
 8982SOL    HW238580   1.798   4.105   0.483 -1.1724 -0.8710  1.3020
 8983SOL     OW38581   3.436   0.848  15.528 -0.3766  0.5922  0.6621
 8983SOL    HW138582   3.429   0.942  15.544 -1.0083  0.6211  0.2299
 8983SOL    HW238583   3.385   0.809  15.600 -1.5475 -0.4443 -0.7152
 8984SOL     OW38584   1.723   2.809  16.708  0.8512 -0.3055  0.4666
 8984SOL    HW138585   1.697   2.892  16.670  1.0000 -0.4761 -0.0068
 8984SOL    HW238586   1.640   2.771  16.736  1.3837 -0.6277  1.6202
 8985SOL     OW38587   1.259   0.509   7.875  0.4719 -0.3654 -0.2141
 8985SOL    HW138588   1.195   0.438   7.876  1.6562 -1.4276  0.6160
 8985SOL    HW238589   1.208   0.585   7.902  2.2431  0.9001 -0.3965
 8986SOL     OW38590   3.899   4.089   9.728  0.2319 -0.0329  0.4553
 8986SOL    HW138591   3.984   4.131   9.718  0.4623 -0.3786  0.9715
 8986SOL    HW238592   3.894   4.024   9.658  0.4236 -0.3903  0.7757
 8987SOL     OW38593   3.947   4.581   1.783  0.6757  0.2924 -0.2242
 8987SOL    HW138594   3.855   4.603   1.790  1.1426  2.8100 -1.7888
 8987SOL    HW238595   3.942   4.486   1.791 -3.0398  0.6014  0.9143
 8988SOL     OW38596   0.983   3.535   6.811  0.3339 -0.0341 -0.4163
 8988SOL    HW138597   0.974   3.581   6.894  0.7789 -0.3204 -0.2095
 8988SOL    HW238598   0.894   3.550   6.778  0.7757  1.1964 -1.0381
 8989SOL     OW38599   4.057   0.598   2.364  0.4398  0.0107  0.0935
 8989SOL    HW138600   4.111   0.667   2.403 -0.5076 -0.1946  1.7590
 8989SOL    HW238601   4.048   0.638   2.277 -0.8261 -1.9903 -0.6822
 8990SOL     OW38602   0.983   0.463   6.815 -0.0549  0.1696 -0.2936
 8990SOL    HW138603   1.076   0.445   6.801  0.5347  1.0122  2.5134
 8990SOL    HW238604   0.942   0.377   6.825  2.0762 -0.9266 -0.9894
 8991SOL     OW38605   4.309   1.747   5.657 -0.1228 -0.3229  0.7741
 8991SOL    HW138606   4.363   1.722   5.731 -2.2324 -1.7454  1.8373
 8991SOL    HW238607   4.324   1.678   5.593  0.2716  0.4666  0.0161
 8992SOL     OW38608   3.079   0.317   5.819  0.6618 -0.2376  0.0996
 8992SOL    HW138609   3.035   0.331   5.903  0.0738 -1.8101  0.0553
 8992SOL    HW238610   3.148   0.255   5.845  0.7455 -0.0262  0.3746
 8993SOL     OW38611   0.299   3.942   7.087  0.3250  0.3791  0.0245
 8993SOL    HW138612   0.322   4.003   7.157  0.7620  1.6645 -1.2395
 8993SOL    HW238613   0.321   3.861   7.133 -1.1195 -0.3131 -0.4790
 8994SOL     OW38614   1.610   2.686   6.451  0.1453  0.1296  0.0204
 8994SOL    HW138615   1.582   2.749   6.384 -1.5506  0.5851  1.1487
 8994SOL    HW238616   1.553   2.699   6.526 -2.7061 -3.5504 -1.4881
 8995SOL     OW38617   0.848   4.665   1.720 -0.2127  0.0222  0.5594
 8995SOL    HW138618   0.774   4.621   1.762  0.9004  0.1147  2.5647
 8995SOL    HW238619   0.818   0.019   1.709 -0.5588 -0.2583 -0.9255
 8996SOL     OW38620   4.400   4.564   1.504 -0.4797  0.3521  0.0544
 8996SOL    HW138621   4.360   4.481   1.529 -0.9748 -0.2167 -2.6059
 8996SOL    HW238622   4.484   4.559   1.550 -1.3450 -1.6172  1.4217
 8997SOL     OW38623   3.188   2.733   3.211 -0.4451  0.1017  0.2391
 8997SOL    HW138624   3.104   2.701   3.243 -0.8332  0.2432 -0.6416
 8997SOL    HW238625   3.163   2.782   3.133  1.5306  0.3313 -0.2506
 8998SOL     OW38626   3.875   3.768  11.597 -0.2964 -0.2025  0.2048
 8998SOL    HW138627   3.859   3.699  11.661  0.3788 -0.5425  0.0015
 8998SOL    HW238628   3.784   3.789  11.574 -0.2171  0.0981  0.1685
 8999SOL     OW38629   1.435   2.554   4.482  0.2435  0.4067  0.0086
 8999SOL    HW138630   1.487   2.633   4.490 -0.9607  1.3029 -0.9873
 8999SOL    HW238631   1.463   2.520   4.397 -0.2316  0.5350 -0.2027
 9000SOL     OW38632   3.995   0.674   8.404 -0.5640 -0.1001 -0.1476
 9000SOL    HW138633   3.994   0.750   8.461  0.3135  0.6826 -1.1870
 9000SOL    HW238634   4.052   0.606   8.442  0.8700  0.9338 -0.4620
 9001SOL     OW38635   2.470   1.128   3.844  0.2562  0.3591  0.2025
 9001SOL    HW138636   2.442   1.199   3.902 -1.3069  0.1414 -0.2859
 9001SOL    HW238637   2.507   1.063   3.903 -0.3599  0.0841  0.2869
 9002SOL     OW38638   4.207   4.323   7.846  0.3714 -0.3090 -0.4112
 9002SOL    HW138639   4.223   4.350   7.756  0.9417 -1.9286 -0.7850
 9002SOL    HW238640   4.128   4.372   7.866  0.0867 -0.2424 -1.7022
 9003SOL     OW38641   1.311   3.242   3.694  0.0640 -0.1066 -0.4500
 9003SOL    HW138642   1.382   3.228   3.756  1.6350 -1.0737 -2.4887
 9003SOL    HW238643   1.290   3.150   3.679 -0.3648  0.1378 -1.3550
 9004SOL     OW38644   1.491   0.837   3.295 -0.0747  0.2411  0.2328
 9004SOL    HW138645   1.497   0.901   3.224 -0.0971 -0.4229 -0.3622
 9004SOL    HW238646   1.420   0.784   3.259  2.1990 -1.1769 -2.1640
 9005SOL     OW38647   1.273   3.181   9.290  0.0476  0.5322 -0.0978
 9005SOL    HW138648   1.276   3.166   9.384 -2.1210 -0.9264 -0.2668
 9005SOL    HW238649   1.180   3.204   9.278 -0.2995 -1.0504 -0.4219
 9006SOL     OW38650   0.681   3.097   2.972 -0.5077  0.2226  0.1980
 9006SOL    HW138651   0.625   3.024   2.998 -0.8959 -0.0826 -1.5262
 9006SOL    HW238652   0.770   3.069   2.995 -2.1042 -3.7829  1.6388
 9007SOL     OW38653   2.915   4.387   5.848  0.7968  0.0770  0.7006
 9007SOL    HW138654   2.924   4.482   5.841 -0.7842  0.2478  1.0239
 9007SOL    HW238655   2.991   4.369   5.904  1.6531 -1.9206 -1.0905
 9008SOL     OW38656   4.154   0.945  15.123  0.4782  0.0588 -1.0155
 9008SOL    HW138657   4.204   0.872  15.086  0.4727 -0.8926  0.8406
 9008SOL    HW238658   4.082   0.904  15.171  0.9831  1.3356  0.8674
 9009SOL     OW38659   1.963   2.177   3.656  0.0567  0.1546  0.3084
 9009SOL    HW138660   1.934   2.142   3.741 -1.1724  1.2047  0.3394
 9009SOL    HW238661   1.895   2.243   3.638 -0.6070 -0.7032 -0.3496
 9010SOL     OW38662   3.486   2.995  10.601  1.1652  0.8049 -0.4310
 9010SOL    HW138663   3.442   3.066  10.553 -0.1954  0.4592  0.3143
 9010SOL    HW238664   3.432   3.010  10.678  0.8044 -1.5728 -0.2319
 9011SOL     OW38665   2.142   3.506   9.369 -0.3976  0.4262  0.1039
 9011SOL    HW138666   2.182   3.592   9.382  0.4524 -0.0350  0.5103
 9011SOL    HW238667   2.082   3.525   9.297 -1.5974 -0.4193  0.8963
 9012SOL     OW38668   4.247   3.639   8.071  0.3082  0.2458  0.7433
 9012SOL    HW138669   4.218   3.679   8.153  0.8499 -2.8647  2.4496
 9012SOL    HW238670   4.261   3.549   8.100  0.1880  0.1135  0.3980
 9013SOL     OW38671   1.585   1.558   4.370 -0.0036 -0.1123 -0.1056
 9013SOL    HW138672   1.629   1.589   4.449 -3.3565 -2.3343  2.6442
 9013SOL    HW238673   1.636   1.478   4.364  1.0098  0.4464  0.9067
 9014SOL     OW38674   0.111   4.428   6.539  0.2018  0.6400  0.6634
 9014SOL    HW138675   0.024   4.389   6.541  0.7984 -0.7376 -0.6743
 9014SOL    HW238676   0.090   4.502   6.596 -1.1104  0.8833 -0.1361
 9015SOL     OW38677   4.560   4.511   7.818  0.5298 -0.2281  0.1731
 9015SOL    HW138678   4.652   4.522   7.794 -0.0413 -1.0549 -2.4310
 9015SOL    HW238679   4.518   4.597   7.809 -0.3976 -0.5437  1.4903
 9016SOL     OW38680   2.290   4.537   7.543 -0.2500  0.3265 -0.6987
 9016SOL    HW138681   2.334   4.518   7.460 -1.4644 -0.8785 -1.0580
 9016SOL    HW238682   2.207   4.492   7.531 -0.2978 -0.2285  1.6976
 9017SOL     OW38683   3.763   2.010  10.312  0.2815 -0.5043  0.3757
 9017SOL    HW138684   3.790   1.961  10.390  0.1820  1.9130  1.9056
 9017SOL    HW238685   3.844   1.993  10.264  0.7618 -1.4467  1.5139
 9018SOL     OW38686   3.040   3.301   1.772 -0.1130 -0.5727 -0.8164
 9018SOL    HW138687   3.019   3.345   1.689 -1.4823  4.4190  2.1786
 9018SOL    HW238688   3.000   3.215   1.761  0.5607 -1.6711  5.5763
 9019SOL     OW38689   2.998   3.853   4.505  0.3972 -0.3191 -0.0519
 9019SOL    HW138690   3.059   3.896   4.445 -1.0476 -0.0303 -1.3314
 9019SOL    HW238691   3.055   3.865   4.581 -0.0018 -0.4937  0.2737
 9020SOL     OW38692   4.115   1.734   9.926  0.5902 -0.0384  0.0678
 9020SOL    HW138693   4.192   1.699   9.971  1.1309 -1.4952 -1.9791
 9020SOL    HW238694   4.092   1.815   9.971 -2.3020 -0.5744 -0.4861
 9021SOL     OW38695   1.747   3.369   1.892  0.3575 -0.0888 -0.2886
 9021SOL    HW138696   1.751   3.331   1.980  2.4742  0.2981 -0.2321
 9021SOL    HW238697   1.657   3.399   1.876 -0.5178 -2.3536  0.3472
 9022SOL     OW38698   4.318   2.039  15.336 -0.2850 -0.0327  0.0508
 9022SOL    HW138699   4.316   1.944  15.349  1.7802 -0.0605  0.0597
 9022SOL    HW238700   4.241   2.063  15.283 -0.5330 -1.2691 -0.1610
 9023SOL     OW38701   3.613   2.727   7.546  0.2461  0.3328 -0.3007
 9023SOL    HW138702   3.667   2.657   7.509 -0.8559 -0.3482 -0.6235
 9023SOL    HW238703   3.685   2.779   7.581 -0.2179 -0.8181  2.3695
 9024SOL     OW38704   3.297   1.396   6.497 -0.0003 -0.0754 -0.4130
 9024SOL    HW138705   3.239   1.418   6.424  0.9995  1.2212 -0.8179
 9024SOL    HW238706   3.374   1.452   6.492  0.0142 -0.3107 -3.1244
 9025SOL     OW38707   4.149   1.468   7.242  0.0185 -0.1500 -0.5324
 9025SOL    HW138708   4.159   1.441   7.333  1.7797 -0.1560 -0.7406
 9025SOL    HW238709   4.239   1.460   7.213 -0.0593  0.7260 -1.0103
 9026SOL     OW38710   2.116   4.388   5.053  0.0405 -0.1117  0.4322
 9026SOL    HW138711   2.091   4.463   5.107 -1.3288 -0.2332 -0.0406
 9026SOL    HW238712   2.133   4.439   4.973 -1.0781  1.9057  1.5006
 9027SOL     OW38713   0.335   4.224   8.059 -0.3373  0.1847 -0.3195
 9027SOL    HW138714   0.274   4.294   8.083  0.5201  0.3715  1.3417
 9027SOL    HW238715   0.282   4.150   8.087 -0.1415 -0.1416 -0.8251
 9028SOL     OW38716   1.277   2.453   8.293  0.9883  0.2414 -0.8464
 9028SOL    HW138717   1.228   2.373   8.277  1.0532  0.1438 -0.5399
 9028SOL    HW238718   1.285   2.483   8.202 -1.3533  0.8709 -0.8476
 9029SOL     OW38719   2.124   1.866  11.395  0.0311 -0.1235 -0.2343
 9029SOL    HW138720   2.089   1.784  11.429 -2.2216  0.8683 -0.1209
 9029SOL    HW238721   2.219   1.855  11.392 -0.2557 -2.7420  1.0134
 9030SOL     OW38722   3.284   3.479   7.148  0.0325  0.1692 -0.7530
 9030SOL    HW138723   3.377   3.460   7.159  0.1599  0.3594 -1.4859
 9030SOL    HW238724   3.280   3.504   7.056  0.1909  2.3321 -0.1832
 9031SOL     OW38725   0.387   1.708   8.687 -0.2462  0.6018 -0.1308
 9031SOL    HW138726   0.368   1.775   8.752  0.0559 -1.3865  2.0046
 9031SOL    HW238727   0.362   1.758   8.609 -2.0645  0.9312  0.6534
 9032SOL     OW38728   0.916   1.534   5.821  0.4203  0.3918 -0.2603
 9032SOL    HW138729   0.952   1.483   5.748  0.4564  0.7757 -0.5163
 9032SOL    HW238730   0.992   1.585   5.851  2.8325 -2.2020 -1.8878
 9033SOL     OW38731   2.477   3.983  16.155 -0.4398  0.1389 -0.3693
 9033SOL    HW138732   2.446   4.069  16.184  0.8368  0.8990 -1.2947
 9033SOL    HW238733   2.407   3.918  16.167 -1.0505  0.5579 -1.6374
 9034SOL     OW38734   1.234   1.316   7.361 -0.1656 -0.2476 -0.1326
 9034SOL    HW138735   1.285   1.397   7.355 -1.0056  0.2027 -1.0905
 9034SOL    HW238736   1.285   1.276   7.431 -0.1089 -0.2551 -0.1780
 9035SOL     OW38737   1.665   0.046   4.016 -0.5900  0.0534 -0.1208
 9035SOL    HW138738   1.573   0.071   4.012 -1.3908 -2.6753  1.4243
 9035SOL    HW238739   1.662   4.708   3.955 -1.9595 -0.7416  0.9212
 9036SOL     OW38740   4.392   1.503   5.517 -0.4161  0.2155 -0.4898
 9036SOL    HW138741   4.406   1.470   5.605  1.3919  2.6169  0.1070
 9036SOL    HW238742   4.481   1.493   5.483 -0.5428 -1.2123 -0.4059
 9037SOL     OW38743   1.666   3.569   5.600 -0.0994 -0.3555 -1.0320
 9037SOL    HW138744   1.714   3.528   5.528  0.4929  0.2077 -0.9498
 9037SOL    HW238745   1.722   3.543   5.673 -1.8224 -2.5436 -0.4606
 9038SOL     OW38746   0.272   3.753  12.547  0.0734  0.1055  0.5904
 9038SOL    HW138747   0.339   3.786  12.608 -1.2758  1.7302  1.1993
 9038SOL    HW238748   0.270   3.661  12.574 -2.9725 -0.7953 -2.6733
 9039SOL     OW38749   3.182   3.964   5.287  0.1435  0.0899 -0.4111
 9039SOL    HW138750   3.202   3.892   5.227 -0.4336 -2.5110  2.4727
 9039SOL    HW238751   3.139   3.913   5.356 -1.8325  1.3310 -0.7166
 9040SOL     OW38752   3.542   2.679  12.066  0.7739  0.0363 -0.1408
 9040SOL    HW138753   3.628   2.673  12.024  0.0517  1.0657 -1.7638
 9040SOL    HW238754   3.545   2.753  12.126 -0.2491  0.4665 -0.6212
 9041SOL     OW38755   0.064   1.711   5.142  0.5738  0.3924 -0.0943
 9041SOL    HW138756   0.037   1.715   5.050 -1.0463 -3.3389  0.1868
 9041SOL    HW238757   0.091   1.800   5.161  2.0402  0.2627 -1.6406
 9042SOL     OW38758   4.409   1.934   7.976 -0.6450 -0.2527  0.4173
 9042SOL    HW138759   4.339   1.983   8.019  0.0858  0.1169  1.1764
 9042SOL    HW238760   4.353   1.904   7.904 -1.9021 -0.0652  1.3058
 9043SOL     OW38761   4.481   3.799   6.448  0.2347 -0.0627  0.4080
 9043SOL    HW138762   4.536   3.721   6.462  0.1201 -0.0693  0.8178
 9043SOL    HW238763   4.533   3.862   6.498  1.4395 -0.8403  0.1635
 9044SOL     OW38764   4.175   3.091   0.439 -0.6912 -0.4990  0.2574
 9044SOL    HW138765   4.103   3.133   0.486  0.5405  1.2659  0.5739
 9044SOL    HW238766   4.129   3.017   0.399 -0.2049 -0.1398 -0.9781
 9045SOL     OW38767   3.720   2.638   0.731  0.5773  0.0704  0.0491
 9045SOL    HW138768   3.641   2.693   0.728  1.8252  1.8115 -0.3330
 9045SOL    HW238769   3.761   2.674   0.653 -0.8572 -2.4404 -1.8720
 9046SOL     OW38770   4.240   4.633   3.517  0.0084  0.4683 -0.0550
 9046SOL    HW138771   4.221   4.612   3.609  0.9785  1.8923  0.4671
 9046SOL    HW238772   4.233   4.728   3.512  0.8010  0.5887  0.9815
 9047SOL     OW38773   0.368   2.143   8.735 -0.6218 -0.1407  0.5034
 9047SOL    HW138774   0.328   2.193   8.806 -0.7423  0.2687  0.1431
 9047SOL    HW238775   0.346   2.057   8.770  0.5268 -0.2805  0.8759
 9048SOL     OW38776   1.688   4.318  14.554  0.7841  0.7703  0.1683
 9048SOL    HW138777   1.624   4.336  14.485  0.2892 -2.2433 -0.1402
 9048SOL    HW238778   1.656   4.379  14.620 -3.0211 -1.6059  0.5310
 9049SOL     OW38779   3.804   0.895   7.881  0.4218 -0.0001  0.6818
 9049SOL    HW138780   3.833   0.805   7.896  2.0145  0.4205  0.1381
 9049SOL    HW238781   3.711   0.893   7.905  0.4548 -2.5212  0.5840
 9050SOL     OW38782   0.092   2.702  14.551  0.1481 -0.1298 -0.0152
 9050SOL    HW138783   0.157   2.648  14.596 -1.9397 -1.8361  0.9611
 9050SOL    HW238784   0.078   2.769  14.618 -1.7018  0.3671 -0.8970
 9051SOL     OW38785   0.394   1.809   0.796  0.5046  0.6754 -0.0790
 9051SOL    HW138786   0.398   1.720   0.760  0.4330  0.4057  0.5727
 9051SOL    HW238787   0.317   1.843   0.751  0.0588  0.1142  0.2620
 9052SOL     OW38788   1.735   4.287   9.642 -0.4435  1.1189  1.2811
 9052SOL    HW138789   1.648   4.267   9.608  0.6909  1.3764 -1.8729
 9052SOL    HW238790   1.786   4.302   9.561 -1.7786  2.1409  0.6288
 9053SOL     OW38791   4.568   3.655   2.936  0.0268 -0.0962  0.2124
 9053SOL    HW138792   4.492   3.710   2.917  0.7321  0.9997  0.5975
 9053SOL    HW238793   4.629   3.713   2.982  0.2989  0.3446 -0.7012
 9054SOL     OW38794   2.435   3.886   5.297 -0.0688  0.1336  0.1461
 9054SOL    HW138795   2.435   3.868   5.203  2.8765  1.3958 -0.1041
 9054SOL    HW238796   2.529   3.869   5.310 -0.2589 -1.0259 -0.0894
 9055SOL     OW38797   0.939   3.750   3.173 -0.5124 -0.6376  0.2397
 9055SOL    HW138798   0.983   3.667   3.153 -0.7430 -0.1239 -2.3759
 9055SOL    HW238799   0.962   3.768   3.265  1.5897  2.2156 -0.8135
 9056SOL     OW38800   1.604   0.385   8.284  0.5728 -0.1692  0.1609
 9056SOL    HW138801   1.691   0.353   8.258  1.8257  2.4012  1.1839
 9056SOL    HW238802   1.560   0.402   8.200  0.1893 -2.1559 -0.0273
 9057SOL     OW38803   1.472   2.792  16.814 -0.3117  0.2188  0.1718
 9057SOL    HW138804   1.439   2.857  16.753 -1.4385 -1.8633 -1.4450
 9057SOL    HW238805   1.417   2.714  16.804 -1.8484  1.3171  0.1122
 9058SOL     OW38806   4.629   2.130   6.696  0.1540  0.1221  0.3291
 9058SOL    HW138807   4.710   2.080   6.687 -1.7809 -2.7077 -1.3258
 9058SOL    HW238808   4.625   2.164   6.607 -0.2977 -0.8762 -0.0330
 9059SOL     OW38809   3.021   2.775   4.493 -0.4774 -0.3092  0.0896
 9059SOL    HW138810   3.041   2.729   4.412  0.4225 -0.0720  0.1743
 9059SOL    HW238811   3.106   2.755   4.533 -0.1356  0.6940 -0.1439
 9060SOL     OW38812   0.985   2.066   3.891 -0.3050  0.7082  0.2985
 9060SOL    HW138813   1.028   2.035   3.812 -1.2440  1.1925 -0.4074
 9060SOL    HW238814   0.977   1.991   3.950 -0.2950  1.8947  1.8103
 9061SOL     OW38815   0.482   0.031  11.085 -0.3662  0.9122  0.3794
 9061SOL    HW138816   0.428   0.088  11.030  1.3270  0.8736 -1.3365
 9061SOL    HW238817   0.504   4.692  11.030 -0.4200  1.1505  0.0319
 9062SOL     OW38818   3.570   4.659   2.524 -0.2454 -0.2267 -0.5640
 9062SOL    HW138819   3.665   4.669   2.524 -0.0813 -1.6760 -1.8813
 9062SOL    HW238820   3.557   4.658   2.429  0.7052 -1.4208 -0.6839
 9063SOL     OW38821   1.730   0.451   6.629 -0.3184 -0.8333  0.5883
 9063SOL    HW138822   1.783   0.484   6.702 -2.9118 -0.1035  2.1529
 9063SOL    HW238823   1.769   0.369   6.599 -1.9629 -0.9889 -1.1067
 9064SOL     OW38824   4.394   2.669   7.232  0.2707  0.3432  0.1543
 9064SOL    HW138825   4.414   2.596   7.174 -1.2381  1.3699 -1.6789
 9064SOL    HW238826   4.371   2.738   7.170  1.6487 -0.7536 -1.5593
 9065SOL     OW38827   0.486   2.308   5.191 -0.5803 -0.2633 -0.6168
 9065SOL    HW138828   0.391   2.313   5.199 -0.4339  1.4796  0.2192
 9065SOL    HW238829   0.507   2.228   5.239  0.1697 -1.0571 -2.2657
 9066SOL     OW38830   4.432   2.200   0.134  0.0176  0.9897  0.4166
 9066SOL    HW138831   4.410   2.199   0.228 -0.4848  1.9108  0.3037
 9066SOL    HW238832   4.481   2.282   0.130  0.0523  0.7665 -3.4933
 9067SOL     OW38833   0.578   4.371   5.490 -0.1601 -0.2945  0.1010
 9067SOL    HW138834   0.662   4.326   5.505  1.7395  2.5718 -1.8726
 9067SOL    HW238835   0.552   4.336   5.405 -1.5696  3.2682 -0.8908
 9068SOL     OW38836   0.611   0.405   1.996 -0.3645 -0.1769  0.3023
 9068SOL    HW138837   0.565   0.426   2.077  0.2257  1.0322  0.3210
 9068SOL    HW238838   0.701   0.385   2.024 -0.2576  1.8276  1.3875
 9069SOL     OW38839   1.765   3.279   6.241  0.4488  0.8007  0.5165
 9069SOL    HW138840   1.739   3.370   6.233  0.2017  0.6423 -0.5494
 9069SOL    HW238841   1.833   3.270   6.173 -1.6996 -1.9369 -1.2602
 9070SOL     OW38842   2.174   2.027   4.575 -0.6235 -0.2545 -0.4618
 9070SOL    HW138843   2.153   2.019   4.482 -0.0558 -2.1026 -0.4275
 9070SOL    HW238844   2.089   2.060   4.603 -0.6753 -0.3593 -0.4978
 9071SOL     OW38845   2.683   2.998   8.459  0.3936 -0.0228 -0.4336
 9071SOL    HW138846   2.735   2.967   8.533 -0.9912 -2.0867 -0.3191
 9071SOL    HW238847   2.690   3.089   8.488 -4.0112  0.3550 -0.5238
 9072SOL     OW38848   1.137   4.108  13.215 -0.0282 -0.4054  0.1820
 9072SOL    HW138849   1.198   4.154  13.157 -0.1842  0.4498  0.6888
 9072SOL    HW238850   1.090   4.043  13.163 -1.4161  0.7982 -0.0808
 9073SOL     OW38851   4.704   1.385   5.832 -0.1338  0.0075  0.3111
 9073SOL    HW138852   0.050   1.379   5.784 -0.6158 -1.0190 -0.3670
 9073SOL    HW238853   4.640   1.380   5.761  1.9024 -1.7105 -1.4227
 9074SOL     OW38854   0.621   1.612   7.589  0.2572  0.3909  0.4006
 9074SOL    HW138855   0.652   1.621   7.679  0.7743  0.2932  0.2337
 9074SOL    HW238856   0.698   1.567   7.555 -0.9809 -3.1441  2.2446
 9075SOL     OW38857   2.143   2.025   3.200  0.4120 -0.0109 -0.1363
 9075SOL    HW138858   2.066   2.010   3.145 -0.3136  1.7841  0.4043
 9075SOL    HW238859   2.125   1.982   3.284 -2.0098  1.3383  0.0515
 9076SOL     OW38860   1.252   0.280   5.676 -0.0426  0.1130 -0.6318
 9076SOL    HW138861   1.277   0.330   5.599  0.4361  0.2234 -0.4055
 9076SOL    HW238862   1.314   0.209   5.659  0.9224  1.1867 -1.5570
 9077SOL     OW38863   1.423   2.257  14.830 -0.1010  0.3047 -0.2184
 9077SOL    HW138864   1.407   2.228  14.741  2.4341  2.0484 -1.2394
 9077SOL    HW238865   1.452   2.179  14.877 -2.6488 -0.9032 -0.6700
 9078SOL     OW38866   0.324   3.273  10.568 -0.4694 -0.2214 -0.5304
 9078SOL    HW138867   0.343   3.180  10.558  1.3043 -0.0549  1.2906
 9078SOL    HW238868   0.318   3.267  10.663 -0.4165  0.1214 -0.5068
 9079SOL     OW38869   0.041   2.708  11.404 -0.0351 -0.2249  0.5039
 9079SOL    HW138870   4.724   2.759  11.343  0.2145 -1.3399 -0.6470
 9079SOL    HW238871   4.706   2.677  11.460 -0.8732  0.2479 -0.3066
 9080SOL     OW38872   4.141   0.745  17.297  0.2207 -0.0187 -0.5079
 9080SOL    HW138873   4.108   0.707  17.378  2.4878 -0.6896  0.0974
 9080SOL    HW238874   4.232   0.761  17.321  1.0065 -1.5283 -2.4733
 9081SOL     OW38875   3.334   0.079   1.292  0.3722 -0.1648  0.2364
 9081SOL    HW138876   3.313   4.721   1.289  0.6495 -0.1939 -0.7187
 9081SOL    HW238877   3.330   0.101   1.385  2.7979  0.0741  0.2898
 9082SOL     OW38878   1.960   0.458   9.807 -0.1133  0.3015  0.1922
 9082SOL    HW138879   1.970   0.434   9.899 -0.1302 -0.6326 -0.0510
 9082SOL    HW238880   1.930   0.378   9.765  0.7791  0.4200 -0.6603
 9083SOL     OW38881   0.636   4.209   9.010  0.0635 -0.4706 -0.2657
 9083SOL    HW138882   0.615   4.292   9.054  0.2911 -0.7689  0.4036
 9083SOL    HW238883   0.731   4.214   9.020  0.0293 -0.2577 -0.0285
 9084SOL     OW38884   0.390   1.354   6.405  0.1719 -0.0333  0.3961
 9084SOL    HW138885   0.456   1.371   6.337  1.5084  0.6525  1.8762
 9084SOL    HW238886   0.437   1.281   6.444  0.9850 -0.6356 -1.7076
 9085SOL     OW38887   3.017   0.788   1.813  0.0095 -0.0070  0.2911
 9085SOL    HW138888   2.981   0.877   1.818 -0.9022 -0.3811  0.4904
 9085SOL    HW238889   3.095   0.797   1.758 -0.7223 -0.8310 -0.8676
 9086SOL     OW38890   4.316   2.819  14.127  0.4860 -0.0017 -0.0817
 9086SOL    HW138891   4.231   2.860  14.142 -1.1953 -3.5928  0.2264
 9086SOL    HW238892   4.309   2.794  14.035  1.6124  1.4829 -0.5760
 9087SOL     OW38893   2.404   2.307   2.629 -0.1839 -0.3465  0.2142
 9087SOL    HW138894   2.383   2.389   2.584  0.1514  0.4979  1.6224
 9087SOL    HW238895   2.330   2.252   2.601  1.8703 -3.1412  0.2992
 9088SOL     OW38896   3.485   2.258  10.116 -0.5445  0.7159  0.2054
 9088SOL    HW138897   3.405   2.260  10.167  0.0289 -1.6860  1.1553
 9088SOL    HW238898   3.511   2.169  10.138  1.2931  0.3018 -3.6077
 9089SOL     OW38899   1.517   3.285   9.534  0.5176 -0.7341  0.2861
 9089SOL    HW138900   1.522   3.367   9.584 -0.1900 -1.1619  1.0541
 9089SOL    HW238901   1.448   3.233   9.575  0.4283  1.8945  3.4368
 9090SOL     OW38902   3.092   1.772  11.265 -0.2506 -0.1426  0.4713
 9090SOL    HW138903   3.156   1.722  11.215  0.1866  1.4140 -0.5044
 9090SOL    HW238904   3.103   1.857  11.224 -1.0691  0.6530  1.8894
 9091SOL     OW38905   0.856   2.073   1.382  0.1524 -0.6831  0.0574
 9091SOL    HW138906   0.774   2.120   1.394  0.6541  0.7209 -2.1239
 9091SOL    HW238907   0.823   1.989   1.350 -2.1636 -0.4779  1.8868
 9092SOL     OW38908   3.060   4.061  13.939  0.3871  0.4074 -0.3632
 9092SOL    HW138909   3.107   4.098  14.013 -0.8084  1.5410 -0.1637
 9092SOL    HW238910   3.057   3.968  13.961 -0.6608  0.2145 -1.2757
 9093SOL     OW38911   2.600   2.919  16.783  0.6198  0.2439 -0.3861
 9093SOL    HW138912   2.571   2.926  16.874 -1.0888  1.1933 -1.0037
 9093SOL    HW238913   2.694   2.924  16.800  0.5231 -1.4733  0.5744
 9094SOL     OW38914   1.631   1.583   4.069 -0.1819  0.0838  0.5593
 9094SOL    HW138915   1.546   1.549   4.099 -0.0338  0.0231  0.9151
 9094SOL    HW238916   1.688   1.538   4.131 -2.5646 -0.0868  2.6382
 9095SOL     OW38917   4.578   0.513   3.959 -0.0328  0.3055 -0.3679
 9095SOL    HW138918   4.551   0.604   3.951 -2.9237 -0.5190  0.0155
 9095SOL    HW238919   4.543   0.495   4.047 -0.9140 -3.4834 -1.4976
 9096SOL     OW38920   0.809   0.084   8.692 -0.0820  0.0011  0.2357
 9096SOL    HW138921   0.899   0.067   8.720  0.2034  0.9478 -0.1094
 9096SOL    HW238922   0.790   0.160   8.748  1.0356  0.5716 -0.1568
 9097SOL     OW38923   3.548   1.917   9.590 -0.2964  0.1670 -0.2608
 9097SOL    HW138924   3.615   1.852   9.568  0.2663  0.7684 -0.3205
 9097SOL    HW238925   3.582   2.000   9.556  1.5006 -0.7543 -0.7139
 9098SOL     OW38926   0.122   0.501   8.374  0.5654 -0.0357  0.0603
 9098SOL    HW138927   0.157   0.545   8.452 -2.0470  1.0063  0.6416
 9098SOL    HW238928   0.131   0.408   8.394  0.6630 -0.2064 -0.7814
 9099SOL     OW38929   0.842   3.237   4.476  0.1779 -0.1745 -0.0879
 9099SOL    HW138930   0.748   3.226   4.458  0.2595 -0.3183 -0.4237
 9099SOL    HW238931   0.867   3.157   4.430  1.7682  0.8382 -0.9696
 9100SOL     OW38932   1.520   2.780   0.482 -0.2680 -0.3478 -0.0018
 9100SOL    HW138933   1.530   2.875   0.472 -0.6152 -0.3857 -0.7061
 9100SOL    HW238934   1.564   2.773   0.567  2.7343  0.8555 -1.4529
 9101SOL     OW38935   3.124   3.337  13.259  0.0844  0.5688  0.2786
 9101SOL    HW138936   3.072   3.417  13.267  0.2886  0.7900 -0.7142
 9101SOL    HW238937   3.190   3.339  13.329 -0.2298  0.5325  0.5737
 9102SOL     OW38938   0.820   0.305   5.171 -0.7454 -0.2372  0.2518
 9102SOL    HW138939   0.874   0.246   5.119 -1.3041 -1.3617  0.9436
 9102SOL    HW238940   0.852   0.393   5.149 -1.3812  0.2725  1.3251
 9103SOL     OW38941   3.490   4.630   5.396 -0.3546  0.0589  0.6709
 9103SOL    HW138942   3.444   4.663   5.319 -1.1518 -1.3416  0.5400
 9103SOL    HW238943   3.562   4.579   5.360 -1.4574  0.5118 -2.1712
 9104SOL     OW38944   1.165   2.454   4.736  0.1038  0.3102  0.4668
 9104SOL    HW138945   1.204   2.485   4.817 -0.6023  0.3531  0.7903
 9104SOL    HW238946   1.075   2.473   4.764  0.8835  1.1866  2.3675
 9105SOL     OW38947   1.787   3.675  15.800 -0.1916  0.1495  0.3771
 9105SOL    HW138948   1.699   3.670  15.763 -0.1596 -0.1000  0.3345
 9105SOL    HW238949   1.845   3.644  15.730 -0.7613  2.3683 -1.1184
 9106SOL     OW38950   4.619   4.176  15.253  0.4972  0.3564  0.3882
 9106SOL    HW138951   4.602   4.105  15.315  0.2546  0.1989  0.1347
 9106SOL    HW238952   4.694   4.215  15.299  1.5042 -1.1196  0.0091
 9107SOL     OW38953   3.793   0.039   4.731 -0.7414  0.0953  0.4991
 9107SOL    HW138954   3.866   0.085   4.689 -2.2036  0.5315 -1.5891
 9107SOL    HW238955   3.763   0.113   4.784 -1.1663  0.8072 -0.7286
 9108SOL     OW38956   0.587   1.082  13.359 -0.7551 -0.1429 -0.4266
 9108SOL    HW138957   0.592   1.168  13.317  1.9304  0.2799  0.7050
 9108SOL    HW238958   0.652   1.036  13.306  0.4384  0.3717  0.5913
 9109SOL     OW38959   4.523   3.583   8.899  0.2484  0.7315 -0.1341
 9109SOL    HW138960   4.599   3.625   8.938 -0.3581  0.3257  1.4741
 9109SOL    HW238961   4.454   3.588   8.965 -1.8047 -1.3543 -2.1245
 9110SOL     OW38962   4.047   1.688   3.735  0.0322 -0.3778  0.2236
 9110SOL    HW138963   3.988   1.624   3.695 -0.0879 -1.4889  2.1698
 9110SOL    HW238964   4.049   1.751   3.663 -0.6825 -1.0733 -0.3996
 9111SOL     OW38965   0.823   4.333   1.721 -0.1211  0.7746  0.3979
 9111SOL    HW138966   0.818   4.410   1.777  0.1859  1.7211 -0.8954
 9111SOL    HW238967   0.817   4.268   1.791  0.0624  1.0702  0.6848
 9112SOL     OW38968   1.374   2.421   8.831 -0.0097  0.3428  0.2387
 9112SOL    HW138969   1.350   2.491   8.892 -3.1135 -0.7611  0.3147
 9112SOL    HW238970   1.395   2.356   8.898 -1.6427  0.8822  1.3036
 9113SOL     OW38971   3.000   2.565   3.285 -0.0052  0.0951 -0.1166
 9113SOL    HW138972   2.930   2.627   3.304  0.2460  0.3645 -0.0588
 9113SOL    HW238973   2.958   2.481   3.297 -1.9281  1.0720 -0.0401
 9114SOL     OW38974   3.957   1.209   5.927  0.1080 -0.1457  0.2126
 9114SOL    HW138975   3.929   1.118   5.916  0.1428 -0.0087 -1.0578
 9114SOL    HW238976   4.049   1.198   5.950  0.5343  0.9174 -0.9753
 9115SOL     OW38977   3.304   0.765  15.740  0.4878  0.3649  0.1869
 9115SOL    HW138978   3.279   0.695  15.801  0.7313  0.6870  0.6561
 9115SOL    HW238979   3.218   0.794  15.710  0.7452 -0.5413 -1.3933
 9116SOL     OW38980   3.210   0.943   2.143 -0.2620 -0.0646  1.3775
 9116SOL    HW138981   3.159   0.886   2.202 -1.0039  0.7673  1.5413
 9116SOL    HW238982   3.299   0.929   2.176 -0.1981 -1.6592  0.4864
 9117SOL     OW38983   1.518   0.234   3.020 -0.3508  0.3891 -0.3410
 9117SOL    HW138984   1.448   0.168   3.023 -0.4971  0.4660 -1.7233
 9117SOL    HW238985   1.466   0.304   2.981  0.7713  0.0256 -2.5420
 9118SOL     OW38986   4.638   3.353   8.430 -0.0926 -0.1165 -0.1468
 9118SOL    HW138987   4.548   3.325   8.412  0.3890 -1.7616  0.0673
 9118SOL    HW238988   4.611   3.434   8.474 -2.1163 -1.3367  0.8766
 9119SOL     OW38989   0.210   3.937   0.602  0.2075  0.4144  0.4073
 9119SOL    HW138990   0.262   3.910   0.678  0.1284 -0.2242  0.2356
 9119SOL    HW238991   0.127   3.897   0.626  1.6203 -3.0530 -0.5279
 9120SOL     OW38992   3.964   2.574   5.674 -0.4815 -0.1110  0.1098
 9120SOL    HW138993   3.960   2.512   5.601 -2.1955 -1.8180  1.6186
 9120SOL    HW238994   3.968   2.510   5.745  1.0405 -1.2049 -0.9710
 9121SOL     OW38995   1.288   0.037   3.774  0.5892 -0.3863 -0.0559
 9121SOL    HW138996   1.317   0.117   3.729  0.3240 -0.5629 -0.5310
 9121SOL    HW238997   1.350   0.031   3.847  2.0653 -2.2666 -1.4450
 9122SOL     OW38998   0.062   0.050   7.477  0.4906  0.0087 -0.1476
 9122SOL    HW138999   0.086   0.119   7.539 -1.6098  0.5390  0.0633
 9122SOL    HW239000   0.122   0.079   7.408  1.4977  2.0596  1.5674
 9123SOL     OW39001   2.611   2.584  10.019  0.5962  0.1412 -0.8412
 9123SOL    HW139002   2.667   2.552   9.948 -0.0015 -0.6138 -0.9751
 9123SOL    HW239003   2.522   2.580   9.983  0.0367  0.4125  0.5352
 9124SOL     OW39004   1.166   1.610  12.589  0.2191  0.4235 -0.4080
 9124SOL    HW139005   1.218   1.624  12.668  0.7871 -0.6276 -0.5923
 9124SOL    HW239006   1.128   1.523  12.600 -1.7063  1.3923  0.6968
 9125SOL     OW39007   4.326   2.046  10.868  0.2710 -0.8700  0.0983
 9125SOL    HW139008   4.362   2.060  10.956 -2.1158 -2.6708  1.3591
 9125SOL    HW239009   4.347   1.953  10.858  1.4164 -0.8169  1.9941
 9126SOL     OW39010   3.278   3.457   2.997 -0.3102  0.0880 -0.3143
 9126SOL    HW139011   3.314   3.376   2.961 -0.9428  0.0488 -0.8413
 9126SOL    HW239012   3.219   3.418   3.062 -1.6041  1.3097 -0.7651
 9127SOL     OW39013   3.360   1.424  16.416 -0.0444  0.1241 -0.6005
 9127SOL    HW139014   3.278   1.379  16.435  0.4062 -0.7689 -0.7936
 9127SOL    HW239015   3.369   1.399  16.324  0.7359  0.6972 -0.6801
 9128SOL     OW39016   0.621   2.771  12.249 -0.7029 -0.6626  0.1999
 9128SOL    HW139017   0.622   2.816  12.334 -1.0356  0.5594 -0.4320
 9128SOL    HW239018   0.547   2.817  12.210  0.2002  0.3918 -0.2675
 9129SOL     OW39019   3.493   2.585   3.741 -0.0217 -0.2091 -0.1417
 9129SOL    HW139020   3.578   2.628   3.737  0.9407 -1.9974  0.8905
 9129SOL    HW239021   3.461   2.612   3.655 -1.9110 -0.7694  0.3673
 9130SOL     OW39022   2.411   3.309  10.778  0.0522  0.3981  0.1496
 9130SOL    HW139023   2.371   3.275  10.698 -0.7904  2.4256 -0.3087
 9130SOL    HW239024   2.503   3.293  10.755  0.1389  2.7242 -1.1656
 9131SOL     OW39025   3.505   2.946   7.381 -0.0217  0.4388  0.0807
 9131SOL    HW139026   3.413   2.925   7.398  0.4288 -0.3914  1.5563
 9131SOL    HW239027   3.543   2.875   7.433 -0.2827  0.4501  0.2883
 9132SOL     OW39028   0.875   1.495   9.290 -0.3890 -0.0025  0.5626
 9132SOL    HW139029   0.880   1.589   9.275 -1.2595 -0.0013  0.2489
 9132SOL    HW239030   0.797   1.473   9.237 -0.0235  1.2103 -0.4740
 9133SOL     OW39031   3.694   2.406  17.407  0.1729  0.8364  0.7042
 9133SOL    HW139032   3.638   2.370  17.338  0.6418  0.1429  0.6825
 9133SOL    HW239033   3.727   2.488  17.371  1.2685 -0.2109 -0.6928
 9134SOL     OW39034   1.358   0.163   4.261 -0.1923 -0.3120 -0.1397
 9134SOL    HW139035   1.327   0.084   4.305  1.7002 -0.2853  1.2685
 9134SOL    HW239036   1.411   0.201   4.332 -0.4882  0.0142 -0.0931
 9135SOL     OW39037   3.527   3.392   9.295 -0.1457  0.4699 -0.1358
 9135SOL    HW139038   3.603   3.447   9.311  3.3447 -4.5680  0.5766
 9135SOL    HW239039   3.522   3.345   9.378 -1.1866  0.6175 -0.1082
 9136SOL     OW39040   2.440   0.128  13.598  1.1522 -1.3365  0.4223
 9136SOL    HW139041   2.432   0.094  13.686 -0.4866 -0.8706  0.4447
 9136SOL    HW239042   2.396   0.213  13.606 -2.1229 -3.0488  0.5137
 9137SOL     OW39043   1.080   1.935   0.996  0.1407 -0.1430  0.3302
 9137SOL    HW139044   1.095   1.991   1.072 -0.2016 -0.7333  0.8304
 9137SOL    HW239045   1.108   1.991   0.923 -0.0335  1.7649  1.7229
 9138SOL     OW39046   0.559   2.518   7.313 -0.0997  0.0434  0.0999
 9138SOL    HW139047   0.543   2.472   7.231  2.3478  0.3391 -0.5682
 9138SOL    HW239048   0.646   2.492   7.345 -0.3348 -0.1221  0.5993
 9139SOL     OW39049   1.279   0.214   3.377 -0.0313  0.1698 -0.1901
 9139SOL    HW139050   1.236   0.150   3.319  0.3027 -1.8203  1.7543
 9139SOL    HW239051   1.296   0.286   3.316 -2.3236  2.2547  1.6329
 9140SOL     OW39052   2.223   2.595   2.022  0.3167  0.3077  0.3058
 9140SOL    HW139053   2.283   2.636   1.961  1.1555 -1.0819  0.1944
 9140SOL    HW239054   2.148   2.568   1.969 -0.0554  0.8255  0.5771
 9141SOL     OW39055   2.355   1.052   2.951  0.4191 -0.1000  0.5331
 9141SOL    HW139056   2.367   1.128   2.894  0.9134 -0.6676 -0.1305
 9141SOL    HW239057   2.266   1.030   2.924  1.7568 -1.3718 -2.8469
 9142SOL     OW39058   0.319   2.300   2.729  0.0883 -0.5106 -0.3575
 9142SOL    HW139059   0.233   2.342   2.725 -0.5803 -1.7883  0.9223
 9142SOL    HW239060   0.293   2.222   2.681  0.8510 -0.6191 -0.5997
 9143SOL     OW39061   0.982   0.627   4.567  0.1102 -0.2786 -0.0180
 9143SOL    HW139062   1.022   0.557   4.516 -2.2449 -0.3138 -1.8053
 9143SOL    HW239063   0.961   0.583   4.650 -2.2631  1.6716  0.4061
 9144SOL     OW39064   2.612   4.489   4.086 -0.4447 -0.6423  0.0267
 9144SOL    HW139065   2.648   4.435   4.157  0.6424 -0.7287 -0.5934
 9144SOL    HW239066   2.533   4.440   4.060  0.9780 -2.2811 -1.2144
 9145SOL     OW39067   1.310   0.794   7.716  0.5304 -0.5150  0.1590
 9145SOL    HW139068   1.227   0.754   7.690  0.5061  0.7193 -1.6543
 9145SOL    HW239069   1.281   0.848   7.790 -1.8864 -0.3906 -0.8845
 9146SOL     OW39070   1.697   3.737   5.254 -0.1289 -0.3740  0.5872
 9146SOL    HW139071   1.767   3.768   5.313 -0.8848 -1.3127  1.9838
 9146SOL    HW239072   1.723   3.645   5.244  0.4348 -0.1424 -0.0530
 9147SOL     OW39073   4.350   2.797   4.188 -0.2751 -0.0477 -0.0762
 9147SOL    HW139074   4.441   2.824   4.176 -0.3574  0.6628  0.8504
 9147SOL    HW239075   4.300   2.872   4.156  0.7687  0.8677  0.4503
 9148SOL     OW39076   0.549   2.524   9.331  0.6672  0.3960  0.0562
 9148SOL    HW139077   0.627   2.546   9.381  1.0829  0.1468 -0.4857
 9148SOL    HW239078   0.533   2.435   9.364 -0.0645 -0.3088 -2.2403
 9149SOL     OW39079   2.534   0.452  14.932  0.0619 -0.2087  0.6412
 9149SOL    HW139080   2.443   0.454  14.962 -0.1625  2.2588 -0.1870
 9149SOL    HW239081   2.571   0.390  14.994 -1.0612 -1.6362 -0.1249
 9150SOL     OW39082   4.568   0.363   4.938  0.1732  0.1871  0.4310
 9150SOL    HW139083   4.500   0.345   4.873  0.6182 -1.0013  0.3131
 9150SOL    HW239084   4.618   0.284   4.918 -1.1958 -0.5427 -0.0991
 9151SOL     OW39085   2.486   4.374   6.118  0.1160  0.5404 -0.0170
 9151SOL    HW139086   2.564   4.427   6.101 -0.7886  1.7647 -0.4073
 9151SOL    HW239087   2.443   4.441   6.171 -0.0783  0.8440 -0.5529
 9152SOL     OW39088   2.042   2.292   5.287 -0.4164 -0.1073 -0.8058
 9152SOL    HW139089   2.055   2.366   5.227  0.4444 -0.9942 -1.7281
 9152SOL    HW239090   2.126   2.246   5.282  0.4801  1.6446 -1.7365
 9153SOL     OW39091   1.503   2.704   1.891  0.2423 -0.0402 -0.5022
 9153SOL    HW139092   1.437   2.756   1.844 -1.7685 -0.7072  1.5516
 9153SOL    HW239093   1.452   2.624   1.905 -2.3537  1.8872  1.2235
 9154SOL     OW39094   2.260   1.060   1.634 -0.0981  0.5612 -0.6808
 9154SOL    HW139095   2.202   0.984   1.626 -1.6001  1.7978 -1.4093
 9154SOL    HW239096   2.348   1.024   1.644 -0.7262 -0.5405  1.0006
 9155SOL     OW39097   1.089   1.124   6.115  0.5567  0.2052  0.8142
 9155SOL    HW139098   1.116   1.053   6.057  0.0478 -0.9380  1.9855
 9155SOL    HW239099   1.124   1.193   6.059 -1.7945 -0.1070 -1.0725
 9156SOL     OW39100   1.973   0.187   0.950  0.2879  0.2510 -0.1515
 9156SOL    HW139101   1.979   0.101   0.909  0.4224 -0.9696  2.3955
 9156SOL    HW239102   2.064   0.203   0.975 -0.1357  1.0852  0.8455
 9157SOL     OW39103   2.139   3.995  17.161 -0.1758 -0.3550  0.1354
 9157SOL    HW139104   2.088   4.042  17.227  1.0883 -1.3104  1.8297
 9157SOL    HW239105   2.228   4.020  17.189  0.1199 -1.9455  0.6252
 9158SOL     OW39106   3.564   1.104   4.936 -0.4485 -0.3053 -0.1637
 9158SOL    HW139107   3.525   1.187   4.964 -1.5349 -0.3814 -1.4167
 9158SOL    HW239108   3.480   1.062   4.915 -0.1144 -1.7280  1.3875
 9159SOL     OW39109   4.542   4.234   9.810 -0.5381 -0.2975  0.0057
 9159SOL    HW139110   4.540   4.148   9.852 -3.2787 -1.6502 -2.9053
 9159SOL    HW239111   4.594   4.279   9.877  0.1578  0.5888 -1.1164
 9160SOL     OW39112   3.535   3.605   6.526 -0.0051  0.3303 -0.2123
 9160SOL    HW139113   3.500   3.620   6.614  0.5857  0.1084  0.0564
 9160SOL    HW239114   3.608   3.667   6.525 -0.2157  0.5894  0.6000
 9161SOL     OW39115   0.754   2.646  11.698 -0.1131 -0.1484 -0.4488
 9161SOL    HW139116   0.706   2.681  11.773  2.1720  0.9652  0.5150
 9161SOL    HW239117   0.821   2.715  11.702  0.8963 -1.0998 -0.7658
 9162SOL     OW39118   3.174   0.706   3.999 -0.2999 -0.1677 -0.1620
 9162SOL    HW139119   3.168   0.711   4.094  1.9402  1.4691 -0.1207
 9162SOL    HW239120   3.132   0.623   3.975  0.6707 -1.1215  1.4585
 9163SOL     OW39121   0.759   1.719   4.240  0.4790 -0.1020 -0.1879
 9163SOL    HW139122   0.753   1.755   4.152 -0.9170  1.8394  0.6832
 9163SOL    HW239123   0.767   1.795   4.297 -2.3376 -0.8457  1.2040
 9164SOL     OW39124   3.842   3.816  17.428 -0.3257  0.6089  1.3245
 9164SOL    HW139125   3.848   3.891  17.487 -0.5815 -0.4612  2.6979
 9164SOL    HW239126   3.919   3.829  17.373  0.7102 -0.9720  2.3992
 9165SOL     OW39127   0.446   2.697   7.092  0.1480 -0.0383 -0.3878
 9165SOL    HW139128   0.503   2.622   7.075  0.3635 -0.3385  1.6767
 9165SOL    HW239129   0.490   2.745   7.162 -0.3034 -2.1075  1.2983
 9166SOL     OW39130   2.762   4.661   8.420 -0.2080 -0.0630 -0.1837
 9166SOL    HW139131   2.751   4.579   8.371  0.5260  1.3095 -2.6379
 9166SOL    HW239132   2.688   4.721   8.405  0.2622  0.9751  1.7016
 9167SOL     OW39133   0.173   1.812   7.107  0.1334 -0.0567  0.1029
 9167SOL    HW139134   0.174   1.732   7.160  0.0607  0.2714  0.6023
 9167SOL    HW239135   0.243   1.864   7.147  0.7381 -1.0128  0.2909
 9168SOL     OW39136   2.817   2.214   7.836  0.0104 -0.4272  0.3485
 9168SOL    HW139137   2.779   2.257   7.913 -1.3251  0.8456 -1.0097
 9168SOL    HW239138   2.832   2.126   7.871 -1.5089 -0.7612  0.1439
 9169SOL     OW39139   1.980   3.952   5.725 -0.4820 -0.1211  0.4682
 9169SOL    HW139140   2.006   4.005   5.650 -0.4639 -0.8907 -0.0725
 9169SOL    HW239141   2.024   3.870   5.702 -1.2753 -1.0932  2.3555
 9170SOL     OW39142   0.996   3.589  16.937  0.1826 -0.4521  0.0480
 9170SOL    HW139143   0.914   3.636  16.953  0.2127 -0.9219  1.5784
 9170SOL    HW239144   1.053   3.628  17.003  2.1051  2.5013 -3.3624
 9171SOL     OW39145   0.223   4.713  16.023 -0.1325 -0.2103 -0.5053
 9171SOL    HW139146   0.223   4.633  15.971 -0.7563 -0.8915  0.5292
 9171SOL    HW239147   0.196   4.680  16.109  0.2238 -1.4619 -0.8794
 9172SOL     OW39148   1.499   0.370  10.992 -0.1133  0.3583 -0.0848
 9172SOL    HW139149   1.509   0.311  11.066 -0.2961  2.3518  1.5242
 9172SOL    HW239150   1.589   0.392  10.965 -0.3927  1.1146 -0.4125
 9173SOL     OW39151   1.363   4.140   1.312  0.0928 -0.0660 -0.0261
 9173SOL    HW139152   1.385   4.113   1.223  1.2475 -0.0881  0.2578
 9173SOL    HW239153   1.446   4.178   1.340  0.2422 -1.9588  2.1955
 9174SOL     OW39154   2.305   3.274   1.801  0.2953  0.4693 -0.3536
 9174SOL    HW139155   2.277   3.340   1.737 -1.2879 -1.5648 -1.7296
 9174SOL    HW239156   2.226   3.226   1.826  0.5175  0.0295 -0.4914
 9175SOL     OW39157   2.681   2.820   2.467  0.2958  0.2216  0.3646
 9175SOL    HW139158   2.747   2.843   2.401 -1.0288 -0.8414 -1.3369
 9175SOL    HW239159   2.629   2.901   2.466 -1.2771 -0.8019  0.0806
 9176SOL     OW39160   3.783   4.148   3.719  0.6695  0.8945 -0.0307
 9176SOL    HW139161   3.839   4.225   3.706  0.6739  0.8402 -0.3323
 9176SOL    HW239162   3.822   4.091   3.652 -0.9731  1.8262 -1.8064
 9177SOL     OW39163   2.409   3.374   2.574  0.6938 -0.3231  0.3187
 9177SOL    HW139164   2.493   3.417   2.560  0.7530  0.2426  2.4061
 9177SOL    HW239165   2.370   3.388   2.488  0.3596  0.6231  0.6227
 9178SOL     OW39166   1.167   0.034   5.393  0.4264 -0.5277 -0.6350
 9178SOL    HW139167   1.237   0.040   5.459 -1.2844  0.7827  1.0622
 9178SOL    HW239168   1.127   0.121   5.396  0.7778 -0.3559 -1.0343
 9179SOL     OW39169   3.110   0.286  13.236 -0.2957 -0.5839 -0.2269
 9179SOL    HW139170   3.173   0.330  13.179  1.3662 -1.3690  0.9983
 9179SOL    HW239171   3.035   0.296  13.178 -0.2768  0.7429 -0.0053
 9180SOL     OW39172   1.935   3.612  15.520  0.6789  0.2836  0.0948
 9180SOL    HW139173   1.953   3.663  15.441  0.5565  0.2113  0.0186
 9180SOL    HW239174   1.840   3.596  15.514  0.7794 -0.7909  1.2044
 9181SOL     OW39175   1.461   3.603   1.947 -0.7761 -0.4941  0.8468
 9181SOL    HW139176   1.421   3.664   2.009  1.4937  1.1540  0.6623
 9181SOL    HW239177   1.545   3.585   1.988  0.7870  2.0849 -1.2225
 9182SOL     OW39178   4.266   3.209   0.855  0.2486 -0.4122  0.2566
 9182SOL    HW139179   4.329   3.196   0.926 -0.9186  0.5841  1.4805
 9182SOL    HW239180   4.320   3.219   0.776 -1.5222  1.6966 -0.6791
 9183SOL     OW39181   0.798   0.134  16.051 -0.0931  0.0130 -0.0956
 9183SOL    HW139182   0.862   0.203  16.033 -0.0828  0.1140  0.3498
 9183SOL    HW239183   0.714   0.174  16.028 -1.4293 -1.7241  1.7926
 9184SOL     OW39184   3.095   1.553   8.792  0.2822  0.1769 -0.2386
 9184SOL    HW139185   3.060   1.626   8.844 -0.3437  0.2259 -0.7196
 9184SOL    HW239186   3.013   1.524   8.752 -0.4652  0.5748  0.9987
 9185SOL     OW39187   4.180   2.644   9.652  0.5194  0.6891 -0.0633
 9185SOL    HW139188   4.175   2.658   9.557 -2.1789  1.7048  0.2391
 9185SOL    HW239189   4.196   2.552   9.671 -1.7013 -0.3586 -3.1619
 9186SOL     OW39190   2.499   4.063   3.871  0.2421 -0.5242 -0.1022
 9186SOL    HW139191   2.508   3.983   3.923  1.8185 -0.4970 -0.3222
 9186SOL    HW239192   2.407   4.085   3.887 -0.3206 -1.0532 -2.6544
 9187SOL     OW39193   2.000   3.440   7.292  0.1133  0.2198  0.0729
 9187SOL    HW139194   1.945   3.514   7.318 -0.4486 -0.3852  0.5942
 9187SOL    HW239195   1.945   3.362   7.301  1.9492 -1.2167 -1.1552
 9188SOL     OW39196   3.851   1.202   1.557  0.2956  0.1313 -0.6145
 9188SOL    HW139197   3.853   1.118   1.604 -1.7799  0.4128 -0.0336
 9188SOL    HW239198   3.906   1.261   1.608  0.2106 -0.8360  0.5938
 9189SOL     OW39199   1.045   4.596   4.291  0.1765  0.5468  0.4314
 9189SOL    HW139200   0.979   4.658   4.260 -1.7066 -2.1265 -0.8868
 9189SOL    HW239201   0.995   4.546   4.356  0.7547  2.1193  2.0692
 9190SOL     OW39202   3.406   1.753   8.388  0.0951  0.4366 -0.3766
 9190SOL    HW139203   3.343   1.732   8.319 -0.6855  0.2739  0.3877
 9190SOL    HW239204   3.362   1.691   8.447 -0.7132  2.0593  0.7066
 9191SOL     OW39205   0.356   2.724   8.229  0.0256  0.0012 -0.2709
 9191SOL    HW139206   0.423   2.791   8.219  1.0113 -0.9514 -0.0037
 9191SOL    HW239207   0.316   2.748   8.312 -0.1747 -0.8515 -0.1218
 9192SOL     OW39208   4.289   1.609   9.265 -0.3093  0.1326 -0.0258
 9192SOL    HW139209   4.285   1.704   9.276 -0.8859 -0.1438  2.1096
 9192SOL    HW239210   4.230   1.604   9.190  0.8918  0.3527 -1.0077
 9193SOL     OW39211   1.677   3.055  16.633  0.7172 -0.0714 -0.4179
 9193SOL    HW139212   1.688   3.139  16.677  0.2702 -0.0250 -0.3950
 9193SOL    HW239213   1.647   3.084  16.547 -1.6516 -1.3214 -0.0053
 9194SOL     OW39214   0.305   0.155   4.576  0.2010 -0.5382  0.0994
 9194SOL    HW139215   0.358   0.234   4.587  2.4066 -2.0117  0.0420
 9194SOL    HW239216   0.294   0.140   4.481  1.5017  1.0635 -0.2898
 9195SOL     OW39217   2.372   3.004   1.897 -0.2684  0.9572  0.5781
 9195SOL    HW139218   2.386   2.909   1.887  0.8285  1.3186 -1.3895
 9195SOL    HW239219   2.412   3.036   1.816 -1.6013  1.6041  0.1838
 9196SOL     OW39220   0.041   1.771   5.507  0.1881 -0.2268  0.3659
 9196SOL    HW139221   0.016   1.768   5.600  1.9431  1.6327  0.9019
 9196SOL    HW239222   0.107   1.702   5.506 -1.7698 -2.0760 -0.0190
 9197SOL     OW39223   3.710   3.231   4.032  0.0935  0.5336 -0.5256
 9197SOL    HW139224   3.784   3.212   4.090 -1.2659 -0.0070  1.0544
 9197SOL    HW239225   3.748   3.280   3.959  0.8435 -0.9609 -1.1327
 9198SOL     OW39226   4.433   3.564   6.962 -0.0193 -0.5913 -0.9687
 9198SOL    HW139227   4.514   3.528   6.999 -0.7891 -1.9803 -0.6078
 9198SOL    HW239228   4.475   3.645   6.933 -1.8826  0.1795 -1.4566
 9199SOL     OW39229   2.705   4.569  17.476  0.2711  0.7942  0.0649
 9199SOL    HW139230   2.755   4.608  17.405 -0.5519  0.8410 -0.4949
 9199SOL    HW239231   2.622   4.614  17.458  0.1781  0.8742  0.6940
 9200SOL     OW39232   3.560   2.375   0.124  0.1455 -0.4657  0.4313
 9200SOL    HW139233   3.605   2.341   0.047 -1.7613  0.5128 -1.0895
 9200SOL    HW239234   3.476   2.337   0.101  0.3552 -0.3927 -0.4639
 9201SOL     OW39235   4.287   0.800   8.603 -0.6250  0.3660  0.0351
 9201SOL    HW139236   4.375   0.804   8.640 -0.4603  1.5793 -0.4882
 9201SOL    HW239237   4.316   0.813   8.513  0.7033  2.5299  0.7765
 9202SOL     OW39238   4.063   4.356   3.414  0.2747 -0.2732 -0.9589
 9202SOL    HW139239   4.093   4.418   3.348  0.8421 -0.8818 -1.2649
 9202SOL    HW239240   4.086   4.271   3.376  1.0341  1.2091 -3.7683
 9203SOL     OW39241   0.625   2.714   8.464 -0.2376  0.6919 -0.5426
 9203SOL    HW139242   0.559   2.776   8.496 -1.1146  0.1997 -1.4035
 9203SOL    HW239243   0.703   2.745   8.510 -2.5547  0.8287  3.3429
 9204SOL     OW39244   4.149   3.611   4.129  0.6303 -0.5006  0.1221
 9204SOL    HW139245   4.079   3.573   4.075 -0.2360  4.3343 -2.1781
 9204SOL    HW239246   4.189   3.532   4.165 -1.0521 -1.1244  0.6439
 9205SOL     OW39247   2.987   3.641   0.781 -0.2753 -0.0097 -0.4052
 9205SOL    HW139248   2.979   3.546   0.777  1.0427 -0.0379 -2.0418
 9205SOL    HW239249   2.975   3.659   0.687  1.8245  0.6181 -0.5566
 9206SOL     OW39250   4.334   1.288   6.834  0.1942 -0.0253  0.1292
 9206SOL    HW139251   4.381   1.318   6.756 -0.4225 -0.9100 -0.5866
 9206SOL    HW239252   4.386   1.208   6.840 -0.5083 -0.3791  1.4871
 9207SOL     OW39253   1.597   3.258   5.507  0.4306 -0.1218 -0.8170
 9207SOL    HW139254   1.670   3.285   5.451  0.9282  0.7244  0.2398
 9207SOL    HW239255   1.648   3.213   5.574 -0.2237  0.6093  0.1738
 9208SOL     OW39256   2.864   0.709   7.464 -0.0697  0.3126 -0.2472
 9208SOL    HW139257   2.841   0.616   7.462 -0.3007  0.3082  2.8909
 9208SOL    HW239258   2.779   0.752   7.461 -0.2475 -0.1668 -1.9463
 9209SOL     OW39259   3.407   1.941   3.758  0.1962 -0.5749 -0.3065
 9209SOL    HW139260   3.359   1.959   3.677  0.4608  0.8060 -0.1487
 9209SOL    HW239261   3.438   1.852   3.740  0.7781 -0.2807 -0.7373
 9210SOL     OW39262   2.720   0.060   1.893 -0.1378 -1.1293 -0.0680
 9210SOL    HW139263   2.806   0.046   1.932  0.0061 -1.3510 -0.4699
 9210SOL    HW239264   2.742   0.128   1.829  0.0909 -1.6179 -0.5048
 9211SOL     OW39265   2.844   1.146   6.481 -0.1790 -0.1167  0.2874
 9211SOL    HW139266   2.916   1.091   6.514  0.6356 -0.3764 -1.9434
 9211SOL    HW239267   2.767   1.108   6.523 -0.1214  0.8327  1.2692
 9212SOL     OW39268   3.512   3.996   8.007  0.1745 -0.2611 -0.6195
 9212SOL    HW139269   3.460   4.031   7.935  0.3478  0.6119 -0.3235
 9212SOL    HW239270   3.504   3.902   7.991  0.4291 -0.7338  2.0106
 9213SOL     OW39271   3.923   3.354   4.616  0.0991 -0.4623  0.0740
 9213SOL    HW139272   3.989   3.372   4.683 -0.4419 -0.5008  0.6258
 9213SOL    HW239273   3.875   3.437   4.623  0.7720 -0.0535 -0.1609
 9214SOL     OW39274   4.274   4.218  12.931  0.2429 -0.6721  0.7234
 9214SOL    HW139275   4.265   4.312  12.945 -0.2110 -0.7048  0.6662
 9214SOL    HW239276   4.360   4.208  12.971  0.3953 -5.0723 -0.7061
 9215SOL     OW39277   1.684   0.934   4.212  0.2882 -0.0069  0.0231
 9215SOL    HW139278   1.643   1.020   4.204 -0.5491 -0.0736  3.3542
 9215SOL    HW239279   1.775   0.954   4.232  0.6474 -2.2479  0.5451
 9216SOL     OW39280   2.298   4.380   5.856  0.8308 -0.7172 -0.6082
 9216SOL    HW139281   2.221   4.324   5.870 -0.1378  0.6612 -0.3711
 9216SOL    HW239282   2.349   4.357   5.933  0.1387 -1.5352 -0.3983
 9217SOL     OW39283   2.003   1.487  12.761  0.0490  0.6288 -0.8285
 9217SOL    HW139284   2.024   1.400  12.795  2.0664  0.9542 -1.2041
 9217SOL    HW239285   2.002   1.543  12.839 -1.4392 -0.2548 -0.2252
 9218SOL     OW39286   2.802   1.685  17.545 -0.1794 -0.1737  0.1004
 9218SOL    HW139287   2.748   1.759  17.515 -0.2548 -0.2300  0.0981
 9218SOL    HW239288   2.758   1.621  17.489 -0.4169 -0.2856  0.4205
 9219SOL     OW39289   2.219   4.258  12.106  0.4646  0.5026  0.3347
 9219SOL    HW139290   2.227   4.337  12.160  1.6310  0.1053  0.7466
 9219SOL    HW239291   2.312   4.253  12.084  0.2297  0.8452 -0.7475
 9220SOL     OW39292   2.688   1.788   3.752 -0.6255  0.9947  0.5844
 9220SOL    HW139293   2.602   1.776   3.712  0.7138 -0.0974 -1.9403
 9220SOL    HW239294   2.702   1.883   3.759  0.7407  0.8837 -0.7555
 9221SOL     OW39295   1.136   4.008   5.777  0.1899 -0.2775 -0.2050
 9221SOL    HW139296   1.186   3.929   5.758  0.2492 -0.6802  1.6436
 9221SOL    HW239297   1.198   4.063   5.825  0.3423 -0.1196 -0.5887
 9222SOL     OW39298   2.427   3.101   1.370  0.6170  0.0109 -0.5610
 9222SOL    HW139299   2.400   3.019   1.411  0.3377 -0.5309 -1.8336
 9222SOL    HW239300   2.511   3.081   1.329 -0.5017 -2.0615 -1.8257
 9223SOL     OW39301   4.279   2.430  14.845 -0.6666  0.1716 -0.3712
 9223SOL    HW139302   4.242   2.451  14.931  2.4184  3.0807  0.2489
 9223SOL    HW239303   4.359   2.387  14.875 -1.1740 -1.1496 -0.9254
 9224SOL     OW39304   0.642   3.419   4.283  0.0379  0.0790 -0.3118
 9224SOL    HW139305   0.570   3.483   4.281  0.9107  0.9669 -2.8797
 9224SOL    HW239306   0.652   3.377   4.198 -2.2554  0.3960 -0.7485
 9225SOL     OW39307   1.455   1.688   0.741  0.2488  0.7764  0.3279
 9225SOL    HW139308   1.375   1.659   0.785 -1.0905  1.5447 -1.6397
 9225SOL    HW239309   1.463   1.609   0.688  2.4644 -0.0004  1.8059
 9226SOL     OW39310   3.222   3.592   8.103  0.1144 -0.6087  0.1696
 9226SOL    HW139311   3.171   3.548   8.172 -0.1242  0.1763  0.4972
 9226SOL    HW239312   3.181   3.538   8.035 -1.3215 -0.3800  0.8437
 9227SOL     OW39313   2.349   2.178   5.102 -0.4492 -0.4350 -0.8206
 9227SOL    HW139314   2.329   2.087   5.122  2.7215 -0.6098  1.4297
 9227SOL    HW239315   2.328   2.208   5.191  0.3213  0.5705 -0.9688
 9228SOL     OW39316   4.554   3.972   7.442  0.4429  0.2401  0.1101
 9228SOL    HW139317   4.633   4.007   7.484  2.1865 -0.4805 -2.5538
 9228SOL    HW239318   4.589   3.924   7.366  0.6350 -0.1008  0.4110
 9229SOL     OW39319   0.329   4.698   3.733 -0.4749 -0.1248 -0.2696
 9229SOL    HW139320   0.261   4.665   3.792 -0.4512  2.8925  1.4306
 9229SOL    HW239321   0.405   4.683   3.790 -0.0356 -3.7029 -1.7708
 9230SOL     OW39322   1.623   4.433   1.799 -0.1926 -0.1428  0.1992
 9230SOL    HW139323   1.705   4.456   1.841  0.7070 -2.4365 -0.2944
 9230SOL    HW239324   1.642   4.343   1.771  0.2767 -0.2824  0.9744
 9231SOL     OW39325   3.015   4.698   7.337  0.3588  0.5573  0.8042
 9231SOL    HW139326   3.016   4.713   7.431 -0.5149  0.0115  0.9093
 9231SOL    HW239327   2.972   4.613   7.326  0.1875  0.8497 -0.7902
 9232SOL     OW39328   3.006   0.935   4.075 -0.4978 -0.1266  0.2516
 9232SOL    HW139329   3.020   0.856   4.023 -1.3191 -0.7869  1.0319
 9232SOL    HW239330   2.943   0.975   4.015  1.5691  1.3778 -0.9093
 9233SOL     OW39331   1.110   3.151   7.762 -0.3381  0.1192  0.1042
 9233SOL    HW139332   1.114   3.057   7.779  0.1578  0.1940  0.3809
 9233SOL    HW239333   1.025   3.153   7.717 -1.7123  1.1842  2.7439
 9234SOL     OW39334   3.386   1.354   4.917  0.3614 -0.2941 -0.7879
 9234SOL    HW139335   3.336   1.394   4.846  0.1570 -1.5129 -1.3136
 9234SOL    HW239336   3.424   1.437   4.948 -3.1652  0.7472  0.7524
 9235SOL     OW39337   2.634   4.041   5.814 -0.0294 -0.0176  0.2282
 9235SOL    HW139338   2.617   4.130   5.845 -0.4064  0.0295 -0.1271
 9235SOL    HW239339   2.659   4.053   5.722  1.2922 -0.0981  0.5654
 9236SOL     OW39340   3.726   1.449   9.657  0.0839  0.6600  0.2528
 9236SOL    HW139341   3.721   1.536   9.619 -1.1238  0.1512 -0.7392
 9236SOL    HW239342   3.746   1.399   9.578 -1.6551 -1.3357  1.0764
 9237SOL     OW39343   4.099   3.290   1.874 -0.0939  0.2599  0.6354
 9237SOL    HW139344   4.008   3.312   1.895 -0.0289  1.8387 -0.7108
 9237SOL    HW239345   4.126   3.377   1.843  0.8809 -0.1470  0.3522
 9238SOL     OW39346   2.757   3.833   8.918  0.6393 -0.8188 -0.3391
 9238SOL    HW139347   2.829   3.811   8.859  0.1477  0.5768 -1.4744
 9238SOL    HW239348   2.791   3.792   8.997  2.0734 -0.4363 -0.7593
 9239SOL     OW39349   4.437   3.288   4.193  0.0185  0.0530  0.0294
 9239SOL    HW139350   4.478   3.208   4.227 -0.0748 -0.5733 -1.3123
 9239SOL    HW239351   4.496   3.355   4.226 -1.0872  1.1905 -0.3117
 9240SOL     OW39352   1.374   0.433   2.918 -0.3850 -0.2198 -0.9715
 9240SOL    HW139353   1.316   0.409   2.846 -1.4674 -0.5384 -0.0018
 9240SOL    HW239354   1.402   0.522   2.900 -0.8117  0.0896 -0.0922
 9241SOL     OW39355   1.081   3.187   6.787  0.1245 -0.2415  0.1125
 9241SOL    HW139356   1.034   3.214   6.866 -0.3695  1.5029 -0.7787
 9241SOL    HW239357   1.028   3.233   6.722 -1.3471 -1.8579  0.1621
 9242SOL     OW39358   3.054   2.387   4.666  0.0117 -0.2561 -0.1984
 9242SOL    HW139359   2.962   2.382   4.641  0.0844 -0.0543 -0.5108
 9242SOL    HW239360   3.061   2.306   4.716 -1.0271  0.4805  1.1280
 9243SOL     OW39361   1.923   0.615   8.800  0.6835 -0.0198 -0.0892
 9243SOL    HW139362   1.941   0.557   8.726  1.2040 -1.3337  1.0694
 9243SOL    HW239363   2.008   0.657   8.806  0.1546  1.4010 -2.5886
 9244SOL     OW39364   3.861   1.120   3.831  0.4391 -0.0829 -0.1402
 9244SOL    HW139365   3.774   1.160   3.829  1.0013  1.1148 -0.6602
 9244SOL    HW239366   3.844   1.043   3.885  1.7399 -0.2419  0.0269
 9245SOL     OW39367   3.543   3.642   2.741 -0.8217 -0.2067  0.1529
 9245SOL    HW139368   3.450   3.643   2.722 -1.3183 -1.9918  2.5033
 9245SOL    HW239369   3.568   3.570   2.683 -0.4422 -1.2886  1.6356
 9246SOL     OW39370   0.706   2.556  13.580 -0.0141  0.1651  0.1956
 9246SOL    HW139371   0.763   2.618  13.625  0.2692 -0.2100  0.3579
 9246SOL    HW239372   0.636   2.551  13.645  0.9804  0.5028  1.3036
 9247SOL     OW39373   0.482   3.708   3.087 -0.3468 -0.0438  0.1585
 9247SOL    HW139374   0.411   3.661   3.043 -0.3740 -0.1660  0.3328
 9247SOL    HW239375   0.436   3.745   3.163 -0.5106 -0.2956  0.1797
 9248SOL     OW39376   3.019   2.047  14.591 -0.0300  0.5429  0.1965
 9248SOL    HW139377   3.106   2.056  14.553  0.8905 -0.3479  2.1191
 9248SOL    HW239378   3.023   1.960  14.632  0.3036  0.5511  0.1800
 9249SOL     OW39379   4.556   0.042  12.188 -0.0007 -0.1412 -0.5393
 9249SOL    HW139380   4.466   0.024  12.216 -0.2478  0.1414 -1.1699
 9249SOL    HW239381   4.555   0.123  12.138  2.0325 -0.8907 -1.7806
 9250SOL     OW39382   1.367   4.017   7.954 -0.2674 -0.6682  0.2550
 9250SOL    HW139383   1.344   4.109   7.969 -3.2107 -1.5162  0.8180
 9250SOL    HW239384   1.334   4.001   7.865  2.1592 -0.9089 -0.6023
 9251SOL     OW39385   2.559   3.267   7.491 -0.0822  0.6017 -0.3821
 9251SOL    HW139386   2.612   3.318   7.552  1.0838  0.5037 -1.3175
 9251SOL    HW239387   2.492   3.228   7.548 -0.4896  3.0025  0.7783
 9252SOL     OW39388   3.774   3.524   8.567 -0.0870  0.2690  0.4100
 9252SOL    HW139389   3.826   3.561   8.496  0.3607  1.1732  1.1980
 9252SOL    HW239390   3.823   3.445   8.587  0.5436  0.4201 -0.5453
 9253SOL     OW39391   3.813   0.045   7.409 -0.8347 -0.3465 -0.0394
 9253SOL    HW139392   3.821   4.714   7.477 -1.9838  0.7611  1.1719
 9253SOL    HW239393   3.824   4.731   7.328  1.7055 -1.8446  1.2273
 9254SOL     OW39394   3.190   0.269   7.046  0.1613 -0.2822 -0.4799
 9254SOL    HW139395   3.213   0.208   7.116 -2.0961  0.6682  1.1049
 9254SOL    HW239396   3.153   0.350   7.081 -1.4236 -1.4311  0.5436
 9255SOL     OW39397   1.872   2.531  14.392  0.1893  0.0359  0.0360
 9255SOL    HW139398   1.941   2.528  14.458  0.8129 -1.1091 -0.6658
 9255SOL    HW239399   1.826   2.452  14.419  0.4825 -0.0058  0.4045
 9256SOL     OW39400   2.660   3.260   9.761 -0.2904 -0.1347 -0.8669
 9256SOL    HW139401   2.736   3.305   9.798  0.3446 -0.7333 -1.4190
 9256SOL    HW239402   2.657   3.172   9.799  0.7555 -0.0837 -0.6650
 9257SOL     OW39403   3.696   4.314   8.771 -0.1628 -0.0078 -0.6453
 9257SOL    HW139404   3.707   4.226   8.735  0.2466 -0.2626  0.1037
 9257SOL    HW239405   3.703   4.372   8.695 -0.9130 -0.7852 -1.2953
 9258SOL     OW39406   3.164   2.036  16.386  0.8310 -0.0015  0.1171
 9258SOL    HW139407   3.234   2.072  16.440  1.7949 -2.5259  0.5074
 9258SOL    HW239408   3.180   2.086  16.305 -1.0107  1.1775  0.4844
 9259SOL     OW39409   0.758   3.810  13.922 -0.4818  0.1370  0.1679
 9259SOL    HW139410   0.707   3.881  13.961  1.1601  1.3315  0.1537
 9259SOL    HW239411   0.697   3.791  13.851 -1.1803 -0.9403  1.0500
 9260SOL     OW39412   0.927   1.828   7.967  0.0700 -0.0411 -0.7043
 9260SOL    HW139413   0.871   1.842   8.043 -0.6014 -2.4900 -0.7427
 9260SOL    HW239414   0.864   1.821   7.895  1.7424 -0.8242 -2.1000
 9261SOL     OW39415   2.997   4.558   6.704  0.4131 -0.1812  0.5310
 9261SOL    HW139416   3.015   4.559   6.798 -2.4750  1.2729  1.0655
 9261SOL    HW239417   3.075   4.609   6.683  1.9775 -1.2165  3.8044
 9262SOL     OW39418   1.024   1.590   1.635  0.1789 -0.5565  0.3622
 9262SOL    HW139419   1.029   1.584   1.730 -1.2238  1.5548  0.5776
 9262SOL    HW239420   1.003   1.681   1.614 -0.4481 -1.6181 -3.6158
 9263SOL     OW39421   2.533   2.065   1.786 -0.1276 -0.3080 -0.4949
 9263SOL    HW139422   2.613   2.072   1.734 -1.3423 -0.3260 -2.3975
 9263SOL    HW239423   2.478   2.117   1.727 -1.8206  0.1131  1.4312
 9264SOL     OW39424   0.481   0.319   4.240  0.3664  0.0360 -0.4868
 9264SOL    HW139425   0.538   0.385   4.280 -1.3741  0.7161  0.8971
 9264SOL    HW239426   0.446   0.364   4.164  1.1546 -1.0029 -1.4679
 9265SOL     OW39427   2.832   0.005   9.099 -0.1737  0.3110  0.1672
 9265SOL    HW139428   2.752   0.030   9.144 -1.4449  0.0670 -1.9819
 9265SOL    HW239429   2.792   4.723   9.014  1.0686  0.1787 -0.3889
 9266SOL     OW39430   2.915   4.089  15.292  0.1518 -0.1983 -0.4012
 9266SOL    HW139431   2.825   4.071  15.321 -0.1537 -1.1515 -1.9134
 9266SOL    HW239432   2.919   4.078  15.197  0.6475 -0.0602 -0.3952
 9267SOL     OW39433   3.971   3.610   0.817  0.7336  0.2084 -0.0919
 9267SOL    HW139434   3.946   3.600   0.725 -1.7266  0.3015  0.5872
 9267SOL    HW239435   3.893   3.583   0.864  0.0724 -1.0430 -1.8905
 9268SOL     OW39436   0.458   2.855   0.996  0.0383 -0.1233  0.3264
 9268SOL    HW139437   0.473   2.935   0.945 -1.3912  0.5756  1.0141
 9268SOL    HW239438   0.541   2.865   1.042  1.4377 -3.6185 -1.4566
 9269SOL     OW39439   0.128   4.279   5.430  0.1475 -0.7403  0.8448
 9269SOL    HW139440   0.169   4.327   5.358 -0.1335 -2.0416 -0.1760
 9269SOL    HW239441   0.101   4.198   5.388  0.7712 -0.3818 -0.2244
 9270SOL     OW39442   2.579   2.835  17.330 -0.2802  0.2408 -0.8438
 9270SOL    HW139443   2.532   2.901  17.381  0.6312 -1.3051  1.9682
 9270SOL    HW239444   2.598   2.772  17.399 -1.0259  0.1785 -0.6950
 9271SOL     OW39445   3.128   3.928   1.411  0.1049 -0.4846  0.1370
 9271SOL    HW139446   3.198   3.864   1.422  1.5246  0.8583 -0.9900
 9271SOL    HW239447   3.133   3.947   1.317 -1.6392  1.1396  0.3727
 9272SOL     OW39448   2.247   2.743   6.126  0.1278  0.0829  0.1325
 9272SOL    HW139449   2.221   2.822   6.077  0.2914 -0.1942 -0.4024
 9272SOL    HW239450   2.278   2.773   6.211 -0.4409 -0.1115  0.4067
 9273SOL     OW39451   2.907   0.104   8.561 -0.0515 -0.4287  0.2194
 9273SOL    HW139452   2.855   0.044   8.507  0.8767  0.2863 -1.4915
 9273SOL    HW239453   2.846   0.147   8.621  1.8308  2.2844  0.1773
 9274SOL     OW39454   3.886   0.217   8.718  0.5276 -0.4411  0.3435
 9274SOL    HW139455   3.898   0.309   8.694  1.4692 -0.3136  1.2708
 9274SOL    HW239456   3.882   0.215   8.814 -1.5851  0.8458  0.2791
 9275SOL     OW39457   3.653   1.521   9.142  0.6129  0.0719 -0.0898
 9275SOL    HW139458   3.733   1.549   9.185  0.2292  0.7781  0.1614
 9275SOL    HW239459   3.580   1.576   9.172  0.5736 -2.5762  4.5514
 9276SOL     OW39460   1.206   2.015   7.135 -0.3315  0.0229 -0.3404
 9276SOL    HW139461   1.193   1.969   7.051  1.6413  0.6379 -0.9737
 9276SOL    HW239462   1.127   1.986   7.181  1.7592 -1.4534  2.2559
 9277SOL     OW39463   2.570   0.794   8.144  0.5927 -0.6294 -0.2186
 9277SOL    HW139464   2.520   0.714   8.163 -0.8798  1.0465  3.1014
 9277SOL    HW239465   2.662   0.771   8.158 -0.0024 -3.3438 -0.8111
 9278SOL     OW39466   3.498   2.058  13.107  0.1621  0.5251  0.0573
 9278SOL    HW139467   3.549   1.978  13.123 -3.4666 -0.9730  3.8504
 9278SOL    HW239468   3.468   2.038  13.018 -0.9444  0.9973  0.3288
 9279SOL     OW39469   3.180   0.229  15.708  0.9645 -0.1599  0.3845
 9279SOL    HW139470   3.098   0.203  15.667  1.2835  1.3201 -1.1645
 9279SOL    HW239471   3.141   0.263  15.789 -1.2005  3.5513 -2.2477
 9280SOL     OW39472   3.050   4.609   5.519  0.0561  0.1164  0.1405
 9280SOL    HW139473   3.138   4.644   5.529  0.1703  0.2271 -1.3530
 9280SOL    HW239474   3.017   4.587   5.606 -0.3742  3.5689  0.8701
 9281SOL     OW39475   2.432   2.053   4.691  0.0588  0.1568 -0.2368
 9281SOL    HW139476   2.443   2.020   4.602  0.7370  1.9821 -0.8194
 9281SOL    HW239477   2.342   2.081   4.681 -0.1920 -0.6403 -0.2416
 9282SOL     OW39478   4.165   0.036   6.344 -0.5522  0.1610  0.4535
 9282SOL    HW139479   4.153   4.700   6.282  1.7942  0.9293 -0.8824
 9282SOL    HW239480   4.258   0.031   6.365 -0.1620  1.4155 -0.9858
 9283SOL     OW39481   1.285   1.998  16.596  0.1632 -0.4982 -0.3767
 9283SOL    HW139482   1.323   2.077  16.559  0.6996 -0.5023  0.1643
 9283SOL    HW239483   1.359   1.952  16.635 -1.0261 -2.5680 -0.5640
 9284SOL     OW39484   4.424   0.998   5.582  0.1623  0.3363  0.0892
 9284SOL    HW139485   4.411   0.937   5.655  2.8012  0.7510  0.8919
 9284SOL    HW239486   4.500   0.957   5.543 -0.5606 -2.2435  1.3594
 9285SOL     OW39487   3.194   3.751   1.737 -0.0938 -0.0006  0.4608
 9285SOL    HW139488   3.110   3.725   1.699  0.8005  0.8851 -2.0738
 9285SOL    HW239489   3.164   3.771   1.826  1.1970  2.9648  0.2186
 9286SOL     OW39490   1.196   4.058   3.006 -0.0667  0.0601 -1.2615
 9286SOL    HW139491   1.204   3.979   2.953  1.1218 -1.6582  1.4558
 9286SOL    HW239492   1.252   4.118   2.957  0.5041 -0.5749 -1.3890
 9287SOL     OW39493   0.527   0.692  11.021 -0.6799  0.4808 -0.2967
 9287SOL    HW139494   0.489   0.605  11.006  0.5736 -0.2938  1.0904
 9287SOL    HW239495   0.489   0.718  11.104  0.7706 -0.3677  0.6399
 9288SOL     OW39496   0.965   4.478  16.881 -0.0208 -0.3077  0.6753
 9288SOL    HW139497   0.931   4.536  16.949 -0.6481 -1.3530  1.2570
 9288SOL    HW239498   1.051   4.453  16.913 -0.5724 -0.5092  1.9826
 9289SOL     OW39499   0.732   2.340   9.653  0.1452 -0.2584  0.6100
 9289SOL    HW139500   0.784   2.259   9.654  0.8580  0.2199  2.1797
 9289SOL    HW239501   0.670   2.311   9.586  2.6411  0.3630 -1.9743
 9290SOL     OW39502   3.505   4.362   7.561 -0.0325 -0.1185 -0.6535
 9290SOL    HW139503   3.455   4.320   7.631  0.8959  2.0360  1.3219
 9290SOL    HW239504   3.589   4.317   7.548 -0.5089 -0.3150 -2.9955
 9291SOL     OW39505   3.443   4.453   6.414 -0.4610 -0.4694  0.3145
 9291SOL    HW139506   3.419   4.546   6.416  1.5117  0.0452 -0.7732
 9291SOL    HW239507   3.403   4.430   6.498 -0.3126 -1.6276  0.0725
 9292SOL     OW39508   2.620   1.406   7.374 -0.0235 -0.5085  0.0247
 9292SOL    HW139509   2.588   1.495   7.360  0.4654 -0.4330 -0.6586
 9292SOL    HW239510   2.674   1.390   7.297  1.5695 -1.4471  1.3245
 9293SOL     OW39511   4.669   3.350   4.524  0.6561  0.4184  0.1620
 9293SOL    HW139512   4.617   3.428   4.509 -2.0830 -0.8263  3.1782
 9293SOL    HW239513   4.726   3.377   4.596  2.2851 -1.3231 -0.4445
 9294SOL     OW39514   3.897   3.628   2.503 -0.0762  0.3050 -0.1462
 9294SOL    HW139515   3.985   3.590   2.503 -0.5712 -0.8620  0.8619
 9294SOL    HW239516   3.860   3.615   2.590  0.0819  0.4427 -0.0574
 9295SOL     OW39517   4.540   3.924   3.983  0.3916 -0.3984 -0.1705
 9295SOL    HW139518   4.613   3.908   3.922  1.6273 -0.3288  1.3035
 9295SOL    HW239519   4.591   3.954   4.058 -0.4637 -0.1293  0.2933
 9296SOL     OW39520   1.922   1.104   8.940  0.4383 -0.0670 -0.0492
 9296SOL    HW139521   1.912   1.013   8.969 -0.7384  0.4194  1.0694
 9296SOL    HW239522   1.988   1.123   9.007  0.2520  2.1084 -0.4989
 9297SOL     OW39523   1.643   3.009  11.563  0.0547  0.0908 -0.3289
 9297SOL    HW139524   1.715   2.963  11.519 -0.0370 -0.7208  0.3574
 9297SOL    HW239525   1.570   2.973  11.513  0.6110 -0.7153 -0.5783
 9298SOL     OW39526   1.845   2.651   7.332  0.1160 -0.1392  0.1665
 9298SOL    HW139527   1.892   2.632   7.413  0.1428  1.0885  0.4364
 9298SOL    HW239528   1.759   2.670   7.370  0.2547  1.5666 -0.3886
 9299SOL     OW39529   0.600   4.537  14.573 -0.1473 -0.1308  0.1689
 9299SOL    HW139530   0.506   4.555  14.581 -0.0348  0.4949  0.1042
 9299SOL    HW239531   0.604   4.442  14.587  3.0483  0.0753  0.6651
 9300SOL     OW39532   0.356   2.081   9.594 -0.5456 -0.0669  0.3992
 9300SOL    HW139533   0.429   2.024   9.620  0.2107  1.1485  0.9447
 9300SOL    HW239534   0.297   2.074   9.669  2.1444 -0.1486  2.5528
 9301SOL     OW39535   2.724   0.050   6.887  0.1036 -0.3434 -0.4030
 9301SOL    HW139536   2.737   0.097   6.805  0.5422 -0.9100 -0.6518
 9301SOL    HW239537   2.764   0.103   6.956  0.3565  0.2449 -1.0085
 9302SOL     OW39538   4.467   4.293   5.798 -0.2121  0.3928  0.1192
 9302SOL    HW139539   4.479   4.375   5.846  1.5312  1.9173 -2.8760
 9302SOL    HW239540   4.377   4.276   5.826  0.5764  0.0477  2.4052
 9303SOL     OW39541   2.144   1.635   2.277 -0.0635  0.1993 -0.8689
 9303SOL    HW139542   2.170   1.587   2.356 -1.4867  1.4480  0.3735
 9303SOL    HW239543   2.051   1.613   2.271 -0.2956  0.3571  1.7816
 9304SOL     OW39544   4.013   3.410   5.012  0.0637 -0.1681  0.3353
 9304SOL    HW139545   3.988   3.370   5.095 -1.6992  1.6401  0.6451
 9304SOL    HW239546   4.083   3.468   5.042 -0.2925  0.8102 -0.7137
 9305SOL     OW39547   3.374   4.678  12.636 -1.1028  0.5996 -0.1081
 9305SOL    HW139548   3.283   4.706  12.641 -0.6768  1.8588  0.6127
 9305SOL    HW239549   3.412   4.691  12.723 -1.3476 -0.9055  0.2253
 9306SOL     OW39550   1.835   0.705   9.791  0.1821 -0.3007  0.2161
 9306SOL    HW139551   1.890   0.774   9.828 -2.0195  1.2241  0.6433
 9306SOL    HW239552   1.897   0.633   9.782 -2.4451 -2.3212 -1.8833
 9307SOL     OW39553   0.122   0.229   8.353 -0.0628 -0.0149 -0.0346
 9307SOL    HW139554   0.208   0.197   8.377  0.0328  0.3007  0.0514
 9307SOL    HW239555   0.069   0.153   8.376 -1.7299  1.7322  1.9045
 9308SOL     OW39556   1.173   3.264   2.790  0.7668 -0.3825  0.0874
 9308SOL    HW139557   1.174   3.270   2.886  0.9186 -2.7173  0.2250
 9308SOL    HW239558   1.244   3.201   2.787  2.8582  1.9650  0.1263
 9309SOL     OW39559   2.321   0.214   0.433  0.2967  0.0142  0.3931
 9309SOL    HW139560   2.278   0.213   0.519  0.1853 -1.2141  0.3197
 9309SOL    HW239561   2.410   0.189   0.460 -0.2053 -1.9859  0.1174
 9310SOL     OW39562   3.955   3.234   0.537 -0.1775  0.9179 -0.4392
 9310SOL    HW139563   4.012   3.308   0.557  0.0179  0.4201  0.8430
 9310SOL    HW239564   3.960   3.190   0.622  0.1756  1.5288 -0.1487
 9311SOL     OW39565   0.104   4.102  10.738 -0.3336  0.2870  0.2470
 9311SOL    HW139566   0.177   4.119  10.678 -2.4627 -0.7771 -2.6982
 9311SOL    HW239567   0.111   4.007  10.743  1.8550  0.3542 -1.6356
 9312SOL     OW39568   1.664   0.671   1.526 -0.4896  0.4917  0.1727
 9312SOL    HW139569   1.659   0.670   1.622  3.0757  0.3061  0.3255
 9312SOL    HW239570   1.734   0.609   1.508 -0.5796  0.6271 -0.6388
 9313SOL     OW39571   0.786   4.251  16.896 -0.0462  0.1460 -0.1560
 9313SOL    HW139572   0.855   4.311  16.866 -0.7746  0.2704 -1.5550
 9313SOL    HW239573   0.707   4.305  16.887 -1.5327 -2.1367 -0.6403
 9314SOL     OW39574   0.102   3.205   9.917  0.0072 -0.1105 -0.1471
 9314SOL    HW139575   0.094   3.110   9.921  0.7889 -0.1402  0.7156
 9314SOL    HW239576   0.190   3.209   9.881  0.7987  2.0123  2.0056
 9315SOL     OW39577   1.145   2.824   9.408  0.1614  0.2934  0.1825
 9315SOL    HW139578   1.086   2.884   9.364  0.4387  2.2567  2.4696
 9315SOL    HW239579   1.224   2.849   9.359  0.6481 -0.3299  0.6445
 9316SOL     OW39580   1.542   1.627   6.531 -0.8167  0.4782  0.0129
 9316SOL    HW139581   1.567   1.542   6.568 -1.2859  0.2100 -0.2837
 9316SOL    HW239582   1.612   1.680   6.569  0.0517 -0.5333 -0.1677
 9317SOL     OW39583   1.630   4.664   2.252 -0.2806 -0.2720 -0.6525
 9317SOL    HW139584   1.598   4.629   2.169 -2.0828 -0.7372  0.2328
 9317SOL    HW239585   1.711   4.615   2.265 -1.0832 -1.4880 -0.3125
 9318SOL     OW39586   4.587   4.541   0.459 -0.3188  0.4761  0.0102
 9318SOL    HW139587   4.595   4.624   0.413  5.9222 -1.0696 -1.6537
 9318SOL    HW239588   4.613   4.559   0.549 -1.6182 -1.7999  0.8507
 9319SOL     OW39589   4.416   3.731   8.702 -0.2789 -0.3898  0.0989
 9319SOL    HW139590   4.481   3.670   8.736  0.1502 -0.6367 -1.1864
 9319SOL    HW239591   4.342   3.706   8.758 -1.5013 -1.3048 -1.9134
 9320SOL     OW39592   0.339   0.944   1.563  0.4742 -0.2048  0.2228
 9320SOL    HW139593   0.344   0.998   1.484  0.6810 -0.6948 -0.0974
 9320SOL    HW239594   0.432   0.950   1.585  0.2825  1.6283  0.5294
 9321SOL     OW39595   3.251   2.176   9.955  0.1104  0.6411  0.4519
 9321SOL    HW139596   3.271   2.252   9.901  0.3673  0.3258  0.0957
 9321SOL    HW239597   3.327   2.187  10.013 -0.3033 -4.4586  1.9820
 9322SOL     OW39598   3.407   0.994   2.768  0.2534  0.2585 -0.1407
 9322SOL    HW139599   3.501   1.007   2.779  0.2773  0.8745 -1.0724
 9322SOL    HW239600   3.408   0.965   2.676 -0.3038  1.0989 -0.4081
 9323SOL     OW39601   1.160   3.458  10.836  0.3511  0.5794  0.0533
 9323SOL    HW139602   1.195   3.519  10.901 -1.9336  1.1054  0.7521
 9323SOL    HW239603   1.069   3.486  10.831 -0.1034 -1.0681 -1.0133
 9324SOL     OW39604   1.511   1.850  13.290 -0.0861 -0.0321  0.0331
 9324SOL    HW139605   1.461   1.771  13.273  2.4936 -1.1844 -2.1432
 9324SOL    HW239606   1.465   1.874  13.370 -0.1624  0.4130 -0.1412
 9325SOL     OW39607   4.273   0.461  17.520 -0.0186 -0.5510 -0.4860
 9325SOL    HW139608   4.324   0.541  17.508 -0.3392 -0.1380  0.9697
 9325SOL    HW239609   4.181   0.487  17.515  0.6660  1.3772 -3.1298
 9326SOL     OW39610   3.048   2.214   8.168  0.0059  0.0479  0.0806
 9326SOL    HW139611   3.101   2.172   8.236  1.5514  0.4737 -0.8723
 9326SOL    HW239612   2.958   2.205   8.200  0.0325  2.3745  0.8417
 9327SOL     OW39613   4.465   4.576   2.508 -0.3326  0.2965 -0.8740
 9327SOL    HW139614   4.451   4.641   2.577 -2.6368 -1.8734  0.6888
 9327SOL    HW239615   4.423   4.613   2.431  0.7877  2.4311 -0.4459
 9328SOL     OW39616   4.496   1.916   8.892 -0.3779  0.5333  0.3553
 9328SOL    HW139617   4.468   1.856   8.962 -0.1209 -0.0058 -0.0035
 9328SOL    HW239618   4.436   1.894   8.821  0.1040  2.0060 -0.5029
 9329SOL     OW39619   2.618   0.163   7.362 -0.5363  0.0036 -0.1696
 9329SOL    HW139620   2.549   0.138   7.424 -0.0890 -1.0335 -0.1013
 9329SOL    HW239621   2.563   0.194   7.290  1.1797  1.1063 -0.9982
 9330SOL     OW39622   1.160   1.243  17.250  0.1243  0.4329 -0.2561
 9330SOL    HW139623   1.135   1.293  17.328  0.7167  0.7238 -0.2568
 9330SOL    HW239624   1.094   1.272  17.187 -0.1230 -0.8866 -0.6000
 9331SOL     OW39625   4.694   2.559  10.464 -0.1312  0.3428  0.3177
 9331SOL    HW139626   4.667   2.590  10.378  0.8040 -0.3288 -0.2299
 9331SOL    HW239627   0.051   2.578  10.449  0.2737 -1.8686 -0.0325
 9332SOL     OW39628   2.022   4.147   2.674 -0.4880 -0.0376 -0.1374
 9332SOL    HW139629   2.098   4.201   2.696 -2.0994  1.8230  0.8570
 9332SOL    HW239630   1.959   4.218   2.683 -0.3764 -0.1473  1.6318
 9333SOL     OW39631   0.833   1.472   8.939 -0.3969 -0.2876  0.0795
 9333SOL    HW139632   0.787   1.390   8.921  0.8664 -1.1003  0.6057
 9333SOL    HW239633   0.784   1.516   9.008 -0.6327  1.9853 -1.5369
 9334SOL     OW39634   3.650   3.291   1.248 -0.5842 -0.0417  1.1372
 9334SOL    HW139635   3.571   3.334   1.282 -0.6475 -0.2691  1.2813
 9334SOL    HW239636   3.642   3.209   1.296 -2.2879 -1.6230 -1.8734
 9335SOL     OW39637   1.369   2.570   7.306 -0.0504  0.1142  0.0330
 9335SOL    HW139638   1.298   2.522   7.350 -1.3816  2.3635  0.3125
 9335SOL    HW239639   1.338   2.658   7.328 -1.9192  0.0795 -2.4923
 9336SOL     OW39640   2.403   4.676   2.363  0.1048 -0.2522  0.4139
 9336SOL    HW139641   2.352   4.661   2.284  0.5577 -0.9203  0.2540
 9336SOL    HW239642   2.491   4.652   2.335 -0.5305 -1.6623 -0.3663
 9337SOL     OW39643   2.495   0.495   2.734  0.6537 -0.6303 -0.1396
 9337SOL    HW139644   2.507   0.588   2.715 -0.1756 -0.5257 -0.1729
 9337SOL    HW239645   2.422   0.496   2.796  0.9246  2.4166  0.1232
 9338SOL     OW39646   2.065   0.864   5.599 -0.5108 -0.2158  0.2473
 9338SOL    HW139647   2.006   0.831   5.667  0.8738 -1.0924  1.0547
 9338SOL    HW239648   2.046   0.799   5.532  0.7860  2.8420 -3.0711
 9339SOL     OW39649   2.876   0.692   7.170  0.0119 -0.0418  0.1607
 9339SOL    HW139650   2.894   0.745   7.248  2.9936 -0.9486  0.0981
 9339SOL    HW239651   2.791   0.664   7.202 -0.3937  1.5852  0.5458
 9340SOL     OW39652   0.483   1.623   6.551  0.1173 -0.0203  0.3505
 9340SOL    HW139653   0.474   1.528   6.560 -1.1620 -0.0879 -1.7142
 9340SOL    HW239654   0.389   1.637   6.535 -0.0393  0.0765  1.3545
 9341SOL     OW39655   0.578   0.632  16.679 -0.5194 -0.4885 -0.0014
 9341SOL    HW139656   0.627   0.551  16.663  2.0248  1.3647 -1.7509
 9341SOL    HW239657   0.546   0.607  16.766 -0.4652 -0.7209 -0.0490
 9342SOL     OW39658   3.805   4.590   1.197 -0.1021 -0.6161  0.5900
 9342SOL    HW139659   3.842   4.670   1.160  2.5948 -2.0371  0.2706
 9342SOL    HW239660   3.845   4.589   1.284  2.2225 -0.5050 -0.4776
 9343SOL     OW39661   1.835   0.472  10.591 -0.2526 -0.3920  0.2650
 9343SOL    HW139662   1.908   0.457  10.531 -1.8675 -1.0864 -1.5230
 9343SOL    HW239663   1.786   0.392  10.569 -0.6925 -0.6605  2.2181
 9344SOL     OW39664   0.812   4.607  11.086 -0.4528 -0.1052  0.2574
 9344SOL    HW139665   0.854   4.530  11.047 -1.8635 -1.4041  1.3069
 9344SOL    HW239666   0.728   4.586  11.046  0.0777  2.1705 -1.9896
 9345SOL     OW39667   1.882   1.003   4.655  0.3610  0.2348 -0.0060
 9345SOL    HW139668   1.911   0.924   4.701 -0.7138 -0.9741 -1.4317
 9345SOL    HW239669   1.890   1.067   4.726 -1.3703  1.5178 -0.9784
 9346SOL     OW39670   4.178   1.247   9.392 -0.5724  0.3116 -0.5167
 9346SOL    HW139671   4.088   1.214   9.401 -1.3808  1.8979 -2.5317
 9346SOL    HW239672   4.209   1.267   9.480  1.4298  2.0556 -1.6163
 9347SOL     OW39673   3.393   1.082   6.242 -0.5684  0.2880 -0.4860
 9347SOL    HW139674   3.363   1.070   6.152  1.0127 -0.6455 -0.8911
 9347SOL    HW239675   3.326   1.043   6.297  1.4500 -0.5864  1.3249
 9348SOL     OW39676   3.005   4.262   7.518 -0.1723  0.0429  0.6729
 9348SOL    HW139677   3.019   4.300   7.605 -2.5117 -0.0507  1.0852
 9348SOL    HW239678   3.008   4.166   7.524 -3.1784 -0.0202  0.7935
 9349SOL     OW39679   4.004   3.960  16.338 -0.0277  0.3316 -0.0347
 9349SOL    HW139680   3.966   3.932  16.254  1.4315  0.5588 -0.7709
 9349SOL    HW239681   3.958   3.910  16.406  1.6770 -1.4271 -0.2000
 9350SOL     OW39682   3.988   3.312   3.621  0.4611 -0.1074 -0.8198
 9350SOL    HW139683   3.978   3.339   3.530 -0.4864 -1.8051 -1.2087
 9350SOL    HW239684   4.057   3.374   3.645 -0.0534  1.1043 -2.4810
 9351SOL     OW39685   2.053   0.021   7.807 -0.6754  0.3480  0.0229
 9351SOL    HW139686   2.069   4.668   7.775  1.3421  0.4623  0.6615
 9351SOL    HW239687   1.965   0.029   7.771 -0.7863  1.0732  0.4455
 9352SOL     OW39688   3.375   1.405  16.146  0.2581 -0.0335 -0.2149
 9352SOL    HW139689   3.440   1.370  16.085 -0.8210 -2.0947 -0.1669
 9352SOL    HW239690   3.369   1.495  16.113 -0.7598 -0.3811 -0.9904
 9353SOL     OW39691   1.347   0.442   7.362  0.0724  0.3367  0.5389
 9353SOL    HW139692   1.256   0.430   7.334  0.1227  1.0931  0.0463
 9353SOL    HW239693   1.333   0.470   7.452 -2.0752  0.2146  0.2358
 9354SOL     OW39694   1.368   1.175   7.548  1.0601 -0.1899  0.4033
 9354SOL    HW139695   1.445   1.124   7.573  0.4733 -0.6463  1.3131
 9354SOL    HW239696   1.316   1.145   7.623 -2.3713  0.0255 -1.8895
 9355SOL     OW39697   2.445   2.624   8.766  0.0484  0.4676  0.6343
 9355SOL    HW139698   2.377   2.593   8.706  0.3144  0.4308  0.3516
 9355SOL    HW239699   2.519   2.594   8.713 -0.4328 -0.1794  0.3165
 9356SOL     OW39700   0.675   3.351  11.235 -0.7224 -0.1885 -0.0779
 9356SOL    HW139701   0.727   3.425  11.203 -1.0969  0.1321  0.0590
 9356SOL    HW239702   0.587   3.388  11.235 -0.2870  0.8637  1.9041
 9357SOL     OW39703   4.249   2.279   2.068  0.2409 -0.0336  0.1538
 9357SOL    HW139704   4.197   2.321   2.136 -1.1679 -0.8671 -0.4039
 9357SOL    HW239705   4.226   2.327   1.988 -1.5090 -0.3202  0.4977
 9358SOL     OW39706   2.389   0.477   1.264 -0.0914  0.1143  0.0333
 9358SOL    HW139707   2.468   0.497   1.314 -0.7359 -1.0761  1.4920
 9358SOL    HW239708   2.338   0.419   1.319 -0.3401  0.0406 -0.2731
 9359SOL     OW39709   2.039   3.255   3.025  0.2267  0.8737 -0.3196
 9359SOL    HW139710   2.005   3.201   3.096 -1.8034  1.9090 -0.5164
 9359SOL    HW239711   2.087   3.319   3.079  1.1178  0.7359 -0.9553
 9360SOL     OW39712   3.934   2.390   5.449  0.0550  0.7092  0.4271
 9360SOL    HW139713   3.907   2.403   5.358  2.8482  0.5738 -0.3967
 9360SOL    HW239714   3.950   2.296   5.454 -0.6420  0.4961 -1.4399
 9361SOL     OW39715   4.355   1.239   9.967  0.5861  0.2638  0.7091
 9361SOL    HW139716   4.260   1.238   9.959  0.6245  0.4798  0.2733
 9361SOL    HW239717   4.385   1.148   9.956 -0.5608  0.1054 -1.0943
 9362SOL     OW39718   3.842   2.287   2.359 -0.2454 -0.6609  0.5394
 9362SOL    HW139719   3.769   2.230   2.335 -0.2108 -0.3921 -0.1912
 9362SOL    HW239720   3.877   2.228   2.427  0.6775 -2.2357 -1.2852
 9363SOL     OW39721   2.884   1.294   0.706  0.0688  0.1139  0.3855
 9363SOL    HW139722   2.941   1.361   0.667  1.5113 -1.3271  0.0328
 9363SOL    HW239723   2.959   1.268   0.760  1.1542  0.2981 -1.0295
 9364SOL     OW39724   4.657   1.636   7.837  0.2583  0.2690  0.4804
 9364SOL    HW139725   4.713   1.713   7.835  1.1152 -0.4026 -1.3558
 9364SOL    HW239726   4.710   1.564   7.802 -0.4046  0.5207 -1.0216
 9365SOL     OW39727   1.605   0.707   4.922 -0.3787  0.2747 -0.0658
 9365SOL    HW139728   1.518   0.673   4.902  0.3505 -0.9857 -1.0540
 9365SOL    HW239729   1.661   0.632   4.904  1.0020  1.4238 -0.6055
 9366SOL     OW39730   3.146   1.404  15.999  0.9507 -1.1448  0.0687
 9366SOL    HW139731   3.073   1.443  16.048  2.0494  1.4048 -0.3306
 9366SOL    HW239732   3.198   1.377  16.075 -0.0788  3.0109  2.2965
 9367SOL     OW39733   1.815   1.624   0.149  0.1434 -0.3883  0.2447
 9367SOL    HW139734   1.786   1.540   0.185  1.5977 -1.3766 -0.8605
 9367SOL    HW239735   1.798   1.617   0.055 -1.4291 -1.0094  0.5793
 9368SOL     OW39736   2.698   0.427   6.647  0.4228  0.2032 -0.2387
 9368SOL    HW139737   2.674   0.514   6.678 -1.5634 -0.0601 -1.0581
 9368SOL    HW239738   2.794   0.427   6.643  0.4772  0.0984  1.2840
 9369SOL     OW39739   1.308   2.107   7.772  0.3863  0.2713  0.1805
 9369SOL    HW139740   1.303   2.018   7.739 -1.1380  0.1410  0.7841
 9369SOL    HW239741   1.338   2.089   7.861 -0.0621  2.6059  0.8244
 9370SOL     OW39742   3.342   4.199   4.764 -0.2756  0.3105 -0.5313
 9370SOL    HW139743   3.416   4.260   4.755 -0.0653 -0.0611 -1.3464
 9370SOL    HW239744   3.294   4.244   4.834  1.7279 -0.9511  1.6800
 9371SOL     OW39745   0.485   1.822   3.127  0.3448 -0.3646  0.2089
 9371SOL    HW139746   0.571   1.798   3.091  0.7661 -0.0521  1.0050
 9371SOL    HW239747   0.460   1.743   3.177 -4.4027  0.8174 -0.3235
 9372SOL     OW39748   1.260   0.494   1.198  0.4481 -0.2460 -0.6498
 9372SOL    HW139749   1.239   0.552   1.271  0.4498  1.3300 -1.8993
 9372SOL    HW239750   1.342   0.532   1.167  2.3100 -1.7271  2.3956
 9373SOL     OW39751   3.911   3.855   2.230 -0.1618 -0.3775 -0.3038
 9373SOL    HW139752   3.870   3.779   2.189  0.7817 -0.5878 -0.8399
 9373SOL    HW239753   4.003   3.832   2.235 -0.4423 -1.1410  1.5268
 9374SOL     OW39754   3.880   4.734   9.309 -0.0262 -0.1773  0.0322
 9374SOL    HW139755   3.828   0.050   9.371 -0.5055  1.1112 -1.4486
 9374SOL    HW239756   3.818   4.719   9.237 -0.3976 -0.1987  0.3560
 9375SOL     OW39757   4.654   0.927  13.210 -0.3244 -0.9194  0.1134
 9375SOL    HW139758   4.614   1.004  13.171  0.3578 -0.7652 -0.2723
 9375SOL    HW239759   4.705   0.967  13.280 -2.1689  2.5379 -0.5487
 9376SOL     OW39760   3.673   3.563   7.843  0.8545 -0.4522  0.2009
 9376SOL    HW139761   3.608   3.522   7.786 -0.9553  0.3589  1.6855
 9376SOL    HW239762   3.624   3.580   7.923 -0.7573 -0.2269 -0.8435
 9377SOL     OW39763   0.679   3.824  12.678  0.3152 -0.3098 -0.1861
 9377SOL    HW139764   0.670   3.913  12.644  2.3935 -0.3867 -0.8878
 9377SOL    HW239765   0.594   3.806  12.719 -0.8782  1.3330 -1.8827
 9378SOL     OW39766   1.602   2.193  16.367  0.3810  0.2349  0.3846
 9378SOL    HW139767   1.667   2.139  16.321  0.6414 -0.1174  1.1657
 9378SOL    HW239768   1.647   2.277  16.355  1.3512 -0.7709 -3.0666
 9379SOL     OW39769   3.259   3.913   3.048  0.5269  0.7256 -0.2987
 9379SOL    HW139770   3.201   3.839   3.064  1.5800  0.6183  3.1020
 9379SOL    HW239771   3.257   3.968   3.127  0.8744  1.3577 -0.7273
 9380SOL     OW39772   0.222   1.148   7.067  0.3544 -0.0190  0.1206
 9380SOL    HW139773   0.147   1.176   7.015  0.5489 -1.4154 -0.9051
 9380SOL    HW239774   0.266   1.103   6.996  0.2550  1.0397 -0.6121
 9381SOL     OW39775   0.117   2.515  17.143 -0.0556 -0.4109 -0.2488
 9381SOL    HW139776   0.038   2.551  17.103 -0.7805 -1.8905 -0.1517
 9381SOL    HW239777   0.132   2.583  17.208 -1.7973  1.0558 -1.4060
 9382SOL     OW39778   0.270   0.723   9.316 -0.0287  0.0694  0.2559
 9382SOL    HW139779   0.319   0.663   9.373  1.0465 -0.3908 -1.1408
 9382SOL    HW239780   0.215   0.661   9.269  0.3108 -2.2125  2.8157
 9383SOL     OW39781   0.564   1.595   3.707 -0.0344 -0.0905  0.4265
 9383SOL    HW139782   0.563   1.653   3.783  1.3114  1.2152 -0.5301
 9383SOL    HW239783   0.477   1.612   3.671 -0.9093 -0.5454  2.3411
 9384SOL     OW39784   3.469   2.424  12.038 -0.1181  0.3356  0.6758
 9384SOL    HW139785   3.380   2.413  12.073 -0.5377 -2.3849 -1.2738
 9384SOL    HW239786   3.485   2.518  12.043  0.6466  0.2869 -1.1483
 9385SOL     OW39787   0.690   3.010   2.699  0.5067 -0.1553 -0.4153
 9385SOL    HW139788   0.777   3.046   2.718  0.6383  0.2256 -1.7208
 9385SOL    HW239789   0.663   3.006   2.791  0.2427  2.1016 -0.3918
 9386SOL     OW39790   3.350   4.318  13.508  0.1946  0.1324 -0.2391
 9386SOL    HW139791   3.356   4.284  13.598  1.0425 -0.5487 -0.5432
 9386SOL    HW239792   3.404   4.396  13.506  0.0053  0.2139 -1.7262
 9387SOL     OW39793   2.963   3.054   8.713 -0.0932  0.3675 -0.3498
 9387SOL    HW139794   2.912   3.101   8.780 -3.9000 -1.1425 -2.2136
 9387SOL    HW239795   2.924   2.967   8.717 -1.5897  1.0627  0.7187
 9388SOL     OW39796   3.517   0.127   9.287  0.7285 -0.3680  0.1988
 9388SOL    HW139797   3.457   0.081   9.346 -0.9979  0.1131 -1.1872
 9388SOL    HW239798   3.582   0.153   9.352 -0.5478  1.1105  0.8717
 9389SOL     OW39799   2.648   2.939   4.464 -0.4087 -0.2673 -0.6721
 9389SOL    HW139800   2.727   2.984   4.432 -0.2377  0.5602  0.9402
 9389SOL    HW239801   2.568   2.983   4.435 -0.0740  0.0580 -1.1064
 9390SOL     OW39802   1.480   1.504   2.787  0.5069 -0.2397  0.1150
 9390SOL    HW139803   1.575   1.513   2.790  0.7013 -1.9725 -0.9768
 9390SOL    HW239804   1.457   1.464   2.871  0.7787 -2.0813 -0.6945
 9391SOL     OW39805   1.270   0.593   9.386  0.3337  0.3492  0.5115
 9391SOL    HW139806   1.320   0.595   9.468  0.2961  1.8380  0.5014
 9391SOL    HW239807   1.179   0.587   9.415 -0.0935 -2.4437 -1.4313
 9392SOL     OW39808   0.997   1.998  17.359  0.4268  0.7284 -0.0566
 9392SOL    HW139809   0.909   2.016  17.393 -0.7516 -0.5800 -2.4366
 9392SOL    HW239810   0.988   2.039  17.274 -1.5489  1.0134  0.3015
 9393SOL     OW39811   3.361   0.194   6.183 -0.1794 -0.6342  0.2188
 9393SOL    HW139812   3.451   0.180   6.153 -1.1551 -0.4038 -2.7586
 9393SOL    HW239813   3.352   0.289   6.173 -1.1686 -0.7268  0.2779
 9394SOL     OW39814   0.933   4.706   7.325  0.4134  1.1755 -0.2586
 9394SOL    HW139815   0.971   4.656   7.254  2.9054 -0.1125  1.9788
 9394SOL    HW239816   0.982   4.673   7.401 -2.5311 -0.2157  1.0666
 9395SOL     OW39817   3.627   3.379   1.553  0.2307 -0.2711  0.2985
 9395SOL    HW139818   3.531   3.377   1.561 -0.0226  0.8288 -2.8059
 9395SOL    HW239819   3.655   3.349   1.640  1.4823  0.0809  0.0104
 9396SOL     OW39820   2.017   4.538   2.932 -0.1643 -0.0757  0.1732
 9396SOL    HW139821   2.093   4.586   2.963  1.2087 -1.2508 -1.3859
 9396SOL    HW239822   1.945   4.563   2.991 -0.1686 -0.4921  0.3397
 9397SOL     OW39823   0.939   0.796   9.396  0.1103  0.0154 -0.2189
 9397SOL    HW139824   1.003   0.792   9.324  1.6528  1.1862  1.0769
 9397SOL    HW239825   0.992   0.851   9.454 -0.7012 -0.4309  0.9293
 9398SOL     OW39826   0.027   1.918   6.459 -0.0894  0.3871 -0.0868
 9398SOL    HW139827   4.704   1.920   6.384  2.4985  1.2494 -2.0713
 9398SOL    HW239828   0.018   2.009   6.489 -0.1006  0.3384  0.0574
 9399SOL     OW39829   0.329   3.276  12.502 -0.1058  0.2499  0.2432
 9399SOL    HW139830   0.301   3.364  12.527 -0.3857  0.6929 -1.6008
 9399SOL    HW239831   0.404   3.317  12.458 -0.4575  2.1458  1.4243
 9400SOL     OW39832   4.180   1.135   7.312  0.4747  0.0166 -0.1620
 9400SOL    HW139833   4.254   1.191   7.335  0.5014 -0.1635  0.1869
 9400SOL    HW239834   4.166   1.090   7.395  2.0624 -1.4821 -0.7086
 9401SOL     OW39835   0.428   1.313   2.542 -0.7598  0.1675 -0.2887
 9401SOL    HW139836   0.458   1.231   2.503 -1.0223 -0.1250  0.1237
 9401SOL    HW239837   0.461   1.295   2.630  1.0118 -1.2784 -1.2355
 9402SOL     OW39838   4.409   0.597   4.205  0.3818  0.0693 -0.0231
 9402SOL    HW139839   4.469   0.665   4.236  1.3220 -1.2423  0.9814
 9402SOL    HW239840   4.332   0.623   4.256 -0.8089  0.6245 -2.1280
 9403SOL     OW39841   2.401   3.407   4.400  0.3222 -0.5723  0.6658
 9403SOL    HW139842   2.320   3.443   4.364  0.1571  0.6622  2.2634
 9403SOL    HW239843   2.470   3.463   4.363  1.0462 -1.6873  0.3573
 9404SOL     OW39844   2.895   3.091   6.225  0.1950 -0.4576 -0.1292
 9404SOL    HW139845   2.942   3.008   6.218 -2.2579 -1.6980 -1.9652
 9404SOL    HW239846   2.814   3.046   6.252 -1.1776  2.2640  0.2620
 9405SOL     OW39847   3.839   2.141   5.191 -0.1744  0.6775  0.2189
 9405SOL    HW139848   3.853   2.223   5.144  1.3055  0.0092 -0.5353
 9405SOL    HW239849   3.930   2.112   5.184 -0.3329  0.3097 -0.2774
 9406SOL     OW39850   0.073   3.320   7.503  0.0675  0.1759  0.3240
 9406SOL    HW139851   4.735   3.380   7.510 -0.9284 -0.6928 -2.5071
 9406SOL    HW239852   0.137   3.369   7.451  0.7475 -0.2557  0.7548
 9407SOL     OW39853   3.553   0.898   6.509  0.7624  0.1980  0.8455
 9407SOL    HW139854   3.539   0.969   6.572  1.6524  1.3557 -0.2401
 9407SOL    HW239855   3.465   0.863   6.504  0.7198  0.5591 -0.9730
 9408SOL     OW39856   2.157   3.434   4.260 -0.3055 -0.1995  0.3453
 9408SOL    HW139857   2.111   3.350   4.260 -1.5812  0.4974  0.0551
 9408SOL    HW239858   2.105   3.477   4.192 -0.6958  0.0224  0.7845
 9409SOL     OW39859   3.508   0.357  12.922  0.2260  0.1298 -0.2825
 9409SOL    HW139860   3.459   0.311  12.855  0.2010  0.2894 -0.3753
 9409SOL    HW239861   3.501   0.292  12.992  0.1783 -0.1222 -0.5222
 9410SOL     OW39862   3.404   4.368   9.164  0.2916  0.2527  0.2395
 9410SOL    HW139863   3.372   4.289   9.119  0.6176 -0.5536  1.4367
 9410SOL    HW239864   3.321   4.415   9.161  0.0975 -0.1339 -0.6449
 9411SOL     OW39865   1.294   2.114   8.654  0.2235  0.0185 -0.2395
 9411SOL    HW139866   1.347   2.035   8.663 -0.9353 -0.8825 -1.3231
 9411SOL    HW239867   1.210   2.071   8.668  0.2333 -0.1347 -0.6467
 9412SOL     OW39868   2.580   3.205   3.140 -0.0369 -0.2535 -0.6379
 9412SOL    HW139869   2.502   3.151   3.154  0.1055 -1.3066 -4.0179
 9412SOL    HW239870   2.557   3.270   3.074 -1.2891  1.7408  1.7214
 9413SOL     OW39871   3.375   0.578   1.263  0.3567 -0.4997  0.8141
 9413SOL    HW139872   3.309   0.606   1.326  1.2222 -1.3342  2.1028
 9413SOL    HW239873   3.334   0.500   1.225  2.1452 -0.5075 -1.1347
 9414SOL     OW39874   1.683   3.921   3.980 -0.7834 -0.1243 -0.1998
 9414SOL    HW139875   1.624   3.977   3.930  0.2676  0.3974 -0.8557
 9414SOL    HW239876   1.769   3.954   3.951 -0.3100 -1.0369  0.1731
 9415SOL     OW39877   4.049   2.841   2.113  0.3901  0.6200 -0.4257
 9415SOL    HW139878   3.977   2.785   2.086  0.5289  0.6724 -0.9194
 9415SOL    HW239879   4.093   2.785   2.176  2.4263  0.7820 -1.6831
 9416SOL     OW39880   4.064   1.676  13.656  0.0916  0.6998 -0.0691
 9416SOL    HW139881   4.139   1.658  13.599 -0.6736 -0.5559 -0.6753
 9416SOL    HW239882   4.028   1.753  13.612  1.9706  1.4455 -0.3103
 9417SOL     OW39883   1.143   0.515   2.037  0.0962  0.2414  0.2846
 9417SOL    HW139884   1.155   0.422   2.018  1.6917  0.4444  0.3340
 9417SOL    HW239885   1.219   0.543   2.087 -0.3684  0.2107  1.0129
 9418SOL     OW39886   2.551   0.940   9.059  0.0931  0.6188  0.3505
 9418SOL    HW139887   2.489   0.921   8.989 -0.0959  0.6017  0.5214
 9418SOL    HW239888   2.521   0.873   9.121  2.5779 -1.2429 -0.4743
 9419SOL     OW39889   1.986   2.367   5.838 -0.2199 -0.3826  0.0137
 9419SOL    HW139890   2.039   2.288   5.825  0.1375 -0.1286 -0.0757
 9419SOL    HW239891   2.031   2.417   5.906  0.3343 -1.0177  0.1082
 9420SOL     OW39892   3.861   2.632   2.121 -0.3856 -0.0751 -0.4523
 9420SOL    HW139893   3.857   2.611   2.214  0.7260 -1.4661 -0.7284
 9420SOL    HW239894   3.854   2.545   2.083 -3.4377 -0.4734  1.0418
 9421SOL     OW39895   2.559   1.281   4.899  0.3980 -0.1308 -0.0798
 9421SOL    HW139896   2.585   1.189   4.895 -0.1945 -0.3152  0.2408
 9421SOL    HW239897   2.619   1.315   4.834 -1.0376  2.8602  0.1822
 9422SOL     OW39898   1.304   0.907   6.625  0.0403  0.2910 -0.5550
 9422SOL    HW139899   1.254   0.845   6.572 -1.9324 -0.0134  1.6760
 9422SOL    HW239900   1.391   0.868   6.633  0.3972  1.2105  0.1753
 9423SOL     OW39901   0.135   0.068   5.760 -0.1984 -0.0270 -0.2803
 9423SOL    HW139902   0.085   0.049   5.681  0.9885 -2.4850 -0.4246
 9423SOL    HW239903   0.167   0.152   5.726 -0.2595  0.6422  1.3255
 9424SOL     OW39904   4.513   1.755   9.129  0.0286  0.0114 -0.1434
 9424SOL    HW139905   4.481   1.724   9.214  0.8780 -0.3489  0.0461
 9424SOL    HW239906   4.585   1.810   9.159  1.1139 -2.1171  1.1130
 9425SOL     OW39907   4.275   4.495   2.111 -0.6391 -0.2862 -0.5378
 9425SOL    HW139908   4.312   4.563   2.054 -0.3729  0.0581  0.0486
 9425SOL    HW239909   4.214   4.547   2.163 -0.4442  0.1916 -0.7818
 9426SOL     OW39910   4.307   1.293   9.166  0.6313 -0.0487 -0.5740
 9426SOL    HW139911   4.303   1.387   9.186  1.6995 -0.0766 -0.1933
 9426SOL    HW239912   4.250   1.259   9.235 -1.2473  0.6140 -1.8052
 9427SOL     OW39913   0.353   2.220   3.570  0.4385 -0.3829  0.4781
 9427SOL    HW139914   0.437   2.203   3.527  0.6224  2.5293 -0.3282
 9427SOL    HW239915   0.318   2.131   3.576  0.3272 -0.2318  2.1035
 9428SOL     OW39916   1.081   4.054  15.491 -0.0685  0.2495 -0.1797
 9428SOL    HW139917   1.149   4.002  15.448  0.7966  1.3820 -0.2018
 9428SOL    HW239918   1.128   4.097  15.563  0.2192  0.5673 -0.5529
 9429SOL     OW39919   3.612   2.509   3.338 -0.6145 -0.3883 -0.2221
 9429SOL    HW139920   3.686   2.569   3.346 -2.0677  1.1262  1.6457
 9429SOL    HW239921   3.662   2.428   3.330  0.3628  0.3721 -1.7260
 9430SOL     OW39922   4.304   0.859   7.388  0.1959 -0.9347  0.8126
 9430SOL    HW139923   4.212   0.859   7.415  0.7759 -0.2581  2.7911
 9430SOL    HW239924   4.351   0.864   7.472  0.2720 -0.4713  0.7428
 9431SOL     OW39925   4.116   3.961   9.464 -0.0131 -0.2957 -0.0613
 9431SOL    HW139926   4.175   4.027   9.500 -0.7236  0.0232  0.5114
 9431SOL    HW239927   4.177   3.893   9.434 -1.1609 -0.9308 -0.9590
 9432SOL     OW39928   3.206   3.254  11.948  0.0422  0.3734 -0.2768
 9432SOL    HW139929   3.265   3.329  11.959  1.4187 -0.8266  0.5875
 9432SOL    HW239930   3.136   3.287  12.004 -0.9573 -0.3617 -1.1207
 9433SOL     OW39931   3.538   0.485   2.026 -0.0642  0.5081  0.1740
 9433SOL    HW139932   3.468   0.539   1.987  0.6463  0.2630 -1.4330
 9433SOL    HW239933   3.586   0.553   2.072 -2.1504  2.0690  0.0665
 9434SOL     OW39934   2.897   3.070   4.723 -0.2259 -0.5016 -0.0264
 9434SOL    HW139935   2.948   3.016   4.784  0.1052 -0.3575 -0.1756
 9434SOL    HW239936   2.815   3.023   4.733  0.9596 -2.6693 -0.5187
 9435SOL     OW39937   0.611   1.365   3.862  0.4928  0.3303 -0.2480
 9435SOL    HW139938   0.560   1.320   3.794  0.4162 -0.2891  0.2099
 9435SOL    HW239939   0.598   1.456   3.838 -1.9242  0.6389  2.1872
 9436SOL     OW39940   4.652   3.515   6.229 -0.5205 -0.2027 -0.0923
 9436SOL    HW139941   4.729   3.495   6.281  0.7039 -0.3368 -1.9444
 9436SOL    HW239942   4.624   3.427   6.205  1.7149 -0.5133 -1.5614
 9437SOL     OW39943   1.499   0.330   5.987  0.4122  0.2137 -0.8001
 9437SOL    HW139944   1.536   0.309   5.901  0.3723  0.2871 -0.8351
 9437SOL    HW239945   1.516   0.424   5.985 -0.4557  0.3873  0.1451
 9438SOL     OW39946   3.277   1.962   4.185  0.5347  0.0425  0.1602
 9438SOL    HW139947   3.330   2.000   4.115 -1.2386  0.9557 -0.6919
 9438SOL    HW239948   3.294   2.009   4.267 -1.6380 -0.5957  0.9789
 9439SOL     OW39949   0.462   4.110   5.854  0.2555  0.2964 -0.0654
 9439SOL    HW139950   0.453   4.017   5.832  1.5494  0.3014 -0.6151
 9439SOL    HW239951   0.460   4.156   5.770  0.2541  0.3470 -0.0374
 9440SOL     OW39952   0.232   1.581   5.533 -0.2276  0.0627 -0.0496
 9440SOL    HW139953   0.219   1.486   5.527  2.4210 -0.3544  0.6151
 9440SOL    HW239954   0.310   1.590   5.477 -0.2354 -1.9377 -0.3890
 9441SOL     OW39955   4.083   4.133   4.134 -0.1973 -0.0669  0.3690
 9441SOL    HW139956   4.101   4.046   4.171  1.3459 -0.9493 -2.4689
 9441SOL    HW239957   4.069   4.117   4.041  1.1483  0.1114  0.1313
 9442SOL     OW39958   2.748   2.030  13.906 -0.5160 -0.4814  0.4267
 9442SOL    HW139959   2.736   1.938  13.882  0.2210 -0.5899  0.4735
 9442SOL    HW239960   2.786   2.034  13.994  0.3047  2.5993 -0.0737
 9443SOL     OW39961   2.320   2.515   2.468 -0.0764  0.6172 -0.2202
 9443SOL    HW139962   2.279   2.598   2.444  1.5119  0.8293 -2.2583
 9443SOL    HW239963   2.385   2.510   2.398  0.6800  0.0951  0.5167
 9444SOL     OW39964   2.508   2.219   6.662  0.2341  0.2467  0.3343
 9444SOL    HW139965   2.489   2.129   6.634 -1.7007 -0.1482  2.8771
 9444SOL    HW239966   2.492   2.196   6.753  1.8794 -1.1304  0.2896
 9445SOL     OW39967   2.479   0.575  15.911  1.0356  0.2208 -0.0024
 9445SOL    HW139968   2.402   0.526  15.883  0.1848  1.6210 -0.0945
 9445SOL    HW239969   2.525   0.592  15.828 -0.7892 -0.1895 -1.1005
 9446SOL     OW39970   3.085   0.471   3.935  0.1824  0.0009  0.4618
 9446SOL    HW139971   3.054   0.433   3.852 -1.9080 -0.0372  1.2475
 9446SOL    HW239972   3.131   0.390   3.958  1.7565  1.2305  1.6135
 9447SOL     OW39973   1.360   3.535   8.953  0.6903  0.2465  0.3475
 9447SOL    HW139974   1.384   3.475   9.024 -0.7262 -1.8132 -0.9109
 9447SOL    HW239975   1.380   3.490   8.872 -0.3394 -0.2616  0.3704
 9448SOL     OW39976   4.407   4.157   6.146 -0.0522 -0.2811 -0.0084
 9448SOL    HW139977   4.436   4.122   6.062 -0.9567  0.8803 -0.7976
 9448SOL    HW239978   4.402   4.075   6.197  0.3276  0.3791  1.0946
 9449SOL     OW39979   4.443   2.703  11.461  0.0845 -0.1786 -0.6003
 9449SOL    HW139980   4.386   2.759  11.407 -1.1520  0.5820  1.5265
 9449SOL    HW239981   4.382   2.665  11.523 -0.8671  2.3961  0.0009
 9450SOL     OW39982   2.904   3.326   4.646  0.4557  0.8766  0.4256
 9450SOL    HW139983   2.989   3.310   4.605  1.0013  0.7336  1.6281
 9450SOL    HW239984   2.888   3.241   4.688 -1.8163  1.2206  0.2548
 9451SOL     OW39985   1.151   2.958   1.133 -0.1069  0.1408 -0.1965
 9451SOL    HW139986   1.115   2.963   1.044  3.5029 -0.9814 -1.7057
 9451SOL    HW239987   1.121   3.042   1.168 -0.0500 -1.0251  2.6459
 9452SOL     OW39988   1.089   2.632  11.522  0.6495 -0.3950  0.0831
 9452SOL    HW139989   1.045   2.717  11.521  0.0198 -0.7555 -1.6867
 9452SOL    HW239990   1.006   2.585  11.523 -0.5974  1.7565 -0.9815
 9453SOL     OW39991   3.734   3.494   5.755 -0.1238  0.2426  0.2460
 9453SOL    HW139992   3.673   3.504   5.828  1.3928  0.5427  1.4735
 9453SOL    HW239993   3.687   3.432   5.700 -0.8426  0.1369  0.9766
 9454SOL     OW39994   4.362   1.344   8.815  0.5733  0.3046  0.3001
 9454SOL    HW139995   4.358   1.340   8.720  0.4461 -2.5514  0.4438
 9454SOL    HW239996   4.352   1.251   8.836 -0.4545  0.2318 -0.5183
 9455SOL     OW39997   3.893   3.609   5.371 -0.2305  0.2370  0.0899
 9455SOL    HW139998   3.843   3.630   5.292  0.9322  1.2219 -0.3953
 9455SOL    HW239999   3.881   3.687   5.426  0.1920 -0.2893  0.9331
 9456SOL     OW40000   3.112   3.993   0.412 -0.0237  0.2982  0.0139
 9456SOL    HW140001   3.107   3.925   0.345 -1.5138  0.8980 -0.5028
 9456SOL    HW240002   3.182   3.956   0.465 -0.3385 -0.9120 -0.4298
 9457SOL     OW40003   1.228   1.931   2.730 -0.0454 -0.3627 -0.5697
 9457SOL    HW140004   1.158   1.897   2.673 -0.2777 -0.7871 -0.0451
 9457SOL    HW240005   1.273   1.983   2.664 -0.5263 -1.1980 -1.5676
 9458SOL     OW40006   0.478   1.258   2.812  0.4809  0.3259 -0.4871
 9458SOL    HW140007   0.542   1.300   2.869  0.4183  1.2050 -1.0520
 9458SOL    HW240008   0.395   1.284   2.853 -0.6432 -0.2987 -2.3265
 9459SOL     OW40009   2.020   2.620  14.178 -0.4389  0.1669 -0.1999
 9459SOL    HW140010   1.951   2.677  14.144 -0.1267  0.3256 -0.5631
 9459SOL    HW240011   1.977   2.590  14.258  1.9847 -1.7168  0.3942
 9460SOL     OW40012   2.555   1.894   9.043  0.3499 -0.2477 -0.0803
 9460SOL    HW140013   2.532   1.919   9.133 -0.7237  0.4673 -0.5665
 9460SOL    HW240014   2.549   1.798   9.051  1.4753 -0.3835 -0.9442
 9461SOL     OW40015   3.759   3.881   8.859 -0.3761 -0.0327 -0.4547
 9461SOL    HW140016   3.777   3.803   8.911  1.6050  0.5259 -0.2719
 9461SOL    HW240017   3.693   3.930   8.908  0.7526 -0.1950  1.2502
 9462SOL     OW40018   2.803   3.663  16.408  0.1622  0.9010 -0.0320
 9462SOL    HW140019   2.754   3.670  16.326  0.1537  0.2937 -0.0730
 9462SOL    HW240020   2.889   3.639  16.374  1.1746  2.8759  1.1359
 9463SOL     OW40021   0.408   0.858   8.829 -0.1524  0.7989 -0.4332
 9463SOL    HW140022   0.433   0.815   8.911  0.0311 -0.2795 -1.0594
 9463SOL    HW240023   0.313   0.864   8.837 -0.2101 -1.0507  0.2921
 9464SOL     OW40024   0.283   4.693   8.062 -0.1734  0.1040 -0.8416
 9464SOL    HW140025   0.254   4.602   8.074  2.1033 -0.5926 -0.6372
 9464SOL    HW240026   0.374   4.683   8.089 -0.6147 -0.6553  0.3418
 9465SOL     OW40027   0.100   4.601   4.604  0.5348  1.1214  0.2180
 9465SOL    HW140028   0.116   4.595   4.699  2.7350 -0.7614 -0.2885
 9465SOL    HW240029   0.050   4.683   4.603 -0.7875  0.3328  1.9573
 9466SOL     OW40030   3.751   4.226   5.353  0.2672  0.1688  0.4851
 9466SOL    HW140031   3.700   4.277   5.415 -1.8830  0.2699 -1.3573
 9466SOL    HW240032   3.732   4.136   5.378  0.8017  1.0519  3.9622
 9467SOL     OW40033   1.409   0.120  15.312 -0.0790 -0.0356  0.0085
 9467SOL    HW140034   1.352   0.129  15.235  2.7220 -2.4170 -2.3802
 9467SOL    HW240035   1.347   0.118  15.384 -0.2007 -1.3189 -0.1233
 9468SOL     OW40036   0.460   0.616  12.686  0.4175 -0.4256 -0.0466
 9468SOL    HW140037   0.456   0.615  12.782 -1.7545  1.3012 -0.1114
 9468SOL    HW240038   0.369   0.623  12.659  0.6209  0.6221 -0.4594
 9469SOL     OW40039   1.932   4.391   1.649  0.1223  0.0714 -0.1365
 9469SOL    HW140040   1.895   4.305   1.632  1.7400 -0.2870 -1.9142
 9469SOL    HW240041   2.025   4.370   1.663  0.5644  0.2571 -2.7296
 9470SOL     OW40042   0.825   3.404   7.898  0.3446 -0.0428  0.1921
 9470SOL    HW140043   0.894   3.406   7.832 -1.2867 -2.7225 -1.5959
 9470SOL    HW240044   0.811   3.309   7.902  0.7629 -0.0720  1.1336
 9471SOL     OW40045   1.407   2.901   5.838 -0.5806  0.2136  0.8457
 9471SOL    HW140046   1.347   2.879   5.766  0.7394  2.0036 -0.8183
 9471SOL    HW240047   1.361   2.971   5.884 -1.8544  1.0110 -1.5902
 9472SOL     OW40048   4.370   1.887  10.067  0.3176 -0.3326 -0.1275
 9472SOL    HW140049   4.398   1.929   9.986  2.2571 -0.8513  0.2852
 9472SOL    HW240050   4.358   1.794  10.045 -3.4188 -0.0562  0.8126
 9473SOL     OW40051   0.215   3.881   1.625  0.3147 -0.0554  0.1389
 9473SOL    HW140052   0.264   3.960   1.604 -0.3611  0.4447  0.4330
 9473SOL    HW240053   0.236   3.829   1.548  0.7156  0.1306  0.1251
 9474SOL     OW40054   0.504   4.148   3.063 -0.4887  0.1225 -0.1837
 9474SOL    HW140055   0.421   4.140   3.016 -1.2332 -0.1323  1.1692
 9474SOL    HW240056   0.557   4.116   2.990 -0.9942 -0.0745 -0.4649
 9475SOL     OW40057   4.408   1.141   3.635  0.0612  0.1127 -0.3863
 9475SOL    HW140058   4.473   1.185   3.690  0.5126 -1.4357  0.2987
 9475SOL    HW240059   4.377   1.063   3.680 -1.7198  2.1424  1.8350
 9476SOL     OW40060   3.535   4.600   5.649  0.5483 -0.7775 -0.3064
 9476SOL    HW140061   3.511   4.614   5.557 -0.1357 -2.0417 -0.3151
 9476SOL    HW240062   3.554   4.506   5.645 -2.8909 -1.5404  1.7902
 9477SOL     OW40063   2.995   1.943  13.113  0.6580 -0.1835  0.0533
 9477SOL    HW140064   3.062   1.976  13.173 -0.0963  0.7136  0.4071
 9477SOL    HW240065   2.931   2.014  13.111  1.2995  0.3323 -2.7273
 9478SOL     OW40066   1.941   1.833   6.598 -0.4922  0.1613 -0.1125
 9478SOL    HW140067   1.926   1.765   6.532 -1.4859  1.3332 -1.1029
 9478SOL    HW240068   1.861   1.821   6.649 -0.8135 -0.0826 -0.6736
 9479SOL     OW40069   1.857   4.022   4.974  0.2918  0.3382  0.6323
 9479SOL    HW140070   1.920   3.953   4.952 -0.2843 -0.6546  2.1531
 9479SOL    HW240071   1.817   4.029   4.887  3.0271 -1.0842 -0.7724
 9480SOL     OW40072   1.131   0.778   6.832 -0.2746  0.2827 -0.1894
 9480SOL    HW140073   1.150   0.755   6.924 -1.5415 -0.4240 -0.0936
 9480SOL    HW240074   1.216   0.779   6.788  0.4426 -2.9888  1.0576
 9481SOL     OW40075   3.652   2.262  15.843 -0.3778  0.5006 -0.4037
 9481SOL    HW140076   3.745   2.282  15.845 -0.2210 -0.2222 -0.4349
 9481SOL    HW240077   3.644   2.181  15.894  0.2179 -0.7297 -2.2557
 9482SOL     OW40078   4.707   1.736   4.904 -0.5256  0.1681  0.2004
 9482SOL    HW140079   4.620   1.768   4.879 -1.1665 -0.6265  1.4047
 9482SOL    HW240080   0.005   1.770   4.822  2.0397 -0.7661  0.8650
 9483SOL     OW40081   4.334   1.297   7.477  0.1268 -0.6104 -0.3302
 9483SOL    HW140082   4.343   1.360   7.548  1.4974  0.9405 -1.8763
 9483SOL    HW240083   4.421   1.261   7.462  0.6349  0.7650 -0.7010
 9484SOL     OW40084   1.088   2.711   3.427 -0.1067 -0.1545  0.0955
 9484SOL    HW140085   1.168   2.678   3.467 -1.6804  0.1495  3.5059
 9484SOL    HW240086   1.056   2.773   3.492  0.8325  2.6421 -2.0911
 9485SOL     OW40087   2.817   1.037   5.090  0.6327 -0.3572 -0.2592
 9485SOL    HW140088   2.836   1.118   5.043  0.6903 -0.5161 -0.5103
 9485SOL    HW240089   2.843   1.048   5.181  1.4903 -0.6073 -0.4654
 9486SOL     OW40090   4.507   1.046  16.119 -0.4304  0.1856  0.1670
 9486SOL    HW140091   4.471   1.101  16.050  0.2040 -1.4819 -1.5013
 9486SOL    HW240092   4.600   1.048  16.094 -0.8633 -0.0847 -1.4438
 9487SOL     OW40093   0.724   4.091   8.176 -0.6507 -0.0505 -0.0405
 9487SOL    HW140094   0.659   4.114   8.242  1.0038 -1.6912  2.1253
 9487SOL    HW240095   0.690   4.005   8.150 -1.4698 -0.1830  1.5025
 9488SOL     OW40096   2.081   4.550   6.737  0.9471  0.3978 -0.0905
 9488SOL    HW140097   2.133   4.580   6.811 -0.2957  0.8526  0.5969
 9488SOL    HW240098   2.067   4.458   6.755 -1.2665  0.9012  0.7190
 9489SOL     OW40099   3.864   0.328   5.567  0.1190  0.2873  0.2389
 9489SOL    HW140100   3.850   0.251   5.512  0.4953 -0.9632  1.9161
 9489SOL    HW240101   3.882   0.271   5.642 -1.2073 -1.6494 -0.9405
 9490SOL     OW40102   1.226   0.448   4.023 -0.0364 -0.1892 -0.2960
 9490SOL    HW140103   1.295   0.471   4.084  1.1955 -1.4847 -1.2045
 9490SOL    HW240104   1.282   0.451   3.946  0.8777  1.7127  0.4488
 9491SOL     OW40105   3.720   1.815  11.052 -0.3801  0.0742 -0.0096
 9491SOL    HW140106   3.670   1.842  11.129  0.2994  0.0358  0.4472
 9491SOL    HW240107   3.679   1.734  11.023 -0.7140 -0.2931  1.4841
 9492SOL     OW40108   4.402   4.391   9.633 -0.2258 -0.1926 -0.3410
 9492SOL    HW140109   4.362   4.343   9.561 -1.0079 -0.0928  0.0253
 9492SOL    HW240110   4.427   4.320   9.692  0.0739 -0.6011 -0.9641
 9493SOL     OW40111   2.148   3.855   8.564  0.8714  0.6754  0.3742
 9493SOL    HW140112   2.187   3.835   8.479 -2.8662  0.9033 -1.3942
 9493SOL    HW240113   2.060   3.819   8.559  1.2077 -0.0051 -0.6161
 9494SOL     OW40114   1.166   3.290   3.051 -0.0672  0.0489  0.0034
 9494SOL    HW140115   1.144   3.375   3.088  2.9169  1.2035 -0.8580
 9494SOL    HW240116   1.154   3.234   3.127  1.0093 -1.2443 -0.7657
 9495SOL     OW40117   3.356   1.461   6.869  0.5403 -0.0712 -0.3894
 9495SOL    HW140118   3.273   1.463   6.822  0.3541 -1.9889 -0.1401
 9495SOL    HW240119   3.373   1.367   6.861  0.4038 -0.2619  1.5538
 9496SOL     OW40120   3.851   3.929   7.972 -0.1058 -0.4723  0.4046
 9496SOL    HW140121   3.916   3.866   7.941 -0.1354  0.0337 -0.6822
 9496SOL    HW240122   3.910   3.984   8.024 -1.2005  0.6447  0.4703
 9497SOL     OW40123   1.159   2.311   7.200 -0.3079  0.0603 -0.6962
 9497SOL    HW140124   1.220   2.307   7.126 -0.4657  2.1272 -0.9538
 9497SOL    HW240125   1.090   2.263   7.153 -2.4068  1.3673  1.0518
 9498SOL     OW40126   4.526   2.385   3.417  0.0768  0.8604 -0.4764
 9498SOL    HW140127   4.441   2.429   3.409  0.6158  1.7449 -1.4311
 9498SOL    HW240128   4.572   2.443   3.478  0.7802 -0.0229 -0.1842
 9499SOL     OW40129   3.193   1.909   4.995 -0.3323  0.2761  0.6493
 9499SOL    HW140130   3.143   1.858   4.932  3.2928 -0.6022 -1.5398
 9499SOL    HW240131   3.278   1.899   4.951 -1.1166 -2.0939 -0.3405
 9500SOL     OW40132   4.332   2.938   8.907  0.0904  0.5002 -0.3264
 9500SOL    HW140133   4.390   2.974   8.973  1.5884  1.7280 -2.2942
 9500SOL    HW240134   4.266   3.007   8.904 -0.7908 -0.3253 -0.0817
 9501SOL     OW40135   1.393   2.758  17.366  0.1663 -0.2513 -0.3835
 9501SOL    HW140136   1.443   2.828  17.409 -0.2162  0.3422 -0.9167
 9501SOL    HW240137   1.313   2.810  17.359  1.7181  2.0760 -0.9389
 9502SOL     OW40138   1.428   0.790  15.498  0.1035 -0.5131  0.3146
 9502SOL    HW140139   1.506   0.738  15.517 -0.3684 -0.9879  0.9522
 9502SOL    HW240140   1.464   0.873  15.465 -0.0237 -1.0458 -1.1946
 9503SOL     OW40141   3.463   1.552   3.073  0.2503 -0.4449 -0.0090
 9503SOL    HW140142   3.424   1.625   3.121 -0.9797  1.3003 -3.6707
 9503SOL    HW240143   3.419   1.475   3.108 -0.8408  0.3467  0.3632
 9504SOL     OW40144   2.266   1.347  12.381 -0.2631 -0.2900 -0.1166
 9504SOL    HW140145   2.209   1.419  12.408  0.8737 -0.6213  3.1074
 9504SOL    HW240146   2.255   1.369  12.288 -2.1805 -1.3095 -0.1194
 9505SOL     OW40147   2.504   4.732  13.820  0.0694  0.2018  0.5151
 9505SOL    HW140148   2.571   4.673  13.856 -1.8547 -3.4881 -1.9839
 9505SOL    HW240149   2.426   4.685  13.848  0.0009 -0.3408 -0.5832
 9506SOL     OW40150   4.024   2.892   9.063  0.1714  0.0285 -0.1325
 9506SOL    HW140151   3.994   2.981   9.044  2.0697  1.1113  1.8464
 9506SOL    HW240152   4.115   2.896   9.033 -0.0614 -0.2524 -0.8684
 9507SOL     OW40153   1.809   2.696  10.891  0.3726 -0.3033  0.3085
 9507SOL    HW140154   1.800   2.716  10.797 -1.0386  0.2974  0.5855
 9507SOL    HW240155   1.820   2.786  10.924 -1.7689  0.9399 -2.3793
 9508SOL     OW40156   0.351   2.710   5.227 -0.4476 -0.1944  0.0845
 9508SOL    HW140157   0.431   2.660   5.243  1.3108  2.2768 -1.0415
 9508SOL    HW240158   0.343   2.752   5.312  0.1821  0.3997 -0.1533
 9509SOL     OW40159   3.278   3.782   9.814 -0.2905 -0.4337 -0.5294
 9509SOL    HW140160   3.347   3.778   9.880 -0.3882  1.4876 -0.3327
 9509SOL    HW240161   3.277   3.875   9.792  0.6911 -0.0376  1.0981
 9510SOL     OW40162   2.522   0.434   6.295  0.2421  0.1504 -0.0300
 9510SOL    HW140163   2.449   0.373   6.283 -0.5610  1.1821 -0.2792
 9510SOL    HW240164   2.478   0.513   6.325 -0.1225 -0.2187  0.4240
 9511SOL     OW40165   3.922   1.371   4.819 -0.0258 -0.1827 -0.0298
 9511SOL    HW140166   3.986   1.414   4.875 -1.1560 -0.3022  1.3609
 9511SOL    HW240167   3.915   1.284   4.858 -2.7839  0.9092  1.9239
 9512SOL     OW40168   4.720   2.153   7.296  0.2696 -0.4467 -0.3949
 9512SOL    HW140169   4.693   2.065   7.269 -1.1549 -0.4683  1.0860
 9512SOL    HW240170   4.682   2.157   7.384  0.1276  1.3879 -0.5245
 9513SOL     OW40171   3.563   3.586  11.788  0.5929 -0.0276  0.0501
 9513SOL    HW140172   3.658   3.587  11.804  0.6912  0.0533 -0.5661
 9513SOL    HW240173   3.565   3.554  11.698 -0.7120  0.8251 -0.2744
 9514SOL     OW40174   2.593   0.557   3.156 -0.4018  0.2175  0.4500
 9514SOL    HW140175   2.676   0.546   3.110 -0.3660 -0.0887  0.5873
 9514SOL    HW240176   2.604   0.638   3.206 -0.1903  0.4019  0.0993
 9515SOL     OW40177   4.626   4.018   4.815 -0.1655  0.2604  0.2778
 9515SOL    HW140178   4.709   4.064   4.830 -0.1237  1.0994 -2.4218
 9515SOL    HW240179   4.642   3.942   4.871 -0.5834 -0.5852 -0.7388
 9516SOL     OW40180   1.645   3.086   9.393 -0.2280  0.0732  0.2971
 9516SOL    HW140181   1.594   3.157   9.432  1.7327  1.6928 -0.0864
 9516SOL    HW240182   1.653   3.031   9.470  1.3973  1.5420  1.1644
 9517SOL     OW40183   2.504   0.664   3.667  0.0704 -0.4392  0.0202
 9517SOL    HW140184   2.521   0.731   3.601 -1.7884  0.0101 -0.0105
 9517SOL    HW240185   2.408   0.660   3.669  0.0806 -1.3085 -1.3018
 9518SOL     OW40186   1.951   1.085   0.922  0.0364 -0.2137  0.7711
 9518SOL    HW140187   1.923   1.079   1.013 -0.8742  0.6933  0.5557
 9518SOL    HW240188   2.002   1.166   0.927 -2.6533  1.6001 -0.9272
 9519SOL     OW40189   1.949   2.177  11.418  0.0034 -0.1239 -0.4316
 9519SOL    HW140190   1.940   2.269  11.394 -1.0565 -0.1598 -0.1799
 9519SOL    HW240191   2.015   2.199  11.484  1.1674  0.3217 -1.7414
 9520SOL     OW40192   3.660   2.689  15.466 -0.4082  0.0610  0.1487
 9520SOL    HW140193   3.715   2.647  15.399 -0.6717  1.2478 -0.8030
 9520SOL    HW240194   3.677   2.629  15.539  1.1708 -0.4265 -0.6021
 9521SOL     OW40195   4.087   0.678   7.255  0.3735  0.3084  0.2940
 9521SOL    HW140196   4.042   0.749   7.302  1.9859  0.4903  1.5982
 9521SOL    HW240197   4.029   0.683   7.180 -0.3615  2.1856  0.9852
 9522SOL     OW40198   1.249   3.874   6.295 -0.5293 -0.2259 -0.0347
 9522SOL    HW140199   1.298   3.796   6.271  0.5330  0.7034 -0.8601
 9522SOL    HW240200   1.287   3.935   6.232 -0.1514 -1.8703 -1.3654
 9523SOL     OW40201   4.015   2.316   9.324  0.0254 -0.3391 -0.1075
 9523SOL    HW140202   4.087   2.370   9.293  1.9351 -0.5802  3.9171
 9523SOL    HW240203   3.946   2.352   9.267  1.2434  1.1828 -0.6070
 9524SOL     OW40204   2.213   3.646   7.330 -0.2592  0.1321 -0.1459
 9524SOL    HW140205   2.125   3.646   7.368 -0.3843 -1.6501 -0.4576
 9524SOL    HW240206   2.253   3.671   7.414 -0.4815  3.5057 -1.0597
 9525SOL     OW40207   0.801   1.615   2.573  0.5332 -0.9665  0.0996
 9525SOL    HW140208   0.787   1.556   2.499 -1.4307 -1.5453  0.9558
 9525SOL    HW240209   0.882   1.581   2.612 -0.2424 -0.9331  1.7370
 9526SOL     OW40210   3.417   2.682   1.929 -0.5496  0.2284  0.0879
 9526SOL    HW140211   3.439   2.747   1.863 -2.1682 -2.5437 -3.1647
 9526SOL    HW240212   3.463   2.711   2.008  0.9568  2.0666 -1.4693
 9527SOL     OW40213   4.410   0.615  12.699 -0.3284 -0.6075  0.2546
 9527SOL    HW140214   4.463   0.602  12.778  0.6207  3.3306  0.2575
 9527SOL    HW240215   4.458   0.680  12.647 -0.0299 -2.2511 -1.5530
 9528SOL     OW40216   4.677   1.538   2.821  0.6102  0.2488  0.6462
 9528SOL    HW140217   4.644   1.594   2.751  0.7272  1.2822  1.4248
 9528SOL    HW240218   4.617   1.463   2.823  0.0119  0.6884 -0.8619
 9529SOL     OW40219   3.865   1.005  12.386  0.1665 -0.0365 -0.2597
 9529SOL    HW140220   3.866   1.021  12.292  1.0329  0.7457 -0.1236
 9529SOL    HW240221   3.917   1.082  12.411 -1.4002  2.2418 -4.0810
 9530SOL     OW40222   3.371   2.322  13.806 -0.3006 -0.2270 -0.4450
 9530SOL    HW140223   3.380   2.303  13.713 -0.8080 -1.7040 -0.2007
 9530SOL    HW240224   3.450   2.375  13.817  0.7977 -1.9651  0.2296
 9531SOL     OW40225   0.880   2.218   8.933 -0.1876 -0.0321  0.4114
 9531SOL    HW140226   0.891   2.313   8.929  0.8257 -0.1928 -0.7290
 9531SOL    HW240227   0.815   2.198   8.866  0.0566  0.4293  0.0368
 9532SOL     OW40228   3.724   2.421   6.693  0.3827  0.4165  0.1637
 9532SOL    HW140229   3.747   2.418   6.785  2.1169 -0.0316 -0.2767
 9532SOL    HW240230   3.808   2.435   6.649  0.9908 -3.9021 -0.0948
 9533SOL     OW40231   3.190   4.065   4.347  0.1513 -0.2980 -0.3540
 9533SOL    HW140232   3.221   4.028   4.264  1.7241 -1.0178  0.5330
 9533SOL    HW240233   3.272   4.060   4.396 -0.1136 -1.1699 -0.0008
 9534SOL     OW40234   2.505   3.623   7.287 -0.3562  0.4342 -0.0742
 9534SOL    HW140235   2.414   3.652   7.284 -0.8083 -0.9535  0.4305
 9534SOL    HW240236   2.534   3.646   7.199  1.7510  0.0689  0.5281
 9535SOL     OW40237   2.913   4.230  10.280 -0.1448 -0.6447  0.3040
 9535SOL    HW140238   2.979   4.165  10.303  0.0190  0.1318  1.9937
 9535SOL    HW240239   2.959   4.308  10.312  1.7898 -1.6489 -0.0270
 9536SOL     OW40240   0.507   0.201   2.507  0.7928 -0.2583 -0.0948
 9536SOL    HW140241   0.448   0.205   2.432  1.4015 -1.2450 -0.6268
 9536SOL    HW240242   0.488   0.283   2.554  1.1115 -0.7269  0.8389
 9537SOL     OW40243   3.117   1.073  10.627  0.0114 -0.8352  0.1252
 9537SOL    HW140244   3.212   1.067  10.640 -0.0101  2.5762  1.9048
 9537SOL    HW240245   3.106   1.165  10.603  0.6083 -0.6178  0.6923
 9538SOL     OW40246   3.857   0.898  15.039 -0.2880  0.5393  0.2307
 9538SOL    HW140247   3.827   0.824  14.986  0.0000 -1.0587  2.2576
 9538SOL    HW240248   3.843   0.857  15.125 -0.2401 -1.5203 -0.7306
 9539SOL     OW40249   1.653   1.628  15.844  0.1040  0.0704 -0.3865
 9539SOL    HW140250   1.584   1.601  15.784 -0.8417 -0.2103  0.8230
 9539SOL    HW240251   1.729   1.607  15.789 -0.8900 -2.1015 -0.9297
 9540SOL     OW40252   4.533   1.943   6.240 -0.3100 -0.3131  0.1196
 9540SOL    HW140253   4.564   1.972   6.155 -0.4081  0.8227  0.4718
 9540SOL    HW240254   4.572   1.856   6.242  1.7173  0.5741 -1.0821
 9541SOL     OW40255   2.800   3.690  10.922 -0.3101  0.0008  0.4553
 9541SOL    HW140256   2.771   3.764  10.869 -3.3076 -0.8195  0.9624
 9541SOL    HW240257   2.713   3.650  10.933 -0.7598  1.2278  1.3262
 9542SOL     OW40258   0.315   2.001   7.598  0.1543 -0.2609  0.6094
 9542SOL    HW140259   0.238   2.056   7.610 -0.9035 -2.0097  1.7858
 9542SOL    HW240260   0.349   2.044   7.520  0.6024 -2.5327 -0.4599
 9543SOL     OW40261   0.090   3.972  11.846 -0.7162 -0.2044 -0.3575
 9543SOL    HW140262   0.069   3.959  11.938 -1.5185 -1.1682 -0.6728
 9543SOL    HW240263   0.105   3.882  11.817  0.5128  0.6085 -2.2784
 9544SOL     OW40264   3.912   0.098   1.134  0.3217 -0.1225  0.1141
 9544SOL    HW140265   3.935   0.187   1.109 -0.7110 -0.5098 -2.2101
 9544SOL    HW240266   3.994   0.075   1.178 -0.1039  0.0131  0.9847
 9545SOL     OW40267   2.878   4.000  12.189  0.2178 -0.3970 -0.0029
 9545SOL    HW140268   2.807   4.054  12.155  2.1805  0.2851 -2.9155
 9545SOL    HW240269   2.844   3.915  12.160 -0.8094 -0.9501  2.7969
 9546SOL     OW40270   2.149   4.659   0.062 -0.0329  0.0549 -0.1468
 9546SOL    HW140271   2.217   4.687   0.122 -0.4463 -0.9061  0.7715
 9546SOL    HW240272   2.086   4.611   0.117  0.8470 -0.9133  0.0042
 9547SOL     OW40273   0.558   4.311   9.610  0.2503 -0.7809 -0.2729
 9547SOL    HW140274   0.490   4.327   9.676 -0.0567  0.7186 -0.9550
 9547SOL    HW240275   0.603   4.395   9.606  0.2958 -0.7629  0.5806
 9548SOL     OW40276   3.319   2.189   7.453 -0.4945 -0.3212 -0.1462
 9548SOL    HW140277   3.345   2.183   7.361 -1.1719 -0.7646 -0.3076
 9548SOL    HW240278   3.313   2.283   7.467 -1.4325 -0.5302  0.8913
 9549SOL     OW40279   0.614   3.746   5.156  0.3230 -0.0405  0.3376
 9549SOL    HW140280   0.692   3.713   5.113  1.1092 -0.1884  1.8642
 9549SOL    HW240281   0.611   3.830   5.109 -0.2192 -0.0948  0.2808
 9550SOL     OW40282   0.779   3.539   0.619 -0.4047 -0.3565 -0.1752
 9550SOL    HW140283   0.690   3.567   0.641  0.3687  0.1573  2.3692
 9550SOL    HW240284   0.778   3.556   0.525  1.0024  0.5310 -0.0263
 9551SOL     OW40285   3.309   3.752   4.546  0.5380 -0.2886 -0.1235
 9551SOL    HW140286   3.326   3.845   4.532 -1.9662  0.2148  0.1519
 9551SOL    HW240287   3.387   3.724   4.593  0.3875  2.4950  1.7966
 9552SOL     OW40288   4.220   3.099  13.686 -0.2199  0.0718  0.4150
 9552SOL    HW140289   4.175   3.057  13.613 -0.9074 -1.2688  1.6009
 9552SOL    HW240290   4.273   3.157  13.630  0.1787  0.0655  0.7855
 9553SOL     OW40291   0.381   4.049   5.366  0.8112  0.0446  0.2088
 9553SOL    HW140292   0.402   4.103   5.442  0.4877  1.4749 -0.7334
 9553SOL    HW240293   0.347   3.973   5.413  0.7048 -0.4855 -0.7248
 9554SOL     OW40294   1.350   3.193   6.506  0.4424 -0.0278 -0.5464
 9554SOL    HW140295   1.262   3.166   6.479 -0.1217  1.7934 -0.5785
 9554SOL    HW240296   1.381   3.223   6.420 -2.2445  0.9475 -1.1983
 9555SOL     OW40297   4.655   2.851  11.194  0.2102 -0.8162  0.3424
 9555SOL    HW140298   4.655   2.943  11.221  2.9066 -0.6146 -0.3923
 9555SOL    HW240299   0.005   2.835  11.154 -2.0693 -1.4090 -4.2950
 9556SOL     OW40300   1.058   0.436   1.724  0.0048  0.1048  0.0679
 9556SOL    HW140301   1.088   0.352   1.690  2.4007  1.1085 -0.3301
 9556SOL    HW240302   1.056   0.483   1.641 -0.4215  1.6895  0.9711
 9557SOL     OW40303   3.673   1.520   4.707  0.3153 -0.3909 -0.2372
 9557SOL    HW140304   3.663   1.599   4.759 -0.0503 -2.2598  2.5512
 9557SOL    HW240305   3.697   1.454   4.773 -0.6566 -1.7396 -1.2266
 9558SOL     OW40306   2.431   1.606   7.885 -0.2543 -0.3289  0.2575
 9558SOL    HW140307   2.518   1.616   7.925  0.7419 -4.0728 -0.9780
 9558SOL    HW240308   2.429   1.656   7.804  1.0593 -0.1996  0.3092
 9559SOL     OW40309   0.613   4.546   2.660 -0.1070 -0.6666 -0.7609
 9559SOL    HW140310   0.650   4.633   2.654  0.1882 -0.7392  0.0478
 9559SOL    HW240311   0.690   4.491   2.676  1.4361  1.2858 -1.6289
 9560SOL     OW40312   1.283   2.291   4.300  0.2421  0.0900 -0.0127
 9560SOL    HW140313   1.249   2.235   4.370  2.3369 -0.3720  0.6253
 9560SOL    HW240314   1.203   2.329   4.264 -0.4550  0.3095  1.7596
 9561SOL     OW40315   2.633   1.585   0.628  0.5783 -0.1320 -0.6432
 9561SOL    HW140316   2.727   1.597   0.618  0.3532  2.9671  0.9068
 9561SOL    HW240317   2.628   1.517   0.695  2.8909 -0.1773 -0.5073
 9562SOL     OW40318   1.339   0.711   7.311  0.7472 -0.0573 -0.6272
 9562SOL    HW140319   1.415   0.767   7.293  1.1971 -0.5832 -0.3762
 9562SOL    HW240320   1.377   0.634   7.353  1.1570 -1.0116 -2.7634
 9563SOL     OW40321   4.137   3.920   4.505 -0.6385 -0.2304 -0.2620
 9563SOL    HW140322   4.047   3.894   4.523  0.2170 -1.2169  2.6146
 9563SOL    HW240323   4.138   3.920   4.410 -2.8207 -0.5784 -0.2904
 9564SOL     OW40324   3.187   4.502  11.308 -0.6473 -0.0363  0.5327
 9564SOL    HW140325   3.223   4.447  11.238  0.7246  0.4748  0.8573
 9564SOL    HW240326   3.217   4.472  11.394  0.4842 -0.2160  0.0702
 9565SOL     OW40327   0.497   4.596  12.524  0.0730  0.2323  0.0449
 9565SOL    HW140328   0.463   4.552  12.446  0.1358  0.3558 -0.0525
 9565SOL    HW240329   0.550   4.523  12.555 -0.3360  0.0265  0.2497
 9566SOL     OW40330   2.244   4.439   3.378 -0.4997  0.2999 -0.2912
 9566SOL    HW140331   2.301   4.463   3.305  0.6173 -0.5984  0.2664
 9566SOL    HW240332   2.288   4.361   3.414  1.1992  1.4983  0.1985
 9567SOL     OW40333   1.808   2.707   1.548 -0.0892  0.7126 -0.4598
 9567SOL    HW140334   1.831   2.721   1.456  0.4325 -1.5486 -0.6769
 9567SOL    HW240335   1.748   2.780   1.568 -0.2027  1.1350 -2.3384
 9568SOL     OW40336   3.114   1.908   2.046  0.2084 -0.4263  0.3568
 9568SOL    HW140337   3.056   1.917   1.970  0.4985 -0.6239  0.1084
 9568SOL    HW240338   3.177   1.977   2.024  1.9987 -1.7582  1.3466
 9569SOL     OW40339   2.910   3.059   8.176  0.5299 -0.8139  0.7113
 9569SOL    HW140340   2.879   3.109   8.251  0.1113  1.2064 -0.8101
 9569SOL    HW240341   3.003   3.041   8.187  1.2131  0.8242 -2.5010
 9570SOL     OW40342   3.956   4.616  10.814 -0.7369  0.4949 -0.1943
 9570SOL    HW140343   3.869   4.590  10.783 -2.2401  1.4412  3.3120
 9570SOL    HW240344   3.936   4.654  10.899 -0.3894 -1.8214  0.9313
 9571SOL     OW40345   0.035   3.028   2.568 -0.4029  0.1502 -0.4629
 9571SOL    HW140346   4.680   2.999   2.575  1.5918 -5.5931  1.2726
 9571SOL    HW240347   0.036   3.082   2.647 -0.1891  1.5781 -1.4415
   4.73578   4.73578  17.74181
