Membrane in water
40347
    1TMC1    C1    1   4.357   1.314  11.485  0.2262  0.2575 -0.0805
    1TMC1    C2    2   4.308   1.442  11.463 -0.1377  0.0808  0.3354
    1TMC1    C3    3   4.389   1.538  11.415  0.1353  0.1741  0.2292
    1TMC1    C4    4   4.479   1.281  11.430  0.0262 -0.5150 -0.0039
    1TMC1    C5    5   4.549   1.376  11.359  0.3993 -0.7618  0.2246
    1TMC1    C6    6   4.506   1.507  11.351 -0.3603  0.8053  0.6118
    1TMC1     C    7   4.284   1.244  11.589 -0.1668 -0.4739  0.7067
    1TMC1     O    8   4.191   1.298  11.644 -0.0109 -0.1946  0.2812
    1TMC1     H    9   4.218   1.467  11.517 -0.0105  0.1962  0.4941
    1TMC1    H1   10   4.510   1.178  11.430  0.3070 -0.4293 -0.8426
    1TMC1    H2   11   4.573   1.578  11.304  1.0986  0.0678  1.5627
    1TMC1    C7   12   4.669   1.334  11.286 -0.0411 -0.2671  0.1043
    1TMC1    C8   13   4.327   1.671  11.407 -0.2953 -0.2225 -0.1309
    1TMC1    O1   14   0.020   1.278  11.358  0.0332  0.9344 -0.1771
    1TMC1    O2   15   4.246   1.722  11.481 -0.0491 -0.0723 -0.6066
    1TMC1    O3   16   4.691   1.424  11.191  0.1715 -0.0446  0.1356
    1TMC1    H3   17   4.613   1.448  11.136  0.4606  0.0238 -0.2492
    1TMC1    O5   18   4.380   1.740  11.303  0.2198 -0.1018  0.1764
    1TMC1    H5   19   4.429   1.690  11.235  1.6670 -0.0343  1.1603
    2MPD2     C   20   4.267   0.828  11.921  0.1469 -0.7184  0.2888
    2MPD2    C1   21   4.181   0.936  11.917  0.6908 -0.0503 -1.1777
    2MPD2    C2   22   4.197   1.035  11.820  0.2370  0.2222  0.2228
    2MPD2    C3   23   4.308   1.033  11.723  0.2207 -0.4130 -0.1082
    2MPD2    C4   24   4.390   0.922  11.732 -0.0587  0.0332  0.1911
    2MPD2    C5   25   4.366   0.822  11.826 -0.0769  0.1858 -0.2353
    2MPD2     H   26   4.141   1.127  11.826 -1.2300 -0.6658  0.2253
    2MPD2    H1   27   4.472   0.917  11.661 -1.1448  2.3160 -1.2290
    2MPD2    H2   28   4.254   0.741  11.984 -0.3962 -0.0971  1.0300
    2MPD2    H3   29   4.444   0.748  11.845 -0.5591  0.2810  2.1553
    2MPD2     N   30   4.336   1.126  11.620 -0.1000 -0.4887  0.6323
    2MPD2    H5   31   4.409   1.093  11.557 -2.1662  0.9351 -2.5215
    2MPD2    N1   32   4.063   0.942  11.999 -0.1941  0.6912 -0.6566
    2MPD2    H7   33   4.006   1.025  11.984 -1.8542 -0.3286  0.0141
    3TMC1    C1   34   2.949   1.257  10.685 -0.1845 -0.3058 -0.2750
    3TMC1    C2   35   2.908   1.141  10.626 -0.4723 -0.3858 -0.2292
    3TMC1    C3   36   3.002   1.075  10.555  0.0861  0.0292  0.0147
    3TMC1    C4   37   3.080   1.295  10.680 -0.1100 -0.0457 -0.0498
    3TMC1    C5   38   3.167   1.226  10.613  0.4651  0.7307  0.2214
    3TMC1    C6   39   3.134   1.109  10.552 -0.2044  0.0062 -0.9890
    3TMC1     C   40   2.857   1.314  10.782  0.1878  0.0533  0.4196
    3TMC1     O   41   2.744   1.262  10.791  0.7334 -0.0097  0.2300
    3TMC1     H   42   2.804   1.114  10.615 -0.1566 -2.0160  0.8269
    3TMC1    H1   43   3.122   1.376  10.739  0.3287 -0.3931  0.1131
    3TMC1    H2   44   3.196   1.050  10.485 -0.2651  0.5154 -1.4925
    3TMC1    C7   45   3.306   1.275  10.620 -0.0496 -0.0735 -0.4175
    3TMC1    C8   46   2.985   0.946  10.480 -0.2351 -0.5648 -0.5214
    3TMC1    O1   47   3.335   1.389  10.615 -0.5292  0.4044 -0.1007
    3TMC1    O2   48   3.055   0.902  10.389  0.3496 -0.1355 -0.7085
    3TMC1    O3   49   3.387   1.167  10.600 -0.1441  0.2487 -0.0676
    3TMC1    H3   50   3.341   1.080  10.607 -0.8140  0.4945 -1.4105
    3TMC1    O5   51   2.879   0.883  10.545  0.6380 -0.5993 -0.4471
    3TMC1    H5   52   2.841   0.925  10.625 -0.9826 -2.2420 -0.3657
    4MPD2     C   53   2.648   1.693  11.071 -0.3181  1.3016 -0.1771
    4MPD2    C1   54   2.758   1.744  11.003  0.3225  0.0013  1.0609
    4MPD2    C2   55   2.826   1.666  10.905  0.3528  0.2120  0.6052
    4MPD2    C3   56   2.801   1.530  10.888 -0.3146 -0.3042  0.0865
    4MPD2    C4   57   2.697   1.479  10.972 -0.3341 -0.6931 -0.7038
    4MPD2    C5   58   2.619   1.562  11.051  0.1926  0.2270  0.0551
    4MPD2     H   59   2.907   1.719  10.858 -0.0002  0.8975  0.7698
    4MPD2    H1   60   2.669   1.375  10.978  0.7582 -0.8391  1.9543
    4MPD2    H2   61   2.588   1.754  11.138 -0.6472  1.4881 -0.6428
    4MPD2    H3   62   2.537   1.513  11.101 -0.2481  1.0428  0.1334
    4MPD2     N   63   2.884   1.445  10.818  0.3780 -0.2230  0.0251
    4MPD2    H5   64   2.961   1.488  10.767  1.0304  0.1026  1.2872
    4MPD2    N1   65   2.801   1.879  11.025 -0.8565  1.0202 -0.3816
    4MPD2    H7   66   2.871   1.910  10.959  0.3404 -0.6350  0.1053
    5TCq1    O1   67   3.549   4.193  12.112  0.1101 -0.4718 -0.0070
    5TCq1    C1   68   3.637   4.118  12.045  0.4415  0.2889  0.5684
    5TCq1    O2   69   3.746   4.158  12.012  0.0228  0.0721  0.3352
    5TCq1    C2   70   3.577   3.999  11.993  0.3625  0.0313 -0.2039
    5TCq1    C3   71   3.500   3.914  12.065  0.3564  0.1541 -0.3756
    5TCq1    C4   72   3.457   3.799  12.007 -0.4580 -0.2866 -0.4593
    5TCq1    C5   73   3.487   3.767  11.881  0.4226  0.4800 -0.8411
    5TCq1    C6   74   3.562   3.852  11.809 -0.1278 -0.5883  0.0998
    5TCq1    C7   75   3.607   3.969  11.863 -0.2976  0.0165  0.2896
    5TCq1    C8   76   3.590   3.816  11.675  0.0216 -0.0947 -0.1048
    5TCq1    O4   77   3.579   3.697  11.649 -0.5739  0.2016 -0.9824
    5TCq1    C9   78   3.366   3.711  12.076  0.3734  0.7128  0.6083
    5TCq1    O5   79   3.348   3.595  12.038  0.0859 -0.2891  0.2390
    5TCq1    O6   80   3.315   3.760  12.182  0.1511  0.4861  0.4742
    5TCq1    H1   81   3.457   4.159  12.105 -0.9404  2.2833  0.5662
    5TCq1    H2   82   3.491   3.938  12.171  1.6159 -0.7443 -0.0653
    5TCq1    H3   83   3.466   3.669  11.840  0.3175  0.9368 -1.8697
    5TCq1    H4   84   3.683   4.029  11.814  0.0683  2.0961  3.4289
    6MPD2     C   85   3.753   4.022  11.416  0.0433  0.5017 -0.0007
    6MPD2    C1   86   3.703   3.906  11.475 -0.6050 -0.5472 -0.0883
    6MPD2    C2   87   3.727   3.783  11.416  0.6831 -0.8003  0.4716
    6MPD2    C3   88   3.797   3.771  11.301 -0.4700  0.8131  0.3501
    6MPD2    C4   89   3.839   3.888  11.241  0.0206 -0.1055  0.0492
    6MPD2    C5   90   3.813   4.015  11.294  0.3955 -0.1527 -0.2610
    6MPD2     H   91   3.692   3.691  11.461 -1.1626 -0.6693 -0.6986
    6MPD2    H1   92   3.894   3.887  11.147 -1.1369 -1.0449 -0.6060
    6MPD2    H2   93   3.740   4.114  11.472 -0.0497  0.4092  0.1332
    6MPD2    H3   94   3.853   4.109  11.260 -0.6247 -0.9285 -3.6043
    6MPD2     N   95   3.820   3.646  11.247  0.2154  0.9159 -0.1803
    6MPD2    H5   96   3.768   3.566  11.283 -0.0215  0.9765 -0.3932
    6MPD2    N1   97   3.633   3.919  11.598 -0.0097  0.2955  0.2751
    6MPD2    H7   98   3.634   4.010  11.643 -1.4282  0.1756  0.5497
    7TCq1    O1   99   0.737   2.717  14.096 -0.5183  0.1100 -0.4462
    7TCq1    C1  100   0.655   2.633  14.029 -0.3396 -0.4307  0.1553
    7TCq1    O2  101   0.651   2.616  13.907  0.3342 -0.0199  0.1524
    7TCq1    C2  102   0.615   2.536  14.126 -0.1907 -0.2321  0.1826
    7TCq1    C3  103   0.581   2.575  14.251 -0.1938 -0.3738 -0.4455
    7TCq1    C4  104   0.547   2.476  14.339  0.1475 -0.2616 -0.1163
    7TCq1    C5  105   0.568   2.343  14.306 -0.0614 -0.0226 -0.0631
    7TCq1    C6  106   0.595   2.315  14.176  0.3307  0.1626  0.2842
    7TCq1    C7  107   0.613   2.411  14.085  0.1466 -0.3676  0.7933
    7TCq1    C8  108   0.620   2.179  14.134  0.0825  0.4312 -0.4738
    7TCq1    O4  109   0.652   2.164  14.016  0.5589  1.0923  0.1539
    7TCq1    C9  110   0.519   2.511  14.475  0.0658  0.7150  0.6179
    7TCq1    O5  111   0.473   2.629  14.487  0.1298  0.2786  0.0470
    7TCq1    O6  112   0.533   2.426  14.564  0.0184  0.4403 -0.3461
    7TCq1    H1  113   0.745   2.710  14.193  2.4478 -0.0051 -0.7023
    7TCq1    H2  114   0.572   2.678  14.284 -0.0819 -1.1730  2.0780
    7TCq1    H3  115   0.568   2.272  14.389  2.0911  2.2070  1.8439
    7TCq1    H4  116   0.637   2.392  13.981 -0.2834 -0.9438  0.7946
    8MPD2     C  117   0.851   1.744  14.301 -0.1190 -0.0101  1.0659
    8MPD2    C1  118   0.859   1.807  14.180  0.4340 -0.3883 -0.5410
    8MPD2    C2  119   0.772   1.911  14.144 -0.4449  1.0056  0.1690
    8MPD2    C3  120   0.675   1.955  14.235 -0.2621 -0.7246 -0.4884
    8MPD2    C4  121   0.667   1.886  14.355  0.6673  0.4142  0.2093
    8MPD2    C5  122   0.751   1.781  14.388  0.5152  0.7248  0.2139
    8MPD2     H  123   0.792   1.963  14.051  1.5171  0.1136  0.0780
    8MPD2    H1  124   0.588   1.910  14.425  0.3002  1.4889 -0.5830
    8MPD2    H2  125   0.917   1.665  14.336  0.1620 -0.3989 -0.3642
    8MPD2    H3  126   0.730   1.720  14.474 -1.1221  0.3740 -0.4320
    8MPD2     N  127   0.595   2.076  14.224 -0.6241  1.1756  0.4914
    8MPD2    H5  128   0.539   2.103  14.304  1.1665 -2.5891  3.0030
    8MPD2    N1  129   0.982   1.797  14.106  0.3106  0.3259 -0.0214
    8MPD2    H7  130   1.062   1.756  14.153 -0.7971 -1.0560  0.7145
    9TMC1    C1  131   3.886   2.600  11.274  0.4687  0.6352  0.5090
    9TMC1    C2  132   3.931   2.721  11.228 -0.8039 -0.4010 -0.3828
    9TMC1    C3  133   3.864   2.834  11.251 -0.0839 -0.8316 -0.3129
    9TMC1    C4  134   3.760   2.586  11.323 -0.7564  0.2668 -0.2505
    9TMC1    C5  135   3.697   2.699  11.353  0.1892  0.1953  0.0116
    9TMC1    C6  136   3.740   2.821  11.317 -0.5110 -0.3127  0.2838
    9TMC1     C  137   3.984   2.556  11.371  0.1695 -0.2930  0.3402
    9TMC1     O  138   4.088   2.615  11.381  0.1278  0.1174 -0.1038
    9TMC1     H  139   4.032   2.724  11.188 -1.7800  1.3003 -2.6753
    9TMC1    H1  140   3.715   2.495  11.360  2.0209 -0.6683  0.8530
    9TMC1    H2  141   3.686   2.913  11.337  1.5037  1.1081 -0.8887
    9TMC1    C7  142   3.561   2.687  11.385  0.8274 -0.4667 -0.1257
    9TMC1    C8  143   3.910   2.963  11.194  0.4709  0.5376  0.4258
    9TMC1    O1  144   3.466   2.738  11.325  0.0223 -0.0196 -0.1509
    9TMC1    O2  145   3.927   2.980  11.076 -0.2063  0.3136 -0.2375
    9TMC1    O3  146   3.554   2.609  11.496 -0.3788 -0.2642  0.2774
    9TMC1    H3  147   3.635   2.615  11.551  0.3726 -1.9994 -0.6523
    9TMC1    O5  148   3.889   3.054  11.299 -0.6873  0.2313  0.3114
    9TMC1    H5  149   3.887   3.011  11.387 -0.0422 -1.7019 -0.6055
   10MPD2     C  150   4.064   2.497  11.643  0.1202 -0.0148 -0.6301
   10MPD2    C1  151   3.976   2.420  11.566 -0.4094  0.3729  0.5619
   10MPD2    C2  152   3.908   2.318  11.630 -0.0732  0.2208  0.1743
   10MPD2    C3  153   3.920   2.290  11.757 -0.1300  0.2097 -0.3897
   10MPD2    C4  154   4.013   2.355  11.826  0.1227 -0.1636  0.3188
   10MPD2    C5  155   4.094   2.454  11.766  0.2210  0.3005 -0.0518
   10MPD2     H  156   3.847   2.257  11.564 -0.2251 -2.3702  2.6989
   10MPD2    H1  157   4.047   2.335  11.927  0.9365  1.4991  0.3737
   10MPD2    H2  158   4.114   2.588  11.611 -0.4678  0.4317 -0.2593
   10MPD2    H3  159   4.159   2.521  11.821  1.2704 -0.7562 -0.0006
   10MPD2     N  160   3.847   2.191  11.823  0.2088  0.2673  0.5329
   10MPD2    H5  161   3.878   2.166  11.917  1.0687  2.4647  0.8147
   10MPD2    N1  162   3.944   2.448  11.436 -0.0708  0.0128  0.1855
   10MPD2    H7  163   3.865   2.396  11.397 -1.3351  2.0531  0.0151
   11TCq1    O1  164   4.573   1.203  15.075 -0.5639  0.0112  0.0267
   11TCq1    C1  165   4.591   1.300  14.986 -0.3342  0.1097 -0.5109
   11TCq1    O2  166   4.696   1.307  14.924  0.0087  0.0989 -0.1171
   11TCq1    C2  167   4.470   1.323  14.916 -0.0895  0.2423  0.3932
   11TCq1    C3  168   4.361   1.325  14.998 -0.1068  0.0578  0.2395
   11TCq1    C4  169   4.246   1.319  14.931 -0.1940  0.4624 -0.4349
   11TCq1    C5  170   4.232   1.351  14.800  0.3777 -0.2437 -0.9592
   11TCq1    C6  171   4.347   1.379  14.730  0.0229  0.4310  0.5685
   11TCq1    C7  172   4.473   1.363  14.788 -0.5048  0.1736  0.2715
   11TCq1    C8  173   4.349   1.396  14.587 -0.4679 -0.0398 -0.2928
   11TCq1    O4  174   4.433   1.475  14.545  0.1349 -0.3707  0.2750
   11TCq1    C9  175   4.129   1.294  15.006  0.2565  0.8435 -0.4077
   11TCq1    O5  176   4.141   1.235  15.117  0.0607 -0.3891  0.7838
   11TCq1    O6  177   4.026   1.358  14.965 -0.4801  0.2126 -0.4751
   11TCq1    H1  178   4.485   1.176  15.110 -0.9077  0.9303 -0.1207
   11TCq1    H2  179   4.368   1.324  15.106 -0.0770 -1.5348  0.2177
   11TCq1    H3  180   4.133   1.354  14.755  0.2798 -3.0230 -0.9269
   11TCq1    H4  181   4.563   1.348  14.729 -0.7435  0.5701 -0.1852
   12MPD2     C  182   4.288   1.412  14.301 -0.2009  0.1230 -0.1676
   12MPD2    C1  183   4.240   1.317  14.386  0.6670  0.3867  0.3811
   12MPD2    C2  184   4.166   1.215  14.321 -0.2628 -0.5357 -0.1078
   12MPD2    C3  185   4.138   1.217  14.186  0.1067  0.5961  0.0482
   12MPD2    C4  186   4.181   1.322  14.108  0.4615 -0.1999  0.0372
   12MPD2    C5  187   4.264   1.415  14.167  0.4570 -0.2659  0.6989
   12MPD2     H  188   4.131   1.139  14.390 -0.6600  1.2534  1.6816
   12MPD2    H1  189   4.156   1.330  14.003  0.2184 -2.5262 -0.0836
   12MPD2    H2  190   4.346   1.499  14.332 -0.6378 -0.5277  2.5105
   12MPD2    H3  191   4.307   1.487  14.098 -1.1637 -0.1821 -0.2213
   12MPD2     N  192   4.067   1.118  14.113 -0.0469  0.2416  0.2185
   12MPD2    H5  193   4.088   1.109  14.014  0.2445  1.1388  0.2051
   12MPD2    N1  194   4.251   1.323  14.525 -0.5585 -0.4587  0.6052
   12MPD2    H7  195   4.199   1.255  14.579 -1.3273 -0.0137  0.4254
   13TCq1    O1  196   4.180   1.933  11.123 -0.3329  0.0965 -0.6165
   13TCq1    C1  197   4.119   1.921  11.005 -0.2557  0.1880  0.0569
   13TCq1    O2  198   4.033   1.990  10.954  0.1708 -0.4204 -0.1028
   13TCq1    C2  199   4.163   1.795  10.957 -0.4811  0.2656  1.1347
   13TCq1    C3  200   4.289   1.752  10.997 -0.2888 -0.0470 -0.0774
   13TCq1    C4  201   4.323   1.619  10.979  0.4813 -0.0545  0.6369
   13TCq1    C5  202   4.224   1.522  10.954  0.0069 -0.3272 -1.4793
   13TCq1    C6  203   4.093   1.572  10.944  0.4214  0.2404  0.3980
   13TCq1    C7  204   4.064   1.706  10.944  0.0437  0.1121 -0.6200
   13TCq1    C8  205   3.992   1.475  10.895 -0.6833 -0.0305  0.1723
   13TCq1    O4  206   4.043   1.388  10.829 -0.4039 -0.1181 -0.2120
   13TCq1    C9  207   4.452   1.582  11.033 -0.6602  0.7123 -0.2000
   13TCq1    O5  208   4.491   1.461  11.038  0.5817  0.3719  0.4582
   13TCq1    O6  209   4.512   1.671  11.094 -0.0355  0.3067  0.6282
   13TCq1    H1  210   4.237   1.856  11.144  1.5208  2.2140  2.2830
   13TCq1    H2  211   4.363   1.831  10.995  0.6528 -0.9449 -0.5324
   13TCq1    H3  212   4.249   1.417  10.947 -1.2588 -0.5554 -2.4789
   13TCq1    H4  213   3.964   1.737  10.917 -1.7034 -4.7444  0.2376
   14MPD2     C  214   3.758   1.300  10.855  0.2419  0.2003  0.0497
   14MPD2    C1  215   3.757   1.413  10.934  0.4186  0.3577  0.5694
   14MPD2    C2  216   3.641   1.464  10.987 -1.2384  0.0893 -0.9674
   14MPD2    C3  217   3.521   1.393  10.974  0.1931  0.0740  0.4064
   14MPD2    C4  218   3.515   1.282  10.889  0.4345 -0.2028 -0.2966
   14MPD2    C5  219   3.633   1.240  10.828 -0.8142  0.4001  0.0168
   14MPD2     H  220   3.662   1.549  11.051 -2.3338 -0.1517 -0.2786
   14MPD2    H1  221   3.435   1.211  10.874 -0.7097  0.8904  0.6053
   14MPD2    H2  222   3.844   1.259  10.805 -1.8884 -0.6848 -2.9014
   14MPD2    H3  223   3.614   1.160  10.758 -0.4294  1.7963 -1.7085
   14MPD2     N  224   3.401   1.444  11.037  0.1413  0.2189  0.0206
   14MPD2    H5  225   3.417   1.520  11.103  2.6573  1.3995 -1.9570
   14MPD2    N1  226   3.868   1.497  10.955  0.0450  0.9006  0.0124
   14MPD2    H7  227   3.859   1.557  11.037 -1.3219 -0.2141  0.6656
   15TCq1    O1  228   2.268   1.351   1.940 -0.0981 -0.3785  0.5791
   15TCq1    C1  229   2.211   1.294   1.829  0.3830  0.4327 -0.6429
   15TCq1    O2  230   2.273   1.278   1.728 -0.4440  0.6146 -0.1908
   15TCq1    C2  231   2.109   1.202   1.877 -0.4222 -0.3063 -0.1718
   15TCq1    C3  232   2.001   1.259   1.940  0.3876 -0.2713  0.4030
   15TCq1    C4  233   1.879   1.190   1.932 -0.7564  0.2536  0.9056
   15TCq1    C5  234   1.868   1.070   1.862  0.2387 -0.5259 -0.6415
   15TCq1    C6  235   1.975   1.028   1.787  0.7030 -0.2668  0.1254
   15TCq1    C7  236   2.088   1.094   1.796 -0.0591  0.7331 -0.6405
   15TCq1    C8  237   1.976   0.896   1.708 -0.4661  0.7008  0.6435
   15TCq1    O4  238   2.085   0.870   1.658  0.1095  0.0392 -0.0941
   15TCq1    C9  239   1.777   1.258   2.003  0.0640 -1.1172 -0.6064
   15TCq1    O5  240   1.808   1.342   2.088  0.0489  0.5990  1.1138
   15TCq1    O6  241   1.660   1.249   1.965  0.6185 -0.3656 -0.3652
   15TCq1    H1  242   2.210   1.332   2.017 -0.2634 -0.7456  0.3649
   15TCq1    H2  243   2.014   1.359   1.979 -0.1340  0.2923 -0.8541
   15TCq1    H3  244   1.773   1.018   1.851  0.9299 -1.7202 -0.9195
   15TCq1    H4  245   2.172   1.048   1.744  0.3760  0.6323  0.1555
   16MPD2     C  246   1.705   0.666   1.622  0.3058  0.4547  0.2875
   16MPD2    C1  247   1.829   0.712   1.623 -0.5350  0.3730 -0.3842
   16MPD2    C2  248   1.936   0.627   1.588 -0.1391 -0.0122 -0.0140
   16MPD2    C3  249   1.910   0.507   1.533 -0.1433 -0.5701 -0.0502
   16MPD2    C4  250   1.778   0.475   1.501 -0.2860  0.4972 -0.1995
   16MPD2    C5  251   1.677   0.552   1.553 -0.0638  0.0232  0.0402
   16MPD2     H  252   2.040   0.653   1.607 -1.5600  3.3545  3.0711
   16MPD2    H1  253   1.750   0.383   1.451 -1.5591  1.0805 -0.5684
   16MPD2    H2  254   1.623   0.727   1.657  0.4641  0.6143  0.3728
   16MPD2    H3  255   1.574   0.521   1.543  0.8702 -1.9068 -3.2563
   16MPD2     N  256   2.021   0.425   1.499 -0.0587 -0.1467  0.0420
   16MPD2    H5  257   2.115   0.449   1.530  0.6048 -1.7329 -0.7242
   16MPD2    N1  258   1.855   0.831   1.700  0.3083  0.0404 -1.0210
   16MPD2    H7  259   1.775   0.882   1.738  1.4882 -0.0605  1.5893
   17TMC1    C1  260   3.426   1.215  11.292 -0.1507 -0.4926  0.5061
   17TMC1    C2  261   3.330   1.221  11.387  0.0910 -0.1857  0.3110
   17TMC1    C3  262   3.214   1.155  11.354 -0.1205 -1.0149  0.2319
   17TMC1    C4  263   3.414   1.129  11.182 -0.7250  0.5101 -0.0748
   17TMC1    C5  264   3.298   1.063  11.157 -0.2252 -0.1099 -0.3183
   17TMC1    C6  265   3.192   1.072  11.246  0.0326  0.1803 -0.0266
   17TMC1     C  266   3.550   1.281  11.322 -0.6793  0.0909 -0.0377
   17TMC1     O  267   3.537   1.375  11.395 -0.5317 -0.0094 -0.3702
   17TMC1     H  268   3.342   1.276  11.479 -0.9267  0.0528  0.2999
   17TMC1    H1  269   3.492   1.124  11.106 -0.5111 -0.4529  0.2108
   17TMC1    H2  270   3.101   1.016  11.226  1.4108 -2.3523  0.9031
   17TMC1    C7  271   3.287   0.961  11.051  0.8769 -0.3942 -0.7906
   17TMC1    C8  272   3.113   1.124  11.460 -0.3775  0.2339 -0.7369
   17TMC1    O1  273   3.186   0.945  10.986  0.3237 -0.3030 -0.0046
   17TMC1    O2  274   3.046   1.022  11.458 -0.2931  0.2029  0.0051
   17TMC1    O3  275   3.413   0.905  11.020 -0.1133 -0.7671 -0.6683
   17TMC1    H3  276   3.488   0.937  11.075  0.8797 -0.0327 -2.4614
   17TMC1    O5  277   3.155   1.186  11.570 -0.0856  0.2896  0.1365
   17TMC1    H5  278   3.176   1.278  11.543  0.3221  0.2127  0.1956
   18MPD2     C  279   3.843   1.381  11.310  0.7010  0.1084  0.5663
   18MPD2    C1  280   3.793   1.264  11.253  0.6143 -0.9382  0.1829
   18MPD2    C2  281   3.881   1.182  11.182  0.4825  0.1058 -0.4804
   18MPD2    C3  282   4.010   1.219  11.159 -0.0189  0.3027 -0.0903
   18MPD2    C4  283   4.063   1.331  11.215 -0.5788 -0.1861  0.3651
   18MPD2    C5  284   3.980   1.413  11.290 -0.0045 -0.2658 -0.7075
   18MPD2     H  285   3.839   1.100  11.125 -1.3936  2.9629 -3.2285
   18MPD2    H1  286   4.163   1.365  11.191 -0.9362  0.6028 -0.0252
   18MPD2    H2  287   3.779   1.438  11.376  0.7860  0.4028  0.3965
   18MPD2    H3  288   4.023   1.496  11.344 -0.6022 -0.9890  0.8672
   18MPD2     N  289   4.102   1.149  11.074  0.1848  0.2261  0.5253
   18MPD2    H5  290   4.195   1.187  11.065  0.1427 -0.5999 -3.2698
   18MPD2    N1  291   3.662   1.225  11.259 -0.3419  0.6590  0.2406
   18MPD2    H7  292   3.643   1.147  11.196 -0.2103  1.4532 -0.7881
   19TMC2    C1  293   0.675   1.078  13.948  0.2684 -0.1860 -0.5283
   19TMC2    C2  294   0.608   1.179  13.883 -0.3084  0.0950  0.2314
   19TMC2    C3  295   0.474   1.180  13.901 -0.0638 -0.0474  0.2689
   19TMC2    C4  296   0.616   0.982  14.029 -0.4623 -0.6740 -0.3865
   19TMC2    C5  297   0.487   0.998  14.056 -0.4288 -0.3957 -0.3025
   19TMC2    C6  298   0.411   1.092  13.991 -0.7386  0.5522  0.0976
   19TMC2     C  299   0.816   1.071  13.915  0.3101 -0.6437  0.1984
   19TMC2     O  300   0.860   1.121  13.807  0.7360 -0.3107 -0.6125
   19TMC2     H  301   0.659   1.247  13.816 -2.0852  1.2038  0.0013
   19TMC2    H1  302   0.673   0.891  14.045  2.5760  1.1688 -0.7471
   19TMC2    H2  303   0.303   1.088  13.997 -0.6710  0.2813  1.1443
   19TMC2    C7  304   0.421   0.893  14.133  0.2946 -0.6093 -0.5024
   19TMC2    C8  305   0.401   1.273  13.820  0.5105  0.6140 -0.4182
   19TMC2    O1  306   0.469   0.783  14.143 -0.2056 -0.2007  1.1734
   19TMC2    O2  307   0.426   1.271  13.700 -0.6813 -0.5141 -0.7174
   19TMC2    O5  308   0.418   1.385  13.889  0.3108  0.3449  0.1791
   19TMC2    H5  309   0.395   1.370  13.983 -2.3311 -0.7759 -0.6446
   20MPD2     C  310   1.108   1.035  13.933  0.8756 -0.3281  0.5399
   20MPD2    C1  311   1.018   1.018  14.037 -0.4812 -0.3682 -0.7862
   20MPD2    C2  312   1.073   0.997  14.165 -0.1766  0.5148  0.4964
   20MPD2    C3  313   1.210   0.982  14.179  0.5022  0.1166  0.2522
   20MPD2    C4  314   1.292   1.005  14.072 -0.0901  0.5119 -0.3084
   20MPD2    C5  315   1.242   1.037  13.953  0.2462  0.6031  0.0987
   20MPD2     H  316   1.002   0.979  14.245  0.3541 -1.8823  0.4549
   20MPD2    H1  317   1.400   0.997  14.083 -0.3587  0.1680  2.1717
   20MPD2    H2  318   1.074   1.048  13.831 -1.7260 -2.5963  1.1206
   20MPD2    H3  319   1.307   1.041  13.866 -0.0905 -2.7062 -0.2828
   20MPD2     N  320   1.276   0.945  14.301  0.4208 -0.3210  0.6741
   20MPD2    H5  321   1.373   0.975  14.305  0.3066  0.3862 -2.1892
   20MPD2    N1  322   0.878   1.026  14.031  0.6124  0.4937  0.1054
   20MPD2    H7  323   0.824   0.994  14.111  0.6659 -0.5917 -0.2864
   21TMC2    C1  324   2.673   0.925  14.207  0.7153 -0.3797  0.4204
   21TMC2    C2  325   2.750   0.816  14.189  0.2844 -0.5079 -0.5976
   21TMC2    C3  326   2.789   0.750  14.300 -0.5769 -0.3408 -0.5867
   21TMC2    C4  327   2.615   0.958  14.327  0.0271  0.1783  0.0394
   21TMC2    C5  328   2.656   0.882  14.436  0.8875  0.2751  0.7184
   21TMC2    C6  329   2.745   0.781  14.428 -0.1967 -0.2764 -0.0235
   21TMC2     C  330   2.623   0.992  14.084  0.5701 -0.5604 -0.1286
   21TMC2     O  331   2.596   0.922  13.986 -0.3068  0.2456  0.4757
   21TMC2     H  332   2.790   0.794  14.090 -3.3867  0.9543 -2.4245
   21TMC2    H1  333   2.538   1.034  14.333 -0.5379 -0.5266  1.4888
   21TMC2    H2  334   2.775   0.723  14.515  1.3253  0.5755  0.0076
   21TMC2    C7  335   2.662   0.943  14.563  0.0650 -0.1581  0.3855
   21TMC2    C8  336   2.879   0.636  14.282  0.5917  0.3527 -0.0641
   21TMC2    O1  337   2.726   0.883  14.653 -0.3788  1.1082  0.1319
   21TMC2    O2  338   2.954   0.613  14.377 -0.6636  0.4138 -0.2670
   21TMC2    O5  339   2.885   0.586  14.163 -0.1247 -0.5124 -0.2164
   21TMC2    H5  340   2.796   0.588  14.122  0.0980  1.0103 -0.6095
   22MPD2     C  341   2.743   1.418  14.339  0.3611  0.2553 -0.4837
   22MPD2    C1  342   2.818   1.298  14.325 -0.4641 -0.8073  0.3734
   22MPD2    C2  343   2.775   1.207  14.235 -0.1593  0.4905 -0.3417
   22MPD2    C3  344   2.651   1.224  14.178  0.5905 -0.2066  0.3514
   22MPD2    C4  345   2.584   1.339  14.192  0.1371 -0.0347  0.8742
   22MPD2    C5  346   2.631   1.440  14.268 -0.3055 -0.2490 -0.4751
   22MPD2     H  347   2.828   1.112  14.232 -1.6649 -0.3306 -0.9161
   22MPD2    H1  348   2.499   1.360  14.128  1.3813  1.0132 -0.4281
   22MPD2    H2  349   2.771   1.489  14.415  3.5366 -1.0525 -0.4367
   22MPD2    H3  350   2.571   1.529  14.286  0.2666  0.4218 -1.8777
   22MPD2     N  351   2.589   1.125  14.096  0.1561  0.1658  0.1220
   22MPD2    H5  352   2.518   1.172  14.040 -2.3424 -2.6905  0.8813
   22MPD2    N1  353   2.925   1.262  14.407  0.5096  0.4380  0.4996
   22MPD2    H7  354   2.981   1.181  14.383 -1.3710 -1.2075  1.6742
   23TMC2    C1  355   4.215   2.091  14.515  0.1511 -0.5104 -0.1019
   23TMC2    C2  356   4.218   2.176  14.413 -0.7556 -0.2069  1.4111
   23TMC2    C3  357   4.121   2.153  14.323  0.9830 -0.2245 -0.3907
   23TMC2    C4  358   4.112   2.008  14.547 -0.5626  0.2536  0.3623
   23TMC2    C5  359   4.006   2.003  14.459 -0.1921 -0.5271 -0.2366
   23TMC2    C6  360   4.021   2.064  14.338  0.0792  0.6407 -0.7219
   23TMC2     C  361   4.299   2.131  14.626  0.1447  0.1051  0.5774
   23TMC2     O  362   4.320   2.048  14.710 -0.6729  0.3040  0.0574
   23TMC2     H  363   4.310   2.226  14.384  0.2437 -2.1651  1.2464
   23TMC2    H1  364   4.094   1.981  14.650  2.7545  1.1717  1.1741
   23TMC2    H2  365   3.940   2.064  14.266 -1.7128  1.9543  1.2353
   23TMC2    C7  366   3.873   1.956  14.504  0.3821  0.2243 -0.1305
   23TMC2    C8  367   4.139   2.210  14.191 -0.1913 -0.0472  0.1807
   23TMC2    O1  368   3.871   1.897  14.608 -0.4904 -0.5956  0.3356
   23TMC2    O2  369   4.090   2.153  14.093  0.6960  0.0667 -0.0935
   23TMC2    O5  370   4.123   2.341  14.215  0.1606  0.2022 -0.3235
   23TMC2    H5  371   4.132   2.365  14.310  0.6192 -2.2763  0.2641
   24MPD2     C  372   4.395   2.495  14.968 -0.5359  0.5973 -1.0420
   24MPD2    C1  373   4.426   2.360  14.974  0.4141  0.2350 -0.1683
   24MPD2    C2  374   4.410   2.279  14.862 -0.1425 -0.1681  0.3309
   24MPD2    C3  375   4.343   2.332  14.754  0.1997 -0.0779  0.3064
   24MPD2    C4  376   4.302   2.462  14.753  0.3346  0.1990 -0.2210
   24MPD2    C5  377   4.324   2.539  14.861  0.4289  0.5698 -0.5767
   24MPD2     H  378   4.438   2.175  14.857  0.0885 -0.1193  0.6544
   24MPD2    H1  379   4.245   2.504  14.671 -1.4221 -2.5477 -0.3979
   24MPD2    H2  380   4.402   2.552  15.060  2.2836 -0.3158 -0.7029
   24MPD2    H3  381   4.285   2.640  14.870  1.1719  0.7582  0.5156
   24MPD2     N  382   4.293   2.260  14.645  0.8479  0.0054  0.1212
   24MPD2    H5  383   4.238   2.318  14.583  2.1684  1.7843  0.6099
   24MPD2    N1  384   4.483   2.300  15.091  0.2019  0.5161 -0.1973
   24MPD2    H7  385   4.469   2.199  15.096 -0.4339  0.6184  0.1393
   25TMC2    C1  386   3.754   0.006  11.679 -0.4330  0.4139 -0.1354
   25TMC2    C2  387   3.862   0.077  11.718  0.2968 -0.1334  0.5953
   25TMC2    C3  388   3.842   0.171  11.811 -0.1260  0.5594  0.2141
   25TMC2    C4  389   3.631   0.013  11.734 -0.6088  0.2257 -0.6357
   25TMC2    C5  390   3.618   0.110  11.835  0.3069 -0.4951  0.3823
   25TMC2    C6  391   3.722   0.192  11.874 -0.5189  0.9237 -0.0215
   25TMC2     C  392   3.779   4.644  11.567 -0.4330  0.0471  0.4622
   25TMC2     O  393   3.895   4.637  11.531 -0.3506  0.0613 -0.3443
   25TMC2     H  394   3.953   0.086  11.660  1.2916 -0.6423  2.0870
   25TMC2    H1  395   3.551   4.690  11.690 -0.2341 -0.7612 -0.0303
   25TMC2    H2  396   3.710   0.270  11.948 -2.1546 -0.5397  1.2398
   25TMC2    C7  397   3.486   0.150  11.884  1.0883  0.3061 -0.6676
   25TMC2    C8  398   3.962   0.202  11.880 -0.3069  0.5733  0.2522
   25TMC2    O1  399   3.476   0.209  11.987  0.0683 -0.3607 -0.0877
   25TMC2    O2  400   4.055   0.244  11.811 -0.1975 -0.3264  0.0672
   25TMC2    O5  401   3.970   0.119  11.982  0.2984 -0.1237 -0.4639
   25TMC2    H5  402   3.894   0.057  11.985  0.4709 -0.3103  0.0668
   26MPD2     C  403   3.680   4.290  11.211 -0.5019  0.4324  0.5713
   26MPD2    C1  404   3.570   4.304  11.294  0.8786  0.5005  0.7265
   26MPD2    C2  405   3.573   4.393  11.396  0.4076 -0.5365 -0.6337
   26MPD2    C3  406   3.688   4.463  11.432  0.4819  0.9477 -0.5627
   26MPD2    C4  407   3.805   4.428  11.359  0.2253 -0.3699  0.4875
   26MPD2    C5  408   3.798   4.344  11.255  0.3022 -0.2652  0.2374
   26MPD2     H  409   3.480   4.412  11.448  0.1307  1.0108 -1.6907
   26MPD2    H1  410   3.904   4.463  11.386  0.4537 -0.5089 -0.1954
   26MPD2    H2  411   3.668   4.236  11.117  0.7101 -0.2862  0.8301
   26MPD2    H3  412   3.892   4.316  11.209 -0.8388  0.9005 -2.7973
   26MPD2     N  413   3.677   4.561  11.535  0.5786 -0.0460 -0.1236
   26MPD2    H5  414   3.585   4.580  11.573  1.1965  1.1714  0.7878
   26MPD2    N1  415   3.459   4.233  11.245 -0.4744 -0.0008 -0.0310
   26MPD2    H7  416   3.467   4.168  11.168 -0.6618  1.4597 -1.2871
   27TMC2    C1  417   2.403   2.577  13.035  0.6786 -0.1843  0.3690
   27TMC2    C2  418   2.465   2.697  12.996 -0.0445  0.1036  0.4283
   27TMC2    C3  419   2.485   2.712  12.865 -0.6600 -0.2950 -0.8517
   27TMC2    C4  420   2.355   2.481  12.951  0.2957 -0.9342  0.5946
   27TMC2    C5  421   2.389   2.497  12.822 -0.0553  0.3360  0.1222
   27TMC2    C6  422   2.444   2.614  12.775 -0.3277  0.4226 -0.3327
   27TMC2     C  423   2.350   2.582  13.174  0.1219 -0.3673  0.8015
   27TMC2     O  424   2.416   2.633  13.261  0.3128 -0.1501 -0.1000
   27TMC2     H  425   2.513   2.771  13.059  1.0785 -0.0763 -0.2114
   27TMC2    H1  426   2.323   2.385  12.989  1.8768 -1.7270 -0.0691
   27TMC2    H2  427   2.479   2.638  12.675  2.3144  0.2398  0.5580
   27TMC2    C7  428   2.331   2.406  12.725 -0.2029  0.3514  0.6683
   27TMC2    C8  429   2.522   2.842  12.820 -0.2722  0.0338 -0.1796
   27TMC2    O1  430   2.281   2.310  12.787  0.2868 -0.3829 -0.0112
   27TMC2    O2  431   2.565   2.857  12.705 -0.1217  1.0837 -0.3310
   27TMC2    O5  432   2.451   2.939  12.890  0.4730 -0.2037 -0.2368
   27TMC2    H5  433   2.390   2.903  12.958 -1.2312 -0.6434 -1.9818
   28MPD2     C  434   1.968   2.518  13.497  0.4210  0.9901  0.4591
   28MPD2    C1  435   1.925   2.449  13.384  0.1830 -0.2677  0.1857
   28MPD2    C2  436   2.015   2.453  13.274  0.7119  0.0566 -0.2318
   28MPD2    C3  437   2.142   2.507  13.287  0.6527 -0.3020  0.1952
   28MPD2    C4  438   2.180   2.569  13.405  0.3538 -0.0122  0.7512
   28MPD2    C5  439   2.090   2.576  13.502 -0.5241 -0.1221 -0.4553
   28MPD2     H  440   1.996   2.400  13.181 -1.0612  2.5217 -1.2529
   28MPD2    H1  441   2.281   2.600  13.425 -0.0060 -0.7533  3.7308
   28MPD2    H2  442   1.905   2.522  13.585  1.6071  2.0181  1.2381
   28MPD2    H3  443   2.116   2.641  13.585 -0.8540 -0.2042 -0.2919
   28MPD2     N  444   2.226   2.518  13.176  1.1759  0.3131  0.0119
   28MPD2    H5  445   2.191   2.466  13.095 -2.1694  1.2673  0.8314
   28MPD2    N1  446   1.796   2.391  13.385 -0.0606 -0.7158  0.0482
   28MPD2    H7  447   1.764   2.369  13.479 -0.4494  2.8347  0.7549
   29TMC2    C1  448   1.739   4.368  14.005 -0.1338  0.0847  0.1462
   29TMC2    C2  449   1.861   4.372  13.939  0.0239 -0.3119  0.0835
   29TMC2    C3  450   1.926   4.487  13.952  0.4953  0.3591  0.0429
   29TMC2    C4  451   1.675   4.474  14.065 -0.2966 -0.0938  0.2039
   29TMC2    C5  452   1.744   4.588  14.080 -0.7674 -0.5911 -0.6742
   29TMC2    C6  453   1.870   4.594  14.022  0.5064  0.0679 -0.0453
   29TMC2     C  454   1.672   4.240  13.985  0.1560 -0.4959  0.0591
   29TMC2     O  455   1.724   4.157  13.918  0.0460 -0.4460  1.1605
   29TMC2     H  456   1.891   4.297  13.868  0.3147 -1.4934  1.4570
   29TMC2    H1  457   1.578   4.475  14.113 -0.4194 -2.1232  0.0075
   29TMC2    H2  458   1.911   4.694  14.012 -2.0049  1.3032  1.9451
   29TMC2    C7  459   1.687   4.701  14.150 -0.4809  0.3709 -0.1581
   29TMC2    C8  460   2.054   4.512  13.893 -0.6431  0.1507  0.2698
   29TMC2    O1  461   1.565   4.709  14.153 -0.0155 -0.4949 -0.2729
   29TMC2    O2  462   2.095   4.418  13.819  0.0281 -0.3513 -0.0639
   29TMC2    O5  463   2.116   4.560  13.997  0.4213 -0.2556 -0.1207
   29TMC2    H5  464   2.067   4.583  14.079  0.6971 -0.0763 -0.0081
   30MPD2     C  465   1.345   3.887  14.152 -0.3234  0.6336 -0.1556
   30MPD2    C1  466   1.464   3.867  14.089  0.1164 -0.4589 -0.4467
   30MPD2    C2  467   1.543   3.974  14.061  0.2068 -0.0882  0.5629
   30MPD2    C3  468   1.496   4.106  14.095  0.2937 -0.1288  0.2354
   30MPD2    C4  469   1.386   4.117  14.175 -0.3029  0.7100 -0.2234
   30MPD2    C5  470   1.309   4.012  14.201 -0.4328  0.2777  0.4920
   30MPD2     H  471   1.635   3.958  14.007 -0.8096 -0.6147 -0.9982
   30MPD2    H1  472   1.350   4.216  14.200 -2.5417 -0.2799  0.4063
   30MPD2    H2  473   1.277   3.802  14.156 -1.0929  1.2206 -0.7003
   30MPD2    H3  474   1.215   4.023  14.253  0.9786  1.4395  2.7794
   30MPD2     N  475   1.565   4.224  14.070 -0.2928 -0.1506 -0.5701
   30MPD2    H5  476   1.519   4.303  14.113 -0.4889 -0.0284 -1.0021
   30MPD2    N1  477   1.512   3.738  14.051  0.7953 -0.4619 -0.5756
   30MPD2    H7  478   1.606   3.738  14.011  0.9554  0.1189 -0.2026
   31TMC2    C1  479   3.980   3.123  15.163  0.1397 -0.5513  0.1791
   31TMC2    C2  480   3.858   3.082  15.119 -0.0400 -0.0433  0.5211
   31TMC2    C3  481   3.787   3.008  15.205 -0.7631  0.4164 -0.1378
   31TMC2    C4  482   4.018   3.103  15.293  0.8273 -0.0317 -0.1470
   31TMC2    C5  483   3.941   3.029  15.378 -0.0903 -0.1924 -0.5510
   31TMC2    C6  484   3.819   2.988  15.336 -0.1711  0.2091 -1.0031
   31TMC2     C  485   4.076   3.169  15.060  0.1737  0.2414  0.2052
   31TMC2     O  486   4.022   3.211  14.963  0.0373  0.0297 -0.7692
   31TMC2     H  487   3.831   3.088  15.014  0.2527 -2.4832  0.3016
   31TMC2    H1  488   4.113   3.147  15.323  0.9131 -1.0897  1.1251
   31TMC2    H2  489   3.770   2.919  15.404  0.4717  1.2114  0.4691
   31TMC2    C7  490   3.990   3.024  15.513  0.2802  0.4712  0.3326
   31TMC2    C8  491   3.663   2.949  15.166  0.0644  0.2823 -0.7927
   31TMC2    O1  492   4.111   3.047  15.526 -0.1326  0.2934  0.5530
   31TMC2    O2  493   3.652   2.828  15.179  0.2576  0.5599 -0.1652
   31TMC2    O5  494   3.590   3.030  15.092 -0.3622 -0.1218  0.8801
   31TMC2    H5  495   3.605   3.125  15.108  1.2025 -0.2030 -0.0388
   32MPD2     C  496   4.486   3.423  14.905  0.8801  0.0438  0.1973
   32MPD2    C1  497   4.377   3.394  14.825 -0.0858  0.0734  0.0102
   32MPD2    C2  498   4.286   3.312  14.891  0.4810  0.1093 -0.1265
   32MPD2    C3  499   4.308   3.253  15.015  0.1408 -0.1467 -0.7134
   32MPD2    C4  500   4.425   3.272  15.080 -0.7350  0.1139  0.5282
   32MPD2    C5  501   4.515   3.363  15.023  0.8820  0.9865 -0.1030
   32MPD2     H  502   4.189   3.292  14.847  2.0762 -1.5987 -2.8309
   32MPD2    H1  503   4.456   3.220  15.171 -1.8440 -0.3066  0.6718
   32MPD2    H2  504   4.559   3.492  14.863 -1.1224  1.3947 -1.1142
   32MPD2    H3  505   4.602   3.385  15.084  0.8457 -1.5413  0.8590
   32MPD2     N  506   4.209   3.187  15.095 -0.1506  0.4594 -0.1768
   32MPD2    H5  507   4.231   3.155  15.189 -2.3743  0.8344  0.4927
   32MPD2    N1  508   4.364   3.457  14.696  0.2761  0.0079 -0.2047
   32MPD2    H7  509   4.430   3.528  14.668  0.8856 -0.4964 -0.0361
   33TMC2    C1  510   3.986   1.704  10.281 -0.5136 -0.4083  0.2600
   33TMC2    C2  511   3.885   1.758  10.352  0.1208 -0.1307 -0.2359
   33TMC2    C3  512   3.823   1.864  10.289  0.5056 -0.5656  0.2357
   33TMC2    C4  513   4.029   1.750  10.158  0.0400  0.1044 -0.0334
   33TMC2    C5  514   3.968   1.865  10.107 -0.3479 -0.1822 -0.4472
   33TMC2    C6  515   3.858   1.919  10.168  0.2347  0.0363  0.0189
   33TMC2     C  516   4.052   1.594  10.347  0.4243 -0.8881 -0.7407
   33TMC2     O  517   3.985   1.523  10.419 -0.3753  0.1347 -0.3172
   33TMC2     H  518   3.870   1.733  10.456  1.7291 -0.9006 -0.1871
   33TMC2    H1  519   4.113   1.709  10.104 -0.2573 -1.0735  0.4000
   33TMC2    H2  520   3.834   2.022  10.143  0.9145  0.3775  0.7803
   33TMC2    C7  521   3.991   1.889   9.968  0.4698  0.8358  0.7388
   33TMC2    C8  522   3.747   1.955  10.378  0.3000  0.5030 -0.0716
   33TMC2    O1  523   4.103   1.862   9.923 -0.6103  0.0719  0.1314
   33TMC2    O2  524   3.758   2.073  10.360  0.0330 -0.4191  0.0099
   33TMC2    O5  525   3.645   1.895  10.438 -0.4549  0.3182  0.0852
   33TMC2    H5  526   3.647   1.805  10.401  0.1416 -0.1741  1.3152
   34MPD2     C  527   4.467   1.326  10.482  0.2588  0.4432 -0.1312
   34MPD2    C1  528   4.339   1.307  10.517  0.1404  0.5265  0.4524
   34MPD2    C2  529   4.246   1.398  10.467  0.5096  0.1147  0.2358
   34MPD2    C3  530   4.276   1.495  10.371 -0.5068  0.9182 -0.0734
   34MPD2    C4  531   4.410   1.513  10.342 -0.0274 -0.2149  0.2466
   34MPD2    C5  532   4.500   1.427  10.395 -0.0660 -1.1615  0.1388
   34MPD2     H  533   4.143   1.371  10.485  0.7293 -2.3806 -2.3474
   34MPD2    H1  534   4.441   1.583  10.266 -0.5784  2.4445  2.4962
   34MPD2    H2  535   4.549   1.272  10.529 -0.7584 -1.2805 -0.3435
   34MPD2    H3  536   4.604   1.424  10.364 -0.1376 -0.3837 -0.1780
   34MPD2     N  537   4.182   1.585  10.314 -0.1623  0.6107  0.4639
   34MPD2    H5  538   4.221   1.656  10.253 -0.1920 -0.3521 -0.6723
   34MPD2    N1  539   4.295   1.206  10.610  0.0821  0.1302 -0.0337
   34MPD2    H7  540   4.195   1.208  10.630  0.0320 -1.2740 -0.1686
   35TMC2    C1  541   4.457   2.274  11.611 -0.3314 -0.1965  0.7405
   35TMC2    C2  542   4.343   2.260  11.533 -0.0136  0.3456  0.1596
   35TMC2    C3  543   4.245   2.171  11.578 -0.1094  0.4524  0.2074
   35TMC2    C4  544   4.460   2.233  11.739  0.4944 -0.1999  0.4483
   35TMC2    C5  545   4.362   2.147  11.785 -0.1697  0.1526  0.8770
   35TMC2    C6  546   4.249   2.119  11.708 -0.0526  0.2466 -0.6618
   35TMC2     C  547   4.572   2.313  11.538  0.6417  0.7729  0.0488
   35TMC2     O  548   4.553   2.378  11.437  0.2070 -0.4064  0.3501
   35TMC2     H  549   4.335   2.298  11.431  3.5562  0.3813 -0.0892
   35TMC2    H1  550   4.529   2.273  11.813  0.8320  0.4595 -0.2302
   35TMC2    H2  551   4.177   2.040  11.727 -0.8972  0.6487 -2.1187
   35TMC2    C7  552   4.390   2.064  11.899  0.2658  0.1973  0.1006
   35TMC2    C8  553   4.151   2.111  11.490 -0.2296 -0.4529 -0.2629
   35TMC2    O1  554   4.506   2.066  11.934  0.5997  0.3870 -0.1925
   35TMC2    O2  555   4.052   2.055  11.535  0.0047 -0.1818 -0.0498
   35TMC2    O5  556   4.181   2.119  11.356 -0.1689 -0.1390  0.1233
   35TMC2    H5  557   4.273   2.149  11.339  0.0199 -0.1321  1.1666
   36MPD2     C  558   0.348   2.348  11.504  0.1952  0.4830 -0.5974
   36MPD2    C1  559   0.315   2.262  11.610  0.1833 -0.5158  0.1868
   36MPD2    C2  560   0.187   2.233  11.650  0.5159 -0.5217  0.5787
   36MPD2    C3  561   0.083   2.293  11.575  0.2297 -0.3117 -0.4789
   36MPD2    C4  562   0.118   2.384  11.477  0.0901 -0.8555  0.1686
   36MPD2    C5  563   0.251   2.409  11.443 -0.4445 -0.5772 -0.6972
   36MPD2     H  564   0.159   2.168  11.731 -0.1266 -0.6542  0.2574
   36MPD2    H1  565   0.049   2.440  11.415 -0.7381 -0.6549  1.2684
   36MPD2    H2  566   0.450   2.381  11.488  0.2918  0.7175  0.5104
   36MPD2    H3  567   0.280   2.473  11.360  0.5699  2.3336  1.8925
   36MPD2     N  568   4.678   2.278  11.610 -0.4786  0.4856 -0.1905
   36MPD2    H5  569   4.660   2.235  11.700  0.7935 -0.2228 -0.2753
   36MPD2    N1  570   0.422   2.221  11.687  0.9987 -0.1865  0.6434
   36MPD2    H7  571   0.511   2.262  11.663 -0.3933  2.9297  0.8077
   37TMC2    C1  572   3.127   2.563  11.803  0.3710  0.2123 -0.6062
   37TMC2    C2  573   3.041   2.532  11.701  0.4144 -0.2486 -0.3952
   37TMC2    C3  574   3.045   2.604  11.588  0.6196  0.4356  0.5497
   37TMC2    C4  575   3.220   2.668  11.790  0.1967 -0.4718 -0.0927
   37TMC2    C5  576   3.205   2.747  11.680  0.5236 -0.4091 -0.0753
   37TMC2    C6  577   3.117   2.719  11.580 -0.3899 -0.1998 -0.5956
   37TMC2     C  578   3.103   2.508  11.936 -0.4870 -0.2516 -0.6952
   37TMC2     O  579   3.002   2.441  11.945 -0.4491  0.5522 -0.0443
   37TMC2     H  580   2.967   2.453  11.703 -1.7689  1.8367  2.3960
   37TMC2    H1  581   3.292   2.700  11.865  0.3615  0.7250 -0.7683
   37TMC2    H2  582   3.078   2.794  11.513 -1.0465  1.9268  2.1468
   37TMC2    C7  583   3.292   2.862  11.672 -0.0772 -0.3526  0.7252
   37TMC2    C8  584   2.931   2.588  11.493 -0.0163 -0.1177 -0.2998
   37TMC2    O1  585   3.369   2.880  11.769 -0.3807  0.2593  0.6009
   37TMC2    O2  586   2.832   2.521  11.506  0.1063 -0.4042 -0.7930
   37TMC2    O5  587   2.966   2.645  11.375 -0.1193 -0.4628 -0.1109
   37TMC2    H5  588   3.056   2.684  11.366  1.4946 -3.5471  2.7017
   38MPD2     C  589   3.254   2.415  12.421  0.4769  0.6278 -0.1706
   38MPD2    C1  590   3.352   2.485  12.353 -0.0864  0.3543 -0.6262
   38MPD2    C2  591   3.319   2.531  12.233 -0.0158  0.3192 -0.2339
   38MPD2    C3  592   3.210   2.494  12.162 -0.3215 -0.0427  0.2641
   38MPD2    C4  593   3.110   2.428  12.229  0.9911 -0.1532 -0.0936
   38MPD2    C5  594   3.136   2.394  12.358 -0.1853  0.3250 -0.1167
   38MPD2     H  595   3.380   2.610  12.189  0.2217 -0.1551 -0.7487
   38MPD2    H1  596   3.018   2.410  12.176  1.1616 -0.2719 -0.3453
   38MPD2    H2  597   3.267   2.388  12.525 -0.8088  2.0947  0.3692
   38MPD2    H3  598   3.066   2.331  12.412  2.0011 -2.3066 -0.3359
   38MPD2     N  599   3.197   2.545  12.031 -0.1993  0.1364  0.0471
   38MPD2    H5  600   3.271   2.607  11.999  0.0043  0.3152  0.8541
   38MPD2    N1  601   3.480   2.512  12.405 -0.2306  0.4511  0.0578
   38MPD2    H7  602   3.542   2.562  12.342 -0.4547  0.7156  0.0477
   39TMC2    C1  603   2.486   0.310   1.956  0.0026  1.1341  0.4412
   39TMC2    C2  604   2.426   0.399   2.040  0.1523 -0.3288 -1.1442
   39TMC2    C3  605   2.484   0.522   2.064  0.2913  0.4643 -0.6587
   39TMC2    C4  606   2.608   0.342   1.900 -0.6539 -0.2502 -0.2996
   39TMC2    C5  607   2.654   0.471   1.918  0.2923 -0.2052  0.2703
   39TMC2    C6  608   2.593   0.566   1.996 -0.1823 -0.3180 -0.3032
   39TMC2     C  609   2.401   0.198   1.908  0.4685  0.4854 -0.0940
   39TMC2     O  610   2.283   0.226   1.912  0.6120 -0.5228  0.1417
   39TMC2     H  611   2.335   0.377   2.094  0.0863  2.1477 -0.1948
   39TMC2    H1  612   2.647   0.278   1.822 -1.9433 -0.1010 -1.0534
   39TMC2    H2  613   2.621   0.671   2.001 -2.4814  0.3073 -0.2320
   39TMC2    C7  614   2.786   0.510   1.868  0.3997 -0.0407  0.0057
   39TMC2    C8  615   2.404   0.617   2.132  0.0694 -0.1530  0.0764
   39TMC2    O1  616   2.829   0.429   1.788 -0.4251 -0.1202  0.0539
   39TMC2    O2  617   2.289   0.593   2.160  0.5491 -0.1468 -0.6884
   39TMC2    O5  618   2.487   0.677   2.218 -0.0199  0.0166  0.1804
   39TMC2    H5  619   2.582   0.682   2.194 -0.1099 -1.3929 -0.5117
   40MPD2     C  620   2.523   4.630   1.739 -0.1045 -0.0396  0.4529
   40MPD2    C1  621   2.429   4.728   1.770 -0.4454 -0.2654 -0.5683
   40MPD2    C2  622   2.300   4.705   1.726  0.5391  0.2417 -0.1139
   40MPD2    C3  623   2.263   4.596   1.650  0.2543 -0.1103 -0.0935
   40MPD2    C4  624   2.365   4.501   1.615 -0.5649  0.2363  0.5515
   40MPD2    C5  625   2.485   4.528   1.662 -0.0465 -0.2002 -0.6008
   40MPD2     H  626   2.231   0.052   1.743 -0.5538 -0.7926  0.4049
   40MPD2    H1  627   2.362   4.422   1.541  0.0661 -0.0715  0.8604
   40MPD2    H2  628   2.627   4.626   1.770 -0.8139  1.5531  3.0205
   40MPD2    H3  629   2.561   4.452   1.646  1.0108  1.0500 -1.5451
   40MPD2     N  630   2.129   4.581   1.602 -0.3768  0.0956  0.0612
   40MPD2    H5  631   2.109   4.505   1.538  2.8977  0.1062 -0.9747
   40MPD2    N1  632   2.471   0.098   1.850  0.4691 -0.3145 -0.4472
   40MPD2    H7  633   2.570   0.107   1.869  0.5574 -0.5316 -0.8018
   41TMC2    C1  634   4.501   2.468  14.351  0.1212  0.2219 -0.0775
   41TMC2    C2  635   4.430   2.568  14.405 -0.4197 -0.0480  0.5830
   41TMC2    C3  636   4.365   2.654  14.324  0.5208  0.2979 -0.6020
   41TMC2    C4  637   4.515   2.449  14.212  0.7075 -0.5009  0.2656
   41TMC2    C5  638   4.437   2.537  14.137  0.3327  0.0692  0.0316
   41TMC2    C6  639   4.359   2.634  14.192  0.6004  0.2524  0.1796
   41TMC2     C  640   4.554   2.369  14.435  0.1709 -0.5086  0.7341
   41TMC2     O  641   4.575   2.254  14.399  0.0756 -0.3757 -0.3279
   41TMC2     H  642   4.422   2.593  14.510  1.2983  2.3203  0.1651
   41TMC2    H1  643   4.583   2.374  14.172 -0.2517 -0.4845 -1.4237
   41TMC2    H2  644   4.305   2.708  14.134 -0.2800  0.1848  0.8999
   41TMC2    C7  645   4.469   2.557  13.996  0.2988  0.8504 -0.2480
   41TMC2    C8  646   4.297   2.766  14.382  0.5394 -0.2227 -0.2770
   41TMC2    O1  647   4.385   2.582  13.907  0.5419 -0.0528  0.6831
   41TMC2    O2  648   4.283   2.769  14.503 -0.4143 -0.1879  0.3449
   41TMC2    O5  649   4.194   2.798  14.308 -0.6098 -0.1466  0.0945
   41TMC2    H5  650   4.230   2.820  14.219  0.0089 -1.9036 -0.0951
   42MPD2     C  651   4.669   2.216  14.653 -0.4303  0.5264 -0.8904
   42MPD2    C1  652   4.660   2.353  14.649 -0.4553 -0.4359  0.3190
   42MPD2    C2  653   4.730   2.424  14.741  0.6097  0.4853 -0.2402
   42MPD2    C3  654   0.069   2.363  14.846  0.5264  0.5008 -0.4529
   42MPD2    C4  655   0.053   2.224  14.857 -0.4476 -0.3450  0.3904
   42MPD2    C5  656   4.726   2.154  14.753  0.7884 -0.0381  0.4284
   42MPD2     H  657   4.732   2.532  14.729 -1.1533  0.6023  0.4525
   42MPD2    H1  658   0.100   2.168  14.938 -0.4274  2.0360  1.9965
   42MPD2    H2  659   4.614   2.152  14.585  1.0640 -0.1874 -1.4194
   42MPD2    H3  660   4.709   2.047  14.764  1.5524 -0.2850 -0.7505
   42MPD2     N  661   0.137   2.443  14.935  1.1158 -0.2339  0.4330
   42MPD2    H5  662   0.126   2.542  14.915  1.4503  0.3765  3.2019
   42MPD2    N1  663   4.599   2.428  14.545  0.2676 -0.2526  0.0252
   42MPD2    H7  664   4.598   2.529  14.557  2.7130 -0.1885 -0.2135
   43TMC2    C1  665   2.660   1.076   0.630  0.1287 -0.3278 -0.3741
   43TMC2    C2  666   2.578   1.188   0.611 -0.0640  0.4059 -0.1141
   43TMC2    C3  667   2.541   1.264   0.719  0.0826 -0.5718 -0.5003
   43TMC2    C4  668   2.698   1.045   0.759 -0.1888 -0.3015 -0.1251
   43TMC2    C5  669   2.646   1.116   0.863  0.3617  0.1217 -0.1079
   43TMC2    C6  670   2.585   1.237   0.848  0.4781 -0.1777 -0.5366
   43TMC2     C  671   2.681   0.974   0.531  0.2013  0.0422 -0.1245
   43TMC2     O  672   2.781   0.898   0.552 -0.0447 -0.1266  1.1385
   43TMC2     H  673   2.530   1.218   0.518  1.6226 -0.6970 -1.3308
   43TMC2    H1  674   2.756   0.955   0.774  1.3699  0.6859 -0.2839
   43TMC2    H2  675   2.578   1.313   0.924 -1.8171 -0.4325 -0.4822
   43TMC2    C7  676   2.730   1.092   0.979  0.1873 -0.0051 -0.4400
   43TMC2    C8  677   2.492   1.396   0.679 -0.3536  0.5107  0.6176
   43TMC2    O1  678   2.844   1.043   0.963  0.3273 -0.1350  0.4225
   43TMC2    O2  679   2.513   1.446   0.565 -0.1541  0.0645  0.6102
   43TMC2    O5  680   2.453   1.466   0.786 -0.1402  0.2634  0.7149
   43TMC2    H5  681   2.432   1.402   0.858 -2.1270 -0.8131 -0.8086
   44MPD2     C  682   2.653   0.825   0.045  0.0680  0.3352 -0.1760
   44MPD2    C1  683   2.751   0.800   0.143 -0.8896 -0.3860 -1.1948
   44MPD2    C2  684   2.733   0.847   0.267  0.2584  0.5549 -0.3518
   44MPD2    C3  685   2.630   0.929   0.297  0.4286 -0.1198  0.0188
   44MPD2    C4  686   2.531   0.954   0.202 -0.0007  0.7396 -0.1638
   44MPD2    C5  687   2.538   0.894   0.075 -0.2925  0.1534  0.0368
   44MPD2     H  688   2.811   0.825   0.338  1.7271  1.7212 -1.6138
   44MPD2    H1  689   2.445   1.018   0.218 -0.6953 -0.6861  1.7435
   44MPD2    H2  690   2.671   0.794  17.679  4.0772  1.1774  0.2525
   44MPD2    H3  691   2.463   0.923   0.002 -0.9112  0.9090  0.9703
   44MPD2     N  692   2.597   0.988   0.424  0.3776  0.2206 -0.1125
   44MPD2    H5  693   2.509   1.038   0.430  1.7633  2.6307  0.5608
   44MPD2    N1  694   2.871   0.730   0.119 -0.1397  0.2040 -0.4609
   44MPD2    H7  695   2.943   0.731   0.191 -0.3303  0.7298 -0.2808
   45TMC2    C1  696   2.742   2.203   9.902 -0.1095 -0.0268 -0.0283
   45TMC2    C2  697   2.810   2.101   9.963 -0.6888  0.8636 -0.6403
   45TMC2    C3  698   2.921   2.136  10.034  0.7708  0.0594 -0.5370
   45TMC2    C4  699   2.783   2.331   9.907  0.5200  0.1580 -0.1088
   45TMC2    C5  700   2.894   2.358   9.986 -0.4692  0.1099  0.4342
   45TMC2    C6  701   2.970   2.265  10.048 -0.3043 -0.3056  0.0757
   45TMC2     C  702   2.648   2.161   9.797  0.5607 -0.4939  0.0983
   45TMC2     O  703   2.672   2.052   9.747 -0.0124 -0.1984  0.1458
   45TMC2     H  704   2.777   1.998   9.955  1.4388  0.0106  1.5848
   45TMC2    H1  705   2.741   2.407   9.842  1.5059  0.4842 -0.3653
   45TMC2    H2  706   3.063   2.293  10.095  0.1843 -0.9445 -0.5078
   45TMC2    C7  707   2.948   2.493   9.991  0.4426  0.2238 -0.3230
   45TMC2    C8  708   2.995   2.036  10.106 -0.5543  0.1391 -0.3885
   45TMC2    O1  709   2.864   2.582   9.980 -0.2512  0.1751  0.6453
   45TMC2    O2  710   2.944   1.930  10.136 -0.0729  0.4961 -0.2622
   45TMC2    O5  711   3.110   2.045  10.035 -0.0470 -0.1096  0.1907
   45TMC2    H5  712   3.123   2.129   9.985 -3.0058  1.5307  2.1628
   46MPD2     C  713   2.400   2.107   9.639  0.4095  0.2119 -0.6798
   46MPD2    C1  714   2.446   2.233   9.676 -0.1702 -0.2483 -0.3209
   46MPD2    C2  715   2.382   2.349   9.640 -0.0395 -0.2577 -0.2109
   46MPD2    C3  716   2.270   2.344   9.561  0.6491  0.2595  0.6128
   46MPD2    C4  717   2.232   2.217   9.520  1.5058 -0.5982  0.8109
   46MPD2    C5  718   2.288   2.102   9.565  0.1819 -0.2965  0.0791
   46MPD2     H  719   2.430   2.442   9.667  1.8822 -1.2968 -0.0890
   46MPD2    H1  720   2.156   2.198   9.446  0.1573  0.1932  1.9868
   46MPD2    H2  721   2.455   2.016   9.659 -0.4893 -0.1910 -0.0188
   46MPD2    H3  722   2.249   2.009   9.526 -0.7742 -0.4203  1.3310
   46MPD2     N  723   2.202   2.463   9.527  0.1386 -0.1095 -0.0760
   46MPD2    H5  724   2.247   2.553   9.539 -2.0794  0.8880  0.7601
   46MPD2    N1  725   2.557   2.251   9.761 -0.6195  0.0595  0.5330
   46MPD2    H7  726   2.575   2.343   9.801  3.5390  0.6958 -2.8099
   47TMC2    C1  727   0.200   3.522   9.300 -0.5919  0.1657  0.6565
   47TMC2    C2  728   0.243   3.432   9.202 -0.8582 -0.6313  0.4442
   47TMC2    C3  729   0.210   3.464   9.073  0.1629 -0.0823  0.5060
   47TMC2    C4  730   0.131   3.636   9.273  0.3706  0.4580  0.5544
   47TMC2    C5  731   0.108   3.668   9.135  0.4287  0.1062 -0.0112
   47TMC2    C6  732   0.156   3.586   9.038  0.2596  0.8389  0.0250
   47TMC2     C  733   0.247   3.512   9.436  0.2808 -0.0614  0.4184
   47TMC2     O  734   0.265   3.619   9.496  0.5827  1.0408  0.1224
   47TMC2     H  735   0.287   3.337   9.230  5.1173  1.9062 -0.5322
   47TMC2    H1  736   0.098   3.702   9.351  1.1978  0.2281  1.1043
   47TMC2    H2  737   0.145   3.612   8.934 -1.5203 -2.5142 -0.6366
   47TMC2    C7  738   0.025   3.786   9.108  0.6117 -0.3290  0.1776
   47TMC2    C8  739   0.269   3.384   8.971  0.2680  0.0563 -0.1732
   47TMC2    O1  740   0.003   3.861   9.202  0.4503 -0.6667  0.0996
   47TMC2    O2  741   0.353   3.299   8.988 -0.0415 -0.0168 -0.2252
   47TMC2    O5  742   0.176   3.379   8.872  0.1989 -0.2158 -0.1339
   47TMC2    H5  743   0.101   3.438   8.897  0.7987 -0.1384  1.4404
   48MPD2     C  744   0.395   3.435   9.687  1.0168  0.5939  0.8780
   48MPD2    C1  745   0.343   3.345   9.596  0.2964  0.3370 -0.4935
   48MPD2    C2  746   0.352   3.206   9.605 -0.0020 -0.6760  0.9305
   48MPD2    C3  747   0.413   3.143   9.716  0.0934  0.2637  0.4705
   48MPD2    C4  748   0.479   3.240   9.802  0.3295  0.2013  0.2553
   48MPD2    C5  749   0.466   3.377   9.784  0.1675 -0.6682  0.1401
   48MPD2     H  750   0.297   3.148   9.530 -0.9364  0.2399  0.9131
   48MPD2    H1  751   0.531   3.205   9.890  1.5303  1.0963 -0.0957
   48MPD2    H2  752   0.389   3.543   9.679  1.8534  0.5594 -0.3461
   48MPD2    H3  753   0.507   3.437   9.865 -0.7563  1.7788 -1.1962
   48MPD2     N  754   0.418   2.997   9.732 -0.7610 -0.3177 -0.0115
   48MPD2    H5  755   0.360   2.939   9.673  1.0924 -0.1349 -2.0192
   48MPD2    N1  756   0.287   3.390   9.472 -0.3168  0.1590 -0.7125
   48MPD2    H7  757   0.259   3.314   9.412 -3.0482  0.5038  0.1355
   49TMC2    C1  758   3.050   0.108  10.506  0.1917 -0.6218  0.1817
   49TMC2    C2  759   3.039   4.733  10.423  0.4086  0.9602 -0.3773
   49TMC2    C3  760   3.135   4.633  10.450  0.0824 -0.1155 -1.1750
   49TMC2    C4  761   3.147   0.121  10.599  0.7688 -0.1569  0.4905
   49TMC2    C5  762   3.245   0.028  10.607 -0.2226 -0.6728 -0.4424
   49TMC2    C6  763   3.241   4.646  10.534  1.1844 -0.3163 -0.3982
   49TMC2     C  764   2.959   0.218  10.478  0.2557 -0.1826  0.0965
   49TMC2     O  765   2.922   0.231  10.362 -0.2516  0.3835 -0.2148
   49TMC2     H  766   2.979   4.729  10.333  0.2405  0.9555 -0.2651
   49TMC2    H1  767   3.152   0.206  10.665  1.4024  1.3513 -1.4773
   49TMC2    H2  768   3.318   4.571  10.544 -1.7152 -2.9714  2.1667
   49TMC2    C7  769   3.350   0.046  10.702 -0.2895 -0.3410 -0.3659
   49TMC2    C8  770   3.154   4.535  10.343 -0.0010 -0.2054 -0.1745
   49TMC2    O1  771   3.398   4.684  10.756 -0.3142  0.2075 -0.5757
   49TMC2    O2  772   3.120   4.560  10.229  0.6720 -0.4277 -0.0040
   49TMC2    O5  773   3.234   4.436  10.382  0.2466 -0.1634 -0.5362
   49TMC2    H5  774   3.258   4.424  10.477 -1.6115 -0.9783 -0.1567
   50MPD2     C  775   2.781   0.461  10.507  0.6073 -0.0845  0.5191
   50MPD2    C1  776   2.801   0.370  10.605  0.3675 -0.0717  0.2311
   50MPD2    C2  777   2.740   0.387  10.725  0.3478  0.2328  0.6710
   50MPD2    C3  778   2.666   0.495  10.749 -0.1335 -0.6099  1.1442
   50MPD2    C4  779   2.652   0.597  10.660  0.2783 -0.4653 -0.3337
   50MPD2    C5  780   2.711   0.580  10.532 -0.1779  0.0931  0.2931
   50MPD2     H  781   2.767   0.321  10.807  2.9081  1.2319  0.6352
   50MPD2    H1  782   2.598   0.685  10.691 -0.0899 -0.5059 -0.8628
   50MPD2    H2  783   2.833   0.465  10.412  1.4163 -2.8469  0.8640
   50MPD2    H3  784   2.707   0.656  10.455 -0.8383  1.4980  1.7053
   50MPD2     N  785   2.598   0.525  10.874 -0.0474 -0.1548 -0.2903
   50MPD2    H5  786   2.528   0.599  10.876 -0.0866 -0.1826 -0.6403
   50MPD2    N1  787   2.902   0.271  10.588 -0.2315 -0.4561 -0.3349
   50MPD2    H7  788   2.938   0.222  10.669  0.6595 -0.5507 -0.7860
   51TMC2    C1  789   4.222   0.596   1.623 -0.5093 -0.3956  0.1592
   51TMC2    C2  790   4.179   0.718   1.563 -0.1096 -0.0789  0.3677
   51TMC2    C3  791   4.248   0.821   1.604 -0.0522 -0.1652  0.9025
   51TMC2    C4  792   4.334   0.588   1.700  0.3099 -0.2509  0.2390
   51TMC2    C5  793   4.396   0.705   1.726  0.1801  0.2975  0.0185
   51TMC2    C6  794   4.363   0.825   1.679 -0.4731  0.2776  0.1846
   51TMC2     C  795   4.178   0.468   1.573  0.2307  0.0795 -0.2740
   51TMC2     O  796   4.205   0.367   1.634 -0.2289 -0.5802  0.1982
   51TMC2     H  797   4.084   0.730   1.512  0.1433 -1.4295 -0.4317
   51TMC2    H1  798   4.364   0.491   1.738  2.5845  0.3804  0.0527
   51TMC2    H2  799   4.402   0.923   1.705 -1.8113  0.6065  0.9629
   51TMC2    C7  800   4.496   0.709   1.830 -0.1538  0.3704  0.0150
   51TMC2    C8  801   4.207   0.950   1.547  0.8143  0.6193 -0.0458
   51TMC2    O1  802   4.511   0.819   1.883 -0.1782  0.4170  0.5195
   51TMC2    O2  803   4.226   1.053   1.610 -0.0212 -0.5029  0.0371
   51TMC2    O5  804   4.241   0.939   1.416  0.2195  0.1037  0.1022
   51TMC2    H5  805   4.226   0.851   1.375  0.4409 -0.7246  1.7949
   52MPD2     C  806   4.058   0.159   1.170 -0.1024 -0.1192  0.0615
   52MPD2    C1  807   4.088   0.127   1.300 -0.3490  0.1520 -0.2435
   52MPD2    C2  808   4.114   0.231   1.393 -0.2202 -0.2107  0.5954
   52MPD2    C3  809   4.100   0.370   1.356 -0.1148  0.3665 -0.7486
   52MPD2    C4  810   4.057   0.397   1.222  1.0425  0.3076  0.5417
   52MPD2    C5  811   4.039   0.293   1.139  0.1469 -0.2019  0.2952
   52MPD2     H  812   4.145   0.196   1.491 -1.0674 -2.0124  0.2109
   52MPD2    H1  813   4.024   0.497   1.197 -0.6725 -0.4303 -0.1735
   52MPD2    H2  814   4.021   0.087   1.098 -3.0071 -1.1653  2.6378
   52MPD2    H3  815   3.995   0.311   1.041  3.5099  2.9108 -0.6397
   52MPD2     N  816   4.133   0.481   1.439 -0.4586 -0.6133 -0.2807
   52MPD2    H5  817   4.149   0.570   1.391  1.3299 -0.6482  0.2804
   52MPD2    N1  818   4.100   4.726   1.342 -0.3934  0.1178 -1.3536
   52MPD2    H7  819   4.133   4.705   1.435 -3.0018  0.4735 -0.3461
   53TMC2    C1  820   3.813   3.356  11.668  0.3254  0.3090 -0.3200
   53TMC2    C2  821   3.835   3.479  11.706  0.4454 -0.3862  0.3635
   53TMC2    C3  822   3.840   3.505  11.836  0.3559  0.4422 -0.0545
   53TMC2    C4  823   3.824   3.253  11.756  0.1092 -0.1072 -1.2632
   53TMC2    C5  824   3.843   3.276  11.884 -0.2513 -0.0868  0.2220
   53TMC2    C6  825   3.836   3.405  11.932  0.5717 -0.7690  0.9145
   53TMC2     C  826   3.729   3.341  11.554 -0.6124  1.2030 -0.5738
   53TMC2     O  827   3.745   3.399  11.447 -0.0154  0.2900 -0.0299
   53TMC2     H  828   3.819   3.560  11.637 -2.5428 -0.7355  0.6557
   53TMC2    H1  829   3.823   3.153  11.715  2.1224 -0.2131 -1.0162
   53TMC2    H2  830   3.838   3.433  12.037 -0.6183 -0.8763  0.9688
   53TMC2    C7  831   3.803   3.176  11.978  0.0247 -0.1814  0.0191
   53TMC2    C8  832   3.793   3.634  11.883  0.3207  0.0047  0.3066
   53TMC2    O1  833   3.730   3.083  11.939 -0.0824  0.0142  0.5393
   53TMC2    O2  834   3.727   3.631  11.982  0.5739  0.4920 -0.1082
   53TMC2    O5  835   3.879   3.736  11.847 -0.3278 -0.1009 -0.1400
   53TMC2    H5  836   3.946   3.704  11.783 -0.8934 -0.7412 -0.4128
   54MPD2     C  837   3.533   3.212  11.376 -0.8048  0.1072  0.2373
   54MPD2    C1  838   3.550   3.181  11.511 -0.0432  0.9005  0.0386
   54MPD2    C2  839   3.461   3.100  11.574  0.6739  0.0700 -0.3279
   54MPD2    C3  840   3.375   3.023  11.498 -0.0831  0.9923  0.9290
   54MPD2    C4  841   3.366   3.047  11.365 -0.5536 -0.2844 -0.6050
   54MPD2    C5  842   3.437   3.148  11.303  0.1610 -0.1651  0.1178
   54MPD2     H  843   3.471   3.094  11.682 -3.0647  0.3894  0.0059
   54MPD2    H1  844   3.307   2.980  11.303 -1.4670 -0.4551  0.4546
   54MPD2    H2  845   3.587   3.286  11.319  0.5780 -0.2340  1.1072
   54MPD2    H3  846   3.435   3.164  11.196 -1.8070 -2.2454 -0.1543
   54MPD2     N  847   3.293   2.919  11.549  0.1511  0.3104 -0.6641
   54MPD2    H5  848   3.234   2.875  11.479 -1.3871  1.8006 -0.2941
   54MPD2    N1  849   3.630   3.256  11.593 -0.2967 -0.2779  0.1839
   54MPD2    H7  850   3.604   3.256  11.691  1.0809 -1.8824  0.5464
   55TMC2    C1  851   1.098   0.129   1.183 -0.5521 -0.6770 -0.4954
   55TMC2    C2  852   1.215   0.178   1.141  0.6856  0.4324 -0.2771
   55TMC2    C3  853   1.301   0.239   1.230  0.0912  0.3429  0.0460
   55TMC2    C4  854   1.057   0.160   1.313 -0.1825  0.4028  0.1508
   55TMC2    C5  855   1.142   0.219   1.403 -0.1267 -0.2851 -0.2560
   55TMC2    C6  856   1.272   0.246   1.362 -0.0782 -0.4932 -0.0263
   55TMC2     C  857   0.987   0.136   1.092 -0.2217  0.0648  0.6218
   55TMC2     O  858   0.898   0.204   1.145 -0.2008 -0.6062 -0.4165
   55TMC2     H  859   1.238   0.160   1.036 -1.3556 -0.3253 -0.5821
   55TMC2    H1  860   0.956   0.137   1.346  0.4760 -0.9216  1.2677
   55TMC2    H2  861   1.344   0.286   1.432  0.7087 -0.8302 -0.6450
   55TMC2    C7  862   1.094   0.285   1.526  0.5095 -0.1158 -0.8954
   55TMC2    C8  863   1.426   0.290   1.175 -0.2747  0.1180 -0.5142
   55TMC2    O1  864   1.177   0.359   1.578 -0.2358  0.0774  0.0382
   55TMC2    O2  865   1.430   0.309   1.056 -0.8607 -0.2158 -0.2359
   55TMC2    O5  866   1.518   0.217   1.237  0.2559 -0.0374  0.1938
   55TMC2    H5  867   1.495   0.182   1.325 -2.2827 -0.6338 -0.7148
   56MPD2     C  868   0.979   0.076   0.724 -0.4993  0.4969 -0.1452
   56MPD2    C1  869   0.933   0.124   0.849  0.3197 -0.2021 -0.1616
   56MPD2    C2  870   0.829   0.214   0.849 -0.3780  0.2741  0.4973
   56MPD2    C3  871   0.770   0.257   0.737 -0.4089  0.0967 -0.4327
   56MPD2    C4  872   0.810   0.208   0.617  0.2554  0.4951  0.3802
   56MPD2    C5  873   0.909   0.117   0.612 -0.3761 -0.2682  0.1517
   56MPD2     H  874   0.804   0.260   0.944  3.0199  1.8747  0.5944
   56MPD2    H1  875   0.771   0.247   0.524  2.3718  0.8018 -0.3798
   56MPD2    H2  876   1.064   0.010   0.720 -0.9768 -0.1943  0.9962
   56MPD2    H3  877   0.929   0.078   0.513 -1.1674  2.8744 -1.2351
   56MPD2     N  878   0.669   0.351   0.756  0.4747 -0.3726 -0.3032
   56MPD2    H5  879   0.659   0.372   0.855  0.4963 -0.2031 -0.3367
   56MPD2    N1  880   1.012   0.090   0.963  0.9270 -0.7713 -0.0278
   56MPD2    H7  881   1.093   0.031   0.950  0.6487 -0.6803 -2.1821
   57TMC2    C1  882   3.394   1.124  13.992 -0.4074 -0.5758 -0.8422
   57TMC2    C2  883   3.327   1.066  13.890  0.2764  0.1128 -0.3865
   57TMC2    C3  884   3.398   1.022  13.785  0.0239 -0.1551  1.1033
   57TMC2    C4  885   3.531   1.143  13.980 -0.1162 -0.1664  0.4173
   57TMC2    C5  886   3.598   1.093  13.872 -0.0847  0.2234  0.3268
   57TMC2    C6  887   3.532   1.039  13.765  0.0486 -0.5322 -0.0983
   57TMC2     C  888   3.313   1.204  14.080  0.4762 -0.7390 -0.6458
   57TMC2     O  889   3.191   1.208  14.050 -0.2124 -0.2633 -0.3083
   57TMC2     H  890   3.220   1.048  13.897  0.2260  0.4549 -0.2650
   57TMC2    H1  891   3.594   1.192  14.053  0.7865  0.2068 -0.6217
   57TMC2    H2  892   3.579   1.009  13.673  2.1339 -0.1054  0.8430
   57TMC2    C7  893   3.745   1.119  13.872  0.4687 -0.6249 -0.8656
   57TMC2    C8  894   3.313   0.977  13.669 -0.5661 -0.2999 -0.2268
   57TMC2    O1  895   3.778   1.209  13.950 -0.0417 -0.2004 -0.4261
   57TMC2    O2  896   3.199   0.943  13.692  0.4363 -0.2723  0.5135
   57TMC2    O5  897   3.358   1.038  13.555  0.4505  0.1474 -0.1925
   57TMC2    H5  898   3.444   1.005  13.522  0.6071 -0.8017  1.1929
   58MPD2     C  899   3.223   1.515  14.473 -0.0030 -0.5845 -0.7655
   58MPD2    C1  900   3.157   1.504  14.350 -0.2891  0.3293 -1.1277
   58MPD2    C2  901   3.211   1.415  14.255 -0.0631  0.0246 -0.0715
   58MPD2    C3  902   3.316   1.335  14.292 -0.0351  0.6691  0.5728
   58MPD2    C4  903   3.369   1.341  14.418  0.2816 -0.2871  0.0662
   58MPD2    C5  904   3.324   1.436  14.509  0.6147 -0.5248  0.1503
   58MPD2     H  905   3.168   1.415  14.156 -0.5944 -1.0577  0.1537
   58MPD2    H1  906   3.446   1.274  14.452  3.0392  1.6569 -2.4122
   58MPD2    H2  907   3.183   1.584  14.547  0.3311 -0.5560 -0.6113
   58MPD2    H3  908   3.377   1.455  14.601 -1.1512  2.6873  0.4858
   58MPD2     N  909   3.380   1.242  14.198  0.2917 -0.5908  0.1520
   58MPD2    H5  910   3.470   1.201  14.222  0.0379 -2.2250 -1.7722
   58MPD2    N1  911   3.065   1.598  14.295  0.2853 -0.2329  0.4689
   58MPD2    H7  912   3.035   1.578  14.201 -0.4287 -2.3687  1.1617
   59TMC2    C1  913   1.041   1.819  13.046 -0.2194  0.2189  0.5101
   59TMC2    C2  914   1.138   1.887  12.973  0.5121  0.0860 -0.6790
   59TMC2    C3  915   1.112   1.916  12.848 -0.1569  0.5945 -0.2733
   59TMC2    C4  916   0.920   1.800  12.990 -0.3028 -0.3099 -0.3406
   59TMC2    C5  917   0.891   1.837  12.860  0.0875 -0.1712 -0.6550
   59TMC2    C6  918   0.988   1.902  12.784 -0.0319  0.3278 -0.4710
   59TMC2     C  919   1.028   1.846  13.192 -0.1580  0.8342 -0.0968
   59TMC2     O  920   0.918   1.869  13.238  0.1836 -0.0263 -0.0473
   59TMC2     H  921   1.219   1.938  13.024 -0.6498  1.3084 -0.0853
   59TMC2    H1  922   0.852   1.751  13.058 -2.9476  2.1740 -1.2247
   59TMC2    H2  923   0.960   1.969  12.703 -1.9874 -0.8353 -0.7565
   59TMC2    C7  924   0.759   1.803  12.805 -0.1403  0.2369 -0.4272
   59TMC2    C8  925   1.214   1.952  12.755 -0.4393  0.3181  0.1255
   59TMC2    O1  926   0.679   1.754  12.885 -0.0896  0.3141 -0.7285
   59TMC2    O2  927   1.244   2.062  12.721 -0.1047  0.2050  0.4025
   59TMC2    O5  928   1.309   1.852  12.775  0.5187 -0.1380 -0.3911
   59TMC2    H5  929   1.254   1.778  12.808  0.4809 -0.7909 -1.9529
   60MPD2     C  930   1.085   1.941  13.466 -0.0135  0.3014 -0.0213
   60MPD2    C1  931   1.182   1.914  13.374  0.3413 -0.1209  0.6190
   60MPD2    C2  932   1.314   1.937  13.403  0.3867 -0.6206  0.8706
   60MPD2    C3  933   1.351   1.977  13.527 -0.0344 -0.1726  0.4569
   60MPD2    C4  934   1.250   1.984  13.625 -0.1536 -0.1820  0.5759
   60MPD2    C5  935   1.119   1.973  13.594 -0.4759  0.3796  0.1453
   60MPD2     H  936   1.394   1.929  13.330  0.6726  0.2823  1.0928
   60MPD2    H1  937   1.271   2.023  13.724  0.2160  0.8093  0.1019
   60MPD2    H2  938   0.979   1.949  13.446 -0.1726 -0.4322  0.5232
   60MPD2    H3  939   1.045   1.991  13.671 -1.3408 -1.4095 -0.2670
   60MPD2     N  940   1.487   1.986  13.552  0.9135 -0.0772  0.5800
   60MPD2    H5  941   1.545   1.967  13.470  0.0595 -0.7803  0.1474
   60MPD2    N1  942   1.154   1.876  13.244 -0.1263  0.0831  0.9088
   60MPD2    H7  943   1.228   1.861  13.176 -2.5562  0.9124 -1.9405
   61TMC2    C1  944   1.014   2.544  15.655 -0.5384 -0.3720 -0.0672
   61TMC2    C2  945   0.992   2.523  15.788  0.1531  0.8619 -0.0682
   61TMC2    C3  946   0.869   2.560  15.841 -0.4923 -0.5468 -0.3373
   61TMC2    C4  947   0.909   2.576  15.572  0.0349  0.2008  0.7293
   61TMC2    C5  948   0.785   2.595  15.628  0.1003 -0.2233 -0.2892
   61TMC2    C6  949   0.766   2.598  15.765  0.4215 -0.0734  0.0349
   61TMC2     C  950   1.145   2.585  15.620 -0.0003 -0.6843 -0.6404
   61TMC2     O  951   1.243   2.548  15.691  0.2302  0.5438  0.5023
   61TMC2     H  952   1.078   2.501  15.850  0.2228  2.2533  0.3333
   61TMC2    H1  953   0.909   2.559  15.465 -0.3032  1.9410  0.4586
   61TMC2    H2  954   0.677   2.642  15.809  0.6707  0.9953 -0.5218
   61TMC2    C7  955   0.706   2.691  15.563  0.0272 -0.0540 -0.9103
   61TMC2    C8  956   0.843   2.533  15.979 -0.0764 -0.0573  0.9670
   61TMC2    O1  957   0.755   2.754  15.469 -0.4852  0.0675  0.5492
   61TMC2    O2  958   0.743   2.572  16.038 -0.2715  0.1218  0.3042
   61TMC2    O5  959   0.889   2.409  15.998 -0.0384 -0.4591 -0.0426
   61TMC2    H5  960   0.967   2.379  15.946 -0.8424 -0.5891 -1.1626
   62MPD2     C  961   1.387   2.681  15.476  0.3450  0.1584 -1.0085
   62MPD2    C1  962   1.257   2.690  15.416  0.4621  0.5931  0.4477
   62MPD2    C2  963   1.242   2.740  15.291 -0.5403  0.9052  0.0443
   62MPD2    C3  964   1.347   2.787  15.220 -0.2052  0.1711 -0.0502
   62MPD2    C4  965   1.473   2.768  15.267  0.7654  0.0132 -0.1348
   62MPD2    C5  966   1.496   2.722  15.398 -0.5791  0.6416 -0.0839
   62MPD2     H  967   1.143   2.766  15.256 -0.9321 -1.9756 -0.9487
   62MPD2    H1  968   1.565   2.807  15.224  1.3743  1.4177  2.4291
   62MPD2    H2  969   1.401   2.643  15.576 -2.4276 -0.0013 -0.6919
   62MPD2    H3  970   1.600   2.722  15.431 -0.3657 -0.6811 -0.7591
   62MPD2     N  971   1.317   2.865  15.104 -0.5543  0.8262 -0.2239
   62MPD2    H5  972   1.218   2.884  15.093 -0.6101  0.6707 -0.0063
   62MPD2    N1  973   1.140   2.643  15.493 -0.2496 -0.0936  0.0281
   62MPD2    H7  974   1.051   2.653  15.446 -0.1865  1.9461  0.3632
   63TMC2    C1  975   0.566   2.975  10.797 -0.5527  0.0953  0.2595
   63TMC2    C2  976   0.698   3.015  10.810  0.5699 -0.3769 -0.0274
   63TMC2    C3  977   0.752   3.084  10.710 -0.4660 -0.4981 -0.2046
   63TMC2    C4  978   0.490   3.003  10.684  0.3517 -0.9437  0.2040
   63TMC2    C5  979   0.553   3.074  10.584 -0.1054  0.7495 -1.0169
   63TMC2    C6  980   0.683   3.124  10.601  1.0061 -0.1833  0.0021
   63TMC2     C  981   0.504   2.922  10.917  0.1071  0.0383  0.2380
   63TMC2     O  982   0.562   2.934  11.026  0.6484  0.5970  0.2057
   63TMC2     H  983   0.745   2.998  10.907 -1.1689  2.0288  1.2292
   63TMC2    H1  984   0.384   2.987  10.672 -0.0107  1.7230 -0.2772
   63TMC2    H2  985   0.736   3.190  10.533 -3.0007 -0.0219 -3.0322
   63TMC2    C7  986   0.463   3.147  10.490  0.3128  0.5953 -0.1549
   63TMC2    C8  987   0.881   3.147  10.724 -0.0081  1.0206 -0.4157
   63TMC2    O1  988   0.344   3.127  10.489  0.0418  0.2301 -0.2269
   63TMC2    O2  989   0.910   3.255  10.674  0.2737  0.1712  0.5146
   63TMC2    O5  990   0.938   3.095  10.840 -0.0974 -0.1723  0.1470
   63TMC2    H5  991   0.919   3.000  10.853 -0.9435 -0.0466 -0.1456
   64MPD2     C  992   0.178   2.597  11.151  0.6413 -0.6933  0.4443
   64MPD2    C1  993   0.161   2.581  11.019 -0.1834  0.0741  0.2503
   64MPD2    C2  994   0.236   2.660  10.935  0.2488 -0.1825 -0.3501
   64MPD2    C3  995   0.329   2.758  10.977 -0.1988 -0.0941  0.2385
   64MPD2    C4  996   0.342   2.770  11.112  0.2248  0.2779 -0.6798
   64MPD2    C5  997   0.268   2.691  11.202  0.4579  0.1821  0.2668
   64MPD2     H  998   0.227   2.640  10.828  1.7004 -2.0105 -0.1220
   64MPD2    H1  999   0.399   2.848  11.161  0.7009  0.3610 -1.3633
   64MPD2    H2 1000   0.152   2.530  11.233  2.6203 -0.6299  1.1319
   64MPD2    H3 1001   0.284   2.697  11.309  0.2881 -0.3315  0.3230
   64MPD2     N 1002   0.390   2.848  10.884  0.6383  0.4374  0.0414
   64MPD2    H5 1003   0.370   2.842  10.784 -0.4127  0.3279  0.2627
   64MPD2    N1 1004   0.073   2.479  10.975  0.4549  0.2754  0.3355
   64MPD2    H7 1005   0.036   2.412  11.043 -1.2600 -0.1082 -0.9600
   65TMC2    C1 1006   2.055   2.194  16.151  0.4378 -0.1926  0.2376
   65TMC2    C2 1007   2.173   2.235  16.217 -0.5815 -0.1116 -0.1758
   65TMC2    C3 1008   2.201   2.368  16.207 -0.2902  0.4572  0.4204
   65TMC2    C4 1009   1.974   2.280  16.077  0.5615 -0.4084  0.3758
   65TMC2    C5 1010   2.013   2.409  16.072  0.4930 -0.3260 -0.4292
   65TMC2    C6 1011   2.121   2.454  16.143 -0.1332  0.4606 -0.3313
   65TMC2     C 1012   2.029   2.057  16.170  0.0499  0.4650 -0.1964
   65TMC2     O 1013   2.069   2.001  16.272  0.0139  0.7356  0.1312
   65TMC2     H 1014   2.233   2.161  16.269 -0.5027  0.6547  0.8136
   65TMC2    H1 1015   1.898   2.238  16.012  2.1375 -1.8092 -0.5899
   65TMC2    H2 1016   2.158   2.556  16.134 -0.3921  0.2744 -3.5634
   65TMC2    C7 1017   1.938   2.497  15.979  0.3743 -0.4857 -0.8732
   65TMC2    C8 1018   2.329   2.408  16.256 -0.0648 -0.0406 -0.1721
   65TMC2    O1 1019   1.868   2.446  15.894  0.2662  0.1425 -0.4549
   65TMC2    O2 1020   2.420   2.330  16.274  0.5000  0.2573 -0.2746
   65TMC2    O5 1021   2.304   2.525  16.326  0.3253  0.2513  0.5162
   65TMC2    H5 1022   2.209   2.549  16.317 -0.3210 -1.8068  2.0095
   66MPD2     C 1023   1.820   1.834  16.202 -0.0460  0.1085 -1.2738
   66MPD2    C1 1024   1.852   1.907  16.090  0.0562  0.7207  0.1738
   66MPD2    C2 1025   1.793   1.874  15.971 -0.0676 -0.4541 -0.9807
   66MPD2    C3 1026   1.691   1.782  15.970 -0.8927 -0.7719 -0.1889
   66MPD2    C4 1027   1.665   1.705  16.084 -0.2368 -0.0844 -0.4116
   66MPD2    C5 1028   1.721   1.742  16.202 -0.6488  0.3154 -0.5240
   66MPD2     H 1029   1.824   1.932  15.885 -1.9521  1.4147 -0.3896
   66MPD2    H1 1030   1.603   1.616  16.085 -0.5734  0.1528  0.3687
   66MPD2    H2 1031   1.876   1.842  16.294 -1.5550 -0.6528 -0.2848
   66MPD2    H3 1032   1.705   1.690  16.296  2.5569 -1.0497 -0.7337
   66MPD2     N 1033   1.624   1.752  15.852  0.6331 -0.0618  0.3741
   66MPD2    H5 1034   1.543   1.693  15.864  1.5655 -1.0049  1.9205
   66MPD2    N1 1035   1.955   2.003  16.069  0.0328  0.8333  0.0081
   66MPD2    H7 1036   1.981   2.047  15.982 -0.2811 -0.8566 -0.9354
   67TMC2    C1 1037   1.611   1.627  14.370 -0.2406 -0.1078 -0.0572
   67TMC2    C2 1038   1.525   1.720  14.413 -0.2230 -0.6423  0.3123
   67TMC2    C3 1039   1.554   1.784  14.533  0.5331 -0.4127  0.4004
   67TMC2    C4 1040   1.718   1.589  14.443 -0.3218 -0.1687 -0.1163
   67TMC2    C5 1041   1.725   1.642  14.570  0.3726 -0.6622 -0.3759
   67TMC2    C6 1042   1.648   1.738  14.617 -0.2997 -0.7095 -0.1839
   67TMC2     C 1043   1.584   1.537  14.257  0.0466 -0.1322 -0.4787
   67TMC2     O 1044   1.666   1.453  14.236  0.3550  0.5146 -0.1867
   67TMC2     H 1045   1.446   1.766  14.355 -0.8580 -0.5588  1.2400
   67TMC2    H1 1046   1.800   1.530  14.405  0.8138 -0.5555  2.9636
   67TMC2    H2 1047   1.663   1.783  14.715 -1.1615 -0.5837 -0.1152
   67TMC2    C7 1048   1.845   1.598  14.643  0.6289  0.3885 -0.0720
   67TMC2    C8 1049   1.469   1.891  14.578  0.3376 -0.4148  0.2642
   67TMC2    O1 1050   1.937   1.554  14.576  0.2975  0.1173 -0.3404
   67TMC2    O2 1051   1.352   1.897  14.553 -0.5450 -0.5449 -0.1885
   67TMC2    O5 1052   1.532   1.963  14.672 -0.1171 -0.5277 -0.1641
   67TMC2    H5 1053   1.630   1.964  14.679 -0.2802  0.7044  2.1477
   68MPD2     C 1054   1.468   1.438  13.999 -0.3081 -0.4012 -0.5662
   68MPD2    C1 1055   1.398   1.483  14.110  0.0527  0.2610  0.8942
   68MPD2    C2 1056   1.263   1.476  14.100  0.3404 -0.9432  0.3990
   68MPD2    C3 1057   1.193   1.430  13.988  0.3952  0.8307 -0.5223
   68MPD2    C4 1058   1.264   1.378  13.879  0.3967  0.5393 -0.3115
   68MPD2    C5 1059   1.398   1.386  13.891  0.1476 -0.2372 -0.6005
   68MPD2     H 1060   1.205   1.494  14.189 -2.4772 -0.3008 -1.5649
   68MPD2    H1 1061   1.216   1.342  13.789  0.5674  0.4063 -0.3487
   68MPD2    H2 1062   1.575   1.422  13.987 -0.0551  0.4662  0.4993
   68MPD2    H3 1063   1.462   1.365  13.806  0.8425  2.6450 -0.8023
   68MPD2     N 1064   1.049   1.429  13.988 -0.2425 -0.1204 -0.1413
   68MPD2    H5 1065   1.005   1.386  13.907 -2.5656 -0.9990  1.5680
   68MPD2    N1 1066   1.451   1.537  14.226  0.9550  0.6074  0.2690
   68MPD2    H7 1067   1.389   1.583  14.291  1.4023  1.0220  0.4038
   69TMC2    C1 1068   3.961   3.267  12.717  0.7777 -0.5195 -0.5747
   69TMC2    C2 1069   3.926   3.393  12.763  0.2234 -0.0538 -1.1909
   69TMC2    C3 1070   4.015   3.490  12.743  0.3409 -0.6519  0.1962
   69TMC2    C4 1071   4.089   3.238  12.666  0.5556  0.4466  0.1409
   69TMC2    C5 1072   4.169   3.349  12.636 -0.0440  0.1297 -0.1496
   69TMC2    C6 1073   4.137   3.473  12.676 -0.0523  0.2637  0.3776
   69TMC2     C 1074   3.873   3.156  12.747 -0.4223  0.5210  0.1554
   69TMC2     O 1075   3.930   3.049  12.757 -0.1437  0.0098  0.7530
   69TMC2     H 1076   3.844   3.414  12.830  0.8552 -0.5609 -0.2598
   69TMC2    H1 1077   4.109   3.139  12.628 -0.4978 -0.8066  2.9277
   69TMC2    H2 1078   4.193   3.559  12.640 -0.8649  0.1634 -1.1191
   69TMC2    C7 1079   4.262   3.323  12.531  0.3582  0.3270  0.0034
   69TMC2    C8 1080   3.983   3.615  12.812  0.4807 -0.0637  0.5124
   69TMC2    O1 1081   4.276   3.213  12.480 -0.0972 -0.2399  0.1165
   69TMC2    O2 1082   4.075   3.692  12.832 -0.2767  0.3877 -0.4969
   69TMC2    O5 1083   3.854   3.646  12.788 -0.3656  0.0855  0.2693
   69TMC2    H5 1084   3.790   3.574  12.769  1.6287 -1.3142 -1.1577
   70MPD2     C 1085   3.513   3.158  12.774 -0.2965 -0.4427  0.2792
   70MPD2    C1 1086   3.637   3.116  12.804  0.5134 -0.9829  0.2490
   70MPD2    C2 1087   3.654   3.000  12.883 -0.3339 -0.4267 -0.0328
   70MPD2    C3 1088   3.542   2.930  12.922 -0.0586  0.2063  0.4579
   70MPD2    C4 1089   3.417   2.983  12.894  0.0043  0.2819  0.0949
   70MPD2    C5 1090   3.396   3.094  12.822  0.0023 -0.5109  0.5353
   70MPD2     H 1091   3.755   2.970  12.908  0.2364  0.2482 -1.5163
   70MPD2    H1 1092   3.334   2.934  12.944  0.0308  0.0223 -0.1131
   70MPD2    H2 1093   3.507   3.232  12.695 -0.6900  0.2613  0.9705
   70MPD2    H3 1094   3.294   3.109  12.788  0.1140 -0.1550  0.3602
   70MPD2     N 1095   3.544   2.810  13.004 -0.4129  0.0381  0.2056
   70MPD2    H5 1096   3.462   2.752  13.018 -0.6142  0.6929  1.7467
   70MPD2    N1 1097   3.743   3.188  12.749 -0.5045 -0.3928 -0.0397
   70MPD2    H7 1098   3.716   3.274  12.703  0.4704 -0.7456 -1.2686
   71TMC2    C1 1099   1.388   4.594   1.995  0.8125 -0.2373  0.2651
   71TMC2    C2 1100   1.459   4.559   2.109 -0.1104  0.5515 -0.0187
   71TMC2    C3 1101   1.401   4.529   2.228  0.7312 -0.0638 -0.3171
   71TMC2    C4 1102   1.253   4.547   1.995 -0.2548  0.7114 -0.1242
   71TMC2    C5 1103   1.201   4.521   2.116  0.0094  0.6412 -0.0413
   71TMC2    C6 1104   1.270   4.511   2.233 -0.3422  0.3810 -0.3108
   71TMC2     C 1105   1.460   4.592   1.870 -0.0559 -0.3602  0.1751
   71TMC2     O 1106   1.582   4.581   1.870  0.3278 -0.5303  0.8388
   71TMC2     H 1107   1.567   4.571   2.113 -0.0447 -0.2468  0.5988
   71TMC2    H1 1108   1.184   4.572   1.915 -0.1295  3.1623  0.5242
   71TMC2    H2 1109   1.228   4.469   2.324 -2.6705  0.0310 -1.5332
   71TMC2    C7 1110   1.072   4.464   2.128  0.2031 -0.1557  0.3919
   71TMC2    C8 1111   1.475   4.585   2.336 -0.9017  0.0812  1.1984
   71TMC2    O1 1112   1.016   4.479   2.236  0.3350 -0.3084 -0.2255
   71TMC2    O2 1113   1.505   4.702   2.321 -0.4194  0.9312 -0.1972
   71TMC2    O5 1114   1.431   4.515   2.441 -0.1563 -0.2452 -0.3239
   71TMC2    H5 1115   1.396   4.426   2.421 -0.0859 -0.3108 -0.1592
   72MPD2     C 1116   1.423   4.462   1.375 -0.2565  0.0988 -0.3681
   72MPD2    C1 1117   1.512   4.414   1.468  0.0315  1.0212  0.5754
   72MPD2    C2 1118   1.501   4.461   1.598 -0.1408 -0.0784  0.1782
   72MPD2    C3 1119   1.388   4.541   1.635 -0.1163 -0.4376 -0.1183
   72MPD2    C4 1120   1.292   4.573   1.540  0.0820 -0.1642  0.2114
   72MPD2    C5 1121   1.309   4.524   1.413  0.4148  0.2081 -0.2786
   72MPD2     H 1122   1.575   4.440   1.675  0.8018 -0.0273 -0.7056
   72MPD2    H1 1123   1.206   4.635   1.562  0.3857  0.0022  0.9281
   72MPD2    H2 1124   1.427   4.431   1.271  0.3318  0.0844 -0.3426
   72MPD2    H3 1125   1.228   4.552   1.348 -0.4170 -0.1982  0.5890
   72MPD2     N 1126   1.371   4.587   1.768 -0.4443 -0.0237 -0.2259
   72MPD2    H5 1127   1.283   4.637   1.781  0.8001  1.8313  0.9548
   72MPD2    N1 1128   1.614   4.318   1.440  0.0454  0.1468  0.0232
   72MPD2    H7 1129   1.679   4.293   1.513 -1.0915  2.7318  1.9247
   73TMC2    C1 1130   0.626   0.428  14.007  0.4657 -0.0484  0.5192
   73TMC2    C2 1131   0.558   0.479  14.114 -0.5809 -0.1633  0.5175
   73TMC2    C3 1132   0.632   0.484  14.231 -0.0857 -0.6605  0.2735
   73TMC2    C4 1133   0.744   0.365  14.020  0.1546 -0.5497  0.7938
   73TMC2    C5 1134   0.817   0.377  14.136 -0.7174  0.7043 -0.3907
   73TMC2    C6 1135   0.762   0.437  14.245  0.3137 -0.5337  0.0844
   73TMC2     C 1136   0.624   0.503  13.882 -0.8125 -0.2121 -0.1630
   73TMC2     O 1137   0.718   0.498  13.803 -0.1719  0.0783  0.1068
   73TMC2     H 1138   0.454   0.507  14.109 -0.4841  0.2625  0.8798
   73TMC2    H1 1139   0.785   0.309  13.937 -0.7251 -1.0586  0.6983
   73TMC2    H2 1140   0.820   0.451  14.336 -0.4659 -0.7801  0.6180
   73TMC2    C7 1141   0.957   0.429  14.116  0.3140 -0.0265 -0.1544
   73TMC2    C8 1142   0.574   0.534  14.346  0.5309 -0.3889  0.5822
   73TMC2    O1 1143   1.022   0.480  14.212 -0.2670  0.1088 -0.3056
   73TMC2    O2 1144   0.608   0.469  14.443  0.5749  0.6064 -0.1096
   73TMC2    O5 1145   0.459   0.598  14.329 -0.1510  0.4833  0.4891
   73TMC2    H5 1146   0.473   0.664  14.257  0.3627  0.6740  0.7659
   74MPD2     C 1147   0.468   0.936  13.664  0.7540 -0.5271  0.1912
   74MPD2    C1 1148   0.571   0.855  13.633  0.0701 -0.3827 -0.3679
   74MPD2    C2 1149   0.591   0.741  13.700 -0.0991  0.1784  0.0615
   74MPD2    C3 1150   0.490   0.693  13.786 -1.1431  0.3963 -0.3907
   74MPD2    C4 1151   0.380   0.777  13.810 -0.0835  0.8327 -0.5411
   74MPD2    C5 1152   0.369   0.898  13.746  0.0951  1.0614 -0.0413
   74MPD2     H 1153   0.683   0.685  13.691  1.1164  2.1679 -0.0165
   74MPD2    H1 1154   0.298   0.761  13.880  1.2177 -1.4854  0.4502
   74MPD2    H2 1155   0.447   1.033  13.621  1.4820  0.1028  1.2714
   74MPD2    H3 1156   0.289   0.968  13.768 -0.0614  1.6072 -2.4013
   74MPD2     N 1157   0.509   0.587  13.876  0.3091 -0.2327  0.3681
   74MPD2    H5 1158   0.434   0.570  13.942 -0.3526 -1.2875 -0.6552
   74MPD2    N1 1159   0.672   0.894  13.541 -0.5555 -0.0039  1.3821
   74MPD2    H7 1160   0.665   0.990  13.508 -0.3315 -0.2386  0.6370
   75TMC2    C1 1161   0.831   1.422  14.072  0.3243 -0.0393  0.1601
   75TMC2    C2 1162   0.767   1.408  14.189  0.8609  0.0524  0.5428
   75TMC2    C3 1163   0.639   1.465  14.200 -0.2766  0.0086 -0.1823
   75TMC2    C4 1164   0.784   1.506  13.967 -0.3179 -0.1226  0.2817
   75TMC2    C5 1165   0.657   1.566  13.982 -0.5478 -0.0060  0.2971
   75TMC2    C6 1166   0.586   1.545  14.104 -0.6398  0.1249  0.4590
   75TMC2     C 1167   0.966   1.442  14.100 -0.0261 -0.7204 -1.1591
   75TMC2     O 1168   0.992   1.467  14.215 -0.6350 -0.3740 -0.3736
   75TMC2     H 1169   0.811   1.354  14.272  1.2611  0.2703  0.4762
   75TMC2    H1 1170   0.840   1.527  13.877  0.3878 -1.6011  0.3615
   75TMC2    H2 1171   0.488   1.591  14.115 -0.0333  1.7013 -0.6824
   75TMC2    C7 1172   0.597   1.636  13.877  0.3739 -0.5003  0.3384
   75TMC2    C8 1173   0.581   1.453  14.334  0.7601 -0.5838  0.7513
   75TMC2    O1 1174   0.625   1.599  13.765  0.0091  0.2751  0.0006
   75TMC2    O2 1175   0.648   1.442  14.433  0.4354 -0.1804 -0.3251
   75TMC2    O5 1176   0.453   1.473  14.321  0.3198  0.4730 -0.1284
   75TMC2    H5 1177   0.429   1.438  14.232  1.7083 -1.8731  0.4224
   76TMC2    C1 1178   0.290   2.535  12.459  0.2965 -0.2450  0.0855
   76TMC2    C2 1179   0.227   2.416  12.513  0.8372  0.3170 -0.0398
   76TMC2    C3 1180   0.285   2.355  12.620  0.2813 -1.0213 -0.8989
   76TMC2    C4 1181   0.385   2.603  12.540  0.5101  0.1814  0.5173
   76TMC2    C5 1182   0.424   2.535  12.656  0.6130 -0.1884  0.2154
   76TMC2    C6 1183   0.383   2.406  12.696 -0.5632 -0.2908 -0.5427
   76TMC2     C 1184   0.236   2.599  12.338 -0.5658  0.1535 -0.1616
   76TMC2     O 1185   0.266   2.713  12.315  0.4742 -0.1718 -0.1899
   76TMC2     H 1186   0.143   2.367  12.463  0.8271  0.6123 -0.3123
   76TMC2    H1 1187   0.425   2.701  12.515 -1.2612  0.8796  0.4647
   76TMC2    H2 1188   0.402   2.353  12.789 -1.2056  1.6673  0.7021
   76TMC2    C7 1189   0.540   2.586  12.726 -0.2937 -0.2411 -0.3044
   76TMC2    C8 1190   0.239   2.227  12.667 -0.1270 -0.2420 -0.1984
   76TMC2    O1 1191   0.618   2.663  12.675  0.2077  0.4166 -0.4083
   76TMC2    O2 1192   0.214   2.194  12.783  0.4583  0.4980 -0.3087
   76TMC2    O5 1193   0.214   2.156  12.561  0.3541  0.2226  0.5079
   76TMC2    H5 1194   0.260   2.210  12.494  3.3880  1.6897  3.7238
   77MPD2     C 1195   0.005   2.550  11.899  0.5084 -0.1027 -0.2112
   77MPD2    C1 1196   0.028   2.669  11.970 -0.3342 -0.1601  0.5189
   77MPD2    C2 1197   0.102   2.657  12.083 -0.7141 -0.4546 -0.0941
   77MPD2    C3 1198   0.137   2.526  12.127  0.4182 -0.2838  0.0477
   77MPD2    C4 1199   0.105   2.409  12.062 -0.1616  0.1954 -0.1459
   77MPD2    C5 1200   0.048   2.424  11.941 -0.1591 -0.2916  0.5783
   77MPD2     H 1201   0.135   2.747  12.135  1.3548 -1.0954 -0.2985
   77MPD2    H1 1202   0.131   2.311  12.102 -0.8332 -0.3768 -1.1402
   77MPD2    H2 1203   4.694   2.551  11.800 -0.2633  1.3882  0.1630
   77MPD2    H3 1204   0.021   2.335  11.885  3.4818  0.8980 -3.0386
   77MPD2     N 1205   0.198   2.503  12.252 -0.5211 -0.1382 -0.2440
   77MPD2    H5 1206   0.194   2.405  12.280 -1.4663  0.0026  0.0890
   77MPD2    N1 1207   4.728   2.799  11.921 -0.1209 -0.0387 -0.1608
   77MPD2    H7 1208   0.015   2.878  11.981 -1.7864  1.4300 -1.4734
   78TMC2    C1 1209   1.027   2.714   1.631 -0.3673  0.2706  0.4880
   78TMC2    C2 1210   0.922   2.797   1.592 -0.8377  0.1559 -0.3444
   78TMC2    C3 1211   0.956   2.925   1.550 -0.4051  0.0565 -0.2299
   78TMC2    C4 1212   1.151   2.768   1.639 -0.1005 -0.3790 -0.9188
   78TMC2    C5 1213   1.178   2.902   1.606 -0.1895 -0.6068 -0.4039
   78TMC2    C6 1214   1.078   2.980   1.559  0.3289 -0.1895  0.7241
   78TMC2     C 1215   1.025   2.568   1.642  0.0549  0.4665 -0.2821
   78TMC2     O 1216   1.123   2.504   1.675  0.3773 -0.2707  0.9465
   78TMC2     H 1217   0.817   2.772   1.602 -0.3090 -1.1711  1.8581
   78TMC2    H1 1218   1.233   2.699   1.646 -0.6566 -0.6677  2.5977
   78TMC2    H2 1219   1.098   3.085   1.543  0.8035 -0.0325  2.3793
   78TMC2    C7 1220   1.316   2.955   1.605 -0.2353 -0.1973 -0.8065
   78TMC2    C8 1221   0.853   3.026   1.548 -0.0617 -0.1629 -0.3772
   78TMC2    O1 1222   1.333   3.071   1.566  0.2671  0.6245  0.1676
   78TMC2    O2 1223   0.865   3.124   1.477  0.0570 -0.4399 -0.3194
   78TMC2    O5 1224   0.785   3.014   1.672  0.2250 -0.2056  0.3179
   78TMC2    H5 1225   0.801   2.932   1.724 -2.1270 -0.5365  0.5145
   79MPD1     C 1226   0.794   2.116   1.550  0.0390  0.0237  0.3434
   79MPD1    C1 1227   0.926   2.150   1.553 -0.5648 -0.1629 -0.0036
   79MPD1    C2 1228   0.968   2.279   1.586  0.2328 -0.3300 -0.9548
   79MPD1    C3 1229   0.878   2.380   1.586  0.1993 -0.1566  0.1092
   79MPD1    C4 1230   0.745   2.340   1.562 -0.0670 -0.3961  0.8221
   79MPD1    C5 1231   0.699   2.216   1.552 -0.5781  0.8337  0.1154
   79MPD1     H 1232   1.074   2.298   1.589 -0.0260  0.9959 -0.3662
   79MPD1    H1 1233   0.664   2.413   1.567  1.1644  1.1919 -1.9998
   79MPD1    H2 1234   0.758   2.014   1.539  0.0269  0.0625  0.0298
   79MPD1    H3 1235   0.595   2.188   1.543  0.4091 -2.5643 -0.6734
   79MPD1     N 1236   0.903   2.522   1.612 -0.0721 -0.1694 -0.3930
   79MPD1    H5 1237   0.828   2.586   1.587 -2.0901 -2.4209 -0.0779
   79MPD1    N1 1238   1.019   2.046   1.537  0.0301  0.4029 -0.3231
   79MPD1    H6 1239   1.116   2.072   1.520  0.2626  0.4070  1.0873
   79MPD1    H7 1240   0.980   1.971   1.481  1.1076 -0.2303 -0.2308
   80TMC2    C1 1241   3.089   2.070  11.841  1.0468  0.1655  0.1105
   80TMC2    C2 1242   2.976   2.093  11.770 -0.0195  0.4243 -0.0301
   80TMC2    C3 1243   2.928   1.996  11.692  0.2771  1.7158 -0.1580
   80TMC2    C4 1244   3.144   1.941  11.844  0.0006  0.1854 -0.2157
   80TMC2    C5 1245   3.081   1.845  11.772  0.1122 -0.8066 -0.1104
   80TMC2    C6 1246   2.980   1.873  11.684  0.7800  0.0689 -0.0958
   80TMC2     C 1247   3.188   2.174  11.819  0.3551 -0.0351 -0.0708
   80TMC2     O 1248   3.183   2.226  11.708 -0.2159 -0.7414 -0.0329
   80TMC2     H 1249   2.941   2.196  11.775  1.9087  1.1379 -1.1783
   80TMC2    H1 1250   3.239   1.926  11.895  1.3036  1.3702 -2.2843
   80TMC2    H2 1251   2.924   1.800  11.627  0.3824  0.0668  0.3015
   80TMC2    C7 1252   3.090   1.707  11.819  0.5357 -0.4166  0.2410
   80TMC2    C8 1253   2.867   2.055  11.572 -0.0872  0.0188 -0.5550
   80TMC2    O1 1254   3.042   1.620  11.746 -0.3934  0.6385 -0.0925
   80TMC2    O2 1255   2.810   2.164  11.576  0.3929  0.3441  0.2385
   80TMC2    O5 1256   2.935   1.999  11.474 -0.0882  0.1344 -0.2053
   80TMC2    H5 1257   2.995   1.924  11.495 -0.9265 -0.6867 -0.7497
   81MPD2     C 1258   3.417   2.371  11.826 -0.0683 -0.4255  0.5309
   81MPD2    C1 1259   3.398   2.270  11.920 -0.3506  0.4973 -0.4903
   81MPD2    C2 1260   3.479   2.271  12.034 -0.3807  0.1644 -0.0979
   81MPD2    C3 1261   3.588   2.362  12.039 -0.2559 -0.8082 -0.2691
   81MPD2    C4 1262   3.613   2.453  11.939 -0.6121  0.4253 -0.3669
   81MPD2    C5 1263   3.522   2.452  11.833 -0.3231  0.0495  0.3756
   81MPD2     H 1264   3.452   2.215  12.123 -0.0645 -0.7597 -0.5734
   81MPD2    H1 1265   3.695   2.522  11.953 -0.4036 -0.0555  0.7943
   81MPD2    H2 1266   3.352   2.382  11.740 -0.3530  1.1343  0.9371
   81MPD2    H3 1267   3.548   2.527  11.759  0.1518  0.7758  1.2776
   81MPD2     N 1268   3.677   2.368  12.150  0.6065 -0.0091 -0.3817
   81MPD2    H5 1269   3.745   2.444  12.150  0.6178 -0.0171 -2.0216
   81MPD2    N1 1270   3.286   2.177  11.919  0.3114  0.2293  0.4257
   81MPD2    H7 1271   3.271   2.125  12.005 -2.4037  2.6285  1.4227
   82TMC2    C1 1272   1.507   1.114  11.251 -0.4848  0.0276  0.5395
   82TMC2    C2 1273   1.490   1.094  11.115 -0.0717 -0.1074 -0.3053
   82TMC2    C3 1274   1.427   0.981  11.069 -1.2410  0.3283 -0.3182
   82TMC2    C4 1275   1.458   1.025  11.341  0.3937  0.0028  0.5482
   82TMC2    C5 1276   1.411   0.907  11.293 -0.0035  0.3889 -0.3084
   82TMC2    C6 1277   1.397   0.886  11.160 -0.1278 -0.0575  0.1494
   82TMC2     C 1278   1.528   1.250  11.300  0.2112  0.3953 -0.0023
   82TMC2     O 1279   1.601   1.331  11.246 -0.3472 -0.1056  0.9869
   82TMC2     H 1280   1.509   1.178  11.049  3.3220 -1.1097 -0.6009
   82TMC2    H1 1281   1.470   1.034  11.449  0.4523  0.7887  0.4757
   82TMC2    H2 1282   1.349   0.794  11.129  0.9538 -0.9474  1.1282
   82TMC2    C7 1283   1.400   0.800  11.392  0.7380  0.2861  0.7684
   82TMC2    C8 1284   1.350   0.987  10.943  0.5541 -0.5510  0.5582
   82TMC2    O1 1285   1.441   0.821  11.504  0.2065 -0.1784 -0.6616
   82TMC2    O2 1286   1.250   0.921  10.930  0.1759 -0.1043 -0.4405
   82TMC2    O5 1287   1.411   1.045  10.839 -0.4314 -0.2523  0.4673
   82TMC2    H5 1288   1.502   1.081  10.849  0.0060 -1.8407  2.1585
   83MPD2     C 1289   1.320   1.666  11.475 -0.1233  0.1084 -0.4971
   83MPD2    C1 1290   1.223   1.566  11.486  0.0574 -0.3552 -0.0194
   83MPD2    C2 1291   1.268   1.437  11.456  0.1659 -0.1696 -0.2006
   83MPD2    C3 1292   1.399   1.405  11.428 -0.2138 -0.4427  0.7489
   83MPD2    C4 1293   1.487   1.508  11.428 -0.1291 -0.0286 -0.5305
   83MPD2    C5 1294   1.455   1.637  11.453  0.0695  0.1194  0.2886
   83MPD2     H 1295   1.192   1.364  11.429 -1.1653  0.5471  1.7030
   83MPD2    H1 1296   1.590   1.474  11.423 -0.2578 -0.5845  0.4994
   83MPD2    H2 1297   1.299   1.772  11.478  2.7506  0.5852  2.2575
   83MPD2    H3 1298   1.530   1.714  11.446 -1.1080  1.3788  1.4868
   83MPD2     N 1299   1.433   1.279  11.386 -0.1111 -0.4016  0.3429
   83MPD2    H5 1300   1.366   1.207  11.414  0.7341 -1.6246 -0.7802
   83MPD2    N1 1301   1.094   1.607  11.471 -0.4572  0.3742  0.2022
   83MPD2    H7 1302   1.075   1.703  11.443 -1.9586 -1.0614 -3.6123
   84TMC2    C1 1303   2.524   0.716  11.236 -1.2095  0.5195  0.1310
   84TMC2    C2 1304   2.523   0.641  11.348 -0.8428  0.2350 -0.4172
   84TMC2    C3 1305   2.570   0.514  11.338  0.0607 -0.1130  0.0278
   84TMC2    C4 1306   2.561   0.667  11.111  0.9945  0.6508 -0.3414
   84TMC2    C5 1307   2.580   0.532  11.106 -0.1901 -0.2968 -0.2268
   84TMC2    C6 1308   2.582   0.452  11.217  0.1236  0.1838  0.3710
   84TMC2     C 1309   2.464   0.847  11.256  0.5411 -0.5341  0.2515
   84TMC2     O 1310   2.438   0.884  11.371  0.0065  0.1191  0.0784
   84TMC2     H 1311   2.504   0.693  11.441 -0.5979 -0.2491 -0.0935
   84TMC2    H1 1312   2.565   0.730  11.023 -1.0923  0.7683 -0.3418
   84TMC2    H2 1313   2.594   0.346  11.200 -2.2476 -0.2976  1.7708
   84TMC2    C7 1314   2.628   0.462  10.988 -0.5409 -0.4054 -0.3516
   84TMC2    C8 1315   2.585   0.444  11.467 -0.4429  0.1769  0.1608
   84TMC2    O1 1316   2.713   0.379  11.016  0.0824  0.0551  0.3250
   84TMC2    O2 1317   2.559   0.495  11.576 -0.0613 -0.7713  0.3365
   84TMC2    O5 1318   2.683   0.356  11.453 -0.4470  0.8095 -0.5621
   84TMC2    H5 1319   2.709   0.330  11.362  0.7690  0.0373 -0.0006
   85TMC2    C1 1320   3.919   3.505  15.925 -0.9560 -0.1149 -0.1301
   85TMC2    C2 1321   3.786   3.520  15.904 -0.7243  0.3773 -0.1357
   85TMC2    C3 1322   3.749   3.616  15.812 -0.4672 -0.3898 -0.4138
   85TMC2    C4 1323   4.010   3.572  15.855  0.6018 -0.4398 -0.1382
   85TMC2    C5 1324   3.965   3.650  15.754 -0.6391  0.1610  0.6083
   85TMC2    C6 1325   3.838   3.670  15.727  0.3333  0.5372 -0.1892
   85TMC2     C 1326   3.968   3.418  16.033  0.3091  0.0833 -0.0649
   85TMC2     O 1327   4.088   3.426  16.063  0.4220  0.4428  0.1836
   85TMC2     H 1328   3.704   3.481  15.963  0.7336 -1.7079  0.5133
   85TMC2    H1 1329   4.113   3.576  15.888  0.7374 -1.9089 -0.3746
   85TMC2    H2 1330   3.805   3.717  15.635  0.0810  2.1971  0.7399
   85TMC2    C7 1331   4.073   3.701  15.667  0.2887 -0.0625 -0.2295
   85TMC2    C8 1332   3.621   3.594  15.758  0.4842 -0.2910  0.4580
   85TMC2    O1 1333   4.183   3.650  15.684  0.2927  0.8272 -0.0316
   85TMC2    O2 1334   3.545   3.682  15.712  0.0386 -0.4150 -0.0074
   85TMC2    O5 1335   3.628   3.470  15.710 -0.9656  0.1767  0.1101
   85TMC2    H5 1336   3.708   3.422  15.739 -1.2188 -0.9998 -1.1243
   86MPD2     C 1337   3.891   3.065  16.396  0.6433  0.2791 -0.9050
   86MPD2    C1 1338   3.776   3.084  16.325 -0.8641  0.0743  0.5688
   86MPD2    C2 1339   3.780   3.167  16.216  0.0801 -0.4516 -0.0593
   86MPD2    C3 1340   3.887   3.239  16.191 -0.2311 -1.2438  0.2727
   86MPD2    C4 1341   4.007   3.220  16.263  0.4363  0.7322  0.1584
   86MPD2    C5 1342   4.005   3.134  16.365 -0.1367  0.5945  0.2243
   86MPD2     H 1343   3.688   3.168  16.158  0.1991  0.5969 -0.2295
   86MPD2    H1 1344   4.106   3.252  16.235  1.0041 -0.0418  1.2676
   86MPD2    H2 1345   3.887   2.982  16.465  1.3423  0.7906 -0.2570
   86MPD2    H3 1346   4.092   3.110  16.425  0.1109  0.4724 -0.1844
   86MPD2     N 1347   3.877   3.322  16.074  0.2485 -0.2769 -0.7162
   86MPD2    H5 1348   3.791   3.308  16.024  0.5302 -1.3365 -0.9028
   86MPD2    N1 1349   3.670   2.990  16.354  0.0944  0.1261  0.7043
   86MPD2    H7 1350   3.695   2.905  16.404  0.6596 -0.2104 -0.1548
   87TMC2    C1 1351   2.669   2.238   1.261  0.7655  1.2983  0.0740
   87TMC2    C2 1352   2.749   2.251   1.366 -0.0998 -0.2180  0.0489
   87TMC2    C3 1353   2.701   2.320   1.473 -0.3990  0.2378 -0.3849
   87TMC2    C4 1354   2.535   2.251   1.274  0.6826 -0.0975  0.3575
   87TMC2    C5 1355   2.484   2.297   1.393  0.4974 -0.6093  0.2845
   87TMC2    C6 1356   2.569   2.344   1.495 -0.9899  0.4073  0.6977
   87TMC2     C 1357   2.716   2.149   1.153  0.1806  0.0247 -0.1725
   87TMC2     O 1358   2.837   2.155   1.132 -0.1307  0.6451  0.2108
   87TMC2     H 1359   2.856   2.247   1.349 -0.2422  3.1345 -1.5582
   87TMC2    H1 1360   2.467   2.257   1.190  0.3992  0.5016  0.6221
   87TMC2    H2 1361   2.544   2.395   1.588 -2.8952  3.1980 -1.3676
   87TMC2    C7 1362   2.345   2.337   1.404 -0.2389  0.2642 -0.0858
   87TMC2    C8 1363   2.790   2.350   1.580  0.1174  0.0955  0.8379
   87TMC2    O1 1364   2.323   2.415   1.497 -0.2264  0.0410 -0.3701
   87TMC2    O2 1365   2.763   2.354   1.700  0.5994 -0.1983  0.1174
   87TMC2    O5 1366   2.882   2.432   1.521  0.7880 -0.0988  0.1772
   87TMC2    H5 1367   2.879   2.447   1.424  0.9931  0.3794  0.2475
   88MPD2     C 1368   2.045   2.207   1.234 -0.0567 -1.0279 -0.2495
   88MPD2    C1 1369   2.126   2.303   1.302  0.4581 -0.0923  0.4091
   88MPD2    C2 1370   2.067   2.420   1.342  0.0753  0.6627  0.6461
   88MPD2    C3 1371   1.931   2.449   1.313  0.3321  0.0722  0.4344
   88MPD2    C4 1372   1.856   2.355   1.250  0.1448  0.4345 -0.0250
   88MPD2    C5 1373   1.911   2.235   1.211 -0.5698  0.1712  0.2649
   88MPD2     H 1374   2.131   2.494   1.389  1.4455 -0.0571 -0.0945
   88MPD2    H1 1375   1.758   2.383   1.213  0.2082  0.9421  0.1905
   88MPD2    H2 1376   2.083   2.113   1.195  1.2813 -0.0871 -1.2034
   88MPD2    H3 1377   1.848   2.168   1.154 -0.7774 -0.7344  1.5469
   88MPD2     N 1378   1.870   2.568   1.343  0.3480  0.2064  0.3353
   88MPD2    H5 1379   1.775   2.581   1.309 -0.8522 -0.6983  3.3031
   88MPD2    N1 1380   2.262   2.270   1.318  0.3681 -0.3442  0.5170
   88MPD2    H7 1381   2.292   2.190   1.265 -0.5099 -0.3934  0.0979
   89TMC2    C1 1382   3.194   1.232   1.961  0.2320 -0.0891 -0.1615
   89TMC2    C2 1383   3.071   1.271   2.015 -0.4739  0.6769 -0.4193
   89TMC2    C3 1384   3.056   1.401   2.034  0.0571  0.5118  0.4090
   89TMC2    C4 1385   3.301   1.316   1.954  0.7094  0.1744 -0.0592
   89TMC2    C5 1386   3.279   1.450   1.981  0.1124  0.6137 -0.4809
   89TMC2    C6 1387   3.154   1.497   2.004  0.5749 -0.7226  0.0812
   89TMC2     C 1388   3.210   1.100   1.921  0.2054 -0.1036 -0.0423
   89TMC2     O 1389   3.315   1.056   1.879  0.4023 -0.0921  0.0807
   89TMC2     H 1390   2.977   1.217   2.006 -0.0844  0.0472 -0.7048
   89TMC2    H1 1391   3.392   1.280   1.907  2.2954  1.8999  1.6679
   89TMC2    H2 1392   3.128   1.602   2.004  2.1983 -0.3312 -1.9844
   89TMC2    C7 1393   3.370   1.552   1.930  0.5908  0.4590  0.0512
   89TMC2    C8 1394   2.916   1.448   2.037  1.0596  0.0951  0.8191
   89TMC2    O1 1395   3.323   1.666   1.920 -0.0791 -0.5488 -0.1668
   89TMC2    O2 1396   2.822   1.382   1.995 -0.1434 -0.2945 -0.4518
   89TMC2    O5 1397   2.897   1.540   2.129 -0.1214 -0.5877 -0.2013
   89TMC2    H5 1398   2.983   1.557   2.174  0.3844  0.1579 -1.4565
   90MPD2     C 1399   3.013   0.663   1.755 -0.7368  0.2399 -0.6562
   90MPD2    C1 1400   2.933   0.712   1.861 -0.1227 -0.1682  0.0969
   90MPD2    C2 1401   2.962   0.842   1.908  0.8819  0.3642  0.0613
   90MPD2    C3 1402   3.072   0.909   1.870 -0.5254 -0.2875 -0.3409
   90MPD2    C4 1403   3.150   0.852   1.769  0.4319  0.0298  0.3261
   90MPD2    C5 1404   3.116   0.737   1.710 -0.8572 -0.2138 -0.6765
   90MPD2     H 1405   2.896   0.900   1.972  0.4121  0.1682 -0.2421
   90MPD2    H1 1406   3.241   0.898   1.732  0.8568 -1.0921 -0.0092
   90MPD2    H2 1407   2.992   0.571   1.703 -1.1085  0.6465 -1.2201
   90MPD2    H3 1408   3.169   0.688   1.629 -0.1257  0.8976 -0.8593
   90MPD2     N 1409   3.093   1.039   1.923 -0.1220 -0.2231  0.1022
   90MPD2    H5 1410   3.029   1.071   1.994  2.1219 -0.9109  2.4281
   90MPD2    N1 1411   2.828   0.633   1.913 -0.0894 -0.4760 -0.0697
   90MPD2    H7 1412   2.778   0.678   1.989 -0.0172 -0.3955 -0.0697
   91TMC2    C1 1413   3.497   4.292  16.462  0.3857  0.5820 -0.2314
   91TMC2    C2 1414   3.490   4.331  16.595 -0.0541  0.2870  0.4324
   91TMC2    C3 1415   3.395   4.262  16.672 -0.1351  0.3053 -0.1059
   91TMC2    C4 1416   3.401   4.220  16.395  0.3779 -0.5187  0.5491
   91TMC2    C5 1417   3.292   4.175  16.473  0.1501 -0.0810 -0.3956
   91TMC2    C6 1418   3.289   4.192  16.610 -0.0451 -0.2786  0.0180
   91TMC2     C 1419   3.610   4.334  16.375 -0.0859  0.3030 -0.0572
   91TMC2     O 1420   3.592   4.325  16.251  0.0475  0.6863  0.7449
   91TMC2     H 1421   3.555   4.403  16.642  0.3779 -1.2167  2.1407
   91TMC2    H1 1422   3.422   4.192  16.292 -0.6057 -0.7330  0.4132
   91TMC2    H2 1423   3.205   4.160  16.671  1.3156 -0.9694  1.5079
   91TMC2    C7 1424   3.205   4.068  16.417 -0.7171 -0.5119  0.1757
   91TMC2    C8 1425   3.374   4.328  16.795  0.2383  0.0975 -0.1231
   91TMC2    O1 1426   3.131   4.022  16.500  0.5817 -0.2307 -1.2196
   91TMC2    O2 1427   3.412   4.446  16.820 -0.0492 -0.7133  0.2612
   91TMC2    O5 1428   3.345   4.233  16.888 -0.0579  0.0327  0.3046
   91TMC2    H5 1429   3.360   4.143  16.852 -0.5319 -0.6056  1.6874
   92MPD2     C 1430   3.872   4.376  16.250 -0.5542  0.3192 -0.6278
   92MPD2    C1 1431   3.845   4.399  16.384  0.1878 -0.0967  1.0519
   92MPD2    C2 1432   3.956   4.438  16.458 -0.6595 -0.1007  0.3177
   92MPD2    C3 1433   4.081   4.459  16.399 -0.4310  0.1162  0.2331
   92MPD2    C4 1434   4.104   4.430  16.272 -0.6118  0.4804  0.3273
   92MPD2    C5 1435   3.999   4.390  16.197 -1.5583  0.0457 -0.5757
   92MPD2     H 1436   3.934   4.449  16.564 -0.4783  0.0932  0.3347
   92MPD2    H1 1437   4.193   4.443  16.211 -1.1202  0.7911 -0.3499
   92MPD2    H2 1438   3.803   4.326  16.183 -1.4850 -1.0142  1.3266
   92MPD2    H3 1439   4.014   4.356  16.095  1.0259  0.8136 -0.4471
   92MPD2     N 1440   4.186   4.490  16.485  0.2183 -0.2366 -0.4463
   92MPD2    H5 1441   4.166   4.501  16.584  1.7623  1.7450 -0.3587
   92MPD2    N1 1442   3.726   4.360  16.449  0.0953  0.0263 -0.5068
   92MPD2    H7 1443   3.718   4.371  16.549 -2.0159 -1.6407 -0.5144
   93TMC2    C1 1444   1.077   4.009  13.628  0.7616  0.4416 -0.2877
   93TMC2    C2 1445   1.037   4.038  13.754  1.3081 -0.0794 -0.4210
   93TMC2    C3 1446   1.124   4.094  13.840  0.9608 -0.0668  0.6708
   93TMC2    C4 1447   1.197   4.051  13.579  0.5651  0.6808 -0.0813
   93TMC2    C5 1448   1.277   4.121  13.669 -1.0417 -0.2665 -0.3305
   93TMC2    C6 1449   1.243   4.142  13.798  0.3623 -0.0694  0.2235
   93TMC2     C 1450   0.979   3.971  13.529  1.2681 -0.1100  0.1824
   93TMC2     O 1451   1.029   3.928  13.421  0.0332  0.3730  0.3127
   93TMC2     H 1452   0.947   3.997  13.799  1.1271  2.3712  1.4466
   93TMC2    H1 1453   1.223   4.064  13.475  1.8057 -2.4613 -0.1791
   93TMC2    H2 1454   1.313   4.179  13.871  0.2062  3.0292 -1.1977
   93TMC2    C7 1455   1.377   4.213  13.614  0.0325  0.5666  0.9678
   93TMC2    C8 1456   1.077   4.151  13.964 -0.5051  0.0209 -0.6526
   93TMC2    O1 1457   1.434   4.183  13.508 -0.1477 -0.0211 -0.0675
   93TMC2    O2 1458   1.127   4.251  14.013  0.8318  0.4456  0.1801
   93TMC2    O5 1459   1.029   4.047  14.034  0.7099 -0.6611 -0.4669
   93TMC2    H5 1460   1.014   3.969  13.976  1.4068 -1.8354  0.9182
   94MPD2     C 1461   0.749   3.844  13.410 -0.2541 -0.4853  0.4120
   94MPD2    C1 1462   0.738   3.931  13.518  0.0203 -0.7468 -0.1881
   94MPD2    C2 1463   0.609   3.975  13.565 -0.1523  0.4238  0.5898
   94MPD2    C3 1464   0.494   3.921  13.505  0.0006 -0.5222 -0.1137
   94MPD2    C4 1465   0.507   3.831  13.404 -0.3200 -0.1078 -0.0590
   94MPD2    C5 1466   0.635   3.790  13.363 -0.1122 -0.2024  0.1821
   94MPD2     H 1467   0.607   4.048  13.645  1.2604 -0.0934  1.1027
   94MPD2    H1 1468   0.414   3.799  13.358 -0.0682 -1.7995  0.6149
   94MPD2    H2 1469   0.845   3.817  13.366 -1.5196 -2.3675 -1.1641
   94MPD2    H3 1470   0.649   3.729  13.274 -2.5480  0.1774 -0.4513
   94MPD2     N 1471   0.363   3.959  13.547 -0.3394 -0.5720 -0.4551
   94MPD2    H5 1472   0.285   3.933  13.489  1.3440 -0.5915 -2.6954
   94MPD2    N1 1473   0.852   3.986  13.577 -0.0499  0.6500  0.1792
   94MPD2    H7 1474   0.828   4.049  13.653 -2.4933 -0.9373  0.7446
   95TMC2    C1 1475   0.835   1.766  16.189  0.0602 -0.1059 -1.1071
   95TMC2    C2 1476   0.763   1.664  16.246  0.4020  0.1471  0.0295
   95TMC2    C3 1477   0.707   1.690  16.366  0.0730 -0.3532  0.4333
   95TMC2    C4 1478   0.886   1.873  16.263  0.4261 -0.6998  0.4663
   95TMC2    C5 1479   0.833   1.887  16.388 -1.4452  0.1733  0.2414
   95TMC2    C6 1480   0.739   1.803  16.442 -0.0829 -0.0821 -0.1301
   95TMC2     C 1481   0.886   1.753  16.055  0.4235 -0.0609  0.0073
   95TMC2     O 1482   0.992   1.811  16.028 -0.2600  0.3320  0.1984
   95TMC2     H 1483   0.738   1.576  16.187 -1.8676  1.9746 -1.7022
   95TMC2    H1 1484   0.946   1.948  16.214  1.8559 -0.1663  3.0415
   95TMC2    H2 1485   0.706   1.811  16.544  1.7834 -1.0220  0.5518
   95TMC2    C7 1486   0.866   2.002  16.469 -0.2581 -0.3004 -0.1844
   95TMC2    C8 1487   0.636   1.574  16.431  0.2509 -0.5022  0.0362
   95TMC2    O1 1488   0.848   2.001  16.591  0.0137 -0.0009  0.0619
   95TMC2    O2 1489   0.627   1.552  16.550  0.3033 -0.4403  0.5038
   95TMC2    O5 1490   0.532   1.580  16.347  0.1704  0.1089  0.8039
   95TMC2    H5 1491   0.548   1.637  16.269  1.7993 -0.6159  0.6117
   96MPD2     C 1492   0.917   1.534  15.583  0.4269  0.3334 -0.7974
   96MPD2    C1 1493   1.011   1.612  15.651 -0.4547  0.2508 -0.9310
   96MPD2    C2 1494   0.972   1.653  15.782  0.1255  0.3709  0.2136
   96MPD2    C3 1495   0.853   1.623  15.842  0.5924  0.5652  0.3196
   96MPD2    C4 1496   0.759   1.552  15.769 -0.1484 -0.0215  0.5190
   96MPD2    C5 1497   0.794   1.514  15.640  0.1794  0.5205 -0.0401
   96MPD2     H 1498   1.046   1.702  15.843 -0.2498  0.8721  0.2634
   96MPD2    H1 1499   0.664   1.520  15.810 -1.2627  0.7060 -1.4792
   96MPD2    H2 1500   0.932   1.491  15.485 -0.2742  0.8170 -1.1129
   96MPD2    H3 1501   0.719   1.453  15.590 -0.0762  0.0656  0.9017
   96MPD2     N 1502   0.822   1.662  15.979  0.6061 -0.2508  0.2453
   96MPD2    H5 1503   0.736   1.635  16.025 -0.0716  2.5522  0.6576
   96MPD2    N1 1504   1.136   1.636  15.588 -0.1741  0.0807  0.4752
   96MPD2    H7 1505   1.161   1.591  15.500  0.4634  2.7019 -0.6712
   97TMC2    C1 1506   3.715   4.081   0.244 -0.4779 -0.9427 -0.5640
   97TMC2    C2 1507   3.634   4.040   0.141 -0.1314 -0.3939 -0.4679
   97TMC2    C3 1508   3.606   4.130   0.042 -0.3120 -0.4744 -0.8117
   97TMC2    C4 1509   3.750   4.211   0.255 -0.0672  0.8552  0.0353
   97TMC2    C5 1510   3.718   4.305   0.156  0.3871 -0.6493  0.5925
   97TMC2    C6 1511   3.646   4.262   0.044  0.3599 -0.1562 -0.0927
   97TMC2     C 1512   3.742   3.998   0.364  0.0849  0.3201 -0.3326
   97TMC2     O 1513   3.784   4.057   0.467 -0.1083 -0.1249  0.2053
   97TMC2     H 1514   3.604   3.937   0.123 -0.7613 -0.0374 -1.4958
   97TMC2    H1 1515   3.816   4.240   0.336 -0.3783 -0.1952  0.6564
   97TMC2    H2 1516   3.618   4.327  17.698  1.2805  0.5461  0.1547
   97TMC2    C7 1517   3.770   4.440   0.171 -0.0732 -0.8250  0.2938
   97TMC2    C8 1518   3.552   4.066  17.659 -0.1748  0.1048 -1.1768
   97TMC2    O1 1519   3.867   4.445   0.250  0.2793 -0.4800  0.9385
   97TMC2    O2 1520   3.485   3.968  17.675 -0.0083  0.1039 -0.3780
   97TMC2    O5 1521   3.668   4.065  17.584  0.0875 -0.0738 -0.0575
   97TMC2    H5 1522   3.722   4.146  17.591  0.5188 -0.6115  3.1453
   98MPD2     C 1523   3.658   3.547   0.621  0.2368 -0.0736  0.6903
   98MPD2    C1 1524   3.670   3.675   0.663  0.5059  0.2030  0.6910
   98MPD2    C2 1525   3.694   3.778   0.572 -0.2192 -0.1922 -0.3196
   98MPD2    C3 1526   3.707   3.758   0.433 -0.0499 -1.4056 -0.3031
   98MPD2    C4 1527   3.681   3.631   0.393  0.7451  0.0888  0.7001
   98MPD2    C5 1528   3.651   3.531   0.484 -0.4975  0.1946 -0.0041
   98MPD2     H 1529   3.701   3.880   0.607  0.4765 -0.8195  1.3761
   98MPD2    H1 1530   3.674   3.602   0.289 -1.4300  0.7834  0.6607
   98MPD2    H2 1531   3.630   3.470   0.692 -2.5212  1.5349  1.3269
   98MPD2    H3 1532   3.615   3.436   0.447  0.4897  0.6380 -2.1091
   98MPD2     N 1533   3.729   3.862   0.336 -0.5187  0.4051 -0.0943
   98MPD2    H5 1534   3.709   3.842   0.238  1.4793 -0.4677 -0.3320
   98MPD2    N1 1535   3.658   3.697   0.802 -0.4162  0.8767  0.1290
   98MPD2    H7 1536   3.652   3.609   0.852  0.3031 -0.3532 -1.9184
   99TMC2    C1 1537   2.592   1.565   1.671  0.3694 -0.3497 -0.0945
   99TMC2    C2 1538   2.641   1.654   1.758 -0.1891  0.7332 -0.3331
   99TMC2    C3 1539   2.555   1.752   1.812 -0.2624  0.7282 -0.6606
   99TMC2    C4 1540   2.450   1.568   1.645 -0.3494 -0.7420  0.9571
   99TMC2    C5 1541   2.375   1.652   1.715 -0.0152  0.7462 -0.2872
   99TMC2    C6 1542   2.420   1.748   1.797 -0.8750  0.0083 -0.2862
   99TMC2     C 1543   2.687   1.490   1.602  0.4850  0.3512  0.0641
   99TMC2     O 1544   2.800   1.492   1.648  0.0660  0.3467 -0.3628
   99TMC2     H 1545   2.745   1.670   1.784 -0.4722  0.3967  0.9665
   99TMC2    H1 1546   2.411   1.490   1.580  0.3484 -0.3645  0.0849
   99TMC2    H2 1547   2.357   1.823   1.844 -2.2730 -0.9422 -0.6558
   99TMC2    C7 1548   2.230   1.640   1.716 -0.3979  0.5074  0.3304
   99TMC2    C8 1549   2.619   1.855   1.895 -0.3502  1.1900  0.2334
   99TMC2    O1 1550   2.170   1.704   1.798  0.1188  0.2661 -0.1532
   99TMC2    O2 1551   2.702   1.940   1.866 -0.6925  0.4080  0.1617
   99TMC2    O5 1552   2.548   1.854   2.010  0.0409 -0.3394 -0.1653
   99TMC2    H5 1553   2.491   1.776   2.027  1.2222 -1.0567  0.5104
  100MPD2     C 1554   2.861   1.399   1.376  0.0380  0.5852 -0.0594
  100MPD2    C1 1555   2.724   1.374   1.386  0.2801  0.1560 -0.4444
  100MPD2    C2 1556   2.669   1.286   1.294 -0.5374  0.7897 -0.0850
  100MPD2    C3 1557   2.744   1.219   1.200  0.0267  0.1038  0.9470
  100MPD2    C4 1558   2.881   1.230   1.206 -0.5128  0.1430  0.5593
  100MPD2    C5 1559   2.939   1.325   1.290  0.6915 -0.3650 -0.3235
  100MPD2     H 1560   2.562   1.268   1.289 -0.4496  0.4726 -0.8380
  100MPD2    H1 1561   2.951   1.189   1.135 -0.0674  0.4219  0.8388
  100MPD2    H2 1562   2.902   1.478   1.438 -0.2530 -1.4761  2.7765
  100MPD2    H3 1563   3.046   1.343   1.286  0.4973  0.9316  0.2768
  100MPD2     N 1564   2.680   1.154   1.092  0.1614  0.8666  0.3345
  100MPD2    H5 1565   2.578   1.156   1.087  0.1973  0.7589 -0.4927
  100MPD2    N1 1566   2.643   1.448   1.478 -0.8308 -0.3181 -0.5154
  100MPD2    H7 1567   2.543   1.437   1.469 -0.7840 -2.0806  1.1899
  101TMC2    C1 1568   2.687   2.501  13.402 -0.1478 -0.0566 -0.2039
  101TMC2    C2 1569   2.763   2.451  13.502  0.7662  0.0273 -0.1423
  101TMC2    C3 1570   2.898   2.447  13.482  0.0947  0.3669 -0.1393
  101TMC2    C4 1571   2.741   2.562  13.292 -0.4393  0.5136  0.1524
  101TMC2    C5 1572   2.880   2.565  13.271 -0.2597  0.4546  0.2562
  101TMC2    C6 1573   2.960   2.508  13.369  0.8446 -0.2658  0.1576
  101TMC2     C 1574   2.607   2.397  13.334  0.1110  0.0341  0.0077
  101TMC2     O 1575   2.643   2.376  13.218  0.4864 -0.3411  0.4228
  101TMC2     H 1576   2.721   2.389  13.580 -2.0904  1.2388 -0.7163
  101TMC2    H1 1577   2.676   2.593  13.211 -1.2940 -0.1114  0.6078
  101TMC2    H2 1578   3.067   2.511  13.351  1.0550  2.6189  1.8239
  101TMC2    C7 1579   2.928   2.577  13.139 -0.4628 -0.1936  0.2974
  101TMC2    C8 1580   2.974   2.353  13.566 -0.9299 -0.4628  0.3325
  101TMC2    O1 1581   3.047   2.606  13.122  0.1614 -0.7354 -0.6188
  101TMC2    O2 1582   2.922   2.302  13.669  0.3066 -0.1972  0.4712
  101TMC2    O5 1583   3.029   2.272  13.481 -0.0469 -0.3394  0.3743
  101TMC2    H5 1584   3.123   2.301  13.475  0.0853 -0.3494  2.2658
  102MPD2     C 1585   2.415   2.190  13.244 -0.1682  0.3034 -0.1663
  102MPD2    C1 1586   2.416   2.242  13.371  0.1226 -0.0447  0.4106
  102MPD2    C2 1587   2.306   2.215  13.451  0.4832  0.2417  0.3304
  102MPD2    C3 1588   2.198   2.137  13.407  0.9908 -0.2644 -0.4004
  102MPD2    C4 1589   2.196   2.093  13.273 -1.2629  0.5218 -0.0895
  102MPD2    C5 1590   2.305   2.119  13.193 -0.5667  0.3609 -1.0767
  102MPD2     H 1591   2.301   2.261  13.549  1.0101 -0.7813  0.8396
  102MPD2    H1 1592   2.111   2.037  13.237 -1.1302  0.2050  0.0919
  102MPD2    H2 1593   2.491   2.206  13.168 -0.4241  2.5115  0.0466
  102MPD2    H3 1594   2.298   2.082  13.091  2.5169  2.0872 -1.9078
  102MPD2     N 1595   2.095   2.111  13.494 -0.5626 -0.1250  0.1749
  102MPD2    H5 1596   2.097   2.140  13.591  0.4809  1.4835 -0.3232
  102MPD2    N1 1597   2.513   2.335  13.413  0.1204 -0.0788 -0.4294
  102MPD2    H7 1598   2.514   2.374  13.506 -1.2875 -0.2425 -0.3488
  103TMC2    C1 1599   0.617   2.475  13.527 -0.4525  0.3830 -0.2515
  103TMC2    C2 1600   0.683   2.360  13.553  0.4170 -0.0938 -1.4828
  103TMC2    C3 1601   0.632   2.280  13.651 -0.2076 -0.5448  0.5967
  103TMC2    C4 1602   0.506   2.507  13.605 -0.4449 -0.5942  0.3115
  103TMC2    C5 1603   0.485   2.434  13.722 -0.4566  0.2637  0.9925
  103TMC2    C6 1604   0.544   2.316  13.750 -0.6340  0.1973 -0.9582
  103TMC2     C 1605   0.601   2.508  13.390  0.3398 -0.4122 -0.5789
  103TMC2     O 1606   0.486   2.534  13.355  0.0609  0.6801 -0.3266
  103TMC2     H 1607   0.753   2.328  13.476  3.1396 -1.1467  1.4185
  103TMC2    H1 1608   0.481   2.612  13.589  0.6083 -0.2147  1.1017
  103TMC2    H2 1609   0.508   2.241  13.820  0.5776  0.9109  0.4223
  103TMC2    C7 1610   0.355   2.461  13.788 -0.2185 -0.4085 -0.0882
  103TMC2    C8 1611   0.702   2.154  13.654 -1.3186 -0.5501  0.2707
  103TMC2    O1 1612   0.354   2.438  13.908 -0.1652  0.9151  0.1587
  103TMC2    O2 1613   0.784   2.131  13.566  0.3503  0.3269  0.1465
  103TMC2    O5 1614   0.685   2.083  13.764  0.1341 -0.0652  0.0352
  103TMC2    H5 1615   0.624   2.112  13.835 -1.2122  0.1422 -1.1892
  104MPD2     C 1616   0.860   2.596  13.140 -0.0929  0.1836  0.2469
  104MPD2    C1 1617   0.738   2.543  13.176  0.0360 -0.4491 -0.3875
  104MPD2    C2 1618   0.634   2.529  13.083 -0.1970 -0.2034  0.5995
  104MPD2    C3 1619   0.653   2.561  12.948  0.5709 -0.3444 -0.0201
  104MPD2    C4 1620   0.779   2.611  12.918  0.5000 -0.0756  0.7988
  104MPD2    C5 1621   0.879   2.629  13.011  0.0908 -0.0438  0.4944
  104MPD2     H 1622   0.537   2.489  13.110 -0.9207  1.1956  0.0624
  104MPD2    H1 1623   0.809   2.638  12.817 -2.2825  1.7869  0.4801
  104MPD2    H2 1624   0.933   2.611  13.219 -0.1019  0.5704  0.1807
  104MPD2    H3 1625   0.972   2.672  12.976  0.4056 -0.3424  0.9650
  104MPD2     N 1626   0.553   2.532  12.853 -0.0323 -0.0821 -1.1498
  104MPD2    H5 1627   0.465   2.493  12.885  0.6239 -1.4158 -0.9712
  104MPD2    N1 1628   0.718   2.518  13.317 -0.1711 -0.0467  0.1310
  104MPD2    H7 1629   0.806   2.526  13.368  0.4243 -1.7752 -0.6381
  105TMC2    C1 1630   3.064   1.649   0.388 -0.4367 -0.2689  0.1372
  105TMC2    C2 1631   3.039   1.770   0.325 -0.0721 -0.8205 -0.3692
  105TMC2    C3 1632   2.988   1.875   0.399 -0.2008  0.0958 -0.7863
  105TMC2    C4 1633   3.058   1.633   0.525 -1.3103 -0.0868 -0.1966
  105TMC2    C5 1634   3.009   1.740   0.595 -0.1696  0.3073  0.1088
  105TMC2    C6 1635   2.955   1.847   0.525  0.2886 -0.5559 -0.1083
  105TMC2     C 1636   3.090   1.533   0.302 -0.3218 -0.0726 -0.4296
  105TMC2     O 1637   3.172   1.445   0.329  0.3155 -0.4584  0.4723
  105TMC2     H 1638   3.056   1.788   0.219 -1.7199  0.2234 -0.4536
  105TMC2    H1 1639   3.086   1.535   0.559 -1.0895 -0.5580 -1.7065
  105TMC2    H2 1640   2.897   1.914   0.587 -2.1622 -1.2887 -1.6061
  105TMC2    C7 1641   2.917   1.701   0.702 -0.9369 -0.9720 -0.1508
  105TMC2    C8 1642   2.922   1.993   0.341  0.0137 -0.2925 -0.6522
  105TMC2    O1 1643   2.876   1.584   0.693  0.0531 -0.4119 -0.2836
  105TMC2    O2 1644   2.961   2.046   0.237 -0.1933 -0.4544 -0.0352
  105TMC2    O5 1645   2.790   1.980   0.376 -0.1785  0.3571 -0.0048
  105TMC2    H5 1646   2.774   1.926   0.456  0.6029 -0.6817 -0.5543
  106MPD2     C 1647   3.072   1.347  17.552  0.1336 -0.4113 -0.1976
  106MPD2    C1 1648   2.973   1.440  17.567 -0.3325 -0.2457 -0.0263
  106MPD2    C2 1649   2.955   1.500  17.690 -0.9221 -0.4838  0.7872
  106MPD2    C3 1650   3.035   1.475   0.064 -0.3880  0.2693  0.7414
  106MPD2    C4 1651   3.137   1.377   0.045  0.5665  0.5020  0.0961
  106MPD2    C5 1652   3.147   1.307  17.666  0.1994  0.3203 -0.6256
  106MPD2     H 1653   2.872   1.569  17.703 -1.0074 -0.5864  0.7863
  106MPD2    H1 1654   3.201   1.344   0.125  1.4910 -1.9586 -1.6647
  106MPD2    H2 1655   3.089   1.287  17.463  2.0569  2.5451 -1.8233
  106MPD2    H3 1656   3.226   1.237  17.645 -0.6791 -0.3632 -1.6344
  106MPD2     N 1657   3.019   1.547   0.184  0.2887 -0.1342 -0.5519
  106MPD2    H5 1658   2.948   1.619   0.177  0.8412  0.5620  1.0093
  106MPD2    N1 1659   2.898   1.484  17.459 -0.0110 -0.3083 -0.2105
  106MPD2    H7 1660   2.822   1.548  17.481 -1.8364 -2.3523 -0.5394
  107TMC2    C1 1661   2.273   1.580  11.670 -0.0247 -0.0855 -0.0748
  107TMC2    C2 1662   2.401   1.592  11.719  0.3147 -0.5955 -0.3478
  107TMC2    C3 1663   2.502   1.587  11.629 -0.2403 -0.3618  0.5354
  107TMC2    C4 1664   2.249   1.572  11.534 -0.1878  0.0251 -1.2041
  107TMC2    C5 1665   2.359   1.554  11.451 -0.3709  0.2363  0.0697
  107TMC2    C6 1666   2.487   1.560  11.494 -0.4060  0.0257  0.5814
  107TMC2     C 1667   2.169   1.582  11.771 -0.2228  0.5485 -0.5917
  107TMC2     O 1668   2.211   1.539  11.879  0.0122  0.5191  0.0515
  107TMC2     H 1669   2.427   1.614  11.822 -0.3982  3.6286 -1.0405
  107TMC2    H1 1670   2.151   1.540  11.501 -0.3152 -0.1275 -0.6729
  107TMC2    H2 1671   2.570   1.538  11.428 -1.3414 -0.0427 -0.5851
  107TMC2    C7 1672   2.327   1.492  11.323 -0.5267 -0.2727  0.1913
  107TMC2    C8 1673   2.637   1.599  11.672  0.1905  0.1919  0.0540
  107TMC2    O1 1674   2.233   1.548  11.264 -0.0544  0.2424 -0.2640
  107TMC2    O2 1675   2.666   1.579  11.789 -0.1339  0.1018 -0.0496
  107TMC2    O5 1676   2.714   1.666  11.581  0.6889  0.1265 -0.1007
  107TMC2    H5 1677   2.657   1.705  11.511 -2.4750 -4.0836  0.1452
  108MPD2     C 1678   1.828   1.700  11.744  0.4231 -0.3318 -0.5779
  108MPD2    C1 1679   1.934   1.633  11.802 -0.0192  0.0287  0.3512
  108MPD2    C2 1680   1.919   1.560  11.918  0.2195 -0.0656  0.9063
  108MPD2    C3 1681   1.798   1.555  11.987 -0.1840  0.0175  0.7183
  108MPD2    C4 1682   1.699   1.634  11.937 -0.4658  0.5651  0.1426
  108MPD2    C5 1683   1.712   1.706  11.822  0.0844 -0.0231 -0.2654
  108MPD2     H 1684   2.005   1.510  11.961  1.7815  1.9191  0.0778
  108MPD2    H1 1685   1.596   1.612  11.963 -0.4239 -1.4384 -1.4012
  108MPD2    H2 1686   1.829   1.759  11.653 -1.6538 -1.3078 -1.2320
  108MPD2    H3 1687   1.620   1.757  11.794 -1.2681 -2.2702  0.1119
  108MPD2     N 1688   1.772   1.477  12.106  0.1591 -0.2746  0.5078
  108MPD2    H5 1689   1.686   1.492  12.158 -1.6908 -1.5015 -2.2163
  108MPD2    N1 1690   2.056   1.637  11.730  0.3698  0.8158  0.1330
  108MPD2    H7 1691   2.053   1.662  11.632  0.7972 -0.0068 -0.0959
  109TMC2    C1 1692   2.711   3.261   0.678 -0.5343 -0.7526  0.7163
  109TMC2    C2 1693   2.747   3.204   0.557  0.4392 -0.1911 -1.1198
  109TMC2    C3 1694   2.875   3.160   0.538 -0.5219 -0.1787  0.5162
  109TMC2    C4 1695   2.796   3.287   0.781 -0.5946  0.0081 -0.5218
  109TMC2    C5 1696   2.928   3.245   0.757 -0.7080 -0.5759 -0.5115
  109TMC2    C6 1697   2.962   3.181   0.636 -0.8887  0.7620  0.3504
  109TMC2     C 1698   2.574   3.319   0.688 -0.2530  0.1428 -0.0210
  109TMC2     O 1699   2.506   3.336   0.584 -0.8588 -0.1674 -0.5656
  109TMC2     H 1700   2.666   3.183   0.488  0.4000  1.6909 -1.6390
  109TMC2    H1 1701   2.765   3.347   0.865  1.1677 -1.0873  0.9061
  109TMC2    H2 1702   3.061   3.140   0.617 -0.7766  1.4868 -0.6296
  109TMC2    C7 1703   3.029   3.289   0.850 -0.5336 -0.1451  0.0079
  109TMC2    C8 1704   2.923   3.080   0.426  0.7741  0.1763  0.0112
  109TMC2    O1 1705   3.146   3.276   0.814  0.1423  0.1524 -0.2676
  109TMC2    O2 1706   3.025   3.010   0.420 -0.7024  0.3079 -0.2034
  109TMC2    O5 1707   2.840   3.114   0.326 -0.0635 -0.3256 -0.4714
  109TMC2    H5 1708   2.804   3.202   0.350  3.5186  1.6756 -2.3633
  110MPD2     C 1709   2.162   3.487   0.929  0.1344  0.4003  0.9876
  110MPD2    C1 1710   2.227   3.398   1.012  0.2567  0.0655  0.1288
  110MPD2    C2 1711   2.349   3.345   0.975  0.2794 -0.2240  0.0172
  110MPD2    C3 1712   2.404   3.382   0.853 -0.0224  0.7954  0.1695
  110MPD2    C4 1713   2.342   3.478   0.772  0.2017 -0.4483  0.2576
  110MPD2    C5 1714   2.222   3.527   0.814 -0.0974  0.1315  0.1076
  110MPD2     H 1715   2.394   3.260   1.026  1.5581  2.3161  3.1031
  110MPD2    H1 1716   2.385   3.516   0.679 -0.4537 -0.2153  0.0527
  110MPD2    H2 1717   2.079   3.547   0.964 -1.1061  0.5336 -2.1716
  110MPD2    H3 1718   2.176   3.605   0.754  3.2312  3.0055  1.2310
  110MPD2     N 1719   2.525   3.322   0.818  0.6414 -0.4995 -0.3088
  110MPD2    H5 1720   2.569   3.271   0.894 -0.5849  0.9814  1.3911
  110MPD2    N1 1721   2.179   3.370   1.141 -0.1503  0.5125 -0.7703
  110MPD2    H7 1722   2.242   3.332   1.211 -1.0141  0.0021 -0.2645
  111TMC2    C1 1723   2.502   2.879  11.568  0.0515 -0.1293  0.1109
  111TMC2    C2 1724   2.444   2.754  11.569 -0.8564 -0.2068 -0.1656
  111TMC2    C3 1725   2.516   2.656  11.637  0.4417  0.2363 -0.1908
  111TMC2    C4 1726   2.630   2.899  11.612 -0.8338 -0.3159  0.1148
  111TMC2    C5 1727   2.692   2.799  11.682  0.3902 -0.9987 -0.7337
  111TMC2    C6 1728   2.640   2.667  11.692 -0.1374 -0.1840 -0.5286
  111TMC2     C 1729   2.431   3.001  11.517 -0.5039  0.5692  0.2553
  111TMC2     O 1730   2.489   3.096  11.474  0.5962 -0.4653  0.0527
  111TMC2     H 1731   2.358   2.744  11.505 -0.1072  1.2975 -1.4010
  111TMC2    H1 1732   2.662   3.003  11.620  1.0715 -0.9593  0.9501
  111TMC2    H2 1733   2.690   2.585  11.742 -0.0625 -1.3684 -2.5295
  111TMC2    C7 1734   2.804   2.827  11.774  0.0350  0.3515  0.2436
  111TMC2    C8 1735   2.476   2.525  11.601  0.0894 -0.0716 -0.4402
  111TMC2    O1 1736   2.834   2.741  11.854 -0.4544  0.0784  0.0202
  111TMC2    O2 1737   2.358   2.511  11.572 -0.4423 -0.1128  0.1309
  111TMC2    O5 1738   2.580   2.463  11.539 -0.3142 -0.0358 -0.1403
  111TMC2    H5 1739   2.667   2.508  11.549  0.3169 -0.9215 -1.6725
  112MPD2     C 1740   2.006   3.240  11.373  0.1182  0.3082 -0.2106
  112MPD2    C1 1741   2.133   3.241  11.309 -0.0415 -0.4898  0.3460
  112MPD2    C2 1742   2.236   3.152  11.351  0.0275 -0.4098  0.1233
  112MPD2    C3 1743   2.201   3.063  11.458  0.5823  0.4632 -0.1381
  112MPD2    C4 1744   2.071   3.057  11.500 -0.6250  0.0523  0.3038
  112MPD2    C5 1745   1.980   3.146  11.464 -0.1173  0.6707 -0.1923
  112MPD2     H 1746   2.334   3.168  11.308 -0.6765 -2.3979 -2.1537
  112MPD2    H1 1747   2.030   2.983  11.568 -0.0581 -0.2609  0.3111
  112MPD2    H2 1748   1.925   3.309  11.351 -0.8856 -0.3989  1.2453
  112MPD2    H3 1749   1.880   3.142  11.505 -1.7844  0.7594 -4.2574
  112MPD2     N 1750   2.297   2.975  11.516 -0.5123  0.4865  0.6190
  112MPD2    H5 1751   2.262   2.907  11.582  0.3483 -0.3101  0.2566
  112MPD2    N1 1752   2.171   3.337  11.212  0.0877 -0.7130 -0.9058
  112MPD2    H7 1753   2.271   3.337  11.195  0.0987  1.5470 -0.7970
  113TMC2    C1 1754   1.585   0.998   0.703  0.1274 -0.0835 -0.3992
  113TMC2    C2 1755   1.539   1.076   0.598  0.2539  0.2475 -0.1128
  113TMC2    C3 1756   1.421   1.047   0.537 -0.0114 -0.1523  0.8858
  113TMC2    C4 1757   1.521   0.884   0.737 -0.2237  0.4228  0.2506
  113TMC2    C5 1758   1.405   0.856   0.676 -0.6446 -0.2333  0.5139
  113TMC2    C6 1759   1.351   0.936   0.578 -0.0097 -0.4380 -0.0820
  113TMC2     C 1760   1.671   1.074   0.798  0.1790 -0.1792 -0.6639
  113TMC2     O 1761   1.673   1.197   0.785 -0.2522  0.3365  0.0660
  113TMC2     H 1762   1.600   1.159   0.565  0.1045  0.1612 -0.6075
  113TMC2    H1 1763   1.556   0.823   0.820  2.1427  1.4227 -0.0201
  113TMC2    H2 1764   1.247   0.922   0.548 -0.2040 -0.5190  0.6344
  113TMC2    C7 1765   1.313   0.759   0.727 -0.5871  0.0334 -0.0781
  113TMC2    C8 1766   1.352   1.156   0.463  0.2976  0.1910 -0.0210
  113TMC2    O1 1767   1.219   0.730   0.654  0.5325 -0.0799  0.1918
  113TMC2    O2 1768   1.369   1.273   0.501 -0.1888 -0.4278  0.4105
  113TMC2    O5 1769   1.241   1.103   0.402  0.0899 -0.0232  0.1125
  113TMC2    H5 1770   1.247   1.013   0.363 -1.3535 -0.0341 -0.0765
  114MPD2     C 1771   2.055   1.161   1.115  0.5359 -0.2381 -0.2145
  114MPD2    C1 1772   1.945   1.239   1.084 -0.1653 -0.0340 -0.9218
  114MPD2    C2 1773   1.853   1.189   0.996 -0.1313  0.5089  0.4277
  114MPD2    C3 1774   1.861   1.059   0.951 -0.1042 -0.4896 -0.3377
  114MPD2    C4 1775   1.971   0.984   0.973  0.4219  0.9400  0.0986
  114MPD2    C5 1776   2.065   1.033   1.059  0.5234  0.4827 -0.5053
  114MPD2     H 1777   1.775   1.259   0.970 -0.3991  0.6592  1.6278
  114MPD2    H1 1778   1.984   0.883   0.937  1.0032  1.2499 -0.5553
  114MPD2    H2 1779   2.131   1.195   1.184 -0.3172  0.9190  0.1588
  114MPD2    H3 1780   2.149   0.966   1.076  0.2137  0.1074 -0.4632
  114MPD2     N 1781   1.766   0.999   0.866  0.0449  0.2709 -0.4981
  114MPD2    H5 1782   1.764   0.898   0.856  4.7651  0.4214 -3.4256
  114MPD2    N1 1783   1.912   1.363   1.146 -0.6716 -0.1932  0.4487
  114MPD2    H7 1784   1.830   1.411   1.109  1.1040  0.7708 -2.1856
  115TMC2    C1 1785   2.450   3.908   0.117 -0.0987 -0.0238  0.1971
  115TMC2    C2 1786   2.578   3.875   0.085  0.5513 -0.3958  0.1389
  115TMC2    C3 1787   2.669   3.976   0.084  1.2640  0.0957 -0.0660
  115TMC2    C4 1788   2.411   4.040   0.137  0.7400 -0.1267  0.3358
  115TMC2    C5 1789   2.509   4.137   0.131 -0.5419 -0.6250 -0.2154
  115TMC2    C6 1790   2.641   4.107   0.106  0.1111  0.0334  0.4419
  115TMC2     C 1791   2.356   3.800   0.115  0.0632 -0.2451 -0.5242
  115TMC2     O 1792   2.401   3.688   0.111 -0.0974 -0.1718 -0.2204
  115TMC2     H 1793   2.612   3.774   0.063  1.8538 -0.0683  0.6852
  115TMC2    H1 1794   2.310   4.066   0.164  0.1595 -1.5620 -0.4731
  115TMC2    H2 1795   2.717   4.183   0.121  0.2589 -0.4710  2.3474
  115TMC2    C7 1796   2.474   4.284   0.135  0.0162 -0.9680 -0.1778
  115TMC2    C8 1797   2.812   3.944   0.100  1.0937 -0.0579 -0.0178
  115TMC2    O1 1798   2.403   4.326   0.224  0.2752 -0.0564 -0.6709
  115TMC2    O2 1799   2.898   4.027   0.076 -0.2528  0.0854 -0.4846
  115TMC2    O5 1800   2.793   3.874   0.213 -0.1655  0.3599 -0.2635
  115TMC2    H5 1801   2.697   3.859   0.227  0.0634 -0.0415  0.8509
  116MPD2     C 1802   1.875   3.602   0.134 -0.2535 -0.0883  0.0085
  116MPD2    C1 1803   2.000   3.545   0.106  0.3668  0.3309 -0.4605
  116MPD2    C2 1804   2.114   3.620   0.103 -0.1143  0.1806  0.1541
  116MPD2    C3 1805   2.110   3.754   0.131  0.0944 -1.4985 -0.1861
  116MPD2    C4 1806   1.986   3.813   0.166 -0.3068 -0.3420 -0.3851
  116MPD2    C5 1807   1.870   3.740   0.162 -0.1482 -0.4419  0.1194
  116MPD2     H 1808   2.210   3.571   0.088 -0.5840 -0.9728  0.9310
  116MPD2    H1 1809   1.976   3.920   0.181  0.6077 -0.1018 -1.4756
  116MPD2    H2 1810   1.784   3.543   0.125 -0.6779  0.5992 -0.1507
  116MPD2    H3 1811   1.776   3.787   0.189  0.8020  1.8531 -0.5278
  116MPD2     N 1812   2.227   3.834   0.113 -0.2390  0.0868  0.1075
  116MPD2    H5 1813   2.211   3.935   0.115  2.3626  0.4886  0.8614
  116MPD2    N1 1814   2.002   3.415   0.065  0.0445 -0.5337 -0.2162
  116MPD2    H7 1815   1.910   3.373   0.062 -1.0623  1.6081  2.7299
  117TMC2    C1 1816   4.683   0.239  13.802 -0.0974 -0.4765 -0.1413
  117TMC2    C2 1817   0.049   0.171  13.738 -0.2840 -0.0771  0.5470
  117TMC2    C3 1818   0.173   0.207  13.772 -0.0520  0.2421  0.2468
  117TMC2    C4 1819   4.703   0.327  13.906  0.2327  0.4733 -0.2510
  117TMC2    C5 1820   0.102   0.362  13.930  0.2110  0.1313  0.9572
  117TMC2    C6 1821   0.204   0.300  13.864  0.1182  0.4015 -0.3725
  117TMC2     C 1822   4.564   0.237  13.733 -0.5418 -0.3850 -0.5222
  117TMC2     O 1823   4.542   0.148  13.651 -0.0791 -0.0534  0.0124
  117TMC2     H 1824   0.031   0.087  13.672  0.9387 -0.0211  0.1297
  117TMC2    H1 1825   4.626   0.382  13.959 -1.3330 -4.6079  2.7450
  117TMC2    H2 1826   0.309   0.325  13.878  0.2542 -0.4764  0.1714
  117TMC2    C7 1827   0.140   0.485  13.994 -0.7861 -0.0033  1.2121
  117TMC2    C8 1828   0.275   0.157  13.681 -0.6866  0.3022 -0.3982
  117TMC2    O1 1829   0.252   0.516  13.967 -0.1913  0.2306 -0.3158
  117TMC2    O2 1830   0.253   0.158  13.563 -0.9530 -0.2506  0.7748
  117TMC2    O5 1831   0.396   0.184  13.733 -0.0381 -0.0505  0.0563
  117TMC2    H5 1832   0.395   0.165  13.829  1.0292 -1.9052 -0.3136
  118MPD2     C 1833   4.674   0.745  14.176 -0.1911  0.7820  0.1860
  118MPD2    C1 1834   0.050   0.674  14.129  0.5723 -0.0705  0.1361
  118MPD2    C2 1835   0.176   0.740  14.147  0.0799  0.2685 -0.1777
  118MPD2    C3 1836   0.182   0.867  14.202  0.4568  0.5161  0.4532
  118MPD2    C4 1837   0.065   0.921  14.258 -0.3235  0.3182 -0.2088
  118MPD2    C5 1838   4.681   0.861  14.248  1.1653  0.3344 -0.7117
  118MPD2     H 1839   0.264   0.693  14.106 -1.0250 -1.2334 -0.8460
  118MPD2    H1 1840   0.076   1.020  14.301 -0.3260 -0.8968  2.5667
  118MPD2    H2 1841   4.577   0.695  14.177  0.0614  0.3116  1.6506
  118MPD2    H3 1842   4.592   0.909  14.286  1.3986  2.2861 -2.6572
  118MPD2     N 1843   0.302   0.943  14.186  0.6168 -0.2062 -0.4095
  118MPD2    H5 1844   0.284   1.043  14.196 -1.8992 -0.8600  1.7293
  118MPD2    N1 1845   0.039   0.561  14.046  0.4385 -0.0102 -0.3334
  118MPD2    H7 1846   4.680   0.525  14.032  0.9603 -0.7440 -1.8824
  119TMC2    C1 1847   2.989   1.231  13.499 -0.3842  0.1264 -0.2045
  119TMC2    C2 1848   3.082   1.188  13.414  0.1506  0.3768  0.7423
  119TMC2    C3 1849   3.054   1.087  13.326 -0.2283  0.7055 -0.4013
  119TMC2    C4 1850   2.862   1.180  13.505 -0.0222  0.8529 -0.2389
  119TMC2    C5 1851   2.835   1.082  13.408 -0.1105  0.1220 -1.3360
  119TMC2    C6 1852   2.928   1.037  13.322  0.5135 -0.1033 -0.0884
  119TMC2     C 1853   3.027   1.330  13.598  0.3119  0.5707 -0.1024
  119TMC2     O 1854   2.934   1.375  13.665 -0.3384  0.6480  0.7224
  119TMC2     H 1855   3.183   1.227  13.410  0.2525  0.0351  0.0714
  119TMC2    H1 1856   2.789   1.216  13.577  0.9020  2.4473 -0.0970
  119TMC2    H2 1857   2.908   0.952  13.258 -2.2604  0.4090  0.0762
  119TMC2    C7 1858   2.713   1.005  13.415  0.1658 -0.6407 -0.3687
  119TMC2    C8 1859   3.161   1.024  13.247 -0.4896  0.2430  0.2233
  119TMC2    O1 1860   2.679   0.959  13.305  0.2871 -0.0225  0.1731
  119TMC2    O2 1861   3.250   1.090  13.197 -0.1646 -0.1208  0.2234
  119TMC2    O5 1862   3.175   0.900  13.311  0.0476 -0.0176  0.7742
  119TMC2    H5 1863   3.109   0.885  13.381 -2.2197 -0.5389 -1.4710
  120MPD2     C 1864   3.368   1.584  13.877  0.2570  0.4456  0.3467
  120MPD2    C1 1865   3.238   1.608  13.852  0.2347  0.4882 -0.7473
  120MPD2    C2 1866   3.175   1.524  13.768 -0.6494  0.2821  0.2534
  120MPD2    C3 1867   3.233   1.408  13.707  0.2948  0.6204  0.3185
  120MPD2    C4 1868   3.366   1.399  13.725  0.0384  0.1968  0.0195
  120MPD2    C5 1869   3.430   1.476  13.813  0.1523 -0.6553  0.4587
  120MPD2     H 1870   3.067   1.520  13.767 -0.6887  1.4330 -1.4616
  120MPD2    H1 1871   3.417   1.314  13.683  3.0644  1.3229  1.4592
  120MPD2    H2 1872   3.430   1.644  13.943  3.5049 -1.9868 -0.4267
  120MPD2    H3 1873   3.533   1.449  13.834  0.2413 -0.3533  0.4069
  120MPD2     N 1874   3.161   1.315  13.626 -0.4218  0.5326 -0.0768
  120MPD2    H5 1875   3.210   1.245  13.571 -2.2765 -1.5972  0.9958
  120MPD2    N1 1876   3.169   1.699  13.933  0.1772 -0.3785 -0.0149
  120MPD2    H7 1877   3.222   1.727  14.015 -0.9455  1.9396 -0.0871
  121TMC2    C1 1878   4.358   3.178  14.324 -0.0609 -0.9974 -0.1941
  121TMC2    C2 1879   4.284   3.124  14.428 -0.2217 -0.0280 -0.5063
  121TMC2    C3 1880   4.147   3.123  14.421  0.3795  0.3098 -0.2700
  121TMC2    C4 1881   4.298   3.240  14.217  0.2540  0.6200 -0.4245
  121TMC2    C5 1882   4.159   3.234  14.215 -0.8360 -0.4421  0.4806
  121TMC2    C6 1883   4.078   3.182  14.312  0.6053  0.5640  0.6051
  121TMC2     C 1884   4.501   3.149  14.322  0.6336  0.3645 -0.0813
  121TMC2     O 1885   4.551   3.121  14.433 -0.2430  0.3741 -0.5885
  121TMC2     H 1886   4.336   3.068  14.504 -2.1534  0.0904  0.8906
  121TMC2    H1 1887   4.364   3.286  14.144  0.6022  1.5317  0.4657
  121TMC2    H2 1888   3.970   3.189  14.317  0.5237 -0.3230  0.0645
  121TMC2    C7 1889   4.094   3.281  14.096 -0.0247  0.2389 -1.0102
  121TMC2    C8 1890   4.064   3.046  14.500  0.4083 -0.1392 -0.3763
  121TMC2    O1 1891   4.146   3.368  14.026  0.2170  0.6208 -0.1726
  121TMC2    O2 1892   4.000   2.949  14.456  0.2746  0.6509 -0.2711
  121TMC2    O5 1893   4.054   3.122  14.614  0.2198 -0.6763  0.4564
  121TMC2    H5 1894   4.106   3.205  14.614 -2.8127  1.2262  0.1359
  122MPD2     C 1895   0.063   3.124  14.270  0.0864  0.0335 -0.0770
  122MPD2    C1 1896   4.699   3.155  14.172 -0.2073 -0.2599  0.2020
  122MPD2    C2 1897   0.011   3.203  14.050 -0.4735 -0.0708  0.1187
  122MPD2    C3 1898   0.146   3.221  14.021 -0.2998  0.3557  0.5843
  122MPD2    C4 1899   0.235   3.191  14.117 -0.3968  0.5952 -0.0420
  122MPD2    C5 1900   0.192   3.132  14.231  0.0904 -0.5335 -0.1624
  122MPD2     H 1901   4.669   3.236  13.979  0.6739 -1.1578 -1.6279
  122MPD2    H1 1902   0.342   3.191  14.103 -0.3348 -1.7316  0.3265
  122MPD2    H2 1903   0.026   3.073  14.359  0.2674 -0.5870 -0.3614
  122MPD2    H3 1904   0.265   3.094  14.302  0.3364  0.7304  0.2723
  122MPD2     N 1905   0.203   3.246  13.896 -0.4128 -0.0280  0.2022
  122MPD2    H5 1906   0.304   3.246  13.886 -0.4305  1.6590 -0.0196
  122MPD2    N1 1907   4.563   3.164  14.198  0.1698 -0.5953  0.8893
  122MPD2    H7 1908   4.511   3.182  14.113  0.4063 -0.8631  0.6876
  123TMC2    C1 1909   3.503   2.139  10.140 -0.2907  0.2707  0.2755
  123TMC2    C2 1910   3.575   2.229  10.063 -0.4397 -0.5483 -0.0200
  123TMC2    C3 1911   3.534   2.363  10.073  0.2894 -0.1715 -1.0767
  123TMC2    C4 1912   3.408   2.178  10.223  0.1505  0.1968  0.0610
  123TMC2    C5 1913   3.372   2.306  10.233  0.1176  0.0442  0.8679
  123TMC2    C6 1914   3.434   2.400  10.154  0.0204 -0.2936 -0.1807
  123TMC2     C 1915   3.519   1.996  10.099 -0.9837  0.7132  0.1463
  123TMC2     O 1916   3.614   1.956  10.028 -0.4387  0.0663 -0.0713
  123TMC2     H 1917   3.668   2.200  10.016 -1.4987 -0.3002 -2.2777
  123TMC2    H1 1918   3.363   2.106  10.290  0.1061  0.2295  0.0663
  123TMC2    H2 1919   3.415   2.506  10.166  0.7453 -0.2258  0.3226
  123TMC2    C7 1920   3.238   2.324  10.290  0.1049  0.1223  0.0700
  123TMC2    C8 1921   3.608   2.467  10.010 -1.2190 -0.5229  0.8894
  123TMC2    O1 1922   3.172   2.222  10.311 -0.0984  0.5079 -0.1129
  123TMC2    O2 1923   3.646   2.575  10.054 -0.7470 -0.3108 -0.2619
  123TMC2    O5 1924   3.627   2.419   9.887 -0.4924 -0.4093  0.5014
  123TMC2    H5 1925   3.593   2.330   9.863 -0.6133 -0.5154  1.0686
  124MPD2     C 1926   3.335   1.515  10.128 -0.0059  0.4284  0.0939
  124MPD2    C1 1927   3.258   1.601  10.200  0.5705  0.4691  0.0054
  124MPD2    C2 1928   3.291   1.736  10.205  0.6594  0.5213 -0.3662
  124MPD2    C3 1929   3.400   1.779  10.138  0.1600  0.4233  0.3160
  124MPD2    C4 1930   3.484   1.695  10.068 -0.6057 -0.6593  0.5078
  124MPD2    C5 1931   3.454   1.558  10.068 -0.3721 -0.1308 -0.2474
  124MPD2     H 1932   3.238   1.804  10.271 -1.0209 -2.9292  1.8249
  124MPD2    H1 1933   3.575   1.723  10.016 -0.5249 -0.1984  0.8903
  124MPD2    H2 1934   3.324   1.408  10.135  3.0460  0.1352  0.7067
  124MPD2    H3 1935   3.523   1.482  10.033  0.0995  0.7059 -1.1462
  124MPD2     N 1936   3.417   1.919  10.150  0.0682  0.6868  0.3138
  124MPD2    H5 1937   3.341   1.962  10.201 -2.3989 -0.6374 -2.2485
  124MPD2    N1 1938   3.145   1.552  10.269  0.2315 -0.0630 -0.3947
  124MPD2    H7 1939   3.123   1.454  10.254 -1.5158  0.3447 -0.4316
  125TMC2    C1 1940   4.006   4.384   9.184  0.5358 -0.5132 -0.0947
  125TMC2    C2 1941   3.982   4.320   9.304 -0.0773 -0.0261 -0.1268
  125TMC2    C3 1942   4.055   4.206   9.322  0.3529  0.0523  0.0232
  125TMC2    C4 1943   4.068   4.326   9.079  0.1192  0.0856 -0.7533
  125TMC2    C5 1944   4.143   4.213   9.106  0.1660 -0.2601 -0.1873
  125TMC2    C6 1945   4.139   4.151   9.227  0.0896 -0.5278 -0.7114
  125TMC2     C 1946   3.956   4.517   9.157  0.3830  0.5427 -0.5254
  125TMC2     O 1947   3.977   4.562   9.046 -0.1552  0.0923 -0.7056
  125TMC2     H 1948   3.917   4.347   9.387  1.0582 -0.5296  0.9200
  125TMC2    H1 1949   4.090   4.385   8.990  2.2937  1.7144  0.8779
  125TMC2    H2 1950   4.182   4.053   9.244  0.6972 -0.0281  0.6222
  125TMC2    C7 1951   4.224   4.167   8.998  0.5119 -0.0384 -0.2269
  125TMC2    C8 1952   4.040   4.137   9.449 -0.2319  0.4341 -0.1782
  125TMC2    O1 1953   4.224   4.231   8.894  0.0180  0.3244 -0.0472
  125TMC2    O2 1954   3.955   4.169   9.536 -0.0125  0.2264 -0.0346
  125TMC2    O5 1955   4.164   4.092   9.484 -0.0608 -0.0663 -0.1676
  125TMC2    H5 1956   4.230   4.088   9.412 -0.8914 -2.3056 -0.8304
  126MPD1     C 1957   3.704   0.202   9.301 -0.0672  0.4142  0.7574
  126MPD1    C1 1958   3.696   0.112   9.403 -0.3685 -0.7092  0.0653
  126MPD1    C2 1959   3.764   4.726   9.385  0.1463 -0.5089  0.0233
  126MPD1    C3 1960   3.823   4.688   9.268  0.0016 -0.4454 -0.1370
  126MPD1    C4 1961   3.818   0.043   9.164 -0.7669  0.0413  0.0074
  126MPD1    C5 1962   3.763   0.169   9.185 -0.2741  0.7266 -0.0451
  126MPD1     H 1963   3.772   4.670   9.477 -2.4232 -0.8493  0.0179
  126MPD1    H1 1964   3.872   0.032   9.071 -0.7342 -0.6691  0.1062
  126MPD1    H2 1965   3.666   0.302   9.314 -1.2010  0.3534 -2.1312
  126MPD1    H3 1966   3.769   0.245   9.108  0.3274  0.4805 -0.2403
  126MPD1     N 1967   3.887   4.560   9.263  0.0865 -0.7512  0.1700
  126MPD1    H5 1968   3.875   4.511   9.351  0.7052  0.2688  0.8169
  126MPD1    N1 1969   3.649   0.144   9.536  0.3114 -0.7610  0.0026
  126MPD1    H6 1970   3.601   0.067   9.583  1.8106 -0.5328  1.9269
  126MPD1    H7 1971   3.584   0.220   9.520  0.9936 -0.1180  0.2604
  127TMC2    C1 1972   4.483   2.269   9.426 -0.4362  1.2035 -0.4301
  127TMC2    C2 1973   4.511   2.292   9.291 -1.2305 -0.1865  1.1092
  127TMC2    C3 1974   4.414   2.281   9.196 -0.5011  0.5810  0.0630
  127TMC2    C4 1975   4.354   2.235   9.452  0.1092  0.1951 -0.3189
  127TMC2    C5 1976   4.263   2.215   9.351 -0.4259 -0.2737 -0.0485
  127TMC2    C6 1977   4.292   2.229   9.221  0.1168  0.2683  0.2367
  127TMC2     C 1978   4.573   2.311   9.534  0.7413 -0.1756  0.2780
  127TMC2     O 1979   4.659   2.395   9.504 -0.1109 -0.6283 -0.0221
  127TMC2     H 1980   4.617   2.305   9.270 -1.5882  0.7531 -0.1542
  127TMC2    H1 1981   4.318   2.239   9.554  1.1922 -1.8312  0.1317
  127TMC2    H2 1982   4.227   2.203   9.138  0.3440  1.2950 -0.2680
  127TMC2    C7 1983   4.122   2.181   9.382 -0.0529 -0.4741  0.5926
  127TMC2    C8 1984   4.465   2.262   9.062  0.2909 -0.0274  0.1070
  127TMC2    O1 1985   4.041   2.206   9.298  0.4340  0.1194 -0.5846
  127TMC2    O2 1986   4.405   2.203   8.972  0.0481 -0.2321  0.4519
  127TMC2    O5 1987   4.558   2.357   9.053 -0.4376 -0.2958 -0.2346
  127TMC2    H5 1988   4.568   2.405   9.138 -0.3964 -1.2100  0.2684
  128MPD2     C 1989   4.638   2.138   9.853  1.0526  0.1688  0.0429
  128MPD2    C1 1990   4.648   2.230   9.752 -0.5302  0.0721  0.4198
  128MPD2    C2 1991   0.005   2.333   9.775  0.3884  0.2787 -0.7519
  128MPD2    C3 1992   0.081   2.350   9.890  0.5004 -0.1476 -0.3151
  128MPD2    C4 1993   0.064   2.248   9.986 -1.4874 -0.8914  0.3257
  128MPD2    C5 1994   4.704   2.147   9.970  0.5830  0.7069 -0.7339
  128MPD2     H 1995   4.728   2.421   9.713  0.7910 -0.0343 -1.2737
  128MPD2    H1 1996   0.126   2.239  10.075 -0.3260  1.4085 -0.2380
  128MPD2    H2 1997   4.560   2.063   9.846 -0.7659  2.3211 -3.0160
  128MPD2    H3 1998   4.687   2.077  10.051  1.9168  1.6261  0.3440
  128MPD2     N 1999   0.188   2.441   9.909  0.5448 -0.2661  0.2929
  128MPD2    H5 2000   0.234   2.427   9.998  2.0378  0.3620 -0.3734
  128MPD2    N1 2001   4.563   2.225   9.643  0.0922 -0.0754 -0.4756
  128MPD2    H7 2002   4.482   2.167   9.662 -0.0766 -0.1507 -1.4153
  129TMC2    C1 2003   3.616   3.783   2.096  0.0994  0.0426  0.0486
  129TMC2    C2 2004   3.518   3.783   2.194 -0.3956 -0.3465 -0.3627
  129TMC2    C3 2005   3.441   3.672   2.204 -0.8039  0.4665 -0.0845
  129TMC2    C4 2006   3.634   3.682   2.008 -0.2126 -0.1874 -0.2638
  129TMC2    C5 2007   3.570   3.565   2.041 -0.3900  0.1939 -0.4412
  129TMC2    C6 2008   3.472   3.560   2.141 -0.1651  0.0544 -0.0061
  129TMC2     C 2009   3.726   3.876   2.117 -0.6556  0.8164 -0.7993
  129TMC2     O 2010   3.749   3.923   2.225  0.1131 -0.0857  0.9257
  129TMC2     H 2011   3.500   3.860   2.268 -1.4098 -1.3919  0.4874
  129TMC2    H1 2012   3.713   3.688   1.934  0.7361 -2.5699  0.5544
  129TMC2    H2 2013   3.423   3.466   2.165 -2.4737  1.2692  0.0395
  129TMC2    C7 2014   3.592   3.444   1.968 -0.2835  0.1745  0.5684
  129TMC2    C8 2015   3.375   3.659   2.326 -0.5693  0.3910 -0.8237
  129TMC2    O1 2016   3.496   3.370   1.961 -0.7008 -0.2069  0.3566
  129TMC2    O2 2017   3.294   3.741   2.370 -0.3798  0.2573  0.3913
  129TMC2    O5 2018   3.460   3.598   2.411 -1.0732  0.1051 -0.1937
  129TMC2    H5 2019   3.532   3.545   2.371  2.1038  3.2325  1.2920
  130MPD2     C 2020   3.933   4.095   2.089 -0.0791 -0.6978  0.4328
  130MPD2    C1 2021   3.862   4.034   1.982  0.0874  0.5781 -0.3261
  130MPD2    C2 2022   3.895   4.073   1.853 -0.1570  0.6881  0.4339
  130MPD2    C3 2023   3.991   4.173   1.824 -0.0382 -0.1302 -0.2401
  130MPD2    C4 2024   4.055   4.231   1.932 -0.3921  1.0849 -0.8966
  130MPD2    C5 2025   4.027   4.192   2.057  0.3533 -0.4314 -0.7094
  130MPD2     H 2026   3.839   4.029   1.772  1.2399 -0.2183 -0.0356
  130MPD2    H1 2027   4.118   4.318   1.916  0.4683  0.3633 -1.4315
  130MPD2    H2 2028   3.923   4.065   2.193  0.9725 -1.5649  0.2840
  130MPD2    H3 2029   4.074   4.245   2.140 -1.5703 -0.2900  0.2944
  130MPD2     N 2030   4.001   4.225   1.689 -0.4690 -0.2208 -0.3089
  130MPD2    H5 2031   3.949   4.174   1.618 -1.0449 -1.5118  1.0327
  130MPD2    N1 2032   3.769   3.925   1.998 -0.0587  0.0659 -0.0909
  130MPD2    H7 2033   3.703   3.901   1.926  1.4997 -2.3441 -0.6912
  131TMC2    C1 2034   2.986   2.396  10.745 -0.2844 -0.4606 -0.1593
  131TMC2    C2 2035   2.949   2.472  10.853  0.1024  0.3096 -0.0861
  131TMC2    C3 2036   3.020   2.588  10.871 -0.1402 -0.0020 -0.5412
  131TMC2    C4 2037   3.099   2.418  10.674  0.0239 -0.6044  0.3247
  131TMC2    C5 2038   3.174   2.522  10.714  0.5253  0.3859 -0.0494
  131TMC2    C6 2039   3.136   2.613  10.802  0.2039  0.0220 -0.1418
  131TMC2     C 2040   2.916   2.272  10.723 -0.2825 -0.4610 -0.3252
  131TMC2     O 2041   2.977   2.188  10.655  0.2880 -0.3743  0.4011
  131TMC2     H 2042   2.864   2.454  10.917 -0.0531 -0.7791 -0.6060
  131TMC2    H1 2043   3.121   2.357  10.587  3.8922 -0.2660  1.0345
  131TMC2    H2 2044   3.186   2.708  10.824 -1.5690  1.1597 -1.0475
  131TMC2    C7 2045   3.283   2.555  10.622 -0.7974  0.3647  0.1121
  131TMC2    C8 2046   2.988   2.666  10.983 -0.4845  0.8910  0.5042
  131TMC2    O1 2047   3.339   2.466  10.560  0.8591 -0.1999 -0.6579
  131TMC2    O2 2048   3.073   2.736  11.038  0.2058  0.1446  0.2256
  131TMC2    O5 2049   2.859   2.677  11.010  0.1065  0.1858 -0.2532
  131TMC2    H5 2050   2.789   2.621  10.967 -1.0271  0.5669  1.1107
  132MPD2     C 2051   2.602   2.143  10.865 -0.3460 -0.1735 -0.4080
  132MPD2    C1 2052   2.714   2.147  10.794  0.4648  0.0757 -0.4911
  132MPD2    C2 2053   2.738   2.034  10.719 -0.3031  0.6803  0.7785
  132MPD2    C3 2054   2.670   1.913  10.720 -0.2158 -0.1314 -0.1500
  132MPD2    C4 2055   2.547   1.915  10.790  0.1775  0.0395  0.0019
  132MPD2    C5 2056   2.517   2.032  10.854  0.0591  0.8345  0.1193
  132MPD2     H 2057   2.811   2.044  10.639  0.1241  0.3634  1.1268
  132MPD2    H1 2058   2.477   1.833  10.781 -0.8223  0.9131 -0.1694
  132MPD2    H2 2059   2.560   2.232  10.911 -1.2192  0.5337 -2.5490
  132MPD2    H3 2060   2.415   2.051  10.884  0.0849 -0.8869  1.3046
  132MPD2     N 2061   2.719   1.820  10.626 -0.0410 -0.4820  0.0349
  132MPD2    H5 2062   2.805   1.841  10.576  1.5843  0.7556  3.3508
  132MPD2    N1 2063   2.790   2.262  10.787 -0.2177 -0.2349 -0.1223
  132MPD2    H7 2064   2.757   2.341  10.840 -0.6509 -0.2749 -0.3342
  133TMC2    C1 2065   2.558   3.179  10.024 -0.3399  0.5720  0.9857
  133TMC2    C2 2066   2.630   3.057  10.050 -0.2726 -0.0528  0.2302
  133TMC2    C3 2067   2.746   3.067  10.128 -0.0287  0.4489 -0.0159
  133TMC2    C4 2068   2.594   3.297  10.079  0.5963  0.0947 -0.8175
  133TMC2    C5 2069   2.713   3.298  10.154  0.4367  0.5728  0.4512
  133TMC2    C6 2070   2.795   3.188  10.173  0.1018  0.8152  0.1436
  133TMC2     C 2071   2.425   3.163   9.963 -0.4812  0.0926 -0.4110
  133TMC2     O 2072   2.403   3.050   9.932 -0.1693  0.3065  0.0834
  133TMC2     H 2073   2.600   2.960  10.012 -0.7503 -0.8395  2.6327
  133TMC2    H1 2074   2.524   3.379  10.078  0.5829  0.1090  1.2683
  133TMC2    H2 2075   2.880   3.196  10.238 -0.1335  1.3100  0.3882
  133TMC2    C7 2076   2.759   3.424  10.205 -0.0113 -0.1132  0.6595
  133TMC2    C8 2077   2.811   2.947  10.178  0.3234  0.3673 -0.1811
  133TMC2    O1 2078   2.787   3.424  10.326  0.3066 -0.3783  0.3141
  133TMC2    O2 2079   2.893   2.945  10.269 -0.0998  0.0740  0.7352
  133TMC2    O5 2080   2.806   2.853  10.088 -0.5477 -0.7965 -0.0725
  133TMC2    H5 2081   2.780   2.878   9.997 -0.7530  2.0042  0.7456
  134MPD2     C 2082   2.241   3.397   9.754  0.3090  0.5279  0.0972
  134MPD2    C1 2083   2.260   3.275   9.812 -0.0429 -0.8686  0.5482
  134MPD2    C2 2084   2.197   3.161   9.758  0.6298 -0.0120  0.0200
  134MPD2    C3 2085   2.117   3.171   9.649  0.6049  0.4627 -0.4865
  134MPD2    C4 2086   2.092   3.296   9.599  0.6044 -0.6847  0.7947
  134MPD2    C5 2087   2.156   3.406   9.654  0.3049 -0.6710  0.2209
  134MPD2     H 2088   2.216   3.066   9.806 -2.8241 -0.2699  0.8889
  134MPD2    H1 2089   2.024   3.316   9.517  0.6468  0.1404  0.9540
  134MPD2    H2 2090   2.292   3.485   9.790  0.8829  0.7114 -1.1259
  134MPD2    H3 2091   2.146   3.508   9.619 -4.4600 -1.4522 -0.6707
  134MPD2     N 2092   2.061   3.055   9.585 -0.5208 -0.5220 -0.1251
  134MPD2    H5 2093   1.989   3.071   9.515 -1.3819 -0.0052  0.8642
  134MPD2    N1 2094   2.360   3.273   9.912 -0.0990  0.4713  0.0054
  134MPD2    H7 2095   2.406   3.361   9.933  0.7589  0.0974 -0.2881
  135TMC2    C1 2096   4.263   4.257   9.806  0.0297  0.2746 -0.2554
  135TMC2    C2 2097   4.180   4.284   9.914  0.5014 -0.0166 -0.1055
  135TMC2    C3 2098   4.186   4.193  10.012  1.0897  0.2627 -0.0610
  135TMC2    C4 2099   4.310   4.129   9.784  0.2079  0.1020  0.1234
  135TMC2    C5 2100   4.302   4.041   9.887 -0.4563  0.4397 -0.0668
  135TMC2    C6 2101   4.245   4.076  10.003 -0.2176  0.1199  0.0353
  135TMC2     C 2102   4.247   4.350   9.693 -0.8914 -0.1572  0.4082
  135TMC2     O 2103   4.161   4.433   9.698  0.3653  1.3472 -0.3907
  135TMC2     H 2104   4.138   4.382   9.934 -2.3591 -0.9337 -1.6148
  135TMC2    H1 2105   4.332   4.095   9.684  0.3080  0.3632  0.0551
  135TMC2    H2 2106   4.247   4.020  10.097  2.1741 -1.3987 -0.8918
  135TMC2    C7 2107   4.365   3.910   9.859  0.4004 -0.3757  0.0957
  135TMC2    C8 2108   4.084   4.224  10.114  0.0962 -0.2617  0.0823
  135TMC2    O1 2109   4.449   3.901   9.771  0.0717  0.2642 -0.3880
  135TMC2    O2 2110   4.115   4.211  10.230 -0.5544 -0.1948  0.9767
  135TMC2    O5 2111   3.966   4.224  10.051  0.3017 -0.0464  0.2015
  135TMC2    H5 2112   3.973   4.198   9.957  1.4062  0.1437  0.2363
  136MPD2     C 2113   4.248   4.495   9.426  0.6462  0.0042 -0.4339
  136MPD2    C1 2114   4.347   4.401   9.463  0.4953  0.4115  0.4868
  136MPD2    C2 2115   4.441   4.361   9.364  0.1120  0.0918 -0.1008
  136MPD2    C3 2116   4.440   4.415   9.242  0.3614 -0.1129  0.3303
  136MPD2    C4 2117   4.349   4.517   9.212 -0.0841  0.2528  0.4852
  136MPD2    C5 2118   4.252   4.549   9.304  0.1943  0.5056 -0.6778
  136MPD2     H 2119   4.521   4.293   9.392  1.3236  0.9616 -1.4054
  136MPD2    H1 2120   4.353   4.579   9.123 -0.1326 -0.2857  0.1065
  136MPD2    H2 2121   4.173   4.533   9.494  0.0623 -2.4114  0.2815
  136MPD2    H3 2122   4.175   4.622   9.281  0.3539  1.0396  0.4887
  136MPD2     N 2123   4.522   4.373   9.131 -0.2711 -0.5002 -0.0003
  136MPD2    H5 2124   4.511   4.435   9.051 -1.2516 -1.6599 -0.7637
  136MPD2    N1 2125   4.343   4.329   9.591 -0.7689 -0.7370 -0.1850
  136MPD2    H7 2126   4.410   4.255   9.605  0.6640  0.1281 -2.5480
  137TMC2    C1 2127   4.116   3.442   9.652  0.0349 -0.1903 -0.0677
  137TMC2    C2 2128   4.206   3.497   9.565 -0.7158  0.3338  0.3582
  137TMC2    C3 2129   4.204   3.631   9.544  0.5160  0.1357  0.3945
  137TMC2    C4 2130   4.022   3.526   9.715 -0.2547  0.5008 -0.0669
  137TMC2    C5 2131   4.025   3.662   9.695 -0.5200  0.0394 -0.1906
  137TMC2    C6 2132   4.110   3.719   9.604 -0.0421  0.6206  0.2781
  137TMC2     C 2133   4.074   3.310   9.607  0.5648  0.3567 -0.3717
  137TMC2     O 2134   4.076   3.299   9.484 -0.6982 -0.2426  0.5405
  137TMC2     H 2135   4.269   3.440   9.498 -0.8113 -1.1027  1.4918
  137TMC2    H1 2136   3.948   3.472   9.773 -0.7762  0.1239 -1.0767
  137TMC2    H2 2137   4.119   3.827   9.604 -1.3280  0.7291  1.6503
  137TMC2    C7 2138   3.986   3.754   9.797  0.4698  0.2627 -0.3617
  137TMC2    C8 2139   4.311   3.694   9.469 -0.2259  0.1198  0.4292
  137TMC2    O1 2140   4.031   3.867   9.788 -0.1979  0.7083  0.1755
  137TMC2    O2 2141   4.431   3.666   9.475  0.2387 -0.1473  0.4491
  137TMC2    O5 2142   4.257   3.757   9.364 -0.4947  0.1302  0.3125
  137TMC2    H5 2143   4.161   3.735   9.363 -0.4962  0.1482 -0.1511
  138MPD2     C 2144   4.025   3.027   9.562 -0.3653  0.8451  0.6228
  138MPD2    C1 2145   4.049   3.079   9.686 -0.4149  0.3118 -0.5877
  138MPD2    C2 2146   4.040   2.995   9.793 -0.1358 -0.4635 -0.3312
  138MPD2    C3 2147   4.028   2.853   9.776 -0.0522 -0.1410 -0.0818
  138MPD2    C4 2148   4.011   2.803   9.648  0.2046  0.2270 -0.5227
  138MPD2    C5 2149   4.004   2.892   9.543  0.2776  0.2292 -0.2519
  138MPD2     H 2150   4.062   3.038   9.890  0.3321  0.7915 -0.9958
  138MPD2    H1 2151   3.999   2.698   9.624  0.7082 -0.0130  0.2689
  138MPD2    H2 2152   4.009   3.084   9.472  0.7281  0.4067  0.1626
  138MPD2    H3 2153   3.993   2.852   9.443  0.8955  2.8907 -1.3952
  138MPD2     N 2154   4.058   2.775   9.885 -0.5560  0.4642  0.2277
  138MPD2    H5 2155   4.116   2.817   9.957  0.0652 -0.3250  0.1913
  138MPD2    N1 2156   4.068   3.215   9.704 -0.2461  0.5625  0.0248
  138MPD2    H7 2157   4.087   3.235   9.801  1.6653 -1.0129 -0.0244
  139TMC2    C1 2158   4.698   1.282  13.714  0.1725  0.2381 -0.6495
  139TMC2    C2 2159   0.062   1.355  13.655  0.3507  0.1627  0.0782
  139TMC2    C3 2160   0.029   1.434  13.552 -0.3520 -0.6453  0.1958
  139TMC2    C4 2161   4.565   1.299  13.674  0.3550 -0.9681 -0.3126
  139TMC2    C5 2162   4.543   1.389  13.574  0.1022 -0.5559 -0.0033
  139TMC2    C6 2163   4.638   1.457  13.507  0.0133  0.3943 -0.0694
  139TMC2     C 2164   0.011   1.156  13.767  0.9271 -0.4510  0.9836
  139TMC2     O 2165   0.128   1.132  13.752  0.1573 -0.2183  0.5035
  139TMC2     H 2166   0.166   1.340  13.682  0.3270  1.4389  0.9148
  139TMC2    H1 2167   4.476   1.254  13.719 -0.6923  0.4989 -0.9219
  139TMC2    H2 2168   4.615   1.548  13.452  0.4618 -0.5860 -1.8943
  139TMC2    C7 2169   4.408   1.446  13.593  0.0358  0.0805  0.1537
  139TMC2    C8 2170   0.120   1.531  13.504 -0.4327 -0.5807  0.2478
  139TMC2    O1 2171   4.380   1.473  13.707  0.2789  0.1279 -0.4173
  139TMC2    O2 2172   0.136   1.557  13.387  1.1711  0.2608  0.1436
  139TMC2    O5 2173   0.206   1.565  13.604 -0.3434 -0.5059 -0.2397
  139TMC2    H5 2174   0.176   1.559  13.697 -0.9117 -0.5908 -0.4341
  140MPD2     C 2175   4.528   0.872  13.823 -0.8828  0.2399  0.8420
  140MPD2    C1 2176   4.636   0.938  13.774 -0.1114  0.2677 -0.2206
  140MPD2    C2 2177   0.011   0.872  13.727 -0.1065 -0.4385  0.3733
  140MPD2    C3 2178   0.006   0.734  13.717  0.9498 -0.1833  0.2503
  140MPD2    C4 2179   4.627   0.669  13.756 -0.0120 -0.6301 -0.1794
  140MPD2    C5 2180   4.517   0.737  13.802 -0.2807  0.2487 -0.1240
  140MPD2     H 2181   0.102   0.916  13.686 -1.0275  0.8287 -0.2924
  140MPD2    H1 2182   4.611   0.565  13.728  3.6229 -1.4915  0.8723
  140MPD2    H2 2183   4.442   0.915  13.873 -0.4275  1.8532  0.2404
  140MPD2    H3 2184   4.421   0.690  13.819 -0.8317  1.3856 -0.1183
  140MPD2     N 2185   0.110   0.671  13.645 -0.2389 -0.6644  0.6474
  140MPD2    H5 2186   0.187   0.734  13.627 -0.8455 -0.2531 -0.5273
  140MPD2    N1 2187   4.634   1.076  13.795  0.0480 -0.0698 -0.1049
  140MPD2    H7 2188   4.548   1.119  13.827 -0.2919 -1.5431  0.9643
  141TMC2    C1 2189   0.244   2.515  15.144  0.0993 -0.1787 -0.3143
  141TMC2    C2 2190   0.320   2.477  15.248  0.0293  0.4579  0.0297
  141TMC2    C3 2191   0.435   2.550  15.272  0.5171 -0.2503  0.2335
  141TMC2    C4 2192   0.246   2.644  15.094 -0.0362  0.7614 -0.8383
  141TMC2    C5 2193   0.352   2.722  15.145 -0.5556 -0.1101  0.0605
  141TMC2    C6 2194   0.450   2.679  15.225  0.6662  0.5169  0.1047
  141TMC2     C 2195   0.188   2.412  15.061 -0.0662  0.0951  0.0212
  141TMC2     O 2196   0.205   2.297  15.108  0.4418  0.5309 -0.3497
  141TMC2     H 2197   0.323   2.372  15.276  1.8873  0.6744  0.6129
  141TMC2    H1 2198   0.161   2.687  15.042 -0.5488  1.7197  0.7647
  141TMC2    H2 2199   0.530   2.738  15.267  1.2603 -1.0332  1.1654
  141TMC2    C7 2200   0.384   2.829  15.052  0.6589  0.1609 -0.6945
  141TMC2    C8 2201   0.534   2.505  15.365 -0.1438 -0.1788 -0.2242
  141TMC2    O1 2202   0.289   2.890  15.002 -0.6617 -0.3512  0.3347
  141TMC2    O2 2203   0.506   2.442  15.463  0.0376  0.1858  0.2175
  141TMC2    O5 2204   0.636   2.476  15.283 -0.0909  0.1191 -0.6240
  141TMC2    H5 2205   0.628   2.513  15.192 -1.6155 -2.2217 -1.4380
  142TMC2    C1 2206   2.467   1.996  10.387  0.0759 -0.5489  0.9958
  142TMC2    C2 2207   2.357   2.050  10.449 -0.4197 -0.2275 -0.2646
  142TMC2    C3 2208   2.381   2.171  10.509  0.3785 -0.2994  0.0687
  142TMC2    C4 2209   2.585   2.065  10.368 -0.4407 -0.1350 -0.9017
  142TMC2    C5 2210   2.602   2.185  10.432  0.9000  0.5520 -0.6129
  142TMC2    C6 2211   2.504   2.238  10.508 -0.4648 -0.2709  0.2441
  142TMC2     C 2212   2.461   1.863  10.328  0.5761  0.1728 -0.5088
  142TMC2     O 2213   2.343   1.825  10.326 -0.2499  0.0894 -0.3324
  142TMC2     H 2214   2.263   1.996  10.441 -0.2622 -0.9271  2.8668
  142TMC2    H1 2215   2.669   2.034  10.307 -0.1988  0.1692 -0.7242
  142TMC2    H2 2216   2.518   2.329  10.564 -0.0796 -0.5044  0.5317
  142TMC2    C7 2217   2.729   2.253  10.414  0.1193 -0.4229  0.4117
  142TMC2    C8 2218   2.275   2.270  10.503 -0.2038 -0.1518 -0.1265
  142TMC2    O1 2219   2.808   2.193  10.345 -0.2903  0.6213 -0.0527
  142TMC2    O2 2220   2.291   2.393  10.520  0.3443 -0.2483  0.0685
  142TMC2    O5 2221   2.169   2.210  10.551  0.4569  0.4435  0.4376
  142TMC2    H5 2222   2.177   2.112  10.555  1.6152  0.5749  1.7744
  143MPD2     C 2223   2.636   1.427  10.111  0.6457  0.2310  0.2624
  143MPD2    C1 2224   2.515   1.447  10.176  0.0259  0.1260  1.1343
  143MPD2    C2 2225   2.495   1.574  10.230 -0.1367 -0.0522 -0.2450
  143MPD2    C3 2226   2.585   1.676  10.205 -0.2431 -0.0050 -0.7987
  143MPD2    C4 2227   2.697   1.653  10.125 -0.3111 -0.3452 -0.6799
  143MPD2    C5 2228   2.722   1.527  10.077  0.2556  0.4865 -0.2748
  143MPD2     H 2229   2.418   1.601  10.301  0.0951  0.2470 -0.1058
  143MPD2    H1 2230   2.767   1.732  10.099 -0.8274 -0.0330 -1.1218
  143MPD2    H2 2231   2.663   1.327  10.079  2.6555  1.1864 -1.0383
  143MPD2    H3 2232   2.809   1.510  10.015 -0.3794 -2.5214 -0.3640
  143MPD2     N 2233   2.575   1.808  10.263 -0.8734  1.1656  0.2137
  143MPD2    H5 2234   2.649   1.877  10.252 -1.1453  1.5972  1.1389
  143MPD2    N1 2235   2.419   1.347  10.188 -0.4101 -0.3170 -0.3838
  143MPD2    H7 2236   2.444   1.268  10.130  0.2790  0.0058 -0.5214
  144TMC2    C1 2237   1.999   0.149   0.581 -0.5064  0.2399 -0.1619
  144TMC2    C2 2238   2.070   0.076   0.490  0.3104 -0.6019 -1.0470
  144TMC2    C3 2239   2.205   0.074   0.501 -0.0643 -0.4644  0.1324
  144TMC2    C4 2240   2.064   0.235   0.668  0.1786  0.2185 -0.1069
  144TMC2    C5 2241   2.199   0.235   0.676  0.1236  0.1276  0.1354
  144TMC2    C6 2242   2.272   0.146   0.600  0.0288 -0.2325 -0.4321
  144TMC2     C 2243   1.860   0.170   0.546  0.2889  0.5136  0.0198
  144TMC2     O 2244   1.819   0.123   0.439 -0.3786 -0.5598  0.2218
  144TMC2     H 2245   2.015   0.003   0.431  0.8359  0.8604 -3.3468
  144TMC2    H1 2246   2.013   0.286   0.749 -2.1147  0.1028 -1.4753
  144TMC2    H2 2247   2.380   0.137   0.611  0.1276  1.5679  0.2036
  144TMC2    C7 2248   2.278   0.318   0.771  0.2421  0.5781  0.5433
  144TMC2    C8 2249   2.272   4.707   0.425  0.2545  0.1438 -0.1194
  144TMC2    O1 2250   2.400   0.304   0.762 -0.5329  0.2229 -0.0267
  144TMC2    O2 2251   2.203   4.622   0.367  0.1695 -0.1975  0.0545
  144TMC2    O5 2252   2.400   4.730   0.398  0.0753  0.4934 -0.2230
  144TMC2    H5 2253   2.428   0.089   0.411 -0.2137  0.5960 -0.3427
  145MPD2     C 2254   1.384   0.316   0.643  0.1737  0.6660 -0.4062
  145MPD2    C1 2255   1.434   0.240   0.544  0.2180 -0.1422  0.5522
  145MPD2    C2 2256   1.569   0.208   0.537 -0.5425 -0.3885 -0.3300
  145MPD2    C3 2257   1.654   0.266   0.634 -0.3547 -0.7692  0.8645
  145MPD2    C4 2258   1.596   0.344   0.734 -0.5911 -0.9825 -0.2925
  145MPD2    C5 2259   1.467   0.363   0.741  0.1253 -0.0704 -0.3243
  145MPD2     H 2260   1.606   0.143   0.459 -1.2810 -1.8915  0.5771
  145MPD2    H1 2261   1.647   0.383   0.822  0.0379  0.0668 -1.1243
  145MPD2    H2 2262   1.278   0.334   0.658  0.2887  1.0775 -0.1036
  145MPD2    H3 2263   1.417   0.429   0.811 -1.9693 -0.2277 -1.6789
  145MPD2     N 2264   1.796   0.249   0.638 -0.3882  0.3972 -0.2329
  145MPD2    H5 2265   1.849   0.264   0.723 -1.6804 -0.4042  0.7075
  145MPD2    N1 2266   1.348   0.193   0.435 -0.0974 -0.3832 -0.0789
  145MPD2    H7 2267   1.399   0.142   0.364 -1.8147 -0.4256 -1.2638
  146TMC2    C1 2268   2.356   3.279  12.784  0.2668 -1.4807  0.8262
  146TMC2    C2 2269   2.359   3.332  12.659  0.7152 -0.8207  0.0658
  146TMC2    C3 2270   2.477   3.329  12.592 -0.1678  0.9866  0.6453
  146TMC2    C4 2271   2.467   3.243  12.849 -0.1403 -0.7360 -0.8299
  146TMC2    C5 2272   2.586   3.239  12.775 -0.3098  0.4512  0.6545
  146TMC2    C6 2273   2.591   3.286  12.645  0.0119 -0.4870 -0.0463
  146TMC2     C 2274   2.251   3.339  12.867 -0.1105 -0.2088 -0.6591
  146TMC2     O 2275   2.155   3.385  12.807 -0.1435 -0.0380  0.2365
  146TMC2     H 2276   2.271   3.371  12.608  0.9652 -0.9066 -0.4265
  146TMC2    H1 2277   2.470   3.187  12.941 -0.8718 -1.0735 -1.0137
  146TMC2    H2 2278   2.686   3.285  12.594 -0.2283 -1.1452 -0.4835
  146TMC2    C7 2279   2.700   3.162  12.819  0.5855 -0.6957 -0.1036
  146TMC2    C8 2280   2.468   3.391  12.460  0.2280  0.3439 -0.3534
  146TMC2    O1 2281   2.778   3.135  12.728 -0.5726 -0.1646 -0.3269
  146TMC2    O2 2282   2.410   3.498  12.443  0.0162  0.1650  0.1669
  146TMC2    O5 2283   2.571   3.337  12.385  0.0358  0.4828 -0.1012
  146TMC2    H5 2284   2.607   3.251  12.415  0.8372  1.5555  1.9570
  147MPD2     C 2285   3.000   2.936  13.169 -0.3710 -0.2748 -0.8108
  147MPD2    C1 2286   2.878   2.961  13.227 -0.3168  0.3403  0.1341
  147MPD2    C2 2287   2.777   3.021  13.147 -0.4671  0.6535 -0.3207
  147MPD2    C3 2288   2.801   3.046  13.013  0.5613  0.2289 -0.0205
  147MPD2    C4 2289   2.919   3.002  12.952  1.5148  0.1412  0.6342
  147MPD2    C5 2290   3.021   2.949  13.034 -0.3955  0.4054  0.0516
  147MPD2     H 2291   2.683   3.044  13.197  0.1622  0.0334  1.1535
  147MPD2    H1 2292   2.938   3.010  12.846  1.4412  1.7288  0.7453
  147MPD2    H2 2293   3.079   2.889  13.225 -1.3073 -0.5166  0.3013
  147MPD2    H3 2294   3.120   2.925  12.999 -0.8346 -0.7139 -0.4184
  147MPD2     N 2295   2.703   3.122  12.949 -0.0728  0.2519  0.6041
  147MPD2    H5 2296   2.630   3.149  13.014  0.8002  4.6087 -0.2130
  147MPD2    N1 2297   2.868   2.938  13.365 -0.0616  0.3821  0.3385
  147MPD2    H7 2298   2.950   2.904  13.414  0.5083 -1.5840 -1.9585
  148TMC2    C1 2299   2.232   2.644  10.764 -0.1539  0.2644 -0.9009
  148TMC2    C2 2300   2.358   2.695  10.776 -0.0654  0.1510  0.6147
  148TMC2    C3 2301   2.447   2.618  10.849 -0.1794  0.2472 -0.1705
  148TMC2    C4 2302   2.189   2.524  10.811 -0.4501  0.2052  0.8356
  148TMC2    C5 2303   2.284   2.453  10.883  0.2879  0.6820  0.5729
  148TMC2    C6 2304   2.414   2.494  10.895  0.3858 -0.0085 -0.6140
  148TMC2     C 2305   2.155   2.707  10.660  0.0285 -0.6697  0.6008
  148TMC2     O 2306   2.158   2.830  10.653  0.2164 -0.1752  0.0223
  148TMC2     H 2307   2.380   2.780  10.712 -0.3640  0.2929  0.7013
  148TMC2    H1 2308   2.094   2.480  10.784 -1.2716  1.1178  2.2892
  148TMC2    H2 2309   2.498   2.447  10.944  1.1280  1.4244 -0.5194
  148TMC2    C7 2310   2.261   2.318  10.922 -0.3244 -0.5230 -0.5505
  148TMC2    C8 2311   2.585   2.656  10.851 -0.2412  0.3492  0.1596
  148TMC2    O1 2312   2.164   2.266  10.867 -0.2780 -0.8763 -0.1719
  148TMC2    O2 2313   2.677   2.576  10.863 -0.2365  0.6617 -0.1533
  148TMC2    O5 2314   2.595   2.790  10.854  0.1019  0.5259 -0.5640
  148TMC2    H5 2315   2.510   2.839  10.865  0.3629 -0.1426  4.5141
  149MPD2     C 2316   1.993   2.754  10.420  0.7143  0.2089  0.7476
  149MPD2    C1 2317   2.059   2.635  10.446  0.8444 -0.5583 -0.8496
  149MPD2    C2 2318   2.024   2.526  10.365  0.0288  0.2437  0.0116
  149MPD2    C3 2319   1.941   2.539  10.253 -0.0804 -0.4154  0.8965
  149MPD2    C4 2320   1.888   2.663  10.225 -0.1400  0.4445 -0.0202
  149MPD2    C5 2321   1.912   2.768  10.309 -0.3485 -0.5019 -0.0217
  149MPD2     H 2322   2.073   2.432  10.389 -0.1286 -0.1021 -1.0193
  149MPD2    H1 2323   1.817   2.679  10.144  1.5398  0.1438 -1.5321
  149MPD2    H2 2324   2.009   2.845  10.477 -0.3630  0.3196  0.8647
  149MPD2    H3 2325   1.859   2.861  10.297 -1.5508 -1.3441 -1.3439
  149MPD2     N 2326   1.904   2.422  10.180  0.5295 -0.1362  0.3413
  149MPD2    H5 2327   1.812   2.432  10.139 -0.2625 -1.4603  1.7904
  149MPD2    N1 2328   2.124   2.612  10.567  0.5981  0.0881  0.3937
  149MPD2    H7 2329   2.154   2.517  10.588  0.0370  0.0884  1.2329
  150TMC2    C1 2330   4.405   1.633  12.545  0.4346  0.1799 -0.0801
  150TMC2    C2 2331   4.433   1.743  12.470  0.4742  0.2185  0.3568
  150TMC2    C3 2332   4.559   1.797  12.478  0.4224  0.2049  0.3223
  150TMC2    C4 2333   4.501   1.571  12.619 -1.5962  0.6786 -0.0246
  150TMC2    C5 2334   4.630   1.630  12.621 -0.2265  0.0352  0.5148
  150TMC2    C6 2335   4.651   1.749  12.563 -0.5580 -0.4311 -0.1522
  150TMC2     C 2336   4.272   1.587  12.563  0.6771 -0.1138 -0.1476
  150TMC2     O 2337   4.259   1.489  12.635  0.5999 -0.5985  0.2858
  150TMC2     H 2338   4.360   1.793  12.407 -1.7470 -0.5348  2.3380
  150TMC2    H1 2339   4.476   1.494  12.690 -1.2124  0.4230 -0.1648
  150TMC2    H2 2340   0.018   1.786  12.563  0.4743 -3.3045 -0.6971
  150TMC2    C7 2341   4.729   1.594  12.725  0.5989  0.1215  0.4640
  150TMC2    C8 2342   4.590   1.922  12.411  1.1107  0.8541 -0.9124
  150TMC2    O1 2343   0.100   1.656  12.728  0.0124  0.4980 -0.6500
  150TMC2    O2 2344   4.707   1.956  12.387  0.3353  0.8177  0.0247
  150TMC2    O5 2345   4.487   2.005  12.434 -0.1903  0.1893 -0.1775
  150TMC2    H5 2346   4.402   1.964  12.462 -0.0565 -0.7039 -1.0740
  151MPD2     C 2347   3.764   1.604  12.445 -0.6900  0.3987  0.2406
  151MPD2    C1 2348   3.825   1.712  12.384  0.0519 -0.0856  0.0094
  151MPD2    C2 2349   3.964   1.724  12.396 -0.1077  0.0141 -0.1696
  151MPD2    C3 2350   4.042   1.634  12.477 -0.3574  0.4171  0.5878
  151MPD2    C4 2351   3.981   1.524  12.529 -0.5884  0.1694 -0.0912
  151MPD2    C5 2352   3.840   1.520  12.521  0.2251 -0.6426 -0.3354
  151MPD2     H 2353   4.017   1.800  12.340  1.0590 -0.9056 -0.3170
  151MPD2    H1 2354   4.032   1.444  12.581 -1.5153 -0.0148  0.5561
  151MPD2    H2 2355   3.657   1.598  12.432 -0.5608 -1.3615  0.0673
  151MPD2    H3 2356   3.793   1.438  12.575  0.8455 -0.8462 -0.1030
  151MPD2     N 2357   4.177   1.656  12.483  0.2713 -0.3163  0.5421
  151MPD2    H5 2358   4.222   1.734  12.436 -1.5072  1.3370  1.5468
  151MPD2    N1 2359   3.748   1.788  12.292 -0.7159 -0.4902 -0.2044
  151MPD2    H7 2360   3.653   1.755  12.275 -1.1980  1.7901 -1.8742
  152TMC2    C1 2361   4.096   1.411  12.959 -0.3480 -0.0281 -0.6431
  152TMC2    C2 2362   4.184   1.312  12.931 -0.0032 -0.1226  0.3958
  152TMC2    C3 2363   4.317   1.346  12.914  0.2018 -0.4978  0.0951
  152TMC2    C4 2364   4.131   1.538  12.984 -0.8699  0.0505  0.0004
  152TMC2    C5 2365   4.269   1.568  12.973  0.3800 -0.2137  0.6044
  152TMC2    C6 2366   4.369   1.471  12.942  0.1923  0.1208 -0.2804
  152TMC2     C 2367   3.949   1.386  12.955 -0.5330 -0.1785 -0.2474
  152TMC2     O 2368   3.879   1.485  12.953 -0.1839  0.9905  0.1053
  152TMC2     H 2369   4.155   1.219  12.884 -1.0658  0.5210 -0.2175
  152TMC2    H1 2370   4.067   1.623  13.005 -0.8422 -0.3215  1.5962
  152TMC2    H2 2371   4.476   1.489  12.933  0.5750 -1.7551  0.4179
  152TMC2    C7 2372   4.304   1.708  12.946  0.4854  0.6686 -0.1134
  152TMC2    C8 2373   4.408   1.254  12.839 -1.2559  0.1238  0.4380
  152TMC2    O1 2374   4.218   1.793  12.925  0.1458 -0.2607  0.1306
  152TMC2    O2 2375   4.503   1.284  12.773 -0.2604 -0.0124  0.5963
  152TMC2    O5 2376   4.395   1.136  12.897  0.2702  0.0936 -0.2767
  152TMC2    H5 2377   4.320   1.134  12.960 -0.6498 -0.4058 -1.3673
  153MPD2     C 2378   3.779   1.065  12.956 -0.0226 -0.0010  0.0287
  153MPD2    C1 2379   3.789   1.200  12.949 -0.3415  0.3535 -0.2162
  153MPD2    C2 2380   3.689   1.280  12.909  0.0112  0.3255 -0.0911
  153MPD2    C3 2381   3.568   1.229  12.875  0.0710  0.4865 -0.3143
  153MPD2    C4 2382   3.546   1.092  12.903  0.6148 -0.1345 -0.0517
  153MPD2    C5 2383   3.652   1.010  12.938 -0.9009  0.2286 -0.6714
  153MPD2     H 2384   3.715   1.380  12.875  0.4679  0.5447  0.9029
  153MPD2    H1 2385   3.445   1.054  12.896  0.9204 -1.2968  1.7558
  153MPD2    H2 2386   3.866   1.006  12.982  0.1765 -0.1529 -1.0139
  153MPD2    H3 2387   3.647   0.903  12.950 -0.6514  0.6024  2.7568
  153MPD2     N 2388   3.469   1.324  12.828 -0.1660  0.5262  0.0104
  153MPD2    H5 2389   3.491   1.423  12.823  1.0883  0.3296  1.3998
  153MPD2    N1 2390   3.918   1.247  12.958 -0.3604 -0.3610 -0.0842
  153MPD2    H7 2391   3.989   1.179  12.930 -1.5388 -0.8047 -2.0388
  154TMC2    C1 2392   0.515   1.473   0.795  0.0056 -0.5302 -0.1474
  154TMC2    C2 2393   0.437   1.378   0.854  0.4756 -0.5379 -0.2297
  154TMC2    C3 2394   0.458   1.246   0.816 -0.8197  0.0636  0.7030
  154TMC2    C4 2395   0.623   1.444   0.714  0.1679 -0.0433  0.2739
  154TMC2    C5 2396   0.653   1.314   0.700 -0.4161 -0.9953 -1.0891
  154TMC2    C6 2397   0.575   1.214   0.746 -0.6212 -0.3294 -0.3151
  154TMC2     C 2398   0.506   1.614   0.834  0.6445 -1.0062  0.1019
  154TMC2     O 2399   0.608   1.675   0.801 -0.3019  0.2016  0.9842
  154TMC2     H 2400   0.357   1.402   0.923  0.9747  0.9157 -0.1606
  154TMC2    H1 2401   0.682   1.527   0.677  3.0103 -2.0006  0.3642
  154TMC2    H2 2402   0.603   1.110   0.735 -0.1943 -0.2608  0.1262
  154TMC2    C7 2403   0.744   1.264   0.599 -0.5177 -0.2125 -0.3662
  154TMC2    C8 2404   0.412   1.142   0.895  0.1695 -0.1996 -0.3918
  154TMC2    O1 2405   0.785   1.149   0.611 -0.2097  0.0660 -0.0015
  154TMC2    O2 2406   0.461   1.033   0.906 -0.1701  0.1068  0.5189
  154TMC2    O5 2407   0.286   1.168   0.929 -0.1637  0.4716 -0.9481
  154TMC2    H5 2408   0.248   1.247   0.886  0.0939  0.5417 -1.0453
  155MPD2     C 2409   0.278   1.804   1.039  0.3489  0.4788  0.7800
  155MPD2    C1 2410   0.402   1.771   0.988 -0.3185 -0.1387  0.4868
  155MPD2    C2 2411   0.517   1.844   1.011 -0.0231  0.4759 -0.1601
  155MPD2    C3 2412   0.513   1.953   1.096  0.0448  0.8503 -0.6288
  155MPD2    C4 2413   0.388   1.998   1.141 -0.5130  0.2753  0.0206
  155MPD2    C5 2414   0.278   1.925   1.101  0.0672  0.4737  0.1668
  155MPD2     H 2415   0.616   1.815   0.976 -0.0984 -0.4615  0.4164
  155MPD2    H1 2416   0.375   2.083   1.207 -2.4885  0.0139 -0.0526
  155MPD2    H2 2417   0.182   1.754   1.027  0.3058  0.2991  1.8004
  155MPD2    H3 2418   0.182   1.960   1.138 -1.8737 -0.2458 -4.0981
  155MPD2     N 2419   0.636   2.016   1.125 -0.9646 -0.1673  0.2133
  155MPD2    H5 2420   0.716   1.969   1.083  1.0472  1.9156  1.6443
  155MPD2    N1 2421   0.400   1.661   0.906  0.1208 -0.1444  0.1783
  155MPD2    H7 2422   0.319   1.601   0.912  0.5304 -0.7662 -0.5447
  156TMC2    C1 2423   4.214   3.594  11.473 -0.0703 -0.3119  1.1521
  156TMC2    C2 2424   4.349   3.582  11.473 -0.4692 -0.9162 -0.3033
  156TMC2    C3 2425   4.420   3.675  11.405  0.2731  0.0831 -0.1707
  156TMC2    C4 2426   4.157   3.702  11.412 -0.1687  0.0866 -0.0443
  156TMC2    C5 2427   4.235   3.804  11.364 -0.4827 -0.3703 -0.0479
  156TMC2    C6 2428   4.368   3.789  11.353  0.2151  0.5928  0.1142
  156TMC2     C 2429   4.162   3.580  11.610  0.1916  0.7710  0.3968
  156TMC2     O 2430   4.081   3.664  11.647 -0.5480 -0.4421 -0.2768
  156TMC2     H 2431   4.389   3.487  11.507 -1.2939 -0.9734  0.5264
  156TMC2    H1 2432   4.050   3.721  11.404 -0.2768 -1.1206 -1.4363
  156TMC2    H2 2433   4.431   3.868  11.315  0.0234  0.2099 -1.0094
  156TMC2    C7 2434   4.200   3.942  11.389  0.0708 -0.2363  0.9682
  156TMC2    C8 2435   4.564   3.660  11.420 -0.5307  0.0110  0.2588
  156TMC2    O1 2436   4.272   4.027  11.339  0.0132 -0.6929  0.0795
  156TMC2    O2 2437   4.607   3.607  11.523  0.0069  0.7451 -0.2053
  156TMC2    O5 2438   4.634   3.738  11.329  0.2625 -0.2820 -0.2683
  156TMC2    H5 2439   4.576   3.765  11.254  0.3733  3.6630  1.0609
  157MPD2     C 2440   4.189   3.308  11.862 -0.2674  0.3888  0.3746
  157MPD2    C1 2441   4.174   3.438  11.809 -0.1187 -0.1308 -0.3679
  157MPD2    C2 2442   4.170   3.540  11.904  0.8017 -0.4583 -0.1998
  157MPD2    C3 2443   4.151   3.519  12.036  0.0241  0.6008  0.2906
  157MPD2    C4 2444   4.149   3.389  12.081  0.0752 -0.5845  0.5078
  157MPD2    C5 2445   4.171   3.286  11.996  0.5262 -0.1003  0.2608
  157MPD2     H 2446   4.177   3.641  11.865  0.2868 -1.4701 -2.8816
  157MPD2    H1 2447   4.133   3.365  12.186 -1.0109 -0.2617  0.4140
  157MPD2    H2 2448   4.200   3.226  11.793  1.4341  0.3701  0.6714
  157MPD2    H3 2449   4.168   3.183  12.030 -0.6917  0.3214  1.4248
  157MPD2     N 2450   4.147   3.632  12.122  0.4738  0.2515 -0.0384
  157MPD2    H5 2451   4.166   3.721  12.077  1.8667 -0.8312 -1.6345
  157MPD2    N1 2452   4.186   3.458  11.667  0.0339  0.1694 -0.0799
  157MPD2    H7 2453   4.237   3.386  11.617  0.5559 -0.8041  1.8548
  158TMC2    C1 2454   4.356   2.520  13.534 -0.1844  0.2075 -0.2311
  158TMC2    C2 2455   4.346   2.584  13.414 -0.0099 -0.5784 -0.3533
  158TMC2    C3 2456   4.229   2.635  13.389  0.2618  0.3613 -0.2177
  158TMC2    C4 2457   4.244   2.508  13.621 -0.4207  0.1582 -0.7232
  158TMC2    C5 2458   4.128   2.554  13.577  0.3381 -0.5331 -0.0171
  158TMC2    C6 2459   4.115   2.623  13.466  0.6074 -0.7338  0.5605
  158TMC2     C 2460   4.468   2.425  13.552 -0.4637  0.6610  0.4762
  158TMC2     O 2461   4.531   2.394  13.453  0.2495  0.1218  0.1325
  158TMC2     H 2462   4.427   2.598  13.343  0.5282  0.9244  0.5430
  158TMC2    H1 2463   4.256   2.454  13.715  0.7735  1.5587 -0.0770
  158TMC2    H2 2464   4.017   2.665  13.446  0.0131 -1.5567  1.7963
  158TMC2    C7 2465   4.007   2.541  13.660 -0.1884 -0.4398  0.1069
  158TMC2    C8 2466   4.239   2.705  13.267 -0.5536  0.3195  0.0814
  158TMC2    O1 2467   3.929   2.631  13.651 -0.0748  0.2750  0.4833
  158TMC2    O2 2468   4.334   2.768  13.236  0.2101  0.0479  0.0226
  158TMC2    O5 2469   4.112   2.751  13.250  0.0852  0.3396  0.4225
  158TMC2    H5 2470   4.049   2.677  13.265 -1.1364  0.7656 -2.7756
  159MPD2     C 2471   0.001   2.084  13.820 -0.1178 -0.3238  0.1393
  159MPD2    C1 2472   4.636   2.138  13.902  0.2654 -0.2523 -0.1022
  159MPD2    C2 2473   4.544   2.226  13.854  0.1170 -0.2165 -0.9925
  159MPD2    C3 2474   4.553   2.269  13.721 -0.2798  0.4114  0.4393
  159MPD2    C4 2475   4.661   2.228  13.651  0.1582 -0.6565  0.4126
  159MPD2    C5 2476   0.017   2.142  13.704 -0.7627  0.2145  0.7086
  159MPD2     H 2477   4.480   2.276  13.926 -1.0060 -2.3877 -0.4562
  159MPD2    H1 2478   4.680   2.260  13.550 -0.7380  0.4952  0.6103
  159MPD2    H2 2479   0.082   2.025  13.862  0.3266  0.9465  1.0922
  159MPD2    H3 2480   0.094   2.102  13.639 -0.4952  1.0731  0.4867
  159MPD2     N 2481   4.466   2.368  13.673  0.4525  0.1920 -0.5043
  159MPD2    H5 2482   4.402   2.409  13.740 -0.3439  1.3725 -1.9908
  159MPD2    N1 2483   4.623   2.074  14.032  0.0627  0.4098 -0.3115
  159MPD2    H7 2484   4.694   2.003  14.049  0.1000 -0.4602 -4.0906
  160TMC2    C1 2485   0.485   1.202   1.696  0.4505  0.2019 -0.7645
  160TMC2    C2 2486   0.396   1.182   1.797 -0.0852  0.1952 -0.0172
  160TMC2    C3 2487   0.385   1.059   1.854  0.2669  0.1036 -0.4298
  160TMC2    C4 2488   0.561   1.102   1.641  0.1620 -0.6938  0.2812
  160TMC2    C5 2489   0.532   0.979   1.694 -0.5789 -0.2415 -0.0255
  160TMC2    C6 2490   0.461   0.958   1.807  0.4660 -0.0684 -0.0976
  160TMC2     C 2491   0.489   1.330   1.627 -0.0195 -0.8436 -0.2835
  160TMC2     O 2492   0.599   1.352   1.575  0.6235 -0.4865  0.1347
  160TMC2     H 2493   0.322   1.255   1.828 -1.6985 -0.9070 -1.2768
  160TMC2    H1 2494   0.626   1.127   1.558  3.2169  0.3265  2.9775
  160TMC2    H2 2495   0.456   0.861   1.855 -0.2778  0.6775  1.3583
  160TMC2    C7 2496   0.590   0.856   1.635 -0.2127  0.5076  0.5829
  160TMC2    C8 2497   0.282   1.047   1.952  0.4349 -0.0945 -0.3989
  160TMC2    O1 2498   0.580   0.757   1.705  0.1669 -0.4399 -0.3871
  160TMC2    O2 2499   0.232   1.151   1.996 -0.2201 -0.4276 -0.0378
  160TMC2    O5 2500   0.258   0.921   1.986  0.3307  0.4850  0.1127
  160TMC2    H5 2501   0.278   0.866   1.907 -0.7680 -1.2688  1.0559
  161MPD2     C 2502   0.470   1.606   1.542 -0.0695 -0.5589  0.2650
  161MPD2    C1 2503   0.365   1.517   1.551 -0.8884 -0.6889  0.1412
  161MPD2    C2 2504   0.246   1.555   1.496  0.1447  0.5871 -0.0245
  161MPD2    C3 2505   0.232   1.675   1.437  0.0322  0.4061 -0.4079
  161MPD2    C4 2506   0.334   1.773   1.443  0.1359  0.2007 -0.0134
  161MPD2    C5 2507   0.457   1.727   1.484  0.2094  0.2118 -1.2382
  161MPD2     H 2508   0.160   1.489   1.497 -1.2614  2.4258 -0.6432
  161MPD2    H1 2509   0.319   1.871   1.399 -2.6858  0.2445  1.0424
  161MPD2    H2 2510   0.570   1.584   1.580 -0.0078 -0.6735  0.0357
  161MPD2    H3 2511   0.532   1.805   1.492 -0.6986  1.1038 -1.4335
  161MPD2     N 2512   0.117   1.710   1.357 -0.2539 -0.4898 -0.1740
  161MPD2    H5 2513   0.106   1.809   1.338  0.2828 -0.4318 -0.1825
  161MPD2    N1 2514   0.370   1.395   1.614  0.1987 -0.1995 -0.1692
  161MPD2    H7 2515   0.283   1.345   1.628  1.1596 -1.7423  0.2814
  162TMC2    C1 2516   2.415   2.749   1.527 -0.0965  0.0777 -0.1779
  162TMC2    C2 2517   2.304   2.831   1.540 -0.0291 -0.0620 -0.2794
  162TMC2    C3 2518   2.295   2.913   1.646  0.1020  0.5897 -0.0867
  162TMC2    C4 2519   2.514   2.751   1.617  0.1228 -0.5780 -1.2025
  162TMC2    C5 2520   2.506   2.842   1.723  0.3365 -0.2497  0.2187
  162TMC2    C6 2521   2.391   2.915   1.747  0.3576 -0.2847  0.9517
  162TMC2     C 2522   2.436   2.698   1.397  0.4631 -0.2357 -0.4311
  162TMC2     O 2523   2.554   2.702   1.366  0.4407  0.0926 -0.7074
  162TMC2     H 2524   2.231   2.844   1.460 -1.2424  0.2643  0.8872
  162TMC2    H1 2525   2.583   2.668   1.609 -0.0936 -0.6295 -2.5226
  162TMC2    H2 2526   2.380   2.990   1.824  1.4010 -0.2341  1.0474
  162TMC2    C7 2527   2.617   2.854   1.809  0.7251 -0.5046 -0.2434
  162TMC2    C8 2528   2.196   3.014   1.631 -0.1958  1.0945  0.9104
  162TMC2    O1 2529   2.594   2.885   1.926  0.2012 -0.1828  0.1840
  162TMC2    O2 2530   2.159   3.058   1.525  0.1361  0.0867  0.3890
  162TMC2    O5 2531   2.116   3.024   1.747 -0.7106 -0.2231 -0.4117
  162TMC2    H5 2532   2.147   2.950   1.803 -1.0832  0.3424  0.5569
  163MPD2     C 2533   2.303   2.609   0.914 -0.3413  0.1627 -0.3559
  163MPD2    C1 2534   2.421   2.594   0.972  0.3512 -0.8175  0.3714
  163MPD2    C2 2535   2.433   2.629   1.106  0.5736  0.3195 -0.4461
  163MPD2    C3 2536   2.323   2.667   1.178  0.2423  0.6642 -0.6607
  163MPD2    C4 2537   2.197   2.667   1.115  0.0280 -0.0121 -0.2653
  163MPD2    C5 2538   2.187   2.638   0.982  0.1683 -0.7526 -0.2358
  163MPD2     H 2539   2.533   2.632   1.146  0.0634 -0.8251  0.9098
  163MPD2    H1 2540   2.109   2.699   1.168  0.3384 -0.2271  0.3779
  163MPD2    H2 2541   2.279   2.581   0.812 -3.1703 -3.6123  1.3461
  163MPD2    H3 2542   2.092   2.643   0.931  0.6735  3.1584 -0.7263
  163MPD2     N 2543   2.322   2.688   1.323 -0.2712  0.0121 -0.1180
  163MPD2    H5 2544   2.232   2.690   1.368 -1.1407 -1.1896 -1.8118
  163MPD2    N1 2545   2.528   2.544   0.892 -0.0548  1.2631  0.0500
  163MPD2    H7 2546   2.508   2.513   0.798 -0.9163 -1.0275  1.0058
  164TMC2    C1 2547   2.794   2.099  11.125 -0.0498  0.6522  0.3410
  164TMC2    C2 2548   2.928   2.119  11.098 -0.3524 -0.4250  0.3219
  164TMC2    C3 2549   2.975   2.247  11.136 -0.2304 -1.1303 -0.0730
  164TMC2    C4 2550   2.711   2.195  11.169 -0.0297 -0.6426  0.1620
  164TMC2    C5 2551   2.763   2.314  11.206  0.0951 -0.4844 -0.0823
  164TMC2    C6 2552   2.896   2.343  11.191 -0.3169  0.8343  0.2024
  164TMC2     C 2553   2.757   1.957  11.130 -1.1933 -0.9354  0.0709
  164TMC2     O 2554   2.679   1.934  11.223 -0.2779 -0.6674  0.5302
  164TMC2     H 2555   2.996   2.045  11.058 -0.3389  0.8160 -1.9714
  164TMC2    H1 2556   2.611   2.170  11.203 -0.7921  1.4316 -0.5715
  164TMC2    H2 2557   2.933   2.442  11.214 -0.2366  1.3701 -2.2190
  164TMC2    C7 2558   2.656   2.414  11.204  0.3556  0.6250  0.3106
  164TMC2    C8 2559   3.117   2.272  11.109  0.1518  0.7306 -0.5766
  164TMC2    O1 2560   2.563   2.366  11.136 -0.0026  0.1665 -0.2560
  164TMC2    O2 2561   3.169   2.267  10.995 -0.4120 -0.0316  0.2071
  164TMC2    O5 2562   3.141   2.380  11.182 -0.0727  0.3651  0.1519
  164TMC2    H5 2563   3.108   2.374  11.274  1.2640 -0.4901  0.5737
  165TMC2    C1 2564   0.213   0.865   2.348 -0.7547 -0.3225  0.0018
  165TMC2    C2 2565   0.166   0.973   2.405  0.5655  0.5274  0.5111
  165TMC2    C3 2566   0.259   1.069   2.431  0.3928  0.0534 -0.1734
  165TMC2    C4 2567   0.342   0.853   2.293  0.2658 -0.7727 -0.3613
  165TMC2    C5 2568   0.422   0.957   2.307  0.3904  0.9488 -0.0840
  165TMC2    C6 2569   0.385   1.069   2.377 -0.2624  0.4432 -0.1540
  165TMC2     C 2570   0.114   0.796   2.262  0.9199 -0.0186  0.1812
  165TMC2     O 2571   4.734   0.843   2.256 -0.2446 -0.0967  0.6772
  165TMC2     H 2572   0.062   0.997   2.424  0.2811  0.5987 -1.1090
  165TMC2    H1 2573   0.368   0.776   2.221 -0.0487 -0.5744 -0.6829
  165TMC2    H2 2574   0.453   1.145   2.413 -0.0704 -0.5091  1.5028
  165TMC2    C7 2575   0.540   0.964   2.221  0.3661 -0.3005 -0.0499
  165TMC2    C8 2576   0.219   1.193   2.495 -0.3758 -0.8260 -0.2318
  165TMC2    O1 2577   0.574   0.858   2.171 -0.1763  0.2012  0.2268
  165TMC2    O2 2578   0.249   1.308   2.461 -0.4764  0.5380  0.1107
  165TMC2    O5 2579   0.124   1.158   2.591  0.0616  0.3336 -0.0405
  165TMC2    H5 2580   0.112   1.060   2.591 -0.0337  0.3441  1.3426
  166MPD2     C 2581   4.701   0.426   1.940  0.7610  1.0320  0.1105
  166MPD2    C1 2582   4.657   0.555   1.946 -0.8803 -0.3786  0.8754
  166MPD2    C2 2583   4.708   0.644   2.038  0.7629 -0.0582 -0.6747
  166MPD2    C3 2584   0.084   0.603   2.114 -0.2640  0.3226 -0.0752
  166MPD2    C4 2585   0.118   0.474   2.111  0.0428 -0.3401 -0.1918
  166MPD2    C5 2586   0.054   0.381   2.035 -0.2851  0.4125 -0.1960
  166MPD2     H 2587   4.664   0.743   2.043  0.0369 -0.4029 -0.0961
  166MPD2    H1 2588   0.206   0.437   2.163  0.4166 -0.1691 -0.6924
  166MPD2    H2 2589   4.652   0.353   1.877 -0.4387  2.2743 -0.3994
  166MPD2    H3 2590   0.089   0.279   2.045  0.2462  0.6394  0.2427
  166MPD2     N 2591   0.158   0.681   2.208 -0.6828 -0.7577 -0.1521
  166MPD2    H5 2592   0.244   0.635   2.235  0.4039  1.4710  0.2079
  166MPD2    N1 2593   4.553   0.590   1.853  0.1543  0.3787  0.2425
  166MPD2    H7 2594   4.528   0.514   1.790 -0.8648  1.0890 -0.2064
  167TMC2    C1 2595   1.924   1.919  12.354 -0.6751  0.3333 -0.7878
  167TMC2    C2 2596   1.808   1.876  12.285  0.0672 -0.1103  0.2660
  167TMC2    C3 2597   1.745   1.765  12.344 -0.8524 -0.3377  0.2595
  167TMC2    C4 2598   1.970   1.863  12.465  0.8401 -0.4248 -0.6642
  167TMC2    C5 2599   1.906   1.744  12.507 -0.2383  0.8461 -0.5557
  167TMC2    C6 2600   1.798   1.690  12.445 -0.2811  0.3232 -0.6426
  167TMC2     C 2601   1.965   2.049  12.316 -0.0861 -0.3614  0.6227
  167TMC2     O 2602   1.931   2.088  12.207 -0.0461  0.2345 -0.4656
  167TMC2     H 2603   1.764   1.935  12.206 -1.0170  1.7084  2.2062
  167TMC2    H1 2604   2.059   1.901  12.515  0.0949  1.7715 -1.0144
  167TMC2    H2 2605   1.747   1.608  12.494  2.1854 -1.8789 -1.8458
  167TMC2    C7 2606   1.976   1.648  12.594  0.2923 -0.2252 -0.6380
  167TMC2    C8 2607   1.613   1.717  12.298  0.4037 -0.2393 -0.7791
  167TMC2    O1 2608   1.920   1.582  12.681 -0.4294  0.4229  0.2366
  167TMC2    O2 2609   1.579   1.599  12.278 -0.4769 -0.2571  0.9247
  167TMC2    O5 2610   1.541   1.820  12.255 -0.0485 -0.0936  0.1944
  167TMC2    H5 2611   1.556   1.899  12.310 -1.0006  0.6579 -0.6231
  168MPD2     C 2612   2.141   2.295  12.269 -0.0242  0.3893 -0.0701
  168MPD2    C1 2613   2.114   2.236  12.393 -0.0912  0.0887  0.0840
  168MPD2    C2 2614   2.184   2.286  12.503  0.0726  0.1841  0.0517
  168MPD2    C3 2615   2.266   2.396  12.493 -0.4007 -0.0257  0.2268
  168MPD2    C4 2616   2.270   2.464  12.379 -0.3685 -0.0863  0.3248
  168MPD2    C5 2617   2.214   2.412  12.263  0.7128 -0.8843  0.5327
  168MPD2     H 2618   2.166   2.249  12.603 -0.8584 -0.7911 -0.4749
  168MPD2    H1 2619   2.323   2.559  12.371 -2.1397  0.8045 -0.9340
  168MPD2    H2 2620   2.097   2.260  12.177 -0.8406  1.6396 -0.1456
  168MPD2    H3 2621   2.232   2.456  12.165  0.6377 -1.4842  0.2471
  168MPD2     N 2622   2.332   2.458  12.598  0.0396  0.0728 -0.1780
  168MPD2    H5 2623   2.383   2.542  12.572 -1.0715  0.6795 -0.3822
  168MPD2    N1 2624   2.041   2.117  12.410  0.3501  0.7999  0.0992
  168MPD2    H7 2625   2.021   2.089  12.505  0.6925 -0.9871 -0.3502
  169MPD1     C 2626   0.384   2.933   9.085  1.0804 -0.2237 -0.9377
  169MPD1    C1 2627   0.330   2.820   9.025  0.0142 -1.2765  0.3859
  169MPD1    C2 2628   0.321   2.700   9.094  0.0589 -0.1440  0.0418
  169MPD1    C3 2629   0.343   2.707   9.230  0.0290  0.1148 -0.1018
  169MPD1    C4 2630   0.370   2.817   9.297 -0.2792  0.6666 -0.1884
  169MPD1    C5 2631   0.406   2.931   9.219 -0.6873 -0.4406  0.5591
  169MPD1     H 2632   0.297   2.606   9.046 -1.7451  0.6549 -0.6584
  169MPD1    H1 2633   0.370   2.829   9.405 -0.2987 -0.6741 -0.0357
  169MPD1    H2 2634   0.412   3.017   9.022  3.5521 -1.8908 -2.0627
  169MPD1    H3 2635   0.431   3.025   9.266  0.5385  0.5032 -1.9960
  169MPD1     N 2636   0.344   2.582   9.306  0.2166  1.0559 -0.4248
  169MPD1    H5 2637   0.319   2.496   9.259  0.3271 -1.3913  4.0603
  169MPD1    N1 2638   0.320   2.821   8.888  0.1131  0.1389  0.2667
  169MPD1    H6 2639   0.289   2.913   8.857  2.8273  0.9356 -0.1032
  169MPD1    H7 2640   0.253   2.753   8.852  0.7024 -0.4456  0.2676
  170MPD1     C 2641   3.257   4.155  12.914 -0.4653 -0.2621  0.2454
  170MPD1    C1 2642   3.333   4.173  13.027  0.1896  0.3230  0.1144
  170MPD1    C2 2643   3.309   4.277  13.116 -0.9453 -0.1509 -1.0151
  170MPD1    C3 2644   3.223   4.382  13.072  0.1417 -0.5929 -0.0233
  170MPD1    C4 2645   3.166   4.376  12.946  0.0251  0.4884 -0.3382
  170MPD1    C5 2646   3.176   4.256  12.875 -0.6219 -0.5544  0.6821
  170MPD1     H 2647   3.366   4.292  13.207 -1.5313 -0.6099 -0.5686
  170MPD1    H1 2648   3.091   4.449  12.920 -0.1170  0.8154  0.9935
  170MPD1    H2 2649   3.262   4.073  12.843 -0.3954 -0.1189  0.0870
  170MPD1    H3 2650   3.139   4.253  12.773  1.9673 -0.6975 -0.2512
  170MPD1     N 2651   3.175   4.480  13.167  0.2318  0.2232  0.2562
  170MPD1    H5 2652   3.212   4.465  13.260 -0.0609 -0.1408  0.3111
  170MPD1    N1 2653   3.422   4.069  13.067 -0.0922 -0.0921 -0.5360
  170MPD1    H6 2654   3.498   4.120  13.111 -0.7275 -0.2935  0.8003
  170MPD1    H7 2655   3.451   4.024  12.980  0.8486  1.6689 -1.1357
  171MPD1     C 2656   1.677   0.704  15.361 -0.6078  0.4101  0.0293
  171MPD1    C1 2657   1.634   0.575  15.402  0.1634 -0.0713  0.3158
  171MPD1    C2 2658   1.731   0.493  15.459  0.7461 -0.5032  0.0528
  171MPD1    C3 2659   1.856   0.532  15.482  0.3964 -0.5367  0.2765
  171MPD1    C4 2660   1.897   0.665  15.460 -0.1587 -0.4103  1.0082
  171MPD1    C5 2661   1.806   0.743  15.397  0.3207 -0.0454  0.0482
  171MPD1     H 2662   1.697   0.396  15.495 -1.0801 -0.5756 -1.8551
  171MPD1    H1 2663   1.993   0.707  15.489  0.6084 -1.4307 -0.0843
  171MPD1    H2 2664   1.618   0.775  15.305 -0.5263 -0.3948 -1.0718
  171MPD1    H3 2665   1.829   0.846  15.374  0.6279  0.4418  2.5623
  171MPD1     N 2666   1.955   0.445  15.542 -0.4911 -0.5866 -0.3918
  171MPD1    H5 2667   2.048   0.481  15.561 -1.1863  0.3494  1.2507
  171MPD1    N1 2668   1.502   0.527  15.371 -0.0433 -0.4872 -0.6791
  171MPD1    H6 2669   1.435   0.601  15.348  0.8026  1.1339  2.1819
  171MPD1    H7 2670   1.458   0.466  15.438 -0.3866  0.5595  0.0511
  172MPD1     C 2671   1.166   0.405  17.527 -0.7206 -0.0477  0.3200
  172MPD1    C1 2672   1.227   0.516  17.572  0.7411  0.5605  0.5535
  172MPD1    C2 2673   1.304   0.509  17.689  0.0588 -0.1425 -0.9426
  172MPD1    C3 2674   1.323   0.387   0.018  0.6799  0.2585 -0.1016
  172MPD1    C4 2675   1.274   0.276  17.697 -0.5162  0.9133  0.1890
  172MPD1    C5 2676   1.192   0.285  17.589  0.6770  0.0757 -0.1026
  172MPD1     H 2677   1.353   0.600  17.721 -0.5784 -0.7067  1.6572
  172MPD1    H1 2678   1.289   0.175  17.734  1.5759  1.4056  0.6579
  172MPD1    H2 2679   1.096   0.409  17.444 -1.2506  0.5098  0.7944
  172MPD1    H3 2680   1.153   0.196  17.541 -1.7544  1.6541 -1.0115
  172MPD1     N 2681   1.392   0.382   0.142  0.2542 -0.1345 -0.4463
  172MPD1    H5 2682   1.416   0.290   0.176  0.5482  0.7262  1.6749
  172MPD1    N1 2683   1.179   0.639  17.522  0.2051  0.7590 -0.7283
  172MPD1    H6 2684   1.140   0.624  17.429  0.0226  2.0612 -0.8658
  172MPD1    H7 2685   1.251   0.710  17.511  0.2177  0.8519  0.0109
  173MPD1     C 2686   2.552   0.032  13.326  0.2997  0.5865  0.2347
  173MPD1    C1 2687   2.605   4.640  13.339 -0.0076  0.2054  0.3412
  173MPD1    C2 2688   2.578   4.576  13.460 -0.2168  0.4362  0.7621
  173MPD1    C3 2689   2.522   4.642  13.566 -0.0951  0.6459  0.2737
  173MPD1    C4 2690   2.466   0.035  13.547 -0.0303  0.4517 -0.4853
  173MPD1    C5 2691   2.496   0.099  13.431 -0.1214 -0.0185  0.3235
  173MPD1     H 2692   2.606   4.472  13.474 -1.6600 -0.0732 -0.2135
  173MPD1    H1 2693   2.420   0.089  13.629 -0.1063  1.8386 -1.4514
  173MPD1    H2 2694   2.553   0.082  13.229  0.2612  0.7089  0.2971
  173MPD1    H3 2695   2.463   0.198  13.404 -0.3899  0.3722  2.0627
  173MPD1     N 2696   2.523   4.577  13.691  0.5178  0.0122 -0.1251
  173MPD1    H5 2697   2.552   4.480  13.697  1.4323  0.3452  0.8286
  173MPD1    N1 2698   2.649   4.568  13.223  0.1418 -0.2093  0.2012
  173MPD1    H6 2699   2.563   4.533  13.181  0.4299  0.7509 -1.1956
  173MPD1    H7 2700   2.703   4.626  13.159  0.7965 -0.1442  0.8111
  174MPD1     C 2701   1.995   3.836  13.886  0.3571  0.0921 -0.0077
  174MPD1    C1 2702   2.101   3.843  13.965 -0.1557 -0.4986 -0.5976
  174MPD1    C2 2703   2.180   3.954  13.967 -0.0688 -0.6353  0.0172
  174MPD1    C3 2704   2.153   4.061  13.887 -0.5363 -0.0481 -0.1635
  174MPD1    C4 2705   2.038   4.056  13.809  0.6076  0.5343  0.3549
  174MPD1    C5 2706   1.960   3.941  13.808 -0.2983 -0.3747 -0.4915
  174MPD1     H 2707   2.266   3.956  14.032 -1.3055  0.5529  1.6119
  174MPD1    H1 2708   2.020   4.144  13.749  2.3015  0.7480  0.1700
  174MPD1    H2 2709   1.936   3.745  13.882 -1.9856  1.5680  0.7262
  174MPD1    H3 2710   1.869   3.934  13.751 -1.3112  0.8421  0.9664
  174MPD1     N 2711   2.231   4.178  13.888  0.2311  0.1273  0.8120
  174MPD1    H5 2712   2.187   4.256  13.842 -0.1119 -0.2589  0.4867
  174MPD1    N1 2713   2.127   3.742  14.056  0.3035  0.2734 -0.5276
  174MPD1    H6 2714   2.214   3.748  14.108 -0.7753 -0.1176  1.3125
  174MPD1    H7 2715   2.048   3.685  14.087  1.5929 -0.2439  1.8022
  175MPD1     C 2716   0.433   0.334  15.319  0.3201  0.5373 -0.4719
  175MPD1    C1 2717   0.405   0.476  15.330  0.3335 -0.2052 -0.0685
  175MPD1    C2 2718   0.440   0.536  15.451 -0.4988 -0.0005  0.2691
  175MPD1    C3 2719   0.485   0.457  15.553 -0.1343 -0.1293  0.3578
  175MPD1    C4 2720   0.510   0.318  15.536  0.8453 -0.1656  0.3859
  175MPD1    C5 2721   0.477   0.253  15.419  0.0932 -0.3243 -0.0233
  175MPD1     H 2722   0.440   0.644  15.453 -0.1327 -0.0006  0.3780
  175MPD1    H1 2723   0.542   0.254  15.617 -1.9809  0.5718  2.0691
  175MPD1    H2 2724   0.417   0.287  15.223 -0.7393 -0.9233  0.4322
  175MPD1    H3 2725   0.491   0.147  15.402 -1.7436 -0.3928 -1.1393
  175MPD1     N 2726   0.526   0.513  15.679 -0.1797 -0.0689  0.4661
  175MPD1    H5 2727   0.582   0.453  15.739 -1.0473 -1.4223 -0.0824
  175MPD1    N1 2728   0.383   0.555  15.221 -0.0862  0.0733 -0.1007
  175MPD1    H6 2729   0.322   0.631  15.250  0.4875  0.2949  0.5200
  175MPD1    H7 2730   0.329   0.507  15.150  0.0708 -2.3640  1.4399
  176MPD1     C 2731   2.745   3.632   0.718  0.1685  0.1031 -0.4396
  176MPD1    C1 2732   2.875   3.649   0.752  0.5622  0.2031 -0.3822
  176MPD1    C2 2733   2.974   3.643   0.651 -0.3739  0.8755  0.7528
  176MPD1    C3 2734   2.938   3.613   0.519  0.7504 -0.8715  0.2840
  176MPD1    C4 2735   2.801   3.612   0.488  0.1752 -0.6431 -0.0878
  176MPD1    C5 2736   2.704   3.619   0.585  0.8144  0.3951  0.5601
  176MPD1     H 2737   3.075   3.669   0.677  0.0779 -2.5689  2.3907
  176MPD1    H1 2738   2.772   3.622   0.384  0.2141 -0.5955 -0.0940
  176MPD1    H2 2739   2.663   3.643   0.788  2.0928  0.0816  1.8354
  176MPD1    H3 2740   2.599   3.625   0.560  1.2041 -0.8178 -1.2622
  176MPD1     N 2741   3.044   3.640   0.426  0.0676 -1.1568 -0.2928
  176MPD1    H5 2742   3.135   3.659   0.468 -1.7409  1.8219  2.2527
  176MPD1    N1 2743   2.900   3.703   0.879  0.1655 -0.6681 -0.3357
  176MPD1    H6 2744   2.827   3.665   0.940  0.4427  0.4062  0.6591
  176MPD1    H7 2745   2.991   3.672   0.912 -0.4844 -1.8140  0.3940
  177MPD1     C 2746   0.980   2.601  10.450  0.3083 -0.1895  0.0437
  177MPD1    C1 2747   1.019   2.682  10.342 -0.4200  0.4336  0.0249
  177MPD1    C2 2748   0.942   2.691  10.224 -0.7963 -0.1527  0.1349
  177MPD1    C3 2749   0.827   2.609  10.213 -0.4109  0.8326  0.0172
  177MPD1    C4 2750   0.797   2.526  10.318  0.0986 -0.1650 -0.0808
  177MPD1    C5 2751   0.870   2.522  10.432  0.1977 -0.0446 -0.6312
  177MPD1     H 2752   0.977   2.759  10.147 -2.1981  0.3389 -0.0679
  177MPD1    H1 2753   0.718   2.453  10.306 -0.5768  0.3422  1.2873
  177MPD1    H2 2754   1.045   2.592  10.537  2.3987 -3.5222 -1.8928
  177MPD1    H3 2755   0.846   2.449  10.509  2.2785 -1.4299 -1.3061
  177MPD1     N 2756   0.742   2.619  10.099 -0.0976 -0.1569 -0.3547
  177MPD1    H5 2757   0.784   2.668  10.020 -0.9089 -2.7406 -2.3699
  177MPD1    N1 2758   1.129   2.765  10.355  0.8993  0.1041  0.3900
  177MPD1    H6 2759   1.209   2.713  10.392  0.7428  1.4067  2.5000
  177MPD1    H7 2760   1.155   2.794  10.261  0.4908 -0.9078 -0.0437
  178MPD1     C 2761   3.277   3.449   0.472  0.5321  0.0042  0.3731
  178MPD1    C1 2762   3.339   3.571   0.444  0.8311 -0.3089 -0.4589
  178MPD1    C2 2763   3.383   3.590   0.315  0.5331  0.2883 -0.8345
  178MPD1    C3 2764   3.390   3.483   0.224 -0.1882  0.0767  0.3599
  178MPD1    C4 2765   3.340   3.364   0.259 -0.0512 -0.5735 -0.0334
  178MPD1    C5 2766   3.289   3.345   0.383 -1.1383  0.1970 -0.8323
  178MPD1     H 2767   3.430   3.685   0.296 -0.8495  1.2320  0.4697
  178MPD1    H1 2768   3.330   3.290   0.180 -0.6919  0.1629 -0.6496
  178MPD1    H2 2769   3.206   3.443   0.554 -0.6536  1.8211 -0.5307
  178MPD1    H3 2770   3.232   3.256   0.408  0.1881 -0.4295 -0.0453
  178MPD1     N 2771   3.446   3.494   0.095 -0.0314  0.2988  0.4599
  178MPD1    H5 2772   3.444   3.412   0.034 -0.0216  0.9100 -0.3612
  178MPD1    N1 2773   3.308   3.689   0.522 -0.6639 -0.4266  0.1384
  178MPD1    H6 2774   3.309   3.666   0.622  0.8392  3.5799  1.0201
  178MPD1    H7 2775   3.368   3.771   0.514 -0.3693 -0.6238  0.3010
  179MPD1     C 2776   2.796   1.795  15.422  0.5175  0.6640  0.4423
  179MPD1    C1 2777   2.911   1.815  15.495 -0.1323  0.3179 -0.2185
  179MPD1    C2 2778   2.926   1.742  15.610  0.5787 -0.5928  1.1380
  179MPD1    C3 2779   2.848   1.630  15.637 -0.2071  0.3829  0.3234
  179MPD1    C4 2780   2.751   1.600  15.546 -0.3538  0.1346  0.1354
  179MPD1    C5 2781   2.720   1.688  15.448  0.5868  0.1958  0.3490
  179MPD1     H 2782   3.008   1.770  15.676  1.8294 -2.5461  0.3991
  179MPD1    H1 2783   2.687   1.513  15.557  0.7814 -0.5839  1.0861
  179MPD1    H2 2784   2.784   1.850  15.330  3.8852  0.7478  0.0403
  179MPD1    H3 2785   2.635   1.662  15.385 -0.8325 -0.2986  2.4623
  179MPD1     N 2786   2.861   1.538  15.744 -0.5174  0.3442  0.0171
  179MPD1    H5 2787   2.816   1.448  15.727 -1.5341  0.2618  3.0221
  179MPD1    N1 2788   2.993   1.924  15.462  0.1510  0.7461  0.2414
  179MPD1    H6 2789   3.093   1.907  15.471  0.5664  2.4655 -1.1133
  179MPD1    H7 2790   2.986   1.951  15.364  1.2558 -2.4368 -0.7236
  180MPD1     C 2791   2.656   2.393  15.756 -0.1942 -0.4685  0.1565
  180MPD1    C1 2792   2.726   2.478  15.667 -0.5339  0.3757 -0.7222
  180MPD1    C2 2793   2.658   2.501  15.545  0.4805  0.1542 -0.1951
  180MPD1    C3 2794   2.538   2.436  15.511 -0.7192  0.2121 -0.4297
  180MPD1    C4 2795   2.479   2.362  15.607  0.1295 -0.0291  0.4612
  180MPD1    C5 2796   2.536   2.337  15.725  0.0215 -0.6239  0.2549
  180MPD1     H 2797   2.700   2.564  15.467 -0.5137 -0.0475 -0.8840
  180MPD1    H1 2798   2.383   2.313  15.590  0.1094  0.4622 -0.8933
  180MPD1    H2 2799   2.693   2.377  15.857  0.0304 -0.7936  0.0234
  180MPD1    H3 2800   2.490   2.271  15.797 -0.3336 -1.0306 -0.3401
  180MPD1     N 2801   2.478   2.468  15.387 -0.1549  0.2194 -0.3136
  180MPD1    H5 2802   2.522   2.538  15.328 -0.1552  1.3887  1.0718
  180MPD1    N1 2803   2.840   2.539  15.710 -0.2432  0.8479  0.7647
  180MPD1    H6 2804   2.887   2.478  15.776  2.9684  1.8344 -0.6268
  180MPD1    H7 2805   2.905   2.554  15.633 -2.8615 -1.3670 -1.8992
  181MPD1     C 2806   0.034   0.578   9.947 -0.3695 -0.3787 -0.0264
  181MPD1    C1 2807   4.688   0.666  10.014  0.3367  0.1189  0.7544
  181MPD1    C2 2808   4.642   0.618  10.136  0.2967 -0.5552  0.1578
  181MPD1    C3 2809   4.688   0.503  10.197  0.0338 -0.0501  0.1771
  181MPD1    C4 2810   0.037   0.418  10.119 -0.3295  0.4367  0.6856
  181MPD1    C5 2811   0.056   0.445   9.990  0.7621  0.1091  0.3309
  181MPD1     H 2812   4.577   0.686  10.191  0.7856  1.6577 -1.9871
  181MPD1    H1 2813   0.069   0.321  10.156  2.7654  1.1380 -0.1609
  181MPD1    H2 2814   0.068   0.619   9.852 -1.3472  1.6057  0.4793
  181MPD1    H3 2815   0.120   0.390   9.922  1.0551  1.1180 -0.2011
  181MPD1     N 2816   4.654   0.451  10.323  0.3787  0.7438  0.7358
  181MPD1    H5 2817   4.693   0.363  10.357 -1.6553 -0.4884 -0.1248
  181MPD1    N1 2818   4.666   0.794   9.971  0.1566  0.4815  0.2679
  181MPD1    H6 2819   4.646   0.795   9.871  0.9010 -1.2774  0.1050
  181MPD1    H7 2820   4.593   0.849  10.016  0.2363  1.5854 -0.9453
  182MPD1     C 2821   1.234   0.176   2.214 -1.0009 -0.6793 -0.9956
  182MPD1    C1 2822   1.269   0.189   2.087  0.3987 -0.3977 -0.7117
  182MPD1    C2 2823   1.166   0.153   1.990  0.7984  0.1699 -0.5948
  182MPD1    C3 2824   1.054   0.091   2.030 -0.7132 -0.0096  2.1304
  182MPD1    C4 2825   1.030   0.069   2.164 -0.4820 -0.0098  0.0664
  182MPD1    C5 2826   1.117   0.118   2.254 -0.4013 -0.8294  0.9814
  182MPD1     H 2827   1.191   0.159   1.885  1.2241 -0.0721 -0.5068
  182MPD1    H1 2828   0.935   0.034   2.202  0.1916 -1.0626  0.7723
  182MPD1    H2 2829   1.309   0.210   2.286 -0.2925 -1.4563 -1.3686
  182MPD1    H3 2830   1.110   0.104   2.361 -1.7438 -1.1799  0.8469
  182MPD1     N 2831   0.952   0.054   1.937 -0.1478  0.4933  0.3376
  182MPD1    H5 2832   0.861   0.055   1.982  0.7046  2.7012  2.0196
  182MPD1    N1 2833   1.381   0.260   2.050  0.2261 -0.6462 -0.5204
  182MPD1    H6 2834   1.449   0.276   2.124  0.9657  0.6371 -1.4745
  182MPD1    H7 2835   1.436   0.239   1.967 -0.6868 -0.6029 -1.1400
  183MPD1     C 2836   0.043   0.356   8.945  0.8735 -0.0665 -0.8340
  183MPD1    C1 2837   4.676   0.392   9.030  0.2947  1.8720  0.7767
  183MPD1    C2 2838   4.701   0.365   9.161  0.2273  0.6687 -0.2522
  183MPD1    C3 2839   0.076   0.299   9.205 -0.4760  0.2000  0.4904
  183MPD1    C4 2840   0.179   0.267   9.122 -0.3393 -0.4377 -0.3654
  183MPD1    C5 2841   0.149   0.284   8.984  0.0669 -0.5772 -0.2149
  183MPD1     H 2842   4.620   0.388   9.229  0.8639 -2.2504  1.4639
  183MPD1    H1 2843   0.270   0.214   9.145 -1.4704 -1.7147  1.1211
  183MPD1    H2 2844   0.029   0.366   8.838  1.3269 -1.2237 -0.9982
  183MPD1    H3 2845   0.216   0.246   8.908  2.5758  0.3058  1.5270
  183MPD1     N 2846   0.079   0.258   9.342  0.0842 -1.0456  0.0819
  183MPD1    H5 2847   0.002   0.294   9.398 -0.0847 -0.1053 -0.7639
  183MPD1    N1 2848   4.566   0.468   8.989 -0.0515  0.6531  0.1505
  183MPD1    H6 2849   4.545   0.451   8.891  0.6749  2.5889 -0.3396
  183MPD1    H7 2850   4.482   0.452   9.045  0.2977 -1.8788 -0.0396
  184MPD1     C 2851   4.358   2.277  10.134  0.0581  0.5144 -0.1333
  184MPD1    C1 2852   4.268   2.277  10.028  0.1330  0.4077  0.2222
  184MPD1    C2 2853   4.292   2.359   9.923 -0.4222 -0.4391 -0.1484
  184MPD1    C3 2854   4.395   2.453   9.929  0.3069  0.1421 -0.3078
  184MPD1    C4 2855   4.481   2.454  10.031 -0.0799 -0.4101  0.1541
  184MPD1    C5 2856   4.469   2.361  10.134  0.7646  0.3937  0.1391
  184MPD1     H 2857   4.225   2.360   9.838 -0.2762  0.8554 -0.2463
  184MPD1    H1 2858   4.558   2.530  10.042 -0.3439 -0.2418  0.8282
  184MPD1    H2 2859   4.339   2.212  10.219  0.6151 -0.2877 -0.6307
  184MPD1    H3 2860   4.540   2.351  10.215  1.9824 -0.4209 -1.0362
  184MPD1     N 2861   4.428   2.546   9.830 -0.2279 -0.4235  0.0751
  184MPD1    H5 2862   4.495   2.618   9.857  0.2612 -0.2174 -1.7083
  184MPD1    N1 2863   4.175   2.175  10.011 -0.1720  0.3222  0.3561
  184MPD1    H6 2864   4.104   2.206   9.945  1.1997  0.8048 -0.9137
  184MPD1    H7 2865   4.130   2.160  10.101  0.0523 -0.6323  0.3090
  185MPD1     C 2866   4.313   2.632   8.810  0.3327  0.0315  0.2161
  185MPD1    C1 2867   4.387   2.744   8.862  0.4584  0.4343 -0.0754
  185MPD1    C2 2868   4.388   2.772   8.994 -0.5856 -0.6433  0.5760
  185MPD1    C3 2869   4.318   2.689   9.085  0.4112  0.2517  0.2404
  185MPD1    C4 2870   4.256   2.579   9.035  0.2581 -0.3639  0.2164
  185MPD1    C5 2871   4.246   2.552   8.900  0.0642 -0.6985  0.1559
  185MPD1     H 2872   4.451   2.853   9.030 -1.7225 -0.1366  1.4084
  185MPD1    H1 2873   4.223   2.506   9.109  0.0296 -1.3461 -0.8539
  185MPD1    H2 2874   4.321   2.597   8.708  0.3524 -0.2023  0.2976
  185MPD1    H3 2875   4.205   2.458   8.866  0.0026 -1.0066  1.0853
  185MPD1     N 2876   4.319   2.706   9.227 -0.2359 -0.0671 -0.3937
  185MPD1    H5 2877   4.274   2.628   9.273  1.2006  0.8011  2.4889
  185MPD1    N1 2878   4.473   2.819   8.776  0.3758 -0.2842 -0.4879
  185MPD1    H6 2879   4.485   2.917   8.803  2.4242 -0.8987  0.7997
  185MPD1    H7 2880   4.452   2.807   8.677 -1.9317  0.9526 -0.1519
  186MPD1     C 2881   3.834   1.590  16.010  0.3203  0.0860  0.1153
  186MPD1    C1 2882   3.777   1.540  16.127 -0.3489  0.2752 -0.6165
  186MPD1    C2 2883   3.698   1.620  16.208 -0.3820  0.3440 -0.1476
  186MPD1    C3 2884   3.670   1.752  16.166  0.8291 -0.0737  0.7527
  186MPD1    C4 2885   3.722   1.797  16.049  0.0616 -0.5911  0.0211
  186MPD1    C5 2886   3.803   1.716  15.973  0.5843 -0.1541 -0.7930
  186MPD1     H 2887   3.659   1.582  16.302  0.1851  0.7635  0.2645
  186MPD1    H1 2888   3.686   1.893  16.014  2.0402 -0.2936 -1.1700
  186MPD1    H2 2889   3.894   1.527  15.945  0.6215 -1.5270  1.9190
  186MPD1    H3 2890   3.836   1.748  15.874 -0.8466  2.0839 -0.5468
  186MPD1     N 2891   3.595   1.846  16.248  1.2202  0.0246 -0.4465
  186MPD1    H5 2892   3.593   1.941  16.210  1.0539  0.1196 -0.1991
  186MPD1    N1 2893   3.807   1.416  16.182  0.2627 -0.2384 -0.0206
  186MPD1    H6 2894   3.744   1.389  16.257  1.3295 -3.6063 -0.3482
  186MPD1    H7 2895   3.819   1.341  16.114  0.7560  0.3621 -0.5922
  187MPD1     C 2896   3.409   4.587   0.134 -0.1010  0.4257 -0.1199
  187MPD1    C1 2897   3.380   4.451   0.127  0.2108  0.0494  0.6985
  187MPD1    C2 2898   3.353   4.401   0.001 -0.4642  0.1969  0.0293
  187MPD1    C3 2899   3.340   4.484  17.631  0.0586  0.0341  0.6198
  187MPD1    C4 2900   3.356   4.621  17.648 -0.3396  0.2776 -0.2058
  187MPD1    C5 2901   3.389   4.671   0.032 -0.0877  0.5603  0.1589
  187MPD1     H 2902   3.335   4.294  17.729 -1.3808  0.2867  0.8374
  187MPD1    H1 2903   3.338   4.686  17.562 -1.3139 -0.4076 -0.5305
  187MPD1    H2 2904   3.443   4.631   0.227 -0.4738 -1.8687  1.1286
  187MPD1    H3 2905   3.405   0.044   0.039  1.4418  0.2860  0.7369
  187MPD1     N 2906   3.298   4.443  17.498 -0.6033 -0.1073 -0.5632
  187MPD1    H5 2907   3.266   4.512  17.432  1.7420  1.3940 -0.1253
  187MPD1    N1 2908   3.413   4.364   0.237 -0.0866 -0.4211  0.3465
  187MPD1    H6 2909   3.369   4.273   0.227 -0.9485  0.0653 -0.2947
  187MPD1    H7 2910   3.388   4.402   0.329 -0.9897  1.0031 -0.4958
  188MPD1     C 2911   2.490   3.639  10.301 -0.7305 -0.7985  0.0863
  188MPD1    C1 2912   2.382   3.637  10.216  0.3112  0.0361 -0.5303
  188MPD1    C2 2913   2.301   3.525  10.211 -0.7136 -1.1061  0.0664
  188MPD1    C3 2914   2.300   3.431  10.308 -0.4355 -0.3225  0.5423
  188MPD1    C4 2915   2.407   3.436  10.394 -0.3832  1.2709 -0.1691
  188MPD1    C5 2916   2.496   3.541  10.399  0.1469 -0.3496  0.3894
  188MPD1     H 2917   2.217   3.523  10.143 -1.1506  2.6825  0.4821
  188MPD1    H1 2918   2.438   3.345  10.444  0.8565  0.2685 -2.7957
  188MPD1    H2 2919   2.552   3.728  10.297  0.0095 -1.3485 -0.5124
  188MPD1    H3 2920   2.580   3.536  10.467  0.1887 -0.9359  0.2947
  188MPD1     N 2921   2.229   3.317  10.303 -0.4266  0.5447  0.0175
  188MPD1    H5 2922   2.237   3.245  10.374  0.1077  1.4747  0.9040
  188MPD1    N1 2923   2.369   3.734  10.111  0.4150 -0.3276  0.9068
  188MPD1    H6 2924   2.400   3.825  10.145 -0.3481  0.7439 -1.2692
  188MPD1    H7 2925   2.271   3.744  10.085 -0.4570 -5.2726  2.3490
  189MPD1     C 2926   0.026   4.240   0.286 -0.7132  0.5410 -0.1482
  189MPD1    C1 2927   4.645   4.250   0.218  0.0600 -0.2759  0.5639
  189MPD1    C2 2928   4.576   4.370   0.220  0.2232  0.3399  0.0531
  189MPD1    C3 2929   4.636   4.479   0.278  0.2870  0.1115  0.2615
  189MPD1    C4 2930   0.012   4.469   0.356 -0.5837 -0.0018 -0.2564
  189MPD1    C5 2931   0.074   4.347   0.358  0.3845  0.9717  0.3809
  189MPD1     H 2932   4.491   4.375   0.153 -0.5421  0.6007  1.0466
  189MPD1    H1 2933   0.062   4.554   0.402 -1.3317 -0.5618  1.5905
  189MPD1    H2 2934   0.084   4.150   0.301 -3.1084 -0.7804  1.2628
  189MPD1    H3 2935   0.162   4.331   0.420  0.7067  0.5123 -0.1963
  189MPD1     N 2936   4.564   4.594   0.271 -0.3431 -0.4852  0.4722
  189MPD1    H5 2937   4.479   4.591   0.216  0.9690  1.5994 -1.6648
  189MPD1    N1 2938   4.577   4.132   0.170 -0.1987 -0.4197  0.4250
  189MPD1    H6 2939   4.512   4.151   0.094  0.1263 -1.8164 -0.2184
  189MPD1    H7 2940   4.653   4.067   0.150 -0.8353 -1.3753  1.0752
  190MPD1     C 2941   2.508   3.057  15.609  0.0378  0.3647 -0.0437
  190MPD1    C1 2942   2.509   2.937  15.677 -0.3684 -0.4057 -0.5192
  190MPD1    C2 2943   2.623   2.866  15.680 -0.1555  0.4300  0.5145
  190MPD1    C3 2944   2.740   2.912  15.624 -0.1648 -0.0596 -0.1738
  190MPD1    C4 2945   2.731   3.027  15.539  0.3446 -0.1740 -0.3135
  190MPD1    C5 2946   2.616   3.090  15.536  0.0993 -0.1611  0.5211
  190MPD1     H 2947   2.634   2.782  15.748 -0.6925  1.5502  2.0063
  190MPD1    H1 2948   2.814   3.071  15.486 -0.4322  0.8487 -0.6821
  190MPD1    H2 2949   2.422   3.120  15.593  0.1841  1.3350  2.9691
  190MPD1    H3 2950   2.608   3.179  15.475 -2.9430 -0.3255  0.6695
  190MPD1     N 2951   2.860   2.859  15.667 -0.0752  0.5182  0.8449
  190MPD1    H5 2952   2.857   2.778  15.728 -0.2598 -0.0666  0.0632
  190MPD1    N1 2953   2.403   2.903  15.763 -0.5674  0.0275 -0.6057
  190MPD1    H6 2954   2.406   2.808  15.798 -1.2878  0.0211 -0.5622
  190MPD1    H7 2955   2.314   2.945  15.738 -0.3388 -0.4477 -2.2043
  191MPD1     C 2956   2.117   3.611  12.537  0.6695  0.3627 -0.2795
  191MPD1    C1 2957   2.071   3.694  12.638 -0.3401  0.6358  1.1579
  191MPD1    C2 2958   2.071   3.830  12.619 -0.2115  0.4106  0.1153
  191MPD1    C3 2959   2.124   3.885  12.505 -0.1783  0.3506  0.5626
  191MPD1    C4 2960   2.162   3.800  12.401 -0.6751 -1.1040 -0.2457
  191MPD1    C5 2961   2.162   3.661  12.420  0.8777 -0.3302 -0.7659
  191MPD1     H 2962   2.038   3.887  12.704  0.7105  0.4116  0.4715
  191MPD1    H1 2963   2.211   3.834  12.311  1.6929 -0.9423  1.1190
  191MPD1    H2 2964   2.111   3.503  12.542 -2.4360  0.5928  1.1487
  191MPD1    H3 2965   2.199   3.595  12.343  0.0381  0.8496 -2.1955
  191MPD1     N 2966   2.132   4.028  12.497 -0.7161  0.0840 -0.3771
  191MPD1    H5 2967   2.091   4.075  12.577  1.9091  1.6604  0.0336
  191MPD1    N1 2968   2.017   3.638  12.752 -0.3505  0.0906  0.7401
  191MPD1    H6 2969   2.011   3.709  12.824 -0.7473  0.2057  0.5896
  191MPD1    H7 2970   2.072   3.557  12.781  1.9666  1.2087 -0.4891
  192MPD1     C 2971   1.838   4.425  13.123  0.2467 -0.4111  0.2457
  192MPD1    C1 2972   1.860   4.535  13.049  0.0631  0.5259  0.1138
  192MPD1    C2 2973   1.941   4.533  12.936  1.7288 -0.1048 -0.2955
  192MPD1    C3 2974   2.013   4.419  12.906  0.3818 -1.2835 -0.5747
  192MPD1    C4 2975   2.010   4.315  12.996 -0.0340 -0.1373 -0.0842
  192MPD1    C5 2976   1.917   4.314  13.101 -0.6318  0.5435 -0.0438
  192MPD1     H 2977   1.942   4.623  12.875  3.5732 -0.6987 -1.1403
  192MPD1    H1 2978   2.067   4.228  12.966  1.4502  1.0831 -0.8070
  192MPD1    H2 2979   1.759   4.417  13.197  0.0078  0.6370  0.1088
  192MPD1    H3 2980   1.891   4.217  13.141  2.2311 -1.2756 -2.6636
  192MPD1     N 2981   2.084   4.404  12.786 -0.5675  0.6907 -0.3199
  192MPD1    H5 2982   2.141   4.321  12.776 -2.7022 -0.4423 -2.7843
  192MPD1    N1 2983   1.777   4.650  13.071 -0.4429 -0.1694 -0.0118
  192MPD1    H6 2984   1.816   4.733  13.026  0.9474 -1.2496 -0.8067
  192MPD1    H7 2985   1.765   4.666  13.171  2.0258 -0.8184  0.3949
  193MPD1     C 2986   1.811   0.384  16.275 -0.3197  0.4651 -0.1951
  193MPD1    C1 2987   1.927   0.316  16.263  0.3721  0.4316 -1.0265
  193MPD1    C2 2988   2.035   0.367  16.339 -0.3597 -0.1463 -0.5355
  193MPD1    C3 2989   2.022   0.476  16.423 -0.8594 -0.3691  0.9432
  193MPD1    C4 2990   1.906   0.546  16.424  0.5297  0.5111  0.2198
  193MPD1    C5 2991   1.805   0.497  16.352 -0.4026 -0.7419 -0.1424
  193MPD1     H 2992   2.131   0.317  16.337  0.5289  1.5275  0.5855
  193MPD1    H1 2993   1.899   0.638  16.481  0.4581  0.7375 -0.1588
  193MPD1    H2 2994   1.721   0.355  16.223 -0.1986  0.9756 -0.6882
  193MPD1    H3 2995   1.717   0.559  16.363  0.1129 -0.0395  0.0296
  193MPD1     N 2996   2.131   0.503  16.511 -0.0084 -0.0620 -0.6218
  193MPD1    H5 2997   2.204   0.432  16.511 -1.2704 -1.3519  2.8377
  193MPD1    N1 2998   1.944   0.218  16.163  0.1600  0.2562 -0.1381
  193MPD1    H6 2999   1.862   0.160  16.145 -0.0709  0.1071  1.3831
  193MPD1    H7 3000   2.026   0.161  16.181  0.0243 -0.7484 -2.6988
  194MPD1     C 3001   1.125   2.723  16.944  0.5036  0.1738 -0.0815
  194MPD1    C1 3002   1.006   2.706  16.876  1.0174 -0.0122  0.0113
  194MPD1    C2 3003   0.909   2.623  16.928 -0.3428  0.0901  0.2458
  194MPD1    C3 3004   0.926   2.551  17.044 -0.5128  0.0119 -0.7705
  194MPD1    C4 3005   1.045   2.565  17.109 -0.8702 -0.7272  0.2736
  194MPD1    C5 3006   1.139   2.653  17.061  0.1958 -0.7074  0.0890
  194MPD1     H 3007   0.814   2.632  16.877  0.6960  0.9258 -1.5205
  194MPD1    H1 3008   1.063   2.522  17.207  3.3708 -0.2797 -0.3181
  194MPD1    H2 3009   1.201   2.786  16.900 -1.2417  1.3194 -1.4649
  194MPD1    H3 3010   1.236   2.668  17.108  0.4952 -0.7773 -0.5054
  194MPD1     N 3011   0.828   2.469  17.103 -0.2152 -0.2361 -1.1685
  194MPD1    H5 3012   0.858   2.421  17.188  0.7847 -0.8307 -1.8566
  194MPD1    N1 3013   0.979   2.793  16.766  0.8483 -0.2951 -0.6272
  194MPD1    H6 3014   1.058   2.823  16.709  0.6591 -1.1292 -1.3473
  194MPD1    H7 3015   0.900   2.766  16.706 -0.7736 -0.8985  1.7795
  195MPD1     C 3016   2.090   0.119   1.005  0.1900  0.1327 -0.2150
  195MPD1    C1 3017   1.996   0.045   0.943  0.0665  0.3949  0.2938
  195MPD1    C2 3018   2.037   4.664   0.875  0.1734  1.2147  0.1522
  195MPD1    C3 3019   2.171   4.632   0.864 -0.3606 -0.0661  0.1361
  195MPD1    C4 3020   2.266   4.711   0.928  0.0850 -0.6219 -0.2596
  195MPD1    C5 3021   2.220   0.080   0.997  0.0092 -0.4017  0.2470
  195MPD1     H 3022   1.961   4.602   0.828  0.3406  0.9211  0.2742
  195MPD1    H1 3023   2.373   4.693   0.925  0.2023  0.1208 -0.6378
  195MPD1    H2 3024   2.068   0.200   1.074 -0.6005 -0.3754  0.1280
  195MPD1    H3 3025   2.295   0.139   1.048  1.7323 -1.5755 -0.9590
  195MPD1     N 3026   2.214   4.522   0.796 -0.2533  0.2167 -0.2775
  195MPD1    H5 3027   2.310   4.490   0.807 -1.1231 -1.4961  2.4708
  195MPD1    N1 3028   1.866   0.092   0.934  0.3068 -0.5139  0.5179
  195MPD1    H6 3029   1.835   0.151   1.011 -0.7032 -0.3642 -0.0052
  195MPD1    H7 3030   1.797   0.019   0.923  1.3618 -1.6066  1.1569
  196MPD1     C 3031   1.639   3.600   0.715  0.1654 -0.5352 -0.6416
  196MPD1    C1 3032   1.756   3.588   0.784 -0.0186  1.1610 -0.0826
  196MPD1    C2 3033   1.784   3.680   0.888  0.4529  0.1451  0.0782
  196MPD1    C3 3034   1.698   3.784   0.918 -0.2412 -0.5089 -0.4305
  196MPD1    C4 3035   1.581   3.797   0.845 -0.0135 -0.1118  0.2518
  196MPD1    C5 3036   1.554   3.703   0.752 -0.6155  0.2813  0.2539
  196MPD1     H 3037   1.862   3.650   0.957  1.4398  0.9980 -0.6715
  196MPD1    H1 3038   1.494   3.859   0.865  0.0503  0.5299 -1.5148
  196MPD1    H2 3039   1.610   3.539   0.630  0.0607 -0.7240 -0.4705
  196MPD1    H3 3040   1.457   3.722   0.707 -0.2880  0.3807 -0.4221
  196MPD1     N 3041   1.715   3.874   1.026  0.2981  0.0864 -0.1171
  196MPD1    H5 3042   1.632   3.928   1.048 -0.4892 -0.3254 -2.0266
  196MPD1    N1 3043   1.841   3.473   0.761  0.3944  0.3750 -0.0366
  196MPD1    H6 3044   1.836   3.441   0.665  1.9430  3.0406 -1.0102
  196MPD1    H7 3045   1.928   3.468   0.813  0.2037  2.4177  0.4911
  197MPD1     C 3046   0.717   0.251  17.218 -0.6277  0.2806  0.1187
  197MPD1    C1 3047   0.798   0.304  17.306 -0.8466  1.1751 -0.8572
  197MPD1    C2 3048   0.853   0.422  17.267 -0.4212 -0.0165 -0.2259
  197MPD1    C3 3049   0.799   0.491  17.156  0.4813 -0.5070  0.5679
  197MPD1    C4 3050   0.707   0.434  17.077 -0.2400  0.3862 -0.9389
  197MPD1    C5 3051   0.660   0.310  17.104  0.6454 -0.2068 -0.3660
  197MPD1     H 3052   0.926   0.471  17.330  0.0484  0.2885 -1.0104
  197MPD1    H1 3053   0.666   0.478  16.986  0.0032  1.7638 -0.3805
  197MPD1    H2 3054   0.690   0.147  17.227 -0.5916  0.3428  0.9650
  197MPD1    H3 3055   0.594   0.252  17.040 -0.2181 -0.7022  0.9769
  197MPD1     N 3056   0.856   0.611  17.109 -0.3232  0.0358  0.4507
  197MPD1    H5 3057   0.816   0.658  17.030  0.5172 -0.6374 -0.3780
  197MPD1    N1 3058   0.865   0.235  17.404  0.2349  0.4881  0.2787
  197MPD1    H6 3059   0.799   0.165  17.437  1.8742 -1.2617 -0.0965
  197MPD1    H7 3060   0.898   0.301  17.475  1.5241 -0.4915  0.6049
  198MPD1     C 3061   2.838   3.235  15.097  0.2821  0.3068 -0.3250
  198MPD1    C1 3062   2.873   3.197  15.226 -0.4701  0.6821  1.5310
  198MPD1    C2 3063   2.859   3.279  15.332 -0.1996  0.1324 -0.5569
  198MPD1    C3 3064   2.813   3.412  15.313  0.4773  0.2741  0.4517
  198MPD1    C4 3065   2.783   3.450  15.179  0.4580 -0.2114  0.0624
  198MPD1    C5 3066   2.799   3.369  15.078 -0.1341 -0.3703 -0.2767
  198MPD1     H 3067   2.890   3.240  15.429 -2.2181 -0.9392 -0.3467
  198MPD1    H1 3068   2.757   3.549  15.142 -0.2232 -1.1845 -2.0490
  198MPD1    H2 3069   2.852   3.181  15.004 -0.4325  0.0624 -0.2970
  198MPD1    H3 3070   2.773   3.386  14.974  2.3879  2.4084 -0.4560
  198MPD1     N 3071   2.809   3.511  15.422  0.5161  0.6482 -0.0513
  198MPD1    H5 3072   2.835   3.468  15.510 -0.0778 -2.3524 -1.3556
  198MPD1    N1 3073   2.917   3.063  15.249 -0.3997 -0.0547  0.1033
  198MPD1    H6 3074   2.961   3.046  15.340  0.0744 -1.2425 -0.3447
  198MPD1    H7 3075   2.979   3.031  15.175 -1.4645  1.2915 -1.3726
  199MPD1     C 3076   0.084   0.962  10.409  0.1791 -0.3271  0.8719
  199MPD1    C1 3077   0.132   1.097  10.420  0.0146 -0.7236 -0.0054
  199MPD1    C2 3078   0.067   1.187  10.331  0.1391  0.3926  0.2906
  199MPD1    C3 3079   4.698   1.151  10.241 -0.2057  1.1244 -0.1708
  199MPD1    C4 3080   4.655   1.020  10.236  0.3891 -0.2860  0.1358
  199MPD1    C5 3081   4.726   0.933  10.314  0.7831 -0.0241  0.4548
  199MPD1     H 3082   0.104   1.288  10.317  3.2152 -0.9490 -1.5126
  199MPD1    H1 3083   4.590   0.997  10.152  0.7500  0.9439 -0.4837
  199MPD1    H2 3084   0.131   0.885  10.468 -0.8861  0.0739  2.2576
  199MPD1    H3 3085   4.700   0.828  10.314  2.9400 -0.5629  0.8048
  199MPD1     N 3086   4.631   1.228  10.144 -0.0524 -0.1717 -0.7486
  199MPD1    H5 3087   4.566   1.179  10.083 -1.8787  3.1192 -1.4992
  199MPD1    N1 3088   0.249   1.127  10.486  0.5420 -0.3176  0.0718
  199MPD1    H6 3089   0.258   1.077  10.574 -0.9937  3.6436  2.4704
  199MPD1    H7 3090   0.254   1.224  10.516  1.5110 -0.6261  0.9120
  200MPD1     C 3091   3.442   0.335  15.606  0.8208 -0.7393  0.0047
  200MPD1    C1 3092   3.415   0.291  15.474 -0.5290  0.1861  0.8748
  200MPD1    C2 3093   3.487   0.353  15.374  1.0370  0.3061 -0.1948
  200MPD1    C3 3094   3.591   0.442  15.406 -0.3099  0.2330  0.1598
  200MPD1    C4 3095   3.613   0.483  15.532  0.8416  0.5146 -0.4095
  200MPD1    C5 3096   3.541   0.425  15.631 -1.0124  0.0595  0.0532
  200MPD1     H 3097   3.463   0.328  15.272  0.6630 -1.7701  0.4022
  200MPD1    H1 3098   3.688   0.557  15.557  1.2580 -0.9311  2.5735
  200MPD1    H2 3099   3.392   0.303  15.696  0.4799 -0.2757 -0.0168
  200MPD1    H3 3100   3.545   0.466  15.731 -0.2567 -0.9369  0.4346
  200MPD1     N 3101   3.679   0.489  15.297 -0.1241  0.3023  0.1913
  200MPD1    H5 3102   3.664   0.456  15.203  1.2609  0.4356 -0.0799
  200MPD1    N1 3103   3.291   0.225  15.438  0.5798 -0.4439 -0.2672
  200MPD1    H6 3104   3.276   0.161  15.516 -0.4913 -0.1328 -0.2232
  200MPD1    H7 3105   3.309   0.166  15.358  0.9385 -0.3734 -0.2399
  201MPD1     C 3106   1.117   4.067  12.888  0.1525  0.6608 -0.4234
  201MPD1    C1 3107   1.050   4.075  13.007 -0.1342  0.3677  0.6847
  201MPD1    C2 3108   1.089   3.991  13.106 -0.3078  0.1808  0.3347
  201MPD1    C3 3109   1.184   3.891  13.090 -0.0111  0.5337  0.0178
  201MPD1    C4 3110   1.241   3.874  12.963  0.7605  0.0558  0.2464
  201MPD1    C5 3111   1.198   3.955  12.861 -0.6356 -0.7250  0.2918
  201MPD1     H 3112   1.041   4.004  13.203  0.0734 -2.4967  0.8915
  201MPD1    H1 3113   1.311   3.795  12.938 -0.8486 -1.1531 -0.4945
  201MPD1    H2 3114   1.092   4.138  12.810 -0.2562 -0.4288 -1.2705
  201MPD1    H3 3115   1.239   3.940  12.762 -0.8153  1.2015 -0.0943
  201MPD1     N 3116   1.203   3.807  13.204 -0.3748 -0.8073 -0.6812
  201MPD1    H5 3117   1.160   3.823  13.295  1.0922  0.7811 -0.2603
  201MPD1    N1 3118   0.980   4.191  13.040  0.4587 -0.2813  0.2439
  201MPD1    H6 3119   0.927   4.227  12.961  0.8601  1.8356  0.9430
  201MPD1    H7 3120   0.919   4.165  13.116 -1.0918 -0.0114 -0.9164
  202MPD1     C 3121   0.653   4.257   8.951 -0.2037 -0.0016 -0.0697
  202MPD1    C1 3122   0.666   4.121   8.963  0.5157  0.0635 -0.9306
  202MPD1    C2 3123   0.711   4.075   9.086 -0.1978 -0.4159  0.1541
  202MPD1    C3 3124   0.726   4.166   9.190  0.2327  0.1337 -0.0707
  202MPD1    C4 3125   0.705   4.299   9.173  0.4261  0.4600 -0.6750
  202MPD1    C5 3126   0.657   4.343   9.053 -0.0992  0.5103 -0.0722
  202MPD1     H 3127   0.732   3.970   9.106 -0.2364 -0.7033 -1.3723
  202MPD1    H1 3128   0.713   4.364   9.260  1.5234 -0.7772  0.1547
  202MPD1    H2 3129   0.631   4.299   8.853  1.9588 -0.9281 -0.9581
  202MPD1    H3 3130   0.643   4.451   9.046 -0.9367  0.2558 -2.4038
  202MPD1     N 3131   0.757   4.130   9.324 -0.2984  0.0031  0.4341
  202MPD1    H5 3132   0.736   4.199   9.396  0.2941  0.3207  0.2962
  202MPD1    N1 3133   0.703   4.046   8.849  0.0060 -0.4111  0.1609
  202MPD1    H6 3134   0.621   4.058   8.790 -0.5334  1.9400  1.3967
  202MPD1    H7 3135   0.701   3.948   8.880  1.4872 -0.1024  1.1964
  203MPD1     C 3136   4.541   4.138  12.144  0.3205 -0.1162  0.6024
  203MPD1    C1 3137   4.579   4.016  12.101  0.1121 -0.0443  0.2840
  203MPD1    C2 3138   4.688   3.964  12.162  0.1899 -0.1603  0.4011
  203MPD1    C3 3139   0.031   4.026  12.258  0.0365 -0.0564  0.8841
  203MPD1    C4 3140   4.730   4.153  12.288 -0.2744  0.2429  0.4366
  203MPD1    C5 3141   4.616   4.209  12.232 -0.5081  0.0007 -0.5493
  203MPD1     H 3142   4.716   3.862  12.136 -2.8292 -0.9853  0.3292
  203MPD1    H1 3143   0.055   4.225  12.343  0.5613  0.5881 -0.9190
  203MPD1    H2 3144   4.451   4.182  12.102 -0.3369 -0.6739  1.4078
  203MPD1    H3 3145   4.586   4.311  12.256  2.5830  1.1851 -1.7104
  203MPD1     N 3146   0.127   3.957  12.328  0.0867  0.0334  0.5669
  203MPD1    H5 3147   0.145   3.857  12.319  0.3338  0.2177 -0.8729
  203MPD1    N1 3148   4.498   3.938  12.017  0.7145 -0.3373 -0.1780
  203MPD1    H6 3149   4.468   4.004  11.946 -0.4200  0.9042  1.4540
  203MPD1    H7 3150   4.549   3.859  11.980  0.5883 -0.7616  0.5596
  204MPD1     C 3151   0.107   1.614   0.117 -0.1943  0.3280  0.1332
  204MPD1    C1 3152   0.172   1.598  17.734  0.1968  0.6254 -0.2349
  204MPD1    C2 3153   0.201   1.479  17.687  0.5629 -0.4551 -0.1945
  204MPD1    C3 3154   0.180   1.364   0.023 -0.5111  0.0101  0.0680
  204MPD1    C4 3155   0.106   1.372   0.140  0.1742  0.3171 -0.1290
  204MPD1    C5 3156   0.076   1.500   0.190  0.4279 -0.0739 -0.5902
  204MPD1     H 3157   0.248   1.467  17.590 -2.1734  0.2168 -1.6028
  204MPD1    H1 3158   0.080   1.279   0.190  1.5724 -0.1225 -0.2182
  204MPD1    H2 3159   0.086   1.716   0.145  1.5880  1.2701 -2.0196
  204MPD1    H3 3160   0.015   1.504   0.280  1.5816 -0.5977  0.2153
  204MPD1     N 3161   0.213   1.240  17.702 -0.2912  0.2441  0.0986
  204MPD1    H5 3162   0.268   1.238  17.617  1.7265  2.7186  1.3062
  204MPD1    N1 3163   0.182   1.710  17.658  0.0377  0.1541  0.5613
  204MPD1    H6 3164   0.212   1.790  17.714 -0.4139  0.4644  0.3603
  204MPD1    H7 3165   0.255   1.689  17.590 -0.6945  0.7688 -0.4267
  205MPD1     C 3166   4.343   4.643  17.023  0.0433 -0.0743 -0.1507
  205MPD1    C1 3167   4.342   4.532  17.098 -0.3578 -0.7402  0.5033
  205MPD1    C2 3168   4.402   4.531  17.222 -0.9516 -0.3642  0.5390
  205MPD1    C3 3169   4.477   4.642  17.269 -0.3713 -0.4710 -0.1999
  205MPD1    C4 3170   4.469   0.020  17.188  0.1884 -0.1023  0.5247
  205MPD1    C5 3171   4.399   0.022  17.072 -0.6370 -0.4576  0.0773
  205MPD1     H 3172   4.394   4.437  17.276  2.1783 -0.9184 -0.0021
  205MPD1    H1 3173   4.515   0.113  17.217 -0.7904 -0.4743  3.2812
  205MPD1    H2 3174   4.280   4.647  16.935 -1.7378  1.1020  1.1939
  205MPD1    H3 3175   4.382   0.114  17.016  0.6475  0.7878  1.7500
  205MPD1     N 3176   4.545   4.657  17.394  0.7044 -0.6290 -0.6955
  205MPD1    H5 3177   4.588   0.013  17.410 -1.4088  0.4777 -1.3425
  205MPD1    N1 3178   4.263   4.421  17.062 -0.6271 -0.4936  0.2469
  205MPD1    H6 3179   4.293   4.329  17.092  1.6121  0.8697  2.2096
  205MPD1    H7 3180   4.277   4.419  16.961 -2.9361  1.9103 -0.1183
  206MPD1     C 3181   4.486   2.248  16.811  0.3275  0.4878 -0.0950
  206MPD1    C1 3182   4.491   2.387  16.821 -0.4952  0.0398 -0.0990
  206MPD1    C2 3183   4.469   2.465  16.713 -0.6379 -0.1240 -0.1798
  206MPD1    C3 3184   4.461   2.407  16.587  1.1931  0.5373  0.2741
  206MPD1    C4 3185   4.460   2.268  16.580  0.0248 -0.6588 -0.5511
  206MPD1    C5 3186   4.463   2.189  16.690 -0.6547 -0.6603  0.5086
  206MPD1     H 3187   4.466   2.573  16.721 -0.4161 -0.1743  0.5525
  206MPD1    H1 3188   4.449   2.211  16.488  1.2341 -0.8915 -0.5453
  206MPD1    H2 3189   4.477   2.182  16.897  0.8193  0.8966  0.2731
  206MPD1    H3 3190   4.445   2.083  16.675 -1.8602  0.0253 -2.7879
  206MPD1     N 3191   4.450   2.474  16.459 -0.1795 -0.2486 -0.4068
  206MPD1    H5 3192   4.437   2.415  16.377 -0.8197 -1.2291  0.3990
  206MPD1    N1 3193   4.493   2.444  16.949  0.4827  0.1930 -0.3482
  206MPD1    H6 3194   4.511   2.544  16.945  0.9254  0.1542  0.5937
  206MPD1    H7 3195   4.564   2.408  17.013 -0.1874 -1.5477 -0.6000
  207MPD1     C 3196   1.444   1.419  10.001  0.3643 -0.2536  0.1440
  207MPD1    C1 3197   1.455   1.357  10.120 -0.2488  0.7027 -0.2755
  207MPD1    C2 3198   1.583   1.313  10.164  0.1161  0.0691  0.1228
  207MPD1    C3 3199   1.693   1.317  10.081 -0.0865  0.4988 -0.1713
  207MPD1    C4 3200   1.671   1.372   9.956 -0.2546 -0.0134  0.5928
  207MPD1    C5 3201   1.555   1.440   9.924  0.3626  0.4620  0.0843
  207MPD1     H 3202   1.584   1.277  10.267 -0.5075  0.3783  0.2398
  207MPD1    H1 3203   1.750   1.386   9.883 -0.1883 -1.4448  0.3938
  207MPD1    H2 3204   1.350   1.458   9.965  0.0346 -0.9252  0.2824
  207MPD1    H3 3205   1.545   1.487   9.827 -2.2321  1.6604  0.9169
  207MPD1     N 3206   1.817   1.279  10.124 -0.2864  0.2088  0.1368
  207MPD1    H5 3207   1.890   1.305  10.058  0.5279 -0.0911  0.9193
  207MPD1    N1 3208   1.344   1.360  10.205 -0.7221  0.0194  0.2106
  207MPD1    H6 3209   1.349   1.272  10.256 -2.0165  0.9255  1.9063
  207MPD1    H7 3210   1.251   1.356  10.163 -0.6632 -0.2730  0.1093
  208MPD1     C 3211   1.708   4.568   0.649  0.2843 -0.5266 -0.3060
  208MPD1    C1 3212   1.640   4.555   0.765  0.0434  0.4847 -0.3584
  208MPD1    C2 3213   1.502   4.526   0.755  0.3321 -0.0917  0.2515
  208MPD1    C3 3214   1.439   4.511   0.631  0.3278  0.0560 -0.1259
  208MPD1    C4 3215   1.518   4.505   0.514  0.6952 -0.5750  0.0455
  208MPD1    C5 3216   1.656   4.531   0.532 -0.0791  0.1897 -0.6872
  208MPD1     H 3217   1.442   4.521   0.845 -1.8390  0.2425 -1.1791
  208MPD1    H1 3218   1.476   4.505   0.414  1.1778  0.3806 -0.1556
  208MPD1    H2 3219   1.809   4.608   0.652  1.3332 -3.2106 -0.0405
  208MPD1    H3 3220   1.713   4.546   0.441 -0.7123  1.4968 -0.8601
  208MPD1     N 3221   1.301   4.485   0.638  0.0155  0.7166 -0.4906
  208MPD1    H5 3222   1.258   4.499   0.730 -0.7297 -0.7932 -0.6007
  208MPD1    N1 3223   1.696   4.591   0.893 -0.6547  0.5672 -0.0180
  208MPD1    H6 3224   1.650   4.544   0.971  0.0119 -2.3746 -1.4248
  208MPD1    H7 3225   1.788   4.547   0.896 -0.6238  0.8370  2.9535
  209MPD1     C 3226   2.908   4.312  10.554  0.2138  0.2473 -0.2670
  209MPD1    C1 3227   2.925   4.386  10.667 -0.0447  0.3277 -0.5155
  209MPD1    C2 3228   2.854   4.509  10.676 -0.3016 -0.1627 -0.0891
  209MPD1    C3 3229   2.792   4.564  10.568  0.0278 -0.8222 -0.3345
  209MPD1    C4 3230   2.784   4.489  10.451 -0.0974  0.6695 -0.2801
  209MPD1    C5 3231   2.839   4.365  10.446 -0.9337 -0.2822 -0.1878
  209MPD1     H 3232   2.850   4.566  10.768 -0.2823 -1.1008  0.4902
  209MPD1    H1 3233   2.741   4.526  10.359 -0.5551  0.1759 -0.2639
  209MPD1    H2 3234   2.956   4.215  10.554  0.2422  0.2619  0.4766
  209MPD1    H3 3235   2.837   4.313  10.351 -0.2214  0.4868 -0.6226
  209MPD1     N 3236   2.729   4.689  10.588  0.3444  0.8788 -0.3441
  209MPD1    H5 3237   2.734   4.728  10.681 -2.8566  0.6500 -0.1006
  209MPD1    N1 3238   2.994   4.331  10.772  0.0044  0.0608  0.0261
  209MPD1    H6 3239   3.044   4.401  10.826 -3.8429  2.0111  1.1174
  209MPD1    H7 3240   3.071   4.269  10.750  0.5222  1.1288 -1.1608
  210MPD1     C 3241   2.436   0.120  11.351 -0.2939  0.4970 -0.2145
  210MPD1    C1 3242   2.345   0.204  11.287 -0.2075 -0.8529 -0.3773
  210MPD1    C2 3243   2.353   0.218  11.147 -0.2404  0.2127 -0.6618
  210MPD1    C3 3244   2.450   0.153  11.074  0.2997  0.2726  0.2856
  210MPD1    C4 3245   2.540   0.067  11.140 -0.4802 -0.9393 -0.4928
  210MPD1    C5 3246   2.527   0.049  11.278 -0.0418  0.6015  0.4580
  210MPD1     H 3247   2.288   0.279  11.085 -0.3159  1.0120  0.2119
  210MPD1    H1 3248   2.623   0.013  11.095 -1.0740 -0.8312 -1.7313
  210MPD1    H2 3249   2.450   0.098  11.456  0.2818  1.2195 -0.1421
  210MPD1    H3 3250   2.597   4.717  11.328 -0.5457 -1.2856 -1.2856
  210MPD1     N 3251   2.467   0.158  10.936 -0.3102  0.3132 -0.2549
  210MPD1    H5 3252   2.551   0.113  10.901 -2.3693 -2.7671 -1.3011
  210MPD1    N1 3253   2.238   0.247  11.362 -0.1576 -0.3404  0.4813
  210MPD1    H6 3254   2.189   0.326  11.322 -2.4148 -1.2985  1.3451
  210MPD1    H7 3255   2.262   0.286  11.453  2.0513  0.3495 -0.4041
  211MPD1     C 3256   4.705   4.070  17.182  0.2687 -1.1574 -0.6206
  211MPD1    C1 3257   4.686   4.199  17.234  0.1349 -0.2306  0.6917
  211MPD1    C2 3258   4.656   4.300  17.149 -0.2897  0.4248  0.3806
  211MPD1    C3 3259   4.620   4.267  17.018  0.0786 -0.2765  0.2108
  211MPD1    C4 3260   4.634   4.137  16.970  0.1309  0.8434 -0.7294
  211MPD1    C5 3261   4.682   4.046  17.052 -0.1345  0.1466 -0.0203
  211MPD1     H 3262   4.650   4.402  17.186  0.5696 -0.0712  1.8914
  211MPD1    H1 3263   4.611   4.115  16.866  3.1238  2.6253 -1.7922
  211MPD1    H2 3264   4.732   3.983  17.241  0.4474 -0.6375  0.0660
  211MPD1    H3 3265   4.702   3.946  17.014 -2.0420 -1.0123  2.0059
  211MPD1     N 3266   4.585   4.371  16.937  0.3456  0.7024 -0.0494
  211MPD1    H5 3267   4.600   4.464  16.976  2.2430  0.1948  0.4430
  211MPD1    N1 3268   4.727   4.222  17.365  0.3711  0.9810  0.6763
  211MPD1    H6 3269   4.682   4.298  17.414 -2.1030  0.3807 -0.6573
  211MPD1    H7 3270   4.717   4.139  17.424 -1.4759 -0.2975 -1.4159
  212MPD1     C 3271   4.121   2.959  16.655  0.1132 -0.2314  0.4867
  212MPD1    C1 3272   4.042   3.008  16.761  0.0080 -0.2207  0.2313
  212MPD1    C2 3273   3.987   2.922  16.852  0.0360  0.4506  0.1612
  212MPD1    C3 3274   4.006   2.787  16.841  0.9696 -0.2842  0.4577
  212MPD1    C4 3275   4.082   2.741  16.736  0.4884 -0.2030  0.2385
  212MPD1    C5 3276   4.133   2.823  16.639 -0.6548  0.2136  0.8715
  212MPD1     H 3277   3.935   2.955  16.941 -0.9745 -0.6117 -0.0421
  212MPD1    H1 3278   4.115   2.638  16.733 -0.7717 -0.5689 -1.1310
  212MPD1    H2 3279   4.182   3.022  16.592  1.2307 -2.0766 -0.2820
  212MPD1    H3 3280   4.194   2.786  16.558 -0.9018  1.0921  0.2836
  212MPD1     N 3281   3.953   2.693  16.936  0.2628  0.2856  0.4818
  212MPD1    H5 3282   3.975   2.595  16.918 -1.5915  0.2054 -1.3587
  212MPD1    N1 3283   4.051   3.148  16.788 -0.2743 -0.4668 -0.3882
  212MPD1    H6 3284   4.059   3.202  16.702 -0.9576 -0.3132 -0.3539
  212MPD1    H7 3285   3.976   3.180  16.848  0.4499 -0.8498  0.7215
  213MPD1     C 3286   2.157   3.136  15.754  0.2310 -0.6504  0.4579
  213MPD1    C1 3287   2.030   3.076  15.742  0.3017 -0.3895 -0.6118
  213MPD1    C2 3288   1.978   3.088  15.616  0.5447  0.1131  0.8230
  213MPD1    C3 3289   2.019   3.188  15.535 -0.0003  0.0500  0.1199
  213MPD1    C4 3290   2.120   3.271  15.570 -0.1081 -0.3337  0.1718
  213MPD1    C5 3291   2.194   3.237  15.679  0.0128  0.7256  0.3393
  213MPD1     H 3292   1.907   3.010  15.592  0.1026  0.1948  1.8544
  213MPD1    H1 3293   2.155   3.349  15.503  0.6454 -0.2672  0.6469
  213MPD1    H2 3294   2.215   3.127  15.845  4.1051 -2.7871 -2.2690
  213MPD1    H3 3295   2.276   3.304  15.704  1.4816 -1.1099  0.4072
  213MPD1     N 3296   1.952   3.198  15.406 -0.7862  0.5960  0.6901
  213MPD1    H5 3297   1.872   3.139  15.385  0.0163 -0.8010  1.5074
  213MPD1    N1 3298   2.008   2.959  15.822  0.0673  0.7469 -0.0949
  213MPD1    H6 3299   1.912   2.928  15.835  0.5237  0.0563  1.6298
  213MPD1    H7 3300   2.049   2.982  15.912 -1.0315 -1.6275  1.0078
  214MPD1     C 3301   1.108   3.221  15.305 -0.7177  0.1598  0.6855
  214MPD1    C1 3302   1.154   3.338  15.252  0.2183 -0.8909  0.0879
  214MPD1    C2 3303   1.287   3.337  15.209 -0.0303  0.1298 -0.1432
  214MPD1    C3 3304   1.375   3.239  15.248  0.0961 -0.2559  0.2146
  214MPD1    C4 3305   1.323   3.133  15.319  0.4435  0.0629  0.0579
  214MPD1    C5 3306   1.187   3.118  15.348  1.1842  0.0270  0.2527
  214MPD1     H 3307   1.329   3.418  15.151 -0.8375  0.9602  0.4387
  214MPD1    H1 3308   1.383   3.046  15.344 -1.6931 -1.1463  0.8944
  214MPD1    H2 3309   1.006   3.218  15.342 -1.3821  1.1506 -1.0920
  214MPD1    H3 3310   1.153   3.027  15.397  2.6823 -0.9567 -0.5364
  214MPD1     N 3311   1.519   3.255  15.224 -0.0194  0.1759  0.1300
  214MPD1    H5 3312   1.583   3.189  15.266 -0.6799 -2.3640 -2.8083
  214MPD1    N1 3313   1.062   3.440  15.212  0.1644  0.7270 -0.1253
  214MPD1    H6 3314   0.991   3.433  15.284 -0.1126  0.3549 -0.4367
  214MPD1    H7 3315   1.098   3.535  15.199 -1.0533  1.4012  1.4225
  215MPD1     C 3316   2.886   3.564  10.796 -0.1252  0.9092 -0.2559
  215MPD1    C1 3317   2.929   3.641  10.900  0.2254 -0.5706  0.1566
  215MPD1    C2 3318   2.895   3.777  10.889  0.1080  0.0535 -0.4469
  215MPD1    C3 3319   2.817   3.831  10.790  0.8582 -0.0451  0.6848
  215MPD1    C4 3320   2.760   3.741  10.696 -0.2128 -0.6527  0.4879
  215MPD1    C5 3321   2.804   3.610  10.693 -0.7040  0.0042  0.1292
  215MPD1     H 3322   2.921   3.836  10.976  1.3044  0.2681 -0.9565
  215MPD1    H1 3323   2.685   3.771  10.624 -0.9840 -1.2297  1.0456
  215MPD1    H2 3324   2.917   3.460  10.791  0.2536  0.9032  2.5642
  215MPD1    H3 3325   2.781   3.551  10.605 -0.9016  0.5178 -0.1593
  215MPD1     N 3326   2.783   3.965  10.792 -0.6285 -0.2164 -0.0361
  215MPD1    H5 3327   2.815   4.012  10.876 -0.6388  1.1694 -0.8087
  215MPD1    N1 3328   3.022   3.592  10.995 -0.5218 -0.0081 -0.0219
  215MPD1    H6 3329   3.038   3.649  11.078 -2.8860  0.2264  0.2933
  215MPD1    H7 3330   3.000   3.500  11.032  0.2598  0.3284  1.2972
  216MPD1     C 3331   3.776   2.329   1.200  0.0109  0.0810  0.3040
  216MPD1    C1 3332   3.893   2.274   1.238  0.0370  0.0917  1.2650
  216MPD1    C2 3333   3.968   2.210   1.147  0.0775  0.4962 -0.4310
  216MPD1    C3 3334   3.928   2.175   1.021 -0.6081 -1.0670  0.5223
  216MPD1    C4 3335   3.806   2.218   0.988 -0.9233  0.9368 -0.0374
  216MPD1    C5 3336   3.731   2.300   1.073  0.6756 -0.4706  0.2520
  216MPD1     H 3337   4.054   2.157   1.186 -1.4567 -0.0057  2.2914
  216MPD1    H1 3338   3.767   2.194   0.890  0.2477  2.2086 -0.8194
  216MPD1    H2 3339   3.714   2.397   1.257  1.1656  1.4632 -0.0921
  216MPD1    H3 3340   3.629   2.324   1.046  0.5674 -0.3159  0.7906
  216MPD1     N 3341   4.017   2.100   0.945  0.5309  0.2328  0.6133
  216MPD1    H5 3342   4.111   2.087   0.981  0.7227 -1.8356 -0.6109
  216MPD1    N1 3343   3.941   2.300   1.367 -0.8805 -0.2142 -0.3647
  216MPD1    H6 3344   4.006   2.231   1.404 -1.7178 -1.0648 -0.4910
  216MPD1    H7 3345   3.866   2.319   1.433  0.5399  2.8347  0.3514
  217MPD1     C 3346   4.568   4.325   8.140  0.0364 -0.3275  0.2686
  217MPD1    C1 3347   4.576   4.430   8.227 -0.0590  0.0132 -0.1511
  217MPD1    C2 3348   4.609   4.401   8.358 -0.5318  0.8900 -0.6482
  217MPD1    C3 3349   4.623   4.274   8.406 -0.5224 -0.4268  0.4757
  217MPD1    C4 3350   4.606   4.174   8.319  0.8321 -0.1122  0.3286
  217MPD1    C5 3351   4.577   4.202   8.190 -1.0546  0.1884 -0.5166
  217MPD1     H 3352   4.622   4.489   8.419 -0.8970  2.0848 -2.3104
  217MPD1    H1 3353   4.601   4.069   8.348  0.1581  0.2049  1.3575
  217MPD1    H2 3354   4.536   4.337   8.037 -0.4103  0.9527  0.5540
  217MPD1    H3 3355   4.555   4.120   8.123 -0.0124  0.3538 -1.0534
  217MPD1     N 3356   4.645   4.244   8.547  0.0455 -0.0742  0.0982
  217MPD1    H5 3357   4.665   4.148   8.573  2.7635  0.2689 -0.7094
  217MPD1    N1 3358   4.586   4.559   8.173 -0.0981  0.6626 -0.0315
  217MPD1    H6 3359   4.549   4.626   8.240 -0.7377  0.2381  0.0395
  217MPD1    H7 3360   4.541   4.567   8.082  1.7023  0.0459 -0.9605
  218MPD1     C 3361   1.233   4.606  13.209 -0.0825  0.8973 -0.0805
  218MPD1    C1 3362   1.349   4.566  13.262  0.2780  0.5328  0.4336
  218MPD1    C2 3363   1.449   4.526  13.171  0.2902 -0.2927  0.5810
  218MPD1    C3 3364   1.427   4.539  13.033  0.1586 -0.1636 -0.4603
  218MPD1    C4 3365   1.303   4.572  12.985 -0.2852  0.1486  0.6303
  218MPD1    C5 3366   1.210   4.608  13.076  0.0427 -0.8274  0.1805
  218MPD1     H 3367   1.538   4.484  13.215 -1.5553 -2.6459  2.0683
  218MPD1    H1 3368   1.270   4.573  12.882  1.2548  0.1849  0.1319
  218MPD1    H2 3369   1.145   4.632  13.266  0.9802  2.5730  0.8028
  218MPD1    H3 3370   1.111   4.626  13.037 -0.2694 -3.5765 -0.2881
  218MPD1     N 3371   1.522   4.480  12.938  0.0051  0.0968  0.3739
  218MPD1    H5 3372   1.612   4.455  12.979 -0.2596 -1.7824 -0.2160
  218MPD1    N1 3373   1.363   4.541  13.403 -0.7189 -1.0260 -0.3490
  218MPD1    H6 3374   1.459   4.550  13.435 -1.4587  0.5169  1.4263
  218MPD1    H7 3375   1.307   4.578  13.479 -2.6437 -3.0115 -0.7976
  219MPD1     C 3376   2.063   4.454  11.998  0.3875  0.0349  0.1909
  219MPD1    C1 3377   2.012   4.559  12.063  0.4544 -0.1776  0.3649
  219MPD1    C2 3378   1.932   4.534  12.175 -0.5836 -0.2521  0.6948
  219MPD1    C3 3379   1.910   4.404  12.225  0.3318 -0.2565  0.0163
  219MPD1    C4 3380   1.962   4.301  12.157  0.6050 -0.6570 -0.0783
  219MPD1    C5 3381   2.044   4.322  12.042  0.1859  0.2018  0.8241
  219MPD1     H 3382   1.897   4.623  12.227 -0.6815  0.6403 -0.8919
  219MPD1    H1 3383   1.953   4.203  12.204 -2.3590 -0.5550 -0.3920
  219MPD1    H2 3384   2.124   4.465  11.908  1.0322 -0.0445  0.6163
  219MPD1    H3 3385   2.086   4.239  11.987 -0.2583 -0.3205  1.2850
  219MPD1     N 3386   1.845   4.376  12.345  0.1692 -0.7203  0.3681
  219MPD1    H5 3387   1.832   4.278  12.368 -0.2560 -0.3858  1.5609
  219MPD1    N1 3388   2.008   4.692  12.011 -0.6436 -0.1600 -0.2225
  219MPD1    H6 3389   2.007   0.029  12.082  0.6547  0.5591 -0.9272
  219MPD1    H7 3390   2.097   4.715  11.966  1.2981 -2.4079  2.4560
  220MPD1     C 3391   2.095   0.709  11.363  0.0096 -0.4288 -1.0134
  220MPD1    C1 3392   2.109   0.763  11.240  0.1339  0.1152  0.6895
  220MPD1    C2 3393   2.071   0.694  11.127 -0.6342 -0.2761 -0.1589
  220MPD1    C3 3394   2.036   0.560  11.134  0.5102  0.2952 -0.1748
  220MPD1    C4 3395   2.032   0.496  11.257  1.0746  0.0044 -0.1483
  220MPD1    C5 3396   2.057   0.573  11.371  0.0120 -0.1197  0.7551
  220MPD1     H 3397   2.084   0.739  11.029 -0.2809  0.5739  0.2803
  220MPD1    H1 3398   1.998   0.395  11.273  0.1674  1.0150  4.3345
  220MPD1    H2 3399   2.122   0.767  11.450  0.2805 -0.2017 -1.2467
  220MPD1    H3 3400   2.040   0.524  11.466  0.6478  1.7176  1.8224
  220MPD1     N 3401   1.990   0.501  11.017  0.4994 -0.2093  0.0196
  220MPD1    H5 3402   1.994   0.566  10.939  0.0226 -0.4892 -0.2355
  220MPD1    N1 3403   2.146   0.895  11.226  0.5812 -0.3781 -0.2920
  220MPD1    H6 3404   2.206   0.923  11.303 -0.1842 -2.2709  0.9714
  220MPD1    H7 3405   2.194   0.924  11.141 -1.2805  1.4928 -0.6944
  221MPD1     C 3406   4.039   3.743  16.415  0.2865  0.4309 -0.2124
  221MPD1    C1 3407   4.124   3.762  16.519 -0.4515 -0.9173  0.1090
  221MPD1    C2 3408   4.256   3.758  16.485 -0.5536  0.6089  0.5311
  221MPD1    C3 3409   4.307   3.738  16.359  0.7550 -0.3511 -0.0642
  221MPD1    C4 3410   4.215   3.720  16.261  0.2678  0.2302  0.2519
  221MPD1    C5 3411   4.090   3.710  16.295  0.1685 -0.3219 -0.0536
  221MPD1     H 3412   4.325   3.750  16.568 -1.4932  0.0065  1.2421
  221MPD1    H1 3413   4.227   3.683  16.159  3.1750 -1.4873  1.2224
  221MPD1    H2 3414   3.932   3.727  16.419  0.3614 -0.1587 -0.5714
  221MPD1    H3 3415   4.016   3.684  16.221  1.6728 -2.7359 -0.7125
  221MPD1     N 3416   4.446   3.722  16.327 -0.3899  0.0961  0.7274
  221MPD1    H5 3417   4.470   3.692  16.233 -1.5162 -1.0724  0.8123
  221MPD1    N1 3418   4.083   3.782  16.651 -0.7768  0.3173 -0.2143
  221MPD1    H6 3419   3.999   3.734  16.682 -1.0456  2.7531  2.7749
  221MPD1    H7 3420   4.155   3.785  16.723 -0.0498  1.3837 -0.9855
  222MPD1     C 3421   4.126   2.321  17.514  0.5207 -0.1316  0.1123
  222MPD1    C1 3422   4.099   2.450  17.472 -0.5037  0.5281  0.6475
  222MPD1    C2 3423   4.009   2.531  17.540 -0.3258  0.0132 -0.5556
  222MPD1    C3 3424   3.922   2.469  17.626 -0.6613  0.1375  0.5957
  222MPD1    C4 3425   3.930   2.337  17.654 -0.6592 -0.0266  0.0682
  222MPD1    C5 3426   4.032   2.264  17.597 -0.2653 -0.5573 -0.0342
  222MPD1     H 3427   3.995   2.634  17.508 -0.0505  0.3337  0.3376
  222MPD1    H1 3428   3.857   2.288  17.718 -0.2976 -0.1498  0.3854
  222MPD1    H2 3429   4.206   2.265  17.468  0.5950  1.8787 -2.2019
  222MPD1    H3 3430   4.035   2.159  17.623  0.8220  0.0766  2.4023
  222MPD1     N 3431   3.808   2.530  17.683  0.0854 -0.2655 -0.5111
  222MPD1    H5 3432   3.749   2.471   0.005 -1.8483  1.8767 -0.2902
  222MPD1    N1 3433   4.187   2.511  17.383  0.3119 -0.1920 -0.3438
  222MPD1    H6 3434   4.217   2.453  17.305  0.1313 -2.9588  1.6616
  222MPD1    H7 3435   4.150   2.600  17.350  0.6917 -0.7948 -2.3660
  223MPD1     C 3436   3.533   2.548   0.829  0.5399  0.0796 -0.1202
  223MPD1    C1 3437   3.463   2.664   0.790  0.4007  0.1468 -0.6477
  223MPD1    C2 3438   3.438   2.683   0.659 -0.1081  0.4799  0.2959
  223MPD1    C3 3439   3.484   2.592   0.557  0.2064 -0.0296 -0.2423
  223MPD1    C4 3440   3.550   2.480   0.600  0.0451  0.1260 -0.1366
  223MPD1    C5 3441   3.573   2.460   0.735  0.4469  0.1642  0.8508
  223MPD1     H 3442   3.383   2.772   0.631 -0.4351 -0.0585 -0.7902
  223MPD1    H1 3443   3.594   2.403   0.537 -1.2328  0.9745 -2.0483
  223MPD1    H2 3444   3.547   2.517   0.932 -0.6071  1.0254  0.3217
  223MPD1    H3 3445   3.624   2.369   0.764 -0.6306 -0.8492 -0.4584
  223MPD1     N 3446   3.461   2.628   0.425 -0.0756 -0.1878  0.0860
  223MPD1    H5 3447   3.420   2.717   0.401 -0.6104 -0.5917 -0.4869
  223MPD1    N1 3448   3.406   2.742   0.891 -0.2292 -0.1016 -0.3617
  223MPD1    H6 3449   3.452   2.752   0.982 -0.2760 -0.1988 -0.3277
  223MPD1    H7 3450   3.385   2.837   0.861 -1.3433 -0.0869  0.4666
  224MPD1     C 3451   4.502   0.058   9.365 -0.4769  0.0312 -0.2664
  224MPD1    C1 3452   4.437   0.028   9.479  0.5983 -0.0784  0.0876
  224MPD1    C2 3453   4.507   4.689   9.570 -0.2647  0.5388  0.7562
  224MPD1    C3 3454   4.635   4.632   9.544  0.2515  0.3243 -0.1352
  224MPD1    C4 3455   4.687   4.649   9.419  0.1237  0.5536  0.0057
  224MPD1    C5 3456   4.624   0.000   9.329 -0.0358  0.0692 -0.0196
  224MPD1     H 3457   4.464   4.675   9.668  0.0038  1.2831  0.9831
  224MPD1    H1 3458   0.049   4.602   9.397  1.4537  2.1213  2.4824
  224MPD1    H2 3459   4.465   0.144   9.310  2.4786  0.1008 -2.1271
  224MPD1    H3 3460   4.671   0.033   9.237 -1.9554 -2.0861 -1.7802
  224MPD1     N 3461   4.711   4.559   9.639 -0.0282 -0.0577  0.5740
  224MPD1    H5 3462   0.058   4.514   9.598  0.5658  1.4884  0.0454
  224MPD1    N1 3463   4.317   0.092   9.515  0.3469 -0.8603 -0.2634
  224MPD1    H6 3464   4.254   0.102   9.436  2.6897  1.4033 -1.8677
  224MPD1    H7 3465   4.269   0.038   9.587  0.9638 -1.6658 -0.4686
  225MPD1     C 3466   1.863   0.866  12.379  0.4301 -0.2824  1.2000
  225MPD1    C1 3467   1.846   0.744  12.337 -0.4801  0.7196 -0.3325
  225MPD1    C2 3468   1.736   0.673  12.382  0.2231 -0.4773  0.0780
  225MPD1    C3 3469   1.644   0.731  12.464 -0.9228  0.4293 -0.1349
  225MPD1    C4 3470   1.662   0.862  12.502  0.2951  0.8455 -0.8895
  225MPD1    C5 3471   1.773   0.928  12.456 -0.0679  0.4948 -0.0701
  225MPD1     H 3472   1.727   0.568  12.356 -0.0584 -0.3636 -0.2788
  225MPD1    H1 3473   1.602   0.926  12.565  0.8705  1.1364 -0.6409
  225MPD1    H2 3474   1.958   0.916  12.361 -0.9503  2.0792  0.4845
  225MPD1    H3 3475   1.795   1.030  12.485  2.5608 -0.3013  0.7934
  225MPD1     N 3476   1.530   0.666  12.525 -0.1754 -0.1051  0.0527
  225MPD1    H5 3477   1.472   0.740  12.562  1.6875  0.8385  1.0539
  225MPD1    N1 3478   1.952   0.686  12.261  0.1177  0.1139 -0.7115
  225MPD1    H6 3479   1.926   0.611  12.196  0.0886 -0.3209 -0.1962
  225MPD1    H7 3480   2.011   0.754  12.213 -0.1439  0.0798 -1.0873
  226MPD1     C 3481   4.456   1.286   9.583 -0.5267 -0.4866  0.4891
  226MPD1    C1 3482   4.527   1.244   9.694 -0.0898  0.2098 -0.2341
  226MPD1    C2 3483   4.460   1.155   9.781  0.5586  0.8300  0.1206
  226MPD1    C3 3484   4.321   1.131   9.764  0.2829 -0.4949 -0.2124
  226MPD1    C4 3485   4.251   1.189   9.660 -0.2242 -0.1460  0.6438
  226MPD1    C5 3486   4.323   1.259   9.562 -0.2459 -0.7431 -0.1197
  226MPD1     H 3487   4.524   1.102   9.850 -0.1916  0.1310  0.2665
  226MPD1    H1 3488   4.145   1.173   9.643 -0.2102 -0.6747  1.0324
  226MPD1    H2 3489   4.515   1.345   9.514  0.5601  0.1538  1.9501
  226MPD1    H3 3490   4.280   1.308   9.476  1.1407  0.6639 -0.0038
  226MPD1     N 3491   4.246   1.046   9.847  0.2410  0.7351 -0.4887
  226MPD1    H5 3492   4.148   1.033   9.823 -0.3509  1.1927  1.7218
  226MPD1    N1 3493   4.666   1.263   9.691  0.4756  0.3721 -0.0212
  226MPD1    H6 3494   4.689   1.335   9.623 -2.2543 -0.9026 -2.2930
  226MPD1    H7 3495   4.719   1.276   9.776  1.0651  0.3882 -0.3944
  227MPD1     C 3496   3.347   0.751  10.213 -0.1948  0.1294  0.0208
  227MPD1    C1 3497   3.431   0.687  10.306 -0.2160  0.3798  0.5357
  227MPD1    C2 3498   3.573   0.696  10.291 -0.0448 -0.6811  0.3585
  227MPD1    C3 3499   3.630   0.780  10.202 -0.0007 -0.1445 -1.1871
  227MPD1    C4 3500   3.546   0.851  10.115  0.6096 -0.6885  0.8600
  227MPD1    C5 3501   3.411   0.829  10.120  0.0307 -0.4053  0.1804
  227MPD1     H 3502   3.629   0.638  10.363 -0.1239 -2.4974 -1.0525
  227MPD1    H1 3503   3.586   0.935  10.060  0.1407 -0.7803  0.3747
  227MPD1    H2 3504   3.239   0.742  10.202 -0.3779  0.3652  1.5938
  227MPD1    H3 3505   3.349   0.880  10.047 -1.5471 -0.0326  1.7885
  227MPD1     N 3506   3.771   0.786  10.204  0.4855  0.3861 -0.2177
  227MPD1    H5 3507   3.817   0.719  10.264 -0.7872 -0.8566 -0.6161
  227MPD1    N1 3508   3.379   0.591  10.396  0.5454 -0.6362 -0.4479
  227MPD1    H6 3509   3.287   0.621  10.429 -0.0505 -1.3580 -1.4528
  227MPD1    H7 3510   3.439   0.595  10.478 -0.9666  2.2788  0.5230
  228MPD1     C 3511   3.588   2.677  13.640 -0.0696  0.2987 -0.2994
  228MPD1    C1 3512   3.540   2.807  13.625  0.0976 -0.8188 -0.0818
  228MPD1    C2 3513   3.406   2.833  13.663  0.2836 -0.1227  0.5140
  228MPD1    C3 3514   3.319   2.736  13.692  0.0876  0.4896  0.1313
  228MPD1    C4 3515   3.366   2.605  13.708 -0.4398  0.1410  0.3209
  228MPD1    C5 3516   3.497   2.579  13.674  0.2484  0.4800  0.3476
  228MPD1     H 3517   3.376   2.938  13.668 -1.5267 -0.7084  1.9928
  228MPD1    H1 3518   3.296   2.527  13.735  1.1911 -0.4839  2.6893
  228MPD1    H2 3519   3.689   2.655  13.606 -0.8609 -1.5290 -1.4224
  228MPD1    H3 3520   3.538   2.479  13.679 -0.0038  0.3805  0.4564
  228MPD1     N 3521   3.184   2.769  13.702 -0.3584 -0.1126  0.1779
  228MPD1    H5 3522   3.159   2.864  13.675  0.6872 -0.1410 -0.8777
  228MPD1    N1 3523   3.629   2.922  13.607  0.0147 -0.5949 -0.1165
  228MPD1    H6 3524   3.587   3.001  13.560 -2.4531 -2.0542 -0.3413
  228MPD1    H7 3525   3.704   2.896  13.544 -1.9329 -0.7493 -2.3682
  229MPD1     C 3526   2.742   1.872  14.726 -0.7458  0.3049  0.2725
  229MPD1    C1 3527   2.747   1.732  14.731 -0.0468 -0.0128 -0.3978
  229MPD1    C2 3528   2.783   1.674  14.855  0.1967  0.1776 -0.4141
  229MPD1    C3 3529   2.817   1.751  14.958 -0.5082 -0.9593  0.2650
  229MPD1    C4 3530   2.806   1.886  14.957  0.3270 -0.5165 -0.6322
  229MPD1    C5 3531   2.766   1.937  14.836  0.0150  0.6206  0.0768
  229MPD1     H 3532   2.786   1.567  14.866  1.6384  0.1286 -1.3465
  229MPD1    H1 3533   2.846   1.960  15.026 -2.7984 -0.5224  1.1678
  229MPD1    H2 3534   2.729   1.922  14.630 -1.1736  0.4728  0.4199
  229MPD1    H3 3535   2.778   2.044  14.823 -1.2845  0.3463 -3.5221
  229MPD1     N 3536   2.868   1.706  15.075 -0.1774 -0.4889  0.0504
  229MPD1    H5 3537   2.922   1.775  15.126  0.3441 -0.3044 -0.7596
  229MPD1    N1 3538   2.728   1.652  14.609 -0.4402  0.4155  0.3916
  229MPD1    H6 3539   2.709   1.552  14.621 -0.1690  0.2658 -0.4047
  229MPD1    H7 3540   2.814   1.641  14.556  0.2138  0.0522  1.5315
  230MPD1     C 3541   3.413   1.774  15.912  0.2371 -0.1487 -0.8254
  230MPD1    C1 3542   3.416   1.642  15.885  0.3810 -0.4617  0.6910
  230MPD1    C2 3543   3.353   1.589  15.779  0.3000  0.5307  0.7881
  230MPD1    C3 3544   3.324   1.675  15.673 -0.1312  0.1669 -0.3516
  230MPD1    C4 3545   3.335   1.808  15.690 -0.2462  0.0191 -0.3166
  230MPD1    C5 3546   3.382   1.857  15.808  0.1946  0.0082  0.0909
  230MPD1     H 3547   3.322   1.487  15.762  0.2101  0.7611 -0.4431
  230MPD1    H1 3548   3.304   1.880  15.615 -0.3226  0.6220  0.2926
  230MPD1    H2 3549   3.443   1.805  16.012 -0.9580 -0.8371 -0.2523
  230MPD1    H3 3550   3.384   1.964  15.825  0.8779  0.0318 -0.1374
  230MPD1     N 3551   3.266   1.611  15.561  0.6425 -0.2424 -0.3128
  230MPD1    H5 3552   3.250   1.511  15.561  1.2027 -0.3303 -1.4151
  230MPD1    N1 3553   3.454   1.558  15.991  0.4716 -0.3426  0.2085
  230MPD1    H6 3554   3.458   1.459  15.964  2.9413 -0.4948  1.1171
  230MPD1    H7 3555   3.535   1.590  16.043  1.1440 -1.7536  0.0352
  231MPD1     C 3556   1.848   3.523  15.480  0.0264 -0.3541  0.5197
  231MPD1    C1 3557   1.737   3.519  15.397 -0.5429  0.3914 -0.2851
  231MPD1    C2 3558   1.748   3.601  15.286 -0.6716  0.0953 -0.1190
  231MPD1    C3 3559   1.858   3.669  15.250 -0.3301 -0.0348 -0.0483
  231MPD1    C4 3560   1.974   3.654  15.324 -0.0805 -0.6021  0.1211
  231MPD1    C5 3561   1.967   3.579  15.431 -0.0549 -0.6499  0.1923
  231MPD1     H 3562   1.664   3.609  15.217  1.7413  0.4509 -2.9991
  231MPD1    H1 3563   2.071   3.699  15.308 -0.3488 -0.4522 -1.0786
  231MPD1    H2 3564   1.842   3.481  15.579 -0.4259 -0.4821  0.4366
  231MPD1    H3 3565   2.055   3.556  15.491 -0.5436 -0.4676  0.9856
  231MPD1     N 3566   1.855   3.755  15.141 -0.1591  0.0577 -0.6053
  231MPD1    H5 3567   1.764   3.756  15.096 -0.4264  1.4558 -0.0465
  231MPD1    N1 3568   1.622   3.450  15.442  0.1179  0.8913  0.0664
  231MPD1    H6 3569   1.567   3.415  15.365  0.4731 -0.1633  0.2950
  231MPD1    H7 3570   1.635   3.380  15.515  0.0292  0.7082 -0.0975
  232MPD1     C 3571   3.756   4.270   1.271 -0.6712 -0.6424  0.0011
  232MPD1    C1 3572   3.732   4.340   1.392  0.0834  0.6650 -0.0200
  232MPD1    C2 3573   3.727   4.475   1.386  0.1658  0.6356  0.1449
  232MPD1    C3 3574   3.731   4.544   1.260 -0.2235  0.9068  0.0233
  232MPD1    C4 3575   3.748   4.465   1.142  0.4424  0.3214 -0.3140
  232MPD1    C5 3576   3.761   4.329   1.149 -0.3354  0.1496  0.3055
  232MPD1     H 3577   3.718   4.535   1.475 -1.3117  2.3470 -1.1696
  232MPD1    H1 3578   3.744   4.513   1.044 -1.2628 -0.0935 -0.4548
  232MPD1    H2 3579   3.777   4.164   1.274 -0.6608 -0.6805 -1.3680
  232MPD1    H3 3580   3.781   4.271   1.060  1.3846 -1.7707  1.9403
  232MPD1     N 3581   3.729   4.688   1.272 -0.4367 -0.3694  0.3087
  232MPD1    H5 3582   3.706   4.730   1.362 -0.8313 -0.0674  0.0662
  232MPD1    N1 3583   3.728   4.267   1.509 -0.2851 -0.5267  0.6278
  232MPD1    H6 3584   3.667   4.309   1.579 -1.4380 -0.7661 -0.2486
  232MPD1    H7 3585   3.688   4.174   1.496  1.8074 -1.2133 -0.9503
  233MPD1     C 3586   4.483   0.800   1.236  0.7088 -0.3407  0.5803
  233MPD1    C1 3587   4.535   0.769   1.361  0.7844 -0.8131  0.5957
  233MPD1    C2 3588   4.535   0.635   1.404 -0.3366 -0.0140 -0.1083
  233MPD1    C3 3589   4.483   0.538   1.333 -0.6339  0.2018 -0.3177
  233MPD1    C4 3590   4.430   0.564   1.214  0.6499  1.3002 -0.7999
  233MPD1    C5 3591   4.443   0.690   1.161  0.1331 -0.4354 -0.5078
  233MPD1     H 3592   4.579   0.628   1.504 -0.8090 -0.4944  0.0635
  233MPD1    H1 3593   4.396   0.485   1.148 -2.0479  0.8320  1.1961
  233MPD1    H2 3594   4.476   0.898   1.189  2.1651 -0.7620 -0.5395
  233MPD1    H3 3595   4.414   0.701   1.058 -0.3578 -0.1204 -0.3354
  233MPD1     N 3596   4.484   0.404   1.375 -0.9314 -0.1370 -0.0932
  233MPD1    H5 3597   4.440   0.334   1.316  1.3591 -1.1639 -0.5869
  233MPD1    N1 3598   4.609   0.863   1.437  0.1145 -0.6246 -0.3886
  233MPD1    H6 3599   4.598   0.853   1.538 -0.5653 -0.7936 -0.4776
  233MPD1    H7 3600   4.589   0.962   1.428 -1.1473 -0.6890  1.5075
  234MPD1     C 3601   0.825   2.874   9.592 -0.6741 -0.5192  0.3751
  234MPD1    C1 3602   0.925   2.968   9.621 -0.3213  0.8235 -0.3192
  234MPD1    C2 3603   0.893   3.096   9.591 -0.5481 -0.1083 -0.0327
  234MPD1    C3 3604   0.781   3.131   9.513  0.3452  0.1537  0.5833
  234MPD1    C4 3605   0.697   3.035   9.473 -0.2223 -0.7276  0.1161
  234MPD1    C5 3606   0.715   2.904   9.516 -0.7488 -0.6181  0.0503
  234MPD1     H 3607   0.967   3.167   9.627  1.3681 -0.2411 -3.6329
  234MPD1    H1 3608   0.607   3.052   9.415  0.0661 -0.3103 -0.2082
  234MPD1    H2 3609   0.833   2.774   9.634  1.6405 -0.3757  0.2855
  234MPD1    H3 3610   0.645   2.831   9.478 -1.4608  0.6877 -1.1284
  234MPD1     N 3611   0.762   3.269   9.485 -0.2957  0.2759 -0.2077
  234MPD1    H5 3612   0.833   3.335   9.517 -1.6512  0.7527  1.7716
  234MPD1    N1 3613   1.027   2.931   9.712  0.1901 -0.1224  0.3321
  234MPD1    H6 3614   1.115   2.979   9.694  1.3474 -2.5245 -0.5029
  234MPD1    H7 3615   1.046   2.831   9.714  1.3989  0.1240  1.1361
  235MPD1     C 3616   2.454   0.852  10.498  0.3779 -0.1334  0.1868
  235MPD1    C1 3617   2.386   0.958  10.555  1.0191 -0.4852 -0.2303
  235MPD1    C2 3618   2.443   1.082  10.550  0.1872  0.3145  0.2524
  235MPD1    C3 3619   2.557   1.109  10.464  0.1479  1.0031  0.2489
  235MPD1    C4 3620   2.599   1.003  10.386  0.3135 -0.1781 -0.2174
  235MPD1    C5 3621   2.545   0.873  10.401 -0.5193  0.2841  0.1540
  235MPD1     H 3622   2.383   1.159  10.597 -1.4443  0.4872 -2.0769
  235MPD1    H1 3623   2.673   1.011  10.308 -1.5775  0.5352 -1.9576
  235MPD1    H2 3624   2.408   0.754  10.509 -0.2592  0.4027  2.3559
  235MPD1    H3 3625   2.571   0.790  10.337 -0.0210  2.4203 -2.4578
  235MPD1     N 3626   2.606   1.236  10.452  0.5144 -0.0655 -0.7229
  235MPD1    H5 3627   2.567   1.300  10.521 -0.9655 -0.6265 -1.0514
  235MPD1    N1 3628   2.275   0.927  10.633  0.2234 -0.6248  0.2106
  235MPD1    H6 3629   2.224   0.850  10.590 -0.2927 -1.3575  2.1149
  235MPD1    H7 3630   2.209   0.999  10.662  0.8293 -0.2620  0.6822
  236MPD1     C 3631   1.316   2.266   9.589  0.4138 -0.1862 -0.0694
  236MPD1    C1 3632   1.285   2.196   9.707  0.1489 -0.0603  0.5502
  236MPD1    C2 3633   1.382   2.135   9.780 -0.2939 -0.7684  0.0360
  236MPD1    C3 3634   1.521   2.166   9.761  0.0299  0.3302  0.0436
  236MPD1    C4 3635   1.557   2.234   9.644 -0.1106 -0.3984 -0.3966
  236MPD1    C5 3636   1.451   2.293   9.569  0.8140 -0.5079  0.0522
  236MPD1     H 3637   1.355   2.068   9.861  0.3137 -0.4839  0.4771
  236MPD1    H1 3638   1.657   2.262   9.614 -0.1639 -1.2264 -1.3334
  236MPD1    H2 3639   1.240   2.327   9.541 -0.8021 -0.5748  1.3712
  236MPD1    H3 3640   1.478   2.353   9.482  0.1458  0.1224  0.2742
  236MPD1     N 3641   1.613   2.128   9.864  0.6142  0.9320 -0.1090
  236MPD1    H5 3642   1.708   2.162   9.857  0.5431  0.9545 -0.9941
  236MPD1    N1 3643   1.152   2.177   9.751  0.7864  0.1763  0.1926
  236MPD1    H6 3644   1.146   2.175   9.852  0.9453  0.2045  0.2023
  236MPD1    H7 3645   1.096   2.252   9.710  0.3036  0.6468  1.7121
  237MPD1     C 3646   2.262   0.458  15.147 -0.1278 -0.3858 -0.3337
  237MPD1    C1 3647   2.279   0.319  15.132 -0.4219 -0.4268  0.4578
  237MPD1    C2 3648   2.173   0.233  15.149  0.3656  0.3365  0.1095
  237MPD1    C3 3649   2.042   0.282  15.179 -0.5642 -0.0618 -0.8610
  237MPD1    C4 3650   2.023   0.417  15.193 -0.4445 -0.3920 -0.3585
  237MPD1    C5 3651   2.132   0.503  15.177 -0.5799 -0.7463  0.3588
  237MPD1     H 3652   2.191   0.127  15.133 -3.0073 -0.2671  0.3525
  237MPD1    H1 3653   1.925   0.460  15.211 -0.0497  0.3678 -0.0351
  237MPD1    H2 3654   2.331   0.538  15.121 -0.7975  0.4438  0.4535
  237MPD1    H3 3655   2.108   0.609  15.187 -1.1196 -1.0097  1.8402
  237MPD1     N 3656   1.927   0.200  15.190  0.2028 -0.4411  0.0733
  237MPD1    H5 3657   1.842   0.255  15.196 -0.6647 -1.5482 -2.2425
  237MPD1    N1 3658   2.404   0.283  15.092 -0.0852  0.3125 -0.2766
  237MPD1    H6 3659   2.421   0.189  15.126  0.4128  0.3973 -0.2853
  237MPD1    H7 3660   2.483   0.333  15.132 -0.8203 -0.9166  2.6523
  238MPD1     C 3661   3.287   2.122  14.732  0.1363  0.2237 -0.2954
  238MPD1    C1 3662   3.169   2.104  14.802 -0.3475 -0.3583  0.3186
  238MPD1    C2 3663   3.097   2.218  14.839 -0.5184 -0.3800  0.0625
  238MPD1    C3 3664   3.148   2.340  14.816  0.5956 -0.2108  0.0232
  238MPD1    C4 3665   3.271   2.360  14.759 -0.8348 -0.1057  0.0092
  238MPD1    C5 3666   3.336   2.252  14.716  0.2883 -0.3026 -0.0560
  238MPD1     H 3667   2.992   2.205  14.862 -0.4845 -2.0009 -0.6997
  238MPD1    H1 3668   3.317   2.458  14.747  0.8180 -0.9002 -0.0363
  238MPD1    H2 3669   3.338   2.033  14.700  0.7084 -0.0843  1.4401
  238MPD1    H3 3670   3.426   2.258  14.655  0.8945  1.2632  0.9909
  238MPD1     N 3671   3.086   2.467  14.848  0.2161 -0.8000  0.2492
  238MPD1    H5 3672   3.118   2.561  14.826  0.1545 -1.3240 -2.0540
  238MPD1    N1 3673   3.115   1.972  14.808  0.1604  0.2925 -0.5872
  238MPD1    H6 3674   3.052   1.942  14.882 -1.2107  2.3772 -0.9122
  238MPD1    H7 3675   3.185   1.898  14.805 -2.1887 -1.9468 -0.5479
  239MPD1     C 3676   3.484   3.888  14.625  0.2877 -0.4414 -0.2383
  239MPD1    C1 3677   3.587   3.977  14.599 -0.5261 -0.0365  0.3069
  239MPD1    C2 3678   3.559   4.092  14.518  0.7182 -0.0005  0.4405
  239MPD1    C3 3679   3.443   4.100  14.452  0.5054 -0.5190  0.4875
  239MPD1    C4 3680   3.351   4.004  14.467 -0.0093  0.7573 -0.0265
  239MPD1    C5 3681   3.377   3.888  14.541 -0.1901  0.7663 -0.6101
  239MPD1     H 3682   3.625   4.178  14.514 -1.0053  1.2210 -1.8626
  239MPD1    H1 3683   3.265   3.995  14.402 -0.7820  1.2516  0.9302
  239MPD1    H2 3684   3.507   3.808  14.695  0.3352 -0.0775  0.1600
  239MPD1    H3 3685   3.304   3.809  14.530  1.1363 -1.1267  4.5371
  239MPD1     N 3686   3.422   4.215  14.374  1.0455 -0.8021  0.4166
  239MPD1    H5 3687   3.329   4.240  14.344  0.6216 -0.3413  2.0716
  239MPD1    N1 3688   3.698   3.975  14.679 -0.6383 -0.4382  0.0762
  239MPD1    H6 3689   3.773   4.037  14.650 -3.0745  1.5284 -1.9366
  239MPD1    H7 3690   3.733   3.881  14.700  0.2479  0.0979  0.9494
  240MPD1     C 3691   2.744   4.199  13.637  0.6054  0.4372  0.2121
  240MPD1    C1 3692   2.620   4.158  13.671 -0.6715  0.3875 -0.0358
  240MPD1    C2 3693   2.600   4.118  13.801 -0.7676  0.0956  0.4522
  240MPD1    C3 3694   2.697   4.108  13.894 -0.1664 -0.3645  0.1113
  240MPD1    C4 3695   2.824   4.137  13.843  0.0422  0.0200 -1.0567
  240MPD1    C5 3696   2.847   4.177  13.723  0.1056  0.6275  1.1420
  240MPD1     H 3697   2.499   4.096  13.835 -0.8535 -1.4545 -0.7842
  240MPD1    H1 3698   2.910   4.117  13.907 -0.4222  0.1968 -0.3854
  240MPD1    H2 3699   2.756   4.235  13.535  0.3534  0.2267  0.1063
  240MPD1    H3 3700   2.948   4.197  13.691 -0.6426 -1.8842 -2.7841
  240MPD1     N 3701   2.660   4.060  14.020  0.4983 -0.1126  0.1501
  240MPD1    H5 3702   2.563   4.034  14.031  0.4665 -0.6046 -1.3004
  240MPD1    N1 3703   2.512   4.181  13.581  0.1492  0.1658 -0.1723
  240MPD1    H6 3704   2.431   4.123  13.606  1.4103 -1.5790 -0.1405
  240MPD1    H7 3705   2.533   4.173  13.482  0.7029  0.4262 -0.0753
  241MPD1     C 3706   3.209   3.951  14.811 -0.2871  0.4794  0.2646
  241MPD1    C1 3707   3.130   3.842  14.781 -0.3229  0.5746  0.5897
  241MPD1    C2 3708   3.007   3.863  14.711  0.0079  0.2236  0.0727
  241MPD1    C3 3709   2.979   3.985  14.650 -0.3224  0.0541 -1.0153
  241MPD1    C4 3710   3.075   4.085  14.662  0.5110  0.0411 -0.0712
  241MPD1    C5 3711   3.188   4.067  14.745  0.3962  0.2303 -0.5405
  241MPD1     H 3712   2.940   3.779  14.698  1.1833 -0.5796 -0.7517
  241MPD1    H1 3713   3.062   4.181  14.614  1.3520 -0.7393 -1.8732
  241MPD1    H2 3714   3.292   3.959  14.879  0.4186  2.4235 -0.8313
  241MPD1    H3 3715   3.266   4.141  14.757  0.1831  0.2718  0.5205
  241MPD1     N 3716   2.862   4.011  14.573  0.6610 -0.1176  0.0233
  241MPD1    H5 3717   2.860   4.098  14.520  1.4231  0.9617  1.7388
  241MPD1    N1 3718   3.153   3.723  14.849  0.5144 -0.3882 -0.4515
  241MPD1    H6 3719   3.107   3.654  14.791 -0.0102  0.7847 -1.4443
  241MPD1    H7 3720   3.252   3.703  14.860  0.3682  0.7759  3.0330
  242MPD1     C 3721   2.746   1.515  16.278  0.4391  0.7250 -0.1214
  242MPD1    C1 3722   2.623   1.522  16.214  0.6893 -0.7023  0.4900
  242MPD1    C2 3723   2.604   1.610  16.107 -0.3299  0.3996 -0.3782
  242MPD1    C3 3724   2.706   1.689  16.068 -0.3204  0.4779  0.1016
  242MPD1    C4 3725   2.823   1.690  16.141 -0.0556 -0.3479 -0.5380
  242MPD1    C5 3726   2.845   1.603  16.243 -0.7635  0.8374  0.1633
  242MPD1     H 3727   2.508   1.607  16.056 -1.0852 -0.5027  1.0976
  242MPD1    H1 3728   2.909   1.752  16.114 -0.4618  0.3604 -0.1992
  242MPD1    H2 3729   2.768   1.445  16.358 -0.9843 -0.7896 -1.0583
  242MPD1    H3 3730   2.944   1.591  16.284 -1.3497  0.3404  1.4405
  242MPD1     N 3731   2.697   1.784  15.968  0.3829  0.2244  0.0700
  242MPD1    H5 3732   2.776   1.847  15.955  0.3909  0.0355 -0.7816
  242MPD1    N1 3733   2.528   1.426  16.256 -0.3739 -0.0070  0.4200
  242MPD1    H6 3734   2.430   1.454  16.265 -0.7566 -0.7537 -1.4547
  242MPD1    H7 3735   2.562   1.388  16.344  1.3651 -0.1031 -0.3110
  243MPD1     C 3736   4.526   2.305   0.483 -0.0868 -0.2103  1.0688
  243MPD1    C1 3737   4.459   2.320   0.366 -0.9174  0.0234  0.5759
  243MPD1    C2 3738   4.468   2.226   0.268 -0.2803  0.1196  0.7242
  243MPD1    C3 3739   4.536   2.103   0.289  0.0715  0.5338 -0.0041
  243MPD1    C4 3740   4.610   2.087   0.406  0.2414 -0.7289 -0.3903
  243MPD1    C5 3741   4.594   2.187   0.504 -0.4038 -0.2899  0.2979
  243MPD1     H 3742   4.412   2.240   0.176  1.1766  1.0528 -0.0059
  243MPD1    H1 3743   4.669   1.998   0.426  2.5560  1.0204  0.6921
  243MPD1    H2 3744   4.537   2.389   0.551 -1.3912  1.7591 -1.1842
  243MPD1    H3 3745   4.652   2.185   0.595  0.2395 -2.9805 -0.1732
  243MPD1     N 3746   4.538   2.000   0.189 -0.3964  0.3902  0.2498
  243MPD1    H5 3747   4.490   2.021   0.102 -0.3762 -1.0373 -0.1054
  243MPD1    N1 3748   4.392   2.441   0.343 -0.2171  0.6385 -0.9293
  243MPD1    H6 3749   4.338   2.467   0.425 -0.2377  3.4607 -1.8398
  243MPD1    H7 3750   4.328   2.430   0.264  0.5529  1.4332 -1.6612
  244MPD1     C 3751   4.596   0.946  17.585 -0.1971  0.0957  0.1311
  244MPD1    C1 3752   4.605   1.030  17.479  0.1599  0.4865 -0.1025
  244MPD1    C2 3753   4.588   1.165  17.497 -0.0588 -0.5238  0.2250
  244MPD1    C3 3754   4.553   1.217  17.622  0.3230 -0.1381 -0.1181
  244MPD1    C4 3755   4.537   1.132  17.724 -0.0456  0.5981 -0.1864
  244MPD1    C5 3756   4.551   0.998  17.706 -0.2798 -0.8324 -0.7831
  244MPD1     H 3757   4.602   1.229  17.411 -1.2233  0.7557  0.9739
  244MPD1    H1 3758   4.491   1.158   0.083  0.0945  0.8023 -0.1729
  244MPD1    H2 3759   4.628   0.843  17.573 -1.1240 -0.1530 -0.1611
  244MPD1    H3 3760   4.551   0.928   0.053 -0.7981  0.9096  0.6816
  244MPD1     N 3761   4.528   1.350  17.633 -0.7006 -0.2701 -0.3152
  244MPD1    H5 3762   4.524   1.395  17.542  1.4632  2.2926  0.8421
  244MPD1    N1 3763   4.643   0.977  17.355 -0.2756 -0.2751  0.0897
  244MPD1    H6 3764   4.620   0.878  17.356  0.5935 -0.4743  0.6026
  244MPD1    H7 3765   4.602   1.028  17.277  0.5739  0.8900  0.4091
  245MPD1     C 3766   1.074   1.467  13.163 -0.3802 -0.2871 -0.1708
  245MPD1    C1 3767   0.964   1.490  13.249  0.1777 -0.3695  0.2448
  245MPD1    C2 3768   1.000   1.534  13.377 -0.4323  0.1663  0.6547
  245MPD1    C3 3769   1.126   1.554  13.421 -0.4430  0.2762  0.7690
  245MPD1    C4 3770   1.230   1.537  13.337 -0.1162  1.1398 -0.1148
  245MPD1    C5 3771   1.202   1.492  13.209 -0.3227 -0.1191 -0.6770
  245MPD1     H 3772   0.924   1.559  13.450 -0.4849 -0.1303  0.7014
  245MPD1    H1 3773   1.331   1.566  13.362  0.1975  1.3761 -1.6495
  245MPD1    H2 3774   1.060   1.433  13.061  1.4837  0.5808 -0.7157
  245MPD1    H3 3775   1.289   1.475  13.147  0.1090  0.5802 -0.2574
  245MPD1     N 3776   1.141   1.602  13.549 -0.7416  0.1935 -0.3825
  245MPD1    H5 3777   1.057   1.650  13.580 -1.5334 -0.7297 -1.1357
  245MPD1    N1 3778   0.831   1.467  13.216 -0.1652 -0.2955 -0.5102
  245MPD1    H6 3779   0.770   1.536  13.259  0.6895 -0.2544  0.6453
  245MPD1    H7 3780   0.816   1.466  13.116  0.0684 -0.5848 -0.5423
  246MPD1     C 3781   2.839   3.932  10.199 -0.4230  0.7722 -0.1386
  246MPD1    C1 3782   2.808   3.893  10.074  0.7197 -0.1096  0.4585
  246MPD1    C2 3783   2.782   3.755  10.052  0.4172  0.1606 -0.0788
  246MPD1    C3 3784   2.786   3.657  10.152 -0.2124 -0.3630 -0.1886
  246MPD1    C4 3785   2.823   3.703  10.275  0.5546 -0.9003 -0.0143
  246MPD1    C5 3786   2.839   3.841  10.294  0.1671  0.4481 -0.3130
  246MPD1     H 3787   2.741   3.720   9.958  2.9913  0.2212 -1.2239
  246MPD1    H1 3788   2.806   3.642  10.363  1.9457  1.4712  1.8908
  246MPD1    H2 3789   2.853   4.038  10.217  0.1408  0.8602 -1.0823
  246MPD1    H3 3790   2.844   3.876  10.397  1.2481 -0.7877  0.0572
  246MPD1     N 3791   2.751   3.526  10.115  0.0192 -0.3415  0.6072
  246MPD1    H5 3792   2.734   3.508  10.017  0.5048 -0.6650  0.5808
  246MPD1    N1 3793   2.773   3.991   9.982 -0.2364 -0.4212 -0.2011
  246MPD1    H6 3794   2.815   4.081  10.002  0.7579 -0.9708  0.1540
  246MPD1    H7 3795   2.788   3.970   9.884 -0.9675  1.6126 -0.7367
  247MPD1     C 3796   1.021   2.482  16.516  0.0612 -0.6419 -0.0523
  247MPD1    C1 3797   1.009   2.384  16.613  0.2973 -0.0238  0.3886
  247MPD1    C2 3798   0.971   2.259  16.579  0.5245  0.1720 -0.6911
  247MPD1    C3 3799   0.945   2.231  16.443 -0.3909 -0.3325 -0.1440
  247MPD1    C4 3800   0.948   2.332  16.351  0.0228  0.0611 -0.4272
  247MPD1    C5 3801   0.977   2.455  16.390  0.3643 -0.1060  0.1652
  247MPD1     H 3802   0.981   2.183  16.656  0.3340 -0.5224 -1.3415
  247MPD1    H1 3803   0.926   2.315  16.247 -2.7617 -1.2557  0.3882
  247MPD1    H2 3804   1.065   2.578  16.538 -1.0632  0.0330 -0.8222
  247MPD1    H3 3805   0.973   2.539  16.321  1.2307 -0.0679  0.1623
  247MPD1     N 3806   0.903   2.108  16.392 -0.1947  0.2869  0.2116
  247MPD1    H5 3807   0.893   2.088  16.293 -0.6845 -1.8793  0.7020
  247MPD1    N1 3808   1.068   2.406  16.744  0.6252 -0.6772  1.0080
  247MPD1    H6 3809   1.068   2.503  16.776  0.6009 -1.3640  3.0817
  247MPD1    H7 3810   1.032   2.354  16.824 -1.1557 -2.3489 -0.8820
  248MPD1     C 3811   0.906   1.272   0.120  0.0356  0.2632 -0.5797
  248MPD1    C1 3812   0.830   1.386   0.135 -0.1634  0.0693  0.0443
  248MPD1    C2 3813   0.779   1.403   0.262 -0.1085  0.1968  0.9523
  248MPD1    C3 3814   0.810   1.325   0.369 -0.4822  0.3891  0.2187
  248MPD1    C4 3815   0.881   1.209   0.349  0.1240 -0.0183  0.8413
  248MPD1    C5 3816   0.925   1.184   0.225  0.2618  0.0428  0.3221
  248MPD1     H 3817   0.724   1.495   0.279  0.8301  1.0353 -0.5836
  248MPD1    H1 3818   0.896   1.133   0.425  3.3912 -1.8880 -1.6706
  248MPD1    H2 3819   0.937   1.234   0.023  0.2398  2.6184 -1.4428
  248MPD1    H3 3820   0.985   1.096   0.204  0.6436  0.7606 -1.5810
  248MPD1     N 3821   0.750   1.353   0.495  0.1112 -0.1044  0.7620
  248MPD1    H5 3822   0.707   1.444   0.510 -0.2304 -0.3155  1.0727
  248MPD1    N1 3823   0.796   1.462   0.021 -0.0968 -0.2305 -0.0873
  248MPD1    H6 3824   0.750   1.552   0.033  2.0695  0.5556  2.2130
  248MPD1    H7 3825   0.865   1.465  17.683  1.3221  3.0953  1.3778
  249MPD1     C 3826   3.626   0.322  11.012 -0.3927 -0.1471 -0.0377
  249MPD1    C1 3827   3.629   0.386  10.892  1.0900  0.3927 -1.0067
  249MPD1    C2 3828   3.539   0.341  10.803  0.2856 -0.3088 -0.6427
  249MPD1    C3 3829   3.475   0.221  10.812  0.4593  0.0820  0.4882
  249MPD1    C4 3830   3.471   0.158  10.931 -0.3336  0.4529 -0.4759
  249MPD1    C5 3831   3.544   0.213  11.030 -0.5009  0.1024  0.0599
  249MPD1     H 3832   3.521   0.390  10.708  0.8470  1.0413 -0.0518
  249MPD1    H1 3833   3.409   0.072  10.952  0.2916 -0.4149 -2.1412
  249MPD1    H2 3834   3.692   0.353  11.093  0.5871  0.7114 -1.1617
  249MPD1    H3 3835   3.552   0.180  11.133  1.8245  0.8808  0.1233
  249MPD1     N 3836   3.395   0.172  10.701 -0.1604  0.2894 -0.1834
  249MPD1    H5 3837   3.381   0.231  10.619 -1.2928 -0.1183 -0.2889
  249MPD1    N1 3838   3.699   0.513  10.874  0.1677  0.6971 -0.5751
  249MPD1    H6 3839   3.790   0.508  10.921 -0.5459  0.4810  0.7922
  249MPD1    H7 3840   3.722   0.525  10.776  0.8337  2.0733 -0.2526
  250MPD2     C 3841   4.490   0.126  13.165 -0.3665  0.2381 -0.3799
  250MPD2    C1 3842   4.370   0.195  13.166  0.4841  0.5935 -0.1885
  250MPD2    C2 3843   4.257   0.145  13.101  0.2934  0.6058 -0.6344
  250MPD2    C3 3844   4.271   0.026  13.029  0.4237 -0.2392  1.0466
  250MPD2    C4 3845   4.390   4.688  13.044 -1.0721  0.4230  0.6392
  250MPD2    C5 3846   4.501   0.004  13.104  0.1430 -0.3487 -0.0291
  250MPD2     H 3847   4.163   0.199  13.096  0.4176  1.2920  4.7161
  250MPD2    H1 3848   4.405   4.585  13.015 -0.7002  0.4954  0.5786
  250MPD2    H2 3849   4.582   0.166  13.208 -0.5607  0.5223 -0.2282
  250MPD2    H3 3850   4.589   4.680  13.128  0.8102  1.6234  2.2845
  250MPD2     N 3851   4.158   4.714  12.956 -0.2309  0.3070 -0.6558
  250MPD2    H5 3852   4.155   4.621  12.916  1.3540  0.2651 -0.6707
  250MPD2    N1 3853   4.365   0.320  13.234 -0.0725 -0.5101  0.5722
  250MPD2    H7 3854   4.456   0.345  13.273  0.0129 -1.3208  0.8826
  251TMC3    C1 3855   4.325   0.530  13.294  0.0230 -0.1682  0.4913
  251TMC3    C2 3856   4.228   0.602  13.355  0.2974  0.2511 -0.2893
  251TMC3    C3 3857   4.276   0.704  13.432 -1.0134 -0.4281 -0.0900
  251TMC3    C4 3858   4.457   0.558  13.294 -0.7542 -0.0122 -0.2170
  251TMC3    C5 3859   4.496   0.672  13.359 -0.2272 -0.4215 -0.4638
  251TMC3    C6 3860   4.412   0.745  13.440  0.1597 -0.0867 -0.3593
  251TMC3     C 3861   4.273   0.419  13.225  0.7744  0.0243 -0.2376
  251TMC3     O 3862   4.155   0.418  13.184  0.0226 -0.5122  0.2301
  251TMC3     H 3863   4.122   0.579  13.347 -0.0992  1.9040  0.2557
  251TMC3    H1 3864   4.537   0.499  13.251 -0.3856  0.7078 -0.5175
  251TMC3    H2 3865   4.451   0.826  13.501 -0.2248 -1.6237  1.9089
  251TMC3    C7 3866   4.637   0.706  13.345  0.1268 -0.2219  0.4322
  251TMC3    C8 3867   4.179   0.778  13.509  0.1991 -0.5904  0.4193
  251TMC3    O1 3868   4.707   0.628  13.285 -0.0110 -0.7251 -1.0083
  251TMC3    O2 3869   4.082   0.715  13.540  0.6548 -0.1747 -0.2233
  252TMC3    C1 3870   0.361   2.427   9.487 -0.0569 -0.2211  0.1698
  252TMC3    C2 3871   0.426   2.381   9.598  0.7035  0.0609  0.1124
  252TMC3    C3 3872   0.386   2.262   9.657  0.2945  0.5594 -0.4764
  252TMC3    C4 3873   0.254   2.353   9.433 -0.7394  0.0376  0.3444
  252TMC3    C5 3874   0.221   2.239   9.496  0.6275  0.4777  0.7333
  252TMC3    C6 3875   0.284   2.190   9.607  0.0604  0.3092  0.4925
  252TMC3     C 3876   0.390   2.556   9.430  0.2201  0.4694 -0.2563
  252TMC3     O 3877   0.452   2.621   9.511 -0.6481 -0.0455 -0.1826
  252TMC3     H 3878   0.514   2.425   9.644  1.1235 -1.1960  0.5071
  252TMC3    H1 3879   0.209   2.379   9.338 -1.0887 -1.7133  0.0164
  252TMC3    H2 3880   0.263   2.088   9.639 -2.7554  0.1563 -1.8496
  252TMC3    C7 3881   0.138   2.148   9.425 -0.3032  0.5732  0.7110
  252TMC3    C8 3882   0.446   2.216   9.783  0.3248  0.1352 -0.9086
  252TMC3    O1 3883   0.117   2.163   9.305 -0.1816 -0.0499  0.0541
  252TMC3    O2 3884   0.557   2.273   9.796 -0.2960  0.6723 -0.7406
  253MPD2     C 3885   0.968   4.558  15.368 -0.8005  0.1089 -0.0881
  253MPD2    C1 3886   0.829   4.575  15.372 -0.5679 -0.1424  0.1860
  253MPD2    C2 3887   0.775   4.601  15.493 -0.3908 -0.1375  0.7240
  253MPD2    C3 3888   0.845   4.615  15.610  0.2010  0.2940 -0.2161
  253MPD2    C4 3889   0.974   4.598  15.613  0.4415  0.2131  0.1680
  253MPD2    C5 3890   1.037   4.573  15.494  0.3589  0.2156  0.3651
  253MPD2     H 3891   0.667   4.613  15.492 -0.0244  3.1101  0.4561
  253MPD2    H1 3892   1.027   4.601  15.707 -0.6442 -0.8662  0.8090
  253MPD2    H2 3893   1.023   4.538  15.276 -1.2768 -0.7623 -0.1882
  253MPD2    H3 3894   1.145   4.566  15.499  0.2897  0.1828  1.6870
  253MPD2     N 3895   0.780   4.656  15.727 -0.6229 -0.9007 -0.2480
  253MPD2    H5 3896   0.841   4.668  15.808 -0.3714 -1.3769 -0.3667
  253MPD2    N1 3897   0.737   4.563  15.264 -0.0426  0.3305 -0.3118
  253MPD2    H7 3898   0.636   4.564  15.276  0.1219 -0.2534  1.1287
  254TMC3    C1 3899   0.608   4.729  15.867 -0.2586 -0.5141 -0.8098
  254TMC3    C2 3900   0.503   0.085  15.878 -0.0412  0.7225 -0.2715
  254TMC3    C3 3901   0.426   0.080  15.992 -0.1391  0.2095  0.5703
  254TMC3    C4 3902   0.644   4.647  15.966 -0.5808  0.2776  0.8580
  254TMC3    C5 3903   0.561   4.643  16.068 -0.2904  0.2893 -0.5431
  254TMC3    C6 3904   0.454   4.722  16.089  0.2302 -0.3575 -0.3453
  254TMC3     C 3905   0.644   4.696  15.732  0.5241 -0.4086  0.4221
  254TMC3     O 3906   0.576   0.009  15.642  0.5622  0.6896 -0.3013
  254TMC3     H 3907   0.493   0.164  15.804 -2.2709 -0.4581 -1.2161
  254TMC3    H1 3908   0.721   4.571  15.961 -0.8086 -0.0626  2.6541
  254TMC3    H2 3909   0.397   0.006  16.179 -0.6564 -0.9683 -0.7741
  254TMC3    C7 3910   0.607   4.572  16.190  0.7477  0.1450 -0.5659
  254TMC3    C8 3911   0.412   0.211  16.047 -0.7709  0.8578 -0.3984
  254TMC3    O1 3912   0.727   4.564  16.212  0.2684  0.2068 -0.2315
  254TMC3    O2 3913   0.451   0.224  16.160 -0.4245  0.0063  0.1581
  255MPD2     C 3914   3.751   2.685  10.556  0.2014  0.3454  0.2139
  255MPD2    C1 3915   3.810   2.713  10.433 -0.7603 -0.2838 -0.1267
  255MPD2    C2 3916   3.836   2.601  10.350 -0.3945  0.3644 -1.2112
  255MPD2    C3 3917   3.797   2.465  10.384 -0.1050 -0.4822  0.3067
  255MPD2    C4 3918   3.729   2.450  10.506 -0.0302 -0.0688  0.0823
  255MPD2    C5 3919   3.713   2.560  10.591 -0.2285  0.0187  0.0333
  255MPD2     H 3920   3.870   2.614  10.248  1.0353 -0.7395 -0.8775
  255MPD2    H1 3921   3.716   2.347  10.537 -0.0863 -0.2648 -0.5931
  255MPD2    H2 3922   3.729   2.771  10.618 -1.2636  2.3113 -3.0326
  255MPD2    H3 3923   3.649   2.544  10.677  1.2868  0.9909  1.3507
  255MPD2     N 3924   3.820   2.351  10.306 -0.5530  0.5321  0.2427
  255MPD2    H5 3925   3.778   2.265  10.338  0.3528  0.2430  0.6463
  255MPD2    N1 3926   3.835   2.844  10.392 -0.2332  0.1863 -1.0843
  255MPD2    H7 3927   3.820   2.913  10.465  2.2157  0.7639 -1.1400
  256TMC3    C1 3928   3.906   3.035  10.261 -0.8887  0.4205  0.0610
  256TMC3    C2 3929   3.990   3.075  10.161 -0.5922 -0.1756 -0.2690
  256TMC3    C3 3930   4.030   3.208  10.165  0.4786  0.0503 -1.0848
  256TMC3    C4 3931   3.870   3.109  10.368  0.9144 -0.4945 -0.3728
  256TMC3    C5 3932   3.927   3.235  10.375 -0.4605  0.0340  0.1033
  256TMC3    C6 3933   4.006   3.284  10.273  0.6766 -0.1107 -0.7605
  256TMC3     C 3934   3.872   2.892  10.265  0.1682 -0.1383 -0.0104
  256TMC3     O 3935   3.880   2.822  10.164  0.8106  0.0434  0.6817
  256TMC3     H 3936   4.007   3.008  10.078 -2.5024 -1.6458  0.5439
  256TMC3    H1 3937   3.792   3.071  10.433 -0.0257  0.1447 -1.1264
  256TMC3    H2 3938   4.065   3.373  10.290 -0.2202  0.6065 -1.4163
  256TMC3    C7 3939   3.885   3.319  10.485  0.1704  0.8920  0.7490
  256TMC3    C8 3940   4.138   3.249  10.078 -0.0715 -0.1027 -0.4967
  256TMC3    O1 3941   3.787   3.277  10.546  0.8335 -0.4938 -0.3862
  256TMC3    O2 3942   4.195   3.158  10.016  0.4188 -0.3091 -0.2850
  257MPD2     C 3943   2.778   0.665  13.162 -0.0985 -0.4307  0.6261
  257MPD2    C1 3944   2.737   0.564  13.076  0.3613  0.1082  0.0660
  257MPD2    C2 3945   2.753   0.431  13.110 -0.6658 -0.2228  0.6327
  257MPD2    C3 3946   2.807   0.396  13.237  0.2705 -0.0862  0.0846
  257MPD2    C4 3947   2.836   0.500  13.326  0.2739  0.3522  0.3886
  257MPD2    C5 3948   2.826   0.634  13.289 -0.2748 -0.2391 -0.1725
  257MPD2     H 3949   2.737   0.361  13.029  3.1849 -1.9734  1.3601
  257MPD2    H1 3950   2.864   0.481  13.429 -1.2101 -0.1310  0.7099
  257MPD2    H2 3951   2.761   0.768  13.134 -0.5305 -1.2971 -2.3256
  257MPD2    H3 3952   2.831   0.717  13.359 -0.9824  0.0863 -0.5098
  257MPD2     N 3953   2.825   0.259  13.261  0.4189  0.3100  0.0648
  257MPD2    H5 3954   2.821   0.193  13.184 -2.1455 -0.0441  0.4762
  257MPD2    N1 3955   2.713   0.599  12.942  0.0781 -0.0825  0.0528
  257MPD2    H7 3956   2.747   0.684  12.898 -0.3310  1.3088  2.3564
  258TMC3    C1 3957   2.889   0.062  13.371  0.1386  0.1921  0.0418
  258TMC3    C2 3958   2.965   0.027  13.260 -0.3774  0.1441 -0.6183
  258TMC3    C3 3959   3.042   4.649  13.272  0.5159 -0.4288 -0.2872
  258TMC3    C4 3960   2.907   4.731  13.484  0.5333  0.0437  0.7819
  258TMC3    C5 3961   3.000   4.632  13.494 -0.2273 -0.1127  0.2893
  258TMC3    C6 3962   3.069   4.582  13.389  0.6788 -0.1279 -0.1186
  258TMC3     C 3963   2.868   0.208  13.381 -0.2593  0.6399 -0.1419
  258TMC3     O 3964   2.902   0.270  13.481 -0.4037 -0.0729 -0.0861
  258TMC3     H 3965   2.951   0.082  13.168 -0.9363 -2.0458 -1.8373
  258TMC3    H1 3966   2.868   0.036  13.577 -1.1388 -1.7695  0.8476
  258TMC3    H2 3967   3.115   4.484  13.387  0.4959 -0.2255  0.5061
  258TMC3    C7 3968   3.009   4.576  13.623  0.3893 -0.0233  0.4084
  258TMC3    C8 3969   3.091   4.593  13.144  0.6727  0.5457  0.0284
  258TMC3    O1 3970   2.919   4.596  13.704  0.2540 -0.1959  0.5097
  258TMC3    O2 3971   3.060   4.647  13.039  0.3449 -0.4161 -0.2692
  259MPD2     C 3972   3.330   1.715   0.832 -0.5678  0.7840  0.0336
  259MPD2    C1 3973   3.240   1.645   0.906  1.0008  0.2187 -0.1398
  259MPD2    C2 3974   3.217   1.509   0.874 -0.2967  0.9749  1.2973
  259MPD2    C3 3975   3.289   1.449   0.773 -0.4871  0.0930  0.6021
  259MPD2    C4 3976   3.374   1.523   0.701  0.4648 -0.0827 -0.4688
  259MPD2    C5 3977   3.401   1.654   0.734  0.2497  0.2667 -0.2674
  259MPD2     H 3978   3.148   1.444   0.926 -0.8985  1.8775  1.6304
  259MPD2    H1 3979   3.419   1.493   0.607  2.1091  1.6605 -0.2474
  259MPD2    H2 3980   3.350   1.818   0.859  1.1763  0.1077  1.3626
  259MPD2    H3 3981   3.474   1.715   0.682 -1.0672  1.5033 -0.6809
  259MPD2     N 3982   3.263   1.311   0.743 -0.5226 -0.5870 -0.7482
  259MPD2    H5 3983   3.192   1.269   0.802  1.9247 -1.7400  1.3698
  259MPD2    N1 3984   3.179   1.703   1.024 -0.0224 -0.6075  0.0464
  259MPD2    H7 3985   3.211   1.789   1.067  0.3146 -1.2823  1.1552
  260TMC3    C1 3986   3.227   1.127   0.607  0.1354  0.0702 -0.2835
  260TMC3    C2 3987   3.296   1.005   0.614 -0.0167 -0.3746  0.2718
  260TMC3    C3 3988   3.279   0.919   0.509 -0.6480 -0.2976  0.3358
  260TMC3    C4 3989   3.148   1.162   0.503 -0.2723 -0.2104  0.6347
  260TMC3    C5 3990   3.131   1.066   0.413  0.3813 -0.0306 -0.2365
  260TMC3    C6 3991   3.199   0.946   0.408 -0.1369  0.4328  0.5399
  260TMC3     C 3992   3.316   1.233   0.640 -0.0545 -0.2012 -0.7059
  260TMC3     O 3993   3.419   1.248   0.575  0.0817 -0.3522 -0.3921
  260TMC3     H 3994   3.356   0.974   0.698  0.6499  0.1028 -0.0214
  260TMC3    H1 3995   3.088   1.253   0.500  0.0627  0.0138  0.7539
  260TMC3    H2 3996   3.181   0.875   0.329 -0.3214 -0.1824  1.1377
  260TMC3    C7 3997   3.032   1.081   0.314  0.4621 -0.5048 -1.3213
  260TMC3    C8 3998   3.364   0.803   0.487 -0.2238 -0.1145  0.1861
  260TMC3    O1 3999   3.040   0.998   0.226  0.0370 -0.3576 -0.1025
  260TMC3    O2 4000   3.381   0.774   0.371  0.5670 -0.1635  0.0817
  261MPD2     C 4001   3.427   0.253  12.585 -0.2030 -0.7225 -1.3614
  261MPD2    C1 4002   3.564   0.259  12.557  0.1537  0.3173  0.0504
  261MPD2    C2 4003   3.612   0.373  12.494  0.3686 -0.8229  0.4468
  261MPD2    C3 4004   3.529   0.479  12.457 -0.0741  0.7428  0.1393
  261MPD2    C4 4005   3.396   0.468  12.479  0.2270  0.4206 -0.0638
  261MPD2    C5 4006   3.348   0.356  12.532 -0.0983  0.1690 -0.2346
  261MPD2     H 4007   3.719   0.379  12.478  0.4181  0.3872  1.2500
  261MPD2    H1 4008   3.338   0.558  12.459  0.7133  0.7768  0.1183
  261MPD2    H2 4009   3.378   0.165  12.625  2.8877 -2.3136 -1.0567
  261MPD2    H3 4010   3.241   0.337  12.523 -0.1495  1.1781 -1.8535
  261MPD2     N 4011   3.576   0.595  12.384  0.3371 -0.5408 -0.0746
  261MPD2    H5 4012   3.501   0.660  12.366 -0.4342 -1.5482 -0.5100
  261MPD2    N1 4013   3.662   0.161  12.604 -0.2315  0.1133  0.4455
  261MPD2    H7 4014   3.760   0.165  12.581 -0.1863 -1.8152  0.2806
  262TMC3    C1 4015   3.740   0.740  12.272  0.6162  0.3382 -0.4339
  262TMC3    C2 4016   3.634   0.797  12.205 -0.0612  0.2906 -0.5652
  262TMC3    C3 4017   3.668   0.899  12.114 -0.3050  0.4960  0.0931
  262TMC3    C4 4018   3.871   0.773  12.259 -0.2363 -0.1131 -0.0973
  262TMC3    C5 4019   3.902   0.866  12.161  0.0728 -0.0304 -0.9488
  262TMC3    C6 4020   3.801   0.925  12.087  0.1286  1.7190  0.0027
  262TMC3     C 4021   3.712   0.613  12.342  0.5230  0.1411 -0.7358
  262TMC3     O 4022   3.814   0.548  12.360 -0.4508 -0.3989 -0.3375
  262TMC3     H 4023   3.528   0.775  12.214  0.3680 -1.1061  1.0160
  262TMC3    H1 4024   3.953   0.730  12.316 -1.1387 -3.1178 -1.0732
  262TMC3    H2 4025   3.829   0.999  12.012  1.1809 -0.1314 -1.4205
  262TMC3    C7 4026   4.029   0.850  12.093  0.0423 -0.2441 -0.7614
  262TMC3    C8 4027   3.565   0.985  12.054  0.0395 -0.2324  0.2045
  262TMC3    O1 4028   4.081   0.742  12.128  0.2086  0.2391 -0.6623
  262TMC3    O2 4029   3.450   0.955  12.080 -0.5954 -0.3381 -0.0749
  263MPD2     C 4030   0.231   4.098  11.775  0.1221  0.8277 -0.2899
  263MPD2    C1 4031   0.318   4.165  11.692  0.6908 -0.6712  0.3702
  263MPD2    C2 4032   0.269   4.280  11.621  0.7418 -0.4310  0.3125
  263MPD2    C3 4033   0.149   4.338  11.664  0.6457  0.8094  0.1401
  263MPD2    C4 4034   0.064   4.270  11.756 -0.4018 -0.7398  0.5936
  263MPD2    C5 4035   0.110   4.149  11.814  0.4232 -0.0951  0.3439
  263MPD2     H 4036   0.328   4.335  11.549  0.2502 -0.4186 -0.0756
  263MPD2    H1 4037   4.700   4.304  11.788 -0.8406 -2.3773  0.9941
  263MPD2    H2 4038   0.258   3.998  11.807 -1.0468  0.0995 -1.5420
  263MPD2    H3 4039   0.034   4.097  11.872  2.6936 -0.5156  2.9454
  263MPD2     N 4040   0.111   4.457  11.600  0.0761 -0.1774 -0.2548
  263MPD2    H5 4041   0.178   4.496  11.535 -1.4974 -0.2815 -1.9797
  263MPD2    N1 4042   0.445   4.102  11.669  0.1210 -0.5477 -0.0810
  263MPD2    H7 4043   0.472   4.030  11.735  1.0312  0.0051  0.1548
  264TMC3    C1 4044   4.734   4.669  11.555  1.0594  1.4354 -0.3392
  264TMC3    C2 4045   4.693   0.045  11.627  0.3302  0.2835  1.4270
  264TMC3    C3 4046   4.671   0.156  11.552 -0.6200  0.2025  0.6367
  264TMC3    C4 4047   0.021   4.675  11.416 -0.1534  0.0868 -0.1461
  264TMC3    C5 4048   0.008   0.052  11.352 -0.6268  0.1622  0.6939
  264TMC3    C6 4049   4.690   0.156  11.417 -0.4417  0.1744  0.4822
  264TMC3     C 4050   4.732   4.539  11.630 -0.0577 -0.1469 -0.8043
  264TMC3     O 4051   4.656   4.529  11.723  0.1365 -0.4526  0.0500
  264TMC3     H 4052   4.687   0.035  11.734 -0.6377 -2.6556  1.1161
  264TMC3    H1 4053   0.066   4.593  11.362 -1.0668 -0.3944 -0.1871
  264TMC3    H2 4054   4.664   0.243  11.358  1.3656 -0.0053 -0.5747
  264TMC3    C7 4055   0.126   0.073  11.272 -0.7519  0.2064 -0.5023
  264TMC3    C8 4056   0.002   0.277  11.605 -0.3925 -0.1386 -0.2627
  264TMC3    O1 4057   0.141   0.028  11.158 -0.3909 -0.5884 -0.5476
  264TMC3    O2 4058   0.092   0.316  11.535  0.3237  0.0698 -0.6184
  265MPD2     C 4059   2.053   4.384  15.489  0.1346 -0.1061 -0.2461
  265MPD2    C1 4060   2.140   4.485  15.452 -0.5099 -0.4698  1.4838
  265MPD2    C2 4061   2.232   4.466  15.351 -0.1034  0.2062 -0.0011
  265MPD2    C3 4062   2.223   4.348  15.274  0.4265 -0.1313 -0.4124
  265MPD2    C4 4063   2.124   4.256  15.302  0.8050 -0.5624  0.3492
  265MPD2    C5 4064   2.035   4.271  15.407 -0.5457 -0.2134 -0.6672
  265MPD2     H 4065   2.314   4.533  15.330 -1.4520  2.0141  0.4624
  265MPD2    H1 4066   2.120   4.161  15.249 -2.3677 -0.2209 -0.0182
  265MPD2    H2 4067   1.987   4.391  15.575 -0.9438 -0.8713 -0.9972
  265MPD2    H3 4068   1.959   4.196  15.424 -0.6936  0.0020 -0.3827
  265MPD2     N 4069   2.317   4.313  15.173  0.2167  0.1831  0.1666
  265MPD2    H5 4070   2.309   4.222  15.129  3.4996  0.6604 -1.4397
  265MPD2    N1 4071   2.157   4.597  15.534 -0.1276 -0.2112 -0.0044
  265MPD2    H7 4072   2.233   4.659  15.507  0.7320 -0.2369  2.3650
  266TMC3    C1 4073   2.092   0.030  15.689  0.0469 -0.0386 -0.6259
  266TMC3    C2 4074   2.124   0.071  15.816  0.7241  0.1034 -0.3611
  266TMC3    C3 4075   2.119   0.204  15.847  0.1034 -0.3749 -0.2300
  266TMC3    C4 4076   2.053   0.120  15.590 -0.2751  0.7026 -0.0026
  266TMC3    C5 4077   2.045   0.251  15.628 -0.3970 -0.2779  0.1675
  266TMC3    C6 4078   2.078   0.300  15.753 -0.6916 -0.5365  0.8915
  266TMC3     C 4079   2.092   4.627  15.653 -0.7683 -0.0815 -0.3187
  266TMC3     O 4080   2.031   4.555  15.734 -0.0992 -0.2014 -0.2708
  266TMC3     H 4081   2.145   4.731  15.892 -0.7118  0.0969  0.0356
  266TMC3    H1 4082   2.029   0.087  15.489  1.1868  2.4295 -0.9121
  266TMC3    H2 4083   2.087   0.406  15.775 -0.2452 -0.1305 -1.2212
  266TMC3    C7 4084   1.931   0.312  15.564 -0.0368 -0.2273 -0.2878
  266TMC3    C8 4085   2.217   0.249  15.947 -0.9689  0.0988  0.0974
  266TMC3    O1 4086   1.842   0.240  15.515  0.0081  0.2789  0.5521
  266TMC3    O2 4087   2.325   0.185  15.950 -0.0599 -0.0896 -0.4351
  267MPD2     C 4088   0.238   1.932   0.715  0.1752 -0.0958 -0.0555
  267MPD2    C1 4089   0.191   1.823   0.654  0.7672  0.1529 -0.2224
  267MPD2    C2 4090   0.055   1.799   0.658 -0.2021  0.7631 -0.6251
  267MPD2    C3 4091   4.703   1.878   0.732  0.1743  0.4911  0.1842
  267MPD2    C4 4092   0.016   1.990   0.795 -0.7287 -0.1518 -0.2389
  267MPD2    C5 4093   0.147   2.014   0.786  0.4951  0.0805  0.6936
  267MPD2     H 4094   0.009   1.712   0.613 -0.7492  0.7282 -0.0031
  267MPD2    H1 4095   4.684   2.057   0.848  0.4174  0.7914  0.0023
  267MPD2    H2 4096   0.343   1.957   0.716  0.4174 -1.1770  0.5103
  267MPD2    H3 4097   0.188   2.090   0.851  0.1575 -0.1641  1.1873
  267MPD2     N 4098   4.563   1.850   0.726  0.2470 -0.5141 -0.2856
  267MPD2    H5 4099   4.531   1.785   0.655 -3.4729  2.7830 -1.6148
  267MPD2    N1 4100   0.277   1.754   0.575 -0.1513 -0.5321 -0.4345
  267MPD2    H7 4101   0.368   1.792   0.549 -0.1926  1.2275  1.9656
  268TMC3    C1 4102   0.336   1.575   0.431 -0.3526 -0.3696  0.2093
  268TMC3    C2 4103   0.377   1.666   0.340  0.5682  0.3679 -0.0827
  268TMC3    C3 4104   0.449   1.615   0.229  0.0899  0.0776 -0.0240
  268TMC3    C4 4105   0.358   1.442   0.423  0.3755  0.3120 -0.0705
  268TMC3    C5 4106   0.419   1.397   0.308  0.2512 -1.0262  0.3885
  268TMC3    C6 4107   0.462   1.484   0.207 -0.0368 -0.4054  0.4638
  268TMC3     C 4108   0.253   1.624   0.543 -0.2514 -0.3359  0.2866
  268TMC3     O 4109   0.170   1.538   0.584 -0.4700  0.0931  0.0382
  268TMC3     H 4110   0.358   1.773   0.343  0.6507  0.3886 -0.2522
  268TMC3    H1 4111   0.327   1.375   0.502  2.8258 -1.5547 -0.6830
  268TMC3    H2 4112   0.517   1.443   0.122  0.4474  0.5167  0.3313
  268TMC3    C7 4113   0.449   1.255   0.310 -0.0920 -0.2627  0.4288
  268TMC3    C8 4114   0.530   1.696   0.140  0.1693 -0.3089  0.1761
  268TMC3    O1 4115   0.415   1.184   0.405 -0.1234  0.0988 -0.3504
  268TMC3    O2 4116   0.548   1.658   0.024 -0.5079  0.4565  0.7795
  269MPD2     C 4117   0.046   0.476  15.500  0.3912  0.1224 -0.7915
  269MPD2    C1 4118   4.691   0.498  15.604 -0.1541 -0.0110  0.0360
  269MPD2    C2 4119   4.626   0.619  15.615 -0.6599 -0.3142  0.1008
  269MPD2    C3 4120   4.653   0.726  15.527 -0.4101 -0.3493  0.7852
  269MPD2    C4 4121   0.013   0.699  15.425  0.2096  0.1899 -0.3777
  269MPD2    C5 4122   0.074   0.579  15.417 -0.4916 -0.2661  0.1175
  269MPD2     H 4123   4.545   0.643  15.683 -0.9009  0.2967 -0.4060
  269MPD2    H1 4124   0.055   0.779  15.365 -1.2894  2.2424  1.3140
  269MPD2    H2 4125   0.103   0.385  15.480  0.4272 -0.4193  1.8624
  269MPD2    H3 4126   0.152   0.564  15.343 -1.9763 -0.6922 -1.3712
  269MPD2     N 4127   4.598   0.851  15.556  0.0000  0.1816 -0.4910
  269MPD2    H5 4128   4.547   0.861  15.644  1.8711 -0.6518  0.6882
  269MPD2    N1 4129   4.662   0.390  15.689 -0.0613  0.1530 -0.0111
  269MPD2    H7 4130   4.709   0.300  15.682  0.8004  0.6126 -0.1388
  270TMC3    C1 4131   4.580   0.259  15.852 -0.0152 -0.0585 -0.5086
  270TMC3    C2 4132   4.463   0.195  15.883  0.3856 -0.0681 -0.4290
  270TMC3    C3 4133   4.468   0.066  15.922  0.1582  0.5014  0.2367
  270TMC3    C4 4134   4.700   0.198  15.863 -0.0093 -0.1611  0.5947
  270TMC3    C5 4135   4.703   0.071  15.924  0.2998 -0.6167  0.0685
  270TMC3    C6 4136   4.588   0.009  15.959 -0.8865  0.0220 -0.0023
  270TMC3     C 4137   4.568   0.387  15.785 -0.4305 -0.2140  0.2918
  270TMC3     O 4138   4.470   0.462  15.803  0.1532 -0.2687  0.0677
  270TMC3     H 4139   4.367   0.238  15.856  0.3575  0.2990  0.2827
  270TMC3    H1 4140   0.055   0.254  15.837 -0.4092  0.0149 -0.4054
  270TMC3    H2 4141   4.582   4.644  16.001 -2.9036  0.2572  0.2728
  270TMC3    C7 4142   0.091   4.731  15.923  0.1702 -0.1267  0.1723
  270TMC3    C8 4143   4.394   4.711  15.841 -0.0106 -0.5045  0.7135
  270TMC3    O1 4144   0.173   0.030  15.844 -0.5166  0.1965 -0.3093
  270TMC3    O2 4145   4.445   4.609  15.790 -0.0030 -0.3114 -0.4161
  271MPD2     C 4146   3.529   0.253  14.130 -0.4817 -0.1895  0.3011
  271MPD2    C1 4147   3.461   0.199  14.240 -0.0173  0.1052 -0.6368
  271MPD2    C2 4148   3.322   0.205  14.234 -0.0350 -0.2771 -0.1122
  271MPD2    C3 4149   3.252   0.258  14.130 -0.5989  0.3500 -0.1415
  271MPD2    C4 4150   3.320   0.295  14.016  0.7422  0.1101  0.2110
  271MPD2    C5 4151   3.460   0.302  14.017  0.2989 -0.1189 -0.1281
  271MPD2     H 4152   3.270   0.152  14.313  1.0632 -0.1547  0.6984
  271MPD2    H1 4153   3.281   0.329  13.921 -0.2301 -0.4230  0.4270
  271MPD2    H2 4154   3.636   0.266  14.117 -0.7934  0.7530 -1.4110
  271MPD2    H3 4155   3.513   0.357  13.940  1.1770 -0.0852  0.5070
  271MPD2     N 4156   3.113   0.263  14.120 -0.0992 -0.0811 -0.3190
  271MPD2    H5 4157   3.071   0.288  14.031  0.4991  2.1682  0.0135
  271MPD2    N1 4158   3.523   0.133  14.350 -0.2777  0.2182  0.5429
  271MPD2    H7 4159   3.463   0.088  14.418 -0.7896  0.2160  0.0955
  272TMC3    C1 4160   3.692   0.015  14.459  0.5791  0.7310  0.1515
  272TMC3    C2 4161   3.807   4.685  14.422 -0.1480  0.5551  0.0693
  272TMC3    C3 4162   3.897   4.658  14.519 -0.5171  0.6695 -0.4646
  272TMC3    C4 4163   3.654   0.043  14.590 -0.0862 -0.3542  0.2541
  272TMC3    C5 4164   3.745   0.001  14.683 -0.1969 -0.2731 -0.4376
  272TMC3    C6 4165   3.870   4.685  14.649  0.6709  0.3039  0.0211
  272TMC3     C 4166   3.660   0.110  14.356 -0.7583 -0.7518 -0.3957
  272TMC3     O 4167   3.750   0.158  14.284  0.4278  0.4287  0.1358
  272TMC3     H 4168   3.833   4.674  14.317  0.9015 -1.7429  0.5840
  272TMC3    H1 4169   3.562   0.095  14.613  0.3679  0.1967  0.8625
  272TMC3    H2 4170   3.941   4.668  14.729 -0.9431 -0.8095  1.2240
  272TMC3    C7 4171   3.702   0.035  14.820  0.5488  0.1528 -0.1809
  272TMC3    C8 4172   4.036   4.676  14.475  0.2374  0.0229 -0.1884
  272TMC3    O1 4173   3.585   0.026  14.849 -0.1160 -0.0878 -0.1558
  272TMC3    O2 4174   4.057   4.711  14.359  0.2497 -0.1088 -0.0920
  273MPD2     C 4175   0.372   3.288  11.688  0.5758  0.0773  0.0985
  273MPD2    C1 4176   0.506   3.296  11.666  0.1648 -0.4395 -0.0293
  273MPD2    C2 4177   0.552   3.241  11.544 -0.0960  0.3952 -0.4130
  273MPD2    C3 4178   0.474   3.212  11.436  0.0155  0.4400  0.0949
  273MPD2    C4 4179   0.336   3.220  11.460  0.5913  0.2443 -1.1725
  273MPD2    C5 4180   0.289   3.259  11.584 -0.2581  0.7852 -0.1994
  273MPD2     H 4181   0.658   3.227  11.529  0.4297  2.5180  1.3601
  273MPD2    H1 4182   0.273   3.210  11.372 -0.3456 -0.6617 -0.4058
  273MPD2    H2 4183   0.327   3.331  11.777 -0.9448  0.4019 -0.8265
  273MPD2    H3 4184   0.180   3.254  11.589 -0.2944  0.9656 -0.9495
  273MPD2     N 4185   0.519   3.202  11.304 -0.1350  0.4906 -0.1388
  273MPD2    H5 4186   0.454   3.203  11.226 -1.2183 -3.3359  0.7212
  273MPD2    N1 4187   0.592   3.353  11.769  0.0822  0.0463 -0.2626
  273MPD2    H7 4188   0.560   3.352  11.865  0.8175  0.6149 -0.0095
  274TMC3    C1 4189   0.664   3.236  11.119 -0.2715  0.6453 -1.1791
  274TMC3    C2 4190   0.555   3.235  11.036 -0.2158 -0.1823  0.1490
  274TMC3    C3 4191   0.546   3.313  10.923 -0.1789  0.5211  0.3829
  274TMC3    C4 4192   0.764   3.322  11.090 -0.8066  0.3723  0.5009
  274TMC3    C5 4193   0.744   3.410  10.991  0.2212  0.6077  0.0039
  274TMC3    C6 4194   0.644   3.402  10.902  0.8761  0.6205  0.3986
  274TMC3     C 4195   0.650   3.192  11.261 -0.5831  0.2210 -0.6423
  274TMC3     O 4196   0.754   3.193  11.316  0.0444 -0.5933 -0.1573
  274TMC3     H 4197   0.479   3.160  11.054 -0.1218  0.0759  1.6300
  274TMC3    H1 4198   0.849   3.340  11.155  0.9303 -0.4783 -1.5351
  274TMC3    H2 4199   0.624   3.488  10.839  1.7780 -1.9393 -3.3851
  274TMC3    C7 4200   0.820   3.542  10.979 -0.4954  0.4958 -0.0200
  274TMC3    C8 4201   0.411   3.322  10.862 -0.3009 -0.0619 -0.5221
  274TMC3    O1 4202   0.804   3.613  10.877  0.1567  0.4858  0.4322
  274TMC3    O2 4203   0.319   3.260  10.916  0.0002 -0.0294 -0.5695
  275MPD2     C 4204   0.487   0.893  15.301  0.9588  0.2832  0.0489
  275MPD2    C1 4205   0.538   0.901  15.164 -0.1355 -1.0356  0.9947
  275MPD2    C2 4206   0.447   0.902  15.062 -0.0395 -0.3354 -0.5547
  275MPD2    C3 4207   0.312   0.912  15.087 -0.0234 -0.5127 -0.2459
  275MPD2    C4 4208   0.271   0.918  15.219 -0.1541  1.4969  0.1573
  275MPD2    C5 4209   0.360   0.899  15.328  0.5440  1.2032  0.8065
  275MPD2     H 4210   0.486   0.902  14.960  2.8605  3.1203  0.5613
  275MPD2    H1 4211   0.167   0.902  15.244  0.2539 -1.8543 -0.3511
  275MPD2    H2 4212   0.553   0.870  15.384 -0.1291  0.6055  0.9996
  275MPD2    H3 4213   0.318   0.871  15.424  0.8715  0.8882  0.8601
  275MPD2     N 4214   0.222   0.905  14.982 -0.0204  0.1896  0.3224
  275MPD2    H5 4215   0.124   0.917  15.005 -0.3139 -2.5391  0.5303
  275MPD2    N1 4216   0.670   0.905  15.138  0.1326 -0.0373  0.2897
  275MPD2    H7 4217   0.699   0.895  15.041 -2.8565 -3.2091 -0.3097
  276TMC3    C1 4218   0.889   0.881  15.185  0.3516 -0.5311  0.9131
  276TMC3    C2 4219   0.899   0.790  15.081  0.3851 -0.1065 -0.0796
  276TMC3    C3 4220   1.019   0.779  15.012  0.3926 -0.4237 -0.6410
  276TMC3    C4 4221   0.988   0.970  15.216  0.7534  0.3039 -0.1575
  276TMC3    C5 4222   1.095   0.972  15.128  0.1454  0.7464  0.1334
  276TMC3    C6 4223   1.112   0.877  15.035  0.2641  0.5560 -0.1192
  276TMC3     C 4224   0.762   0.917  15.241 -0.0334 -0.7452 -0.9782
  276TMC3     O 4225   0.753   0.980  15.344 -0.0681 -0.9162 -0.1195
  276TMC3     H 4226   0.816   0.720  15.069  1.2536 -0.6961 -2.6402
  276TMC3    H1 4227   0.985   1.038  15.301 -3.8915  1.3321 -1.1395
  276TMC3    H2 4228   1.209   0.861  14.990 -0.5215  0.8636 -1.9214
  276TMC3    C7 4229   1.184   1.085  15.142  0.1165 -0.2525  0.0869
  276TMC3    C8 4230   1.027   0.706  14.887 -0.0590 -0.5382  1.1410
  276TMC3    O1 4231   1.138   1.180  15.204  0.7185  1.0509 -0.0975
  276TMC3    O2 4232   1.087   0.760  14.793  0.4366  0.2150  0.0014
  277MPD2     C 4233   2.315   0.092  12.841  0.1414 -0.5282 -0.3130
  277MPD2    C1 4234   2.215   0.117  12.935  0.1134  0.1293  0.0957
  277MPD2    C2 4235   2.200   0.035  13.045  0.0333 -0.0357  0.2927
  277MPD2    C3 4236   2.274   4.655  13.058  0.5394  0.5572  0.1473
  277MPD2    C4 4237   2.365   4.623  12.959 -0.0516  0.4881 -0.1112
  277MPD2    C5 4238   2.387   4.711  12.860  0.2415  0.3377 -0.2491
  277MPD2     H 4239   2.131   0.064  13.123  0.5370  0.0434  0.7081
  277MPD2    H1 4240   2.424   4.532  12.954  2.9074  2.2100  3.0842
  277MPD2    H2 4241   2.343   0.163  12.764  0.1337 -0.8632 -0.6240
  277MPD2    H3 4242   2.462   4.695  12.784  2.0584 -0.9234  1.8220
  277MPD2     N 4243   2.252   4.575  13.174 -0.7266 -0.5762 -0.4863
  277MPD2    H5 4244   2.180   4.609  13.237  0.6525 -1.7855  1.7491
  277MPD2    N1 4245   2.124   0.217  12.908 -0.1057  0.6318 -0.4671
  277MPD2    H7 4246   2.147   0.268  12.823 -0.9618 -3.4450 -3.1154
  278TMC3    C1 4247   2.249   4.422  13.342 -0.5960 -0.3546 -0.2209
  278TMC3    C2 4248   2.247   4.291  13.354  0.4448 -0.9150  0.0460
  278TMC3    C3 4249   2.156   4.235  13.440  0.1628 -0.4624  0.2524
  278TMC3    C4 4250   2.151   4.496  13.404 -0.6037  0.1784  0.3645
  278TMC3    C5 4251   2.058   4.439  13.487  0.1140  0.4418  0.6924
  278TMC3    C6 4252   2.053   4.306  13.493 -1.3028 -0.0603 -0.9877
  278TMC3     C 4253   2.311   4.464  13.221  0.7305  0.3680  0.2335
  278TMC3     O 4254   2.407   4.409  13.172  0.2007 -0.0239  0.3510
  278TMC3     H 4255   2.328   4.228  13.318  1.4324 -0.7395  1.9244
  278TMC3    H1 4256   2.146   4.604  13.401  1.3086  0.2590 -0.1207
  278TMC3    H2 4257   1.988   4.259  13.565 -2.1514  1.4589 -0.7647
  278TMC3    C7 4258   1.945   4.521  13.537  0.0822  0.3383 -0.2339
  278TMC3    C8 4259   2.154   4.090  13.438 -1.1017 -0.1059 -0.8612
  278TMC3    O1 4260   1.957   4.642  13.538  0.0337 -0.3009  0.1657
  278TMC3    O2 4261   2.251   4.017  13.411  0.0237  0.1026  0.1106
  279MPD2     C 4262   2.117   0.322   0.184 -0.1479 -0.0663 -0.4828
  279MPD2    C1 4263   1.987   0.305   0.133  0.2557 -0.4341 -0.2831
  279MPD2    C2 4264   1.976   0.252   0.006 -0.6631 -0.0697 -0.0192
  279MPD2    C3 4265   2.082   0.229  17.662 -0.0038 -0.7945  0.4571
  279MPD2    C4 4266   2.205   0.257  17.711  0.9681 -0.3407  0.0162
  279MPD2    C5 4267   2.225   0.295   0.101 -0.6377 -0.5280 -0.1860
  279MPD2     H 4268   1.880   0.242  17.695 -0.4361 -0.8882 -0.2977
  279MPD2    H1 4269   2.294   0.234  17.653  0.5015  0.4675 -1.0029
  279MPD2    H2 4270   2.145   0.351   0.285  1.7752  1.1441 -1.3687
  279MPD2    H3 4271   2.328   0.318   0.127 -0.5231  0.2038 -1.2991
  279MPD2     N 4272   2.070   0.206  17.521 -0.6699  0.3951  0.0852
  279MPD2    H5 4273   2.159   0.213  17.471 -0.4781  0.9708  0.5129
  279MPD2    N1 4274   1.882   0.363   0.193  0.0395  0.1851  0.5061
  279MPD2    H7 4275   1.793   0.346   0.149 -0.1750 -0.0099  1.0107
  280TMC3    C1 4276   1.750   0.475   0.351 -0.0189  0.9377  0.5865
  280TMC3    C2 4277   1.634   0.416   0.304 -0.3250  0.0368  0.3950
  280TMC3    C3 4278   1.520   0.488   0.324  0.1395 -1.1853  0.1898
  280TMC3    C4 4279   1.753   0.598   0.406 -0.0150 -0.3378  0.5187
  280TMC3    C5 4280   1.639   0.673   0.423 -0.5893 -0.9037 -0.1818
  280TMC3    C6 4281   1.520   0.602   0.396 -0.1228  0.0846 -0.5374
  280TMC3     C 4282   1.879   0.430   0.311  0.2788 -0.5744  0.0441
  280TMC3     O 4283   1.975   0.471   0.381  0.3018  0.0432  0.5038
  280TMC3     H 4284   1.633   0.327   0.243  0.7052  1.4637 -1.7163
  280TMC3    H1 4285   1.848   0.648   0.417  0.2377  0.0499 -3.1876
  280TMC3    H2 4286   1.425   0.653   0.409 -3.3453 -5.6113 -1.7378
  280TMC3    C7 4287   1.651   0.814   0.373  0.5907 -0.2186 -0.8981
  280TMC3    C8 4288   1.421   0.499   0.214  0.3691 -0.3827 -0.1141
  280TMC3    O1 4289   1.758   0.873   0.389 -0.2462  0.2122  0.2031
  280TMC3    O2 4290   1.387   0.615   0.195  0.6309  0.7416 -0.1173
  281TMC3    C1 4291   0.219   0.530  13.495  0.3932  0.7494 -1.0862
  281TMC3    C2 4292   0.301   0.636  13.463  0.2071 -0.3675  0.0609
  281TMC3    C3 4293   0.355   0.633  13.337  0.2819 -0.2966  0.6837
  281TMC3    C4 4294   0.205   0.420  13.415  0.1076  0.5571 -0.0463
  281TMC3    C5 4295   0.275   0.418  13.295  0.5279 -0.2478 -0.3963
  281TMC3    C6 4296   0.342   0.528  13.251 -1.3846  0.2343  0.0337
  281TMC3     C 4297   0.116   0.544  13.601 -0.0376  0.5554  1.2824
  281TMC3     O 4298   0.029   0.459  13.605 -0.4917  0.9322 -0.1234
  281TMC3     H 4299   0.337   0.709  13.534  1.7079  0.4143 -1.5023
  281TMC3    H1 4300   0.126   0.351  13.443  0.3760  0.4658  0.4882
  281TMC3    H2 4301   0.408   0.518  13.165 -0.9292 -0.6375  0.4852
  281TMC3    C7 4302   0.286   0.303  13.213 -0.5465  0.0636 -0.8377
  281TMC3    C8 4303   0.448   0.737  13.303  0.4181 -0.1085 -0.0781
  281TMC3    O1 4304   0.338   0.311  13.101 -0.2447  0.2986 -0.2030
  281TMC3    O2 4305   0.534   0.702  13.221 -0.1002 -0.1116 -0.2094
  282MPD2     C 4306   2.129   1.506  15.049  0.2776  0.3973 -0.0299
  282MPD2    C1 4307   2.005   1.544  15.098  0.2354  0.1400 -0.6661
  282MPD2    C2 4308   1.912   1.587  15.005  0.4629 -0.3515  0.0890
  282MPD2    C3 4309   1.942   1.592  14.871 -0.0002 -0.7040 -0.2464
  282MPD2    C4 4310   2.067   1.554  14.823  0.1178 -0.6585  0.0960
  282MPD2    C5 4311   2.160   1.508  14.915 -0.1785 -0.0141  0.8941
  282MPD2     H 4312   1.816   1.617  15.045  0.6526  1.6927 -0.9771
  282MPD2    H1 4313   2.103   1.573  14.723 -0.4102  0.1683  0.0656
  282MPD2    H2 4314   2.202   1.458  15.114  0.3083 -0.6158 -0.8197
  282MPD2    H3 4315   2.255   1.463  14.891 -0.7626 -1.2216  0.8586
  282MPD2     N 4316   1.837   1.618  14.776  0.7427 -0.2608 -0.0646
  282MPD2    H5 4317   1.746   1.638  14.816  0.3957 -1.4415 -0.2532
  282MPD2    N1 4318   1.971   1.525  15.237  0.2385 -0.6740 -0.0620
  282MPD2    H7 4319   1.875   1.540  15.265 -0.0048  1.5811 -2.0913
  283TMC3    C1 4320   2.001   1.487  15.466 -0.2612  0.0397  0.2104
  283TMC3    C2 4321   2.085   1.539  15.550  0.2508 -0.0718 -0.7109
  283TMC3    C3 4322   2.048   1.539  15.680  0.1981  0.1531  0.3601
  283TMC3    C4 4323   1.897   1.405  15.502 -0.4197 -0.7311 -0.1661
  283TMC3    C5 4324   1.869   1.389  15.635 -0.3540 -0.9302  0.3190
  283TMC3    C6 4325   1.936   1.468  15.729  0.1283  0.4344 -0.2141
  283TMC3     C 4326   2.057   1.474  15.335 -0.2851 -0.1792 -0.5967
  283TMC3     O 4327   2.178   1.447  15.334 -0.1644  0.5664 -0.2323
  283TMC3     H 4328   2.171   1.593  15.513 -0.5164  1.0620 -0.8332
  283TMC3    H1 4329   1.833   1.359  15.428 -0.2917  1.5079 -1.6769
  283TMC3    H2 4330   1.916   1.449  15.834  1.7788  0.9140  0.1922
  283TMC3    C7 4331   1.736   1.350  15.676  0.4731  0.7234  0.3981
  283TMC3    C8 4332   2.097   1.637  15.772 -0.2395 -0.7949 -0.8249
  283TMC3    O1 4333   1.704   1.370  15.795  0.0249 -0.0717  0.5958
  283TMC3    O2 4334   2.096   1.616  15.894 -0.5351  0.3255  0.4128
  284MPD2     C 4335   0.117   1.083  12.591 -0.4194  0.3048  0.5564
  284MPD2    C1 4336   0.226   1.151  12.536  0.1662 -0.3795 -0.3070
  284MPD2    C2 4337   0.355   1.095  12.543  0.8471  0.1516  0.5551
  284MPD2    C3 4338   0.365   0.963  12.596  0.3749 -0.8728 -0.0843
  284MPD2    C4 4339   0.253   0.885  12.625  0.6512  0.4104 -0.3481
  284MPD2    C5 4340   0.132   0.948  12.630  0.0907 -0.3280  0.0110
  284MPD2     H 4341   0.440   1.156  12.514 -0.8154  4.0641  3.8339
  284MPD2    H1 4342   0.258   0.781  12.654  1.6345  0.7349  0.6511
  284MPD2    H2 4343   0.018   1.129  12.593 -1.2528 -1.3958 -1.5104
  284MPD2    H3 4344   0.046   0.890  12.661  0.3951 -0.4745  0.5813
  284MPD2     N 4345   0.497   0.894  12.591  0.2930 -0.6914 -0.0895
  284MPD2    H5 4346   0.507   0.799  12.623  1.8885 -0.3758  0.3633
  284MPD2    N1 4347   0.211   1.273  12.463  0.3095 -1.0496  0.2615
  284MPD2    H7 4348   0.293   1.301  12.410  0.3855 -1.5777  0.1016
  285TMC3    C1 4349   0.093   1.423  12.317  1.4183 -0.1793 -0.1372
  285TMC3    C2 4350   0.187   1.410  12.217 -0.2862  0.3541 -0.3503
  285TMC3    C3 4351   0.172   1.470  12.093  0.0804 -0.6520  0.2716
  285TMC3    C4 4352   4.711   1.487  12.287 -0.4798  0.5594 -0.9768
  285TMC3    C5 4353   4.705   1.548  12.165  0.1041 -0.0529 -0.3313
  285TMC3    C6 4354   0.064   1.542  12.063  0.9689 -0.3552  0.0244
  285TMC3     C 4355   0.092   1.343  12.438 -0.0762  0.0413 -0.2039
  285TMC3     O 4356   4.718   1.316  12.492  0.5357  0.0766  0.5328
  285TMC3     H 4357   0.281   1.357  12.232 -1.4380 -1.5960 -0.0618
  285TMC3    H1 4358   4.630   1.487  12.359  0.2977  0.5737 -0.1108
  285TMC3    H2 4359   0.049   1.600  11.973  1.7004 -0.6601 -0.2941
  285TMC3    C7 4360   4.610   1.656  12.133  0.0669  0.3918 -0.1547
  285TMC3    C8 4361   0.258   1.421  11.992 -0.5678  0.0169  0.2766
  285TMC3    O1 4362   4.662   1.756  12.085  0.4984  0.0001  0.5315
  285TMC3    O2 4363   0.333   1.330  12.027 -0.2779  0.2263  0.0559
  286MPD2     C 4364   1.508   0.528   1.878  0.2974  0.3440  0.1548
  286MPD2    C1 4365   1.433   0.470   1.781 -0.6446 -1.2313  0.5904
  286MPD2    C2 4366   1.479   0.351   1.724  0.0324  0.0567  0.4460
  286MPD2    C3 4367   1.601   0.299   1.750  0.0776  0.1149  0.1477
  286MPD2    C4 4368   1.675   0.352   1.852 -0.1569 -0.1990  0.9462
  286MPD2    C5 4369   1.632   0.468   1.906  0.3301 -0.6581  0.9094
  286MPD2     H 4370   1.411   0.306   1.653 -1.3112  1.0365  1.1079
  286MPD2    H1 4371   1.772   0.307   1.875 -1.0084 -1.8280  1.3606
  286MPD2    H2 4372   1.476   0.618   1.930  3.3377  2.0589 -0.9229
  286MPD2    H3 4373   1.698   0.519   1.975 -0.8517  2.5086 -0.2995
  286MPD2     N 4374   1.666   0.197   1.678 -0.0748 -0.0192 -0.5042
  286MPD2    H5 4375   1.763   0.177   1.700 -0.4408 -0.3572  0.8525
  286MPD2    N1 4376   1.310   0.530   1.730  0.7623 -0.2607 -0.1283
  286MPD2    H7 4377   1.251   0.477   1.666 -3.3238  2.9150  0.9903
  287TMC3    C1 4378   1.710   0.018   1.530 -0.1444  0.1167  0.6660
  287TMC3    C2 4379   1.702   4.695   1.408 -0.4310 -0.2479  0.3246
  287TMC3    C3 4380   1.802   4.610   1.367  0.2935  0.4716 -0.4567
  287TMC3    C4 4381   1.807   4.719   1.614 -0.5381 -0.4842  0.1370
  287TMC3    C5 4382   1.901   4.622   1.579  0.4538 -0.3353 -0.1527
  287TMC3    C6 4383   1.901   4.571   1.449  0.4548 -0.2399 -0.2090
  287TMC3     C 4384   1.621   0.125   1.562 -0.3883 -0.2580  0.2460
  287TMC3     O 4385   1.525   0.140   1.489 -0.2688 -0.2673 -1.1612
  287TMC3     H 4386   1.613   4.710   1.349 -1.3370 -1.4136  1.3917
  287TMC3    H1 4387   1.795   0.008   1.719  1.7926 -1.4979  0.6236
  287TMC3    H2 4388   1.990   4.521   1.413  0.4589  0.1239 -0.7095
  287TMC3    C7 4389   2.029   4.653   1.644 -0.2354 -0.2157 -0.4938
  287TMC3    C8 4390   1.784   4.549   1.237  0.5615  0.3540  0.2043
  287TMC3    O1 4391   2.023   4.732   1.733  0.0972  0.5146 -0.0193
  287TMC3    O2 4392   1.669   4.549   1.194 -0.5341  0.3875  0.9715
  288TMC3    C1 4393   2.367   4.347  13.986  0.0934  0.4844 -1.0891
  288TMC3    C2 4394   2.372   4.390  14.110 -0.7989 -1.0050 -0.0386
  288TMC3    C3 4395   2.403   4.516  14.135 -0.0172 -0.1092  0.4764
  288TMC3    C4 4396   2.403   4.419  13.882  0.1989 -0.0105 -0.2714
  288TMC3    C5 4397   2.458   4.546  13.911 -0.3895 -0.0298  0.4096
  288TMC3    C6 4398   2.442   4.591  14.035 -0.3583 -0.1716 -0.5548
  288TMC3     C 4399   2.330   4.205  13.979  0.3358 -0.0348  0.0152
  288TMC3     O 4400   2.394   4.134  14.056 -0.0767 -0.4255 -0.1423
  288TMC3     H 4401   2.362   4.311  14.184  3.7901 -1.4889  0.1064
  288TMC3    H1 4402   2.392   4.378  13.783 -0.3422 -1.3386  0.3480
  288TMC3    H2 4403   2.456   4.695  14.059  0.5101  0.1197 -2.3083
  288TMC3    C7 4404   2.487   4.637  13.804 -0.4517  0.5276 -0.1985
  288TMC3    C8 4405   2.374   4.573  14.266 -0.2834  0.8115  0.6524
  288TMC3    O1 4406   2.476   0.027  13.839 -0.0335 -0.1241  0.3439
  288TMC3    O2 4407   2.413   4.686  14.290  0.2677  0.1237  0.8672
  289MPD2     C 4408   2.309   3.466  14.550  0.0850  0.0030 -0.8664
  289MPD2    C1 4409   2.292   3.544  14.437  0.0114  0.4842 -0.1536
  289MPD2    C2 4410   2.167   3.536  14.369  0.4898 -0.8799 -0.9540
  289MPD2    C3 4411   2.072   3.448  14.411 -0.4134 -0.7843  0.6043
  289MPD2    C4 4412   2.096   3.361  14.521 -0.2265  0.4977 -0.1258
  289MPD2    C5 4413   2.218   3.374  14.586 -0.5615  0.3614  0.6318
  289MPD2     H 4414   2.149   3.612  14.294  2.6885 -1.0863 -1.7013
  289MPD2    H1 4415   2.036   3.274  14.547  0.0333  0.8331  1.6041
  289MPD2    H2 4416   2.393   3.476  14.619  0.9881  1.5909 -2.1935
  289MPD2    H3 4417   2.228   3.312  14.675 -2.2359  1.7997  1.8178
  289MPD2     N 4418   1.941   3.445  14.365  0.1298 -0.4433 -0.1312
  289MPD2    H5 4419   1.877   3.382  14.413  0.1689 -0.0073  0.4813
  289MPD2    N1 4420   2.400   3.632  14.413  0.1282  0.5415 -0.5731
  289MPD2    H7 4421   2.491   3.608  14.452 -1.1050 -0.4674  1.6901
  290TMC3    C1 4422   1.752   3.465  14.221 -0.7175 -0.3607 -0.0050
  290TMC3    C2 4423   1.679   3.539  14.130 -0.6600  0.7730 -0.7902
  290TMC3    C3 4424   1.547   3.507  14.096 -0.2394  0.0111 -0.9395
  290TMC3    C4 4425   1.688   3.366  14.289  0.7769 -0.2893 -0.8421
  290TMC3    C5 4426   1.554   3.343  14.263  0.6055  0.2422 -0.4310
  290TMC3    C6 4427   1.483   3.407  14.162 -0.2337  0.6261  0.4650
  290TMC3     C 4428   1.883   3.518  14.262 -0.1493  0.0209  0.5804
  290TMC3     O 4429   1.935   3.603  14.192 -0.3360 -0.0910  0.9061
  290TMC3     H 4430   1.725   3.628  14.087  0.1535 -1.1565 -3.9111
  290TMC3    H1 4431   1.738   3.284  14.340  1.7789  0.3311 -0.8273
  290TMC3    H2 4432   1.385   3.373  14.129  0.5716  0.1579 -1.4276
  290TMC3    C7 4433   1.497   3.224  14.334  0.4759  1.3971 -0.0296
  290TMC3    C8 4434   1.451   3.614  14.069 -0.2052 -0.0513 -0.7578
  290TMC3    O1 4435   1.578   3.144  14.388 -0.3652  0.5116  0.4123
  290TMC3    O2 4436   1.331   3.579  14.075 -0.3043  0.2019 -0.0021
  291MPD2     C 4437   1.892   3.653   0.467  0.6779 -0.3647  0.8143
  291MPD2    C1 4438   2.026   3.638   0.466  0.2042  0.0741 -0.1754
  291MPD2    C2 4439   2.107   3.754   0.474  0.1048  0.0943  0.0076
  291MPD2    C3 4440   2.057   3.883   0.482  0.3288 -0.9615  0.7398
  291MPD2    C4 4441   1.917   3.894   0.487 -0.6196 -0.5384 -0.3643
  291MPD2    C5 4442   1.839   3.781   0.481  0.5076 -0.3018  0.4670
  291MPD2     H 4443   2.213   3.745   0.454  0.4739  1.3043  1.3304
  291MPD2    H1 4444   1.880   3.995   0.489  0.8861 -0.0134  0.5378
  291MPD2    H2 4445   1.820   3.572   0.460  1.2216 -0.6054 -1.7514
  291MPD2    H3 4446   1.731   3.790   0.483  0.4336 -1.1975  0.9037
  291MPD2     N 4447   2.122   4.004   0.493 -0.5104 -0.2887 -0.7219
  291MPD2    H5 4448   2.052   4.077   0.502  1.0741  1.2543 -0.9864
  291MPD2    N1 4449   2.087   3.512   0.459  0.2286  0.2421  0.4056
  291MPD2    H7 4450   2.185   3.518   0.436 -0.1740  2.2773 -0.7321
  292TMC3    C1 4451   2.103   3.284   0.430 -0.1470  0.0583  0.1695
  292TMC3    C2 4452   2.216   3.258   0.505 -1.0114 -0.2432 -0.1495
  292TMC3    C3 4453   2.286   3.145   0.490  0.1166  0.0311 -0.4180
  292TMC3    C4 4454   2.053   3.191   0.349  0.4815  1.0006  0.5454
  292TMC3    C5 4455   2.120   3.073   0.333 -0.1673  0.0638  0.8433
  292TMC3    C6 4456   2.246   3.061   0.391  0.8627  0.0851  1.1609
  292TMC3     C 4457   2.017   3.394   0.467  0.5363  0.3793 -0.4390
  292TMC3     O 4458   1.897   3.375   0.493 -0.2907 -0.1228 -0.3554
  292TMC3     H 4459   2.236   3.309   0.599  1.7837 -1.3600 -0.1335
  292TMC3    H1 4460   1.971   3.222   0.285 -1.4623 -4.5846  0.3161
  292TMC3    H2 4461   2.303   2.971   0.368 -1.5079 -1.6715  2.0960
  292TMC3    C7 4462   2.076   2.960   0.257  0.0072 -0.2242 -0.1435
  292TMC3    C8 4463   2.339   3.075   0.601  0.0766 -0.1341  0.3729
  292TMC3    O1 4464   2.161   2.876   0.219  0.0778 -0.3392 -0.3397
  292TMC3    O2 4465   2.437   3.002   0.587 -0.3202  0.0483 -0.2081
  293MPD2     C 4466   3.048   0.516  12.560  0.5326 -0.1399 -0.8639
  293MPD2    C1 4467   2.998   0.407  12.626 -0.4197 -0.4523 -0.2148
  293MPD2    C2 4468   3.024   0.393  12.761  0.5584  0.1716  0.3588
  293MPD2    C3 4469   3.087   0.491  12.842  0.0359 -0.5961  0.4252
  293MPD2    C4 4470   3.118   0.605  12.772 -0.3538  0.1404 -0.1030
  293MPD2    C5 4471   3.102   0.620  12.634  0.2095 -0.1627  0.0778
  293MPD2     H 4472   2.981   0.307  12.811 -0.2159  0.1086 -0.4303
  293MPD2    H1 4473   3.163   0.687  12.826  0.0982  0.2597 -0.6609
  293MPD2    H2 4474   3.041   0.522  12.452  2.3595  1.1803 -0.9095
  293MPD2    H3 4475   3.129   0.707  12.576 -0.5617  0.9420  1.4041
  293MPD2     N 4476   3.130   0.464  12.972 -0.1580  0.6487 -0.2542
  293MPD2    H5 4477   3.104   0.372  13.008 -1.4431  0.1319 -2.5074
  293MPD2    N1 4478   2.938   0.305  12.548 -0.8755 -0.8188  0.3794
  293MPD2    H7 4479   2.908   0.325  12.453  1.6957  0.3888 -0.1832
  294TMC3    C1 4480   2.870   0.095  12.492 -0.7044 -0.1754  0.0266
  294TMC3    C2 4481   2.787   0.002  12.536  0.2335 -0.0352 -0.0218
  294TMC3    C3 4482   2.715   4.665  12.440  0.1730  0.4145  0.4743
  294TMC3    C4 4483   2.904   0.110  12.362 -0.3036  0.1189 -0.0380
  294TMC3    C5 4484   2.842   0.030  12.268  0.1060 -0.3362 -0.5853
  294TMC3    C6 4485   2.743   4.679  12.305 -0.4579  0.3000  0.3902
  294TMC3     C 4486   2.923   0.181  12.595  0.6963  0.3898  0.4388
  294TMC3     O 4487   2.958   0.128  12.701 -0.1151  0.0778  0.0601
  294TMC3     H 4488   2.761   4.730  12.641 -0.8097 -1.0067 -0.3266
  294TMC3    H1 4489   2.987   0.173  12.332 -1.2101  1.2503 -0.1387
  294TMC3    H2 4490   2.689   4.617  12.234  0.3224 -0.6263  0.6118
  294TMC3    C7 4491   2.874   0.040  12.125 -0.0375 -0.0189  0.0277
  294TMC3    C8 4492   2.648   4.543  12.482  0.0746  0.1684  0.2898
  294TMC3    O1 4493   2.787   4.713  12.058 -0.0130  0.3564  0.0276
  294TMC3    O2 4494   2.597   4.548  12.590 -0.0392 -0.1954  0.2810
  295MPD2     C 4495   3.963   3.654   1.094 -0.1523 -0.2077  0.1779
  295MPD2    C1 4496   3.980   3.762   1.005  0.3426 -0.6235  0.5332
  295MPD2    C2 4497   4.000   3.889   1.064  0.4179 -0.7244 -0.3052
  295MPD2    C3 4498   3.998   3.903   1.201 -0.2664  0.1431 -0.0665
  295MPD2    C4 4499   3.962   3.793   1.282  0.0121 -0.3685 -0.1491
  295MPD2    C5 4500   3.941   3.672   1.222 -0.5433  0.9522 -0.0675
  295MPD2     H 4501   4.012   3.974   0.998 -0.0900 -0.3467  0.0920
  295MPD2    H1 4502   3.951   3.811   1.389 -1.2457 -0.2372 -0.2949
  295MPD2    H2 4503   3.944   3.555   1.054 -1.3359 -0.0738  0.4276
  295MPD2    H3 4504   3.926   3.586   1.287  2.8393  0.5087  0.1000
  295MPD2     N 4505   4.026   4.021   1.273 -0.4124 -0.8679  0.7773
  295MPD2    H5 4506   4.011   4.028   1.373 -0.7052  0.7614  0.6298
  295MPD2    N1 4507   4.004   3.750   0.874 -0.1391 -0.5269  0.4758
  295MPD2    H7 4508   4.022   3.836   0.822  1.1605 -0.3911  1.1693
  296TMC3    C1 4509   4.101   4.246   1.300 -0.3158  0.8758 -0.1284
  296TMC3    C2 4510   4.116   4.371   1.243  0.5927 -0.1900 -0.1461
  296TMC3    C3 4511   4.098   4.481   1.320  0.5257  0.2412  0.1908
  296TMC3    C4 4512   4.076   4.237   1.436  1.0582  0.3306 -0.6119
  296TMC3    C5 4513   4.067   4.352   1.506 -0.6416 -0.4904  0.0380
  296TMC3    C6 4514   4.082   4.474   1.455 -0.6963  0.0446  0.6140
  296TMC3     C 4515   4.080   4.136   1.211 -0.3827 -0.0117  0.2720
  296TMC3     O 4516   4.091   4.165   1.094  0.2684 -0.1642 -0.0045
  296TMC3     H 4517   4.128   4.394   1.138  0.2803  1.3499  0.1547
  296TMC3    H1 4518   4.099   4.141   1.482  1.0166  0.3967 -0.4526
  296TMC3    H2 4519   4.069   4.561   1.518  0.6428 -0.7872  2.0286
  296TMC3    C7 4520   4.070   4.337   1.650  0.0491  0.6903 -0.0059
  296TMC3    C8 4521   4.107   4.612   1.254 -0.6556  0.5049 -0.1634
  296TMC3    O1 4522   4.122   4.420   1.721 -0.6106  0.8709  0.2805
  296TMC3    O2 4523   4.094   4.613   1.130  0.1545  0.2057  0.3726
  297MPD2     C 4524   1.048   0.406  16.158 -0.0257  1.0191 -0.9752
  297MPD2    C1 4525   1.043   0.537  16.107  0.2623 -0.1339 -0.2908
  297MPD2    C2 4526   1.159   0.611  16.097 -0.4434  0.8434  0.9362
  297MPD2    C3 4527   1.279   0.555  16.133  0.0035  0.1175  0.8953
  297MPD2    C4 4528   1.283   0.424  16.175  0.5914  0.6170 -0.5191
  297MPD2    C5 4529   1.168   0.348  16.190 -0.5497  0.1140 -0.2481
  297MPD2     H 4530   1.152   0.716  16.071  3.9599  0.8517 -0.2213
  297MPD2    H1 4531   1.378   0.374  16.188 -0.1874 -0.3806  1.2821
  297MPD2    H2 4532   0.960   0.347  16.177  1.0385 -0.5500 -0.8936
  297MPD2    H3 4533   1.174   0.246  16.226  0.5000  0.5363  0.7772
  297MPD2     N 4534   1.391   0.634  16.102  0.0163  0.2170 -0.0724
  297MPD2    H5 4535   1.376   0.731  16.079 -0.7019 -0.5273 -2.6787
  297MPD2    N1 4536   0.923   0.606  16.088 -0.0793  0.2403  0.1509
  297MPD2    H7 4537   0.945   0.705  16.083 -0.1647  0.2621  0.2044
  298TMC3    C1 4538   0.701   0.644  16.013 -0.3560  0.3520  0.4336
  298TMC3    C2 4539   0.636   0.597  15.901  0.7989  0.0340 -0.2179
  298TMC3    C3 4540   0.533   0.672  15.855 -0.3445 -0.1063 -0.1151
  298TMC3    C4 4541   0.683   0.762  16.077  0.7930 -0.0963 -0.1004
  298TMC3    C5 4542   0.585   0.838  16.021  0.9521 -0.0890  0.0213
  298TMC3    C6 4543   0.506   0.799  15.912 -0.1360 -0.0368  0.6102
  298TMC3     C 4544   0.802   0.544  16.070 -0.1167  0.8640 -0.3826
  298TMC3     O 4545   0.775   0.427  16.071 -0.6390 -0.3187  0.5039
  298TMC3     H 4546   0.662   0.500  15.861  0.6849 -1.1151  2.4843
  298TMC3    H1 4547   0.724   0.770  16.177 -1.3912 -0.7953  0.8611
  298TMC3    H2 4548   0.416   0.850  15.881  0.3352  0.0963 -0.5506
  298TMC3    C7 4549   0.545   0.947  16.104  0.0995 -0.3881  1.0269
  298TMC3    C8 4550   0.480   0.640  15.725  0.3311  0.5237  0.9116
  298TMC3    O1 4551   0.603   0.957  16.211 -0.4968  0.1260  0.2491
  298TMC3    O2 4552   0.386   0.707  15.683  0.4517  0.0228 -0.0815
  299MPD2     C 4553   1.741   0.735  10.869 -0.9450  0.2882 -0.1318
  299MPD2    C1 4554   1.643   0.681  10.953  0.4713 -0.1889 -0.3735
  299MPD2    C2 4555   1.529   0.632  10.899  0.2639 -1.2010  0.1788
  299MPD2    C3 4556   1.501   0.653  10.766  0.0395 -0.1934 -0.6663
  299MPD2    C4 4557   1.590   0.718  10.683  0.3607  0.2466  0.3035
  299MPD2    C5 4558   1.714   0.749  10.733 -0.0261  0.1604 -0.1241
  299MPD2     H 4559   1.457   0.598  10.972  0.8942  1.0811  1.8719
  299MPD2    H1 4560   1.582   0.723  10.575 -1.4504 -1.4062  0.3694
  299MPD2    H2 4561   1.839   0.771  10.898 -0.0260 -0.5248 -2.2128
  299MPD2    H3 4562   1.786   0.798  10.668 -1.0195  2.6500  0.6805
  299MPD2     N 4563   1.375   0.615  10.707  0.5041 -0.3915  0.2492
  299MPD2    H5 4564   1.356   0.669  10.623  0.1362 -0.7041  0.1334
  299MPD2    N1 4565   1.675   0.679  11.088  0.2089  0.2564 -0.1376
  299MPD2    H7 4566   1.752   0.739  11.116  0.7926 -0.3912 -0.3680
  300TMC3    C1 4567   1.151   0.543  10.693  0.1748 -0.4770  0.2653
  300TMC3    C2 4568   1.157   0.550  10.558 -0.6047  0.2484 -1.0994
  300TMC3    C3 4569   1.043   0.537  10.479 -0.0037  0.0213 -0.3933
  300TMC3    C4 4570   1.034   0.551  10.756 -0.4887  0.9146  0.6046
  300TMC3    C5 4571   0.921   0.537  10.676  0.6830 -0.4006 -0.2448
  300TMC3    C6 4572   0.923   0.534  10.535  0.0696 -0.9332  0.0821
  300TMC3     C 4573   1.276   0.548  10.773 -0.5504  0.2514 -0.4886
  300TMC3     O 4574   1.274   0.483  10.878 -0.3144  0.2848 -0.3395
  300TMC3     H 4575   1.248   0.566  10.503 -0.3997  0.9088 -0.5656
  300TMC3    H1 4576   1.023   0.504  10.853  1.8965 -2.5129 -0.7763
  300TMC3    H2 4577   0.828   0.528  10.483  1.3107  1.2498 -2.4637
  300TMC3    C7 4578   0.785   0.537  10.733  0.0602 -0.3726 -0.5431
  300TMC3    C8 4579   1.042   0.606  10.350 -0.3960  0.4886 -0.6548
  300TMC3    O1 4580   0.694   0.500  10.656  0.2362  0.3430  0.0107
  300TMC3    O2 4581   0.973   0.567  10.258 -0.2702  0.3518 -1.0370
  301MPD2     C 4582   4.407   2.440   1.422  0.3146  0.0684 -1.1760
  301MPD2    C1 4583   4.321   2.382   1.331  0.1393 -0.1585  0.4195
  301MPD2    C2 4584   4.345   2.250   1.299  0.7135  0.0081 -0.7196
  301MPD2    C3 4585   4.464   2.187   1.342  0.3161  0.2469  0.4987
  301MPD2    C4 4586   4.552   2.248   1.428  0.2119 -0.0676  0.3690
  301MPD2    C5 4587   4.518   2.376   1.476  0.0892 -0.2953 -0.6198
  301MPD2     H 4588   4.273   2.202   1.234 -1.5896 -0.9223  2.5001
  301MPD2    H1 4589   4.643   2.207   1.472  0.9979  0.9126 -0.3186
  301MPD2    H2 4590   4.390   2.541   1.456 -0.5691 -0.4360 -0.0919
  301MPD2    H3 4591   4.577   2.426   1.552  2.6975  0.5703 -3.2005
  301MPD2     N 4592   4.495   2.050   1.312 -0.2842 -0.1153 -0.1118
  301MPD2    H5 4593   4.583   2.017   1.348 -1.2920 -2.3724  0.3145
  301MPD2    N1 4594   4.213   2.458   1.269 -0.0765 -0.0746  0.2620
  301MPD2    H7 4595   4.159   2.411   1.197  0.4930 -2.1639  1.1904
  302TMC3    C1 4596   4.494   1.838   1.213 -0.2421  0.6568  0.0682
  302TMC3    C2 4597   4.601   1.796   1.287 -0.3248 -0.2001 -0.0077
  302TMC3    C3 4598   4.655   1.679   1.244 -0.1673  0.2366  0.5936
  302TMC3    C4 4599   4.430   1.761   1.112  0.1311 -0.2742 -0.3162
  302TMC3    C5 4600   4.477   1.640   1.088  0.0037  0.2555 -0.9450
  302TMC3    C6 4601   4.595   1.598   1.143 -0.4605  0.0171 -0.0012
  302TMC3     C 4602   4.417   1.955   1.250 -0.7550  0.4216 -0.8035
  302TMC3     O 4603   4.303   1.965   1.206 -0.0164  0.4940  0.0499
  302TMC3     H 4604   4.643   1.842   1.376 -0.8858  3.5541 -1.6925
  302TMC3    H1 4605   4.348   1.806   1.056 -0.1272  0.9099  0.9973
  302TMC3    H2 4606   4.639   1.506   1.106 -1.1148 -0.3200  0.0659
  302TMC3    C7 4607   4.430   1.571   0.969 -0.1880 -0.1125  0.2992
  302TMC3    C8 4608   0.024   1.611   1.319 -0.3075  0.0423  0.2264
  302TMC3    O1 4609   4.515   1.509   0.905 -0.1171 -0.2365  0.1803
  302TMC3    O2 4610   0.036   1.491   1.305  0.0070 -0.3568  0.4950
  303MPD2     C 4611   4.188   0.378  10.618 -0.1395  0.1368 -0.6467
  303MPD2    C1 4612   4.110   0.399  10.730  0.2027 -0.0901  0.0993
  303MPD2    C2 4613   4.049   0.522  10.736 -0.7333  0.0085  0.0624
  303MPD2    C3 4614   4.061   0.623  10.637 -0.4671  0.7724 -0.4813
  303MPD2    C4 4615   4.141   0.597  10.535  0.0669 -0.9681  0.5048
  303MPD2    C5 4616   4.209   0.475  10.526 -0.4476 -0.0485  0.2954
  303MPD2     H 4617   3.984   0.538  10.821 -1.8002 -0.6134 -0.6347
  303MPD2    H1 4618   4.168   0.668  10.458 -1.0056 -0.7633  0.3147
  303MPD2    H2 4619   4.244   0.286  10.603 -2.2991 -0.8414 -2.6892
  303MPD2    H3 4620   4.276   0.452  10.444  0.4137  0.6391  0.8188
  303MPD2     N 4621   3.995   0.750  10.646 -0.0184 -0.0170  0.1305
  303MPD2    H5 4622   3.992   0.802  10.558 -1.0621  2.2725  1.5205
  303MPD2    N1 4623   4.091   0.295  10.822  0.3655  0.4968  0.0223
  303MPD2    H7 4624   4.144   0.213  10.795  0.1549  0.9961 -1.8894
  304TMC3    C1 4625   4.045   0.197  11.034  0.5101 -0.0961 -0.8985
  304TMC3    C2 4626   4.020   0.211  11.172  0.8632 -0.4050  0.1723
  304TMC3    C3 4627   3.979   0.102  11.242  0.0529  0.2661 -0.1231
  304TMC3    C4 4628   4.052   0.071  10.975  0.3814  0.0826 -0.1598
  304TMC3    C5 4629   4.038   4.698  11.056 -0.6083  0.1539  0.0258
  304TMC3    C6 4630   4.003   4.717  11.185  0.0333 -0.0989  0.5380
  304TMC3     C 4631   4.028   0.310  10.949  0.5853 -0.4731  0.2012
  304TMC3     O 4632   3.963   0.401  10.997  0.4271 -0.2247 -0.5033
  304TMC3     H 4633   4.018   0.313  11.210  0.5431 -0.6352  0.7578
  304TMC3    H1 4634   4.064   0.058  10.868  3.9566  1.0439  0.1268
  304TMC3    H2 4635   3.973   4.637  11.252 -0.5017 -1.2530 -1.0886
  304TMC3    C7 4636   3.952   4.600  10.982 -1.0065  0.1844  0.3274
  304TMC3    C8 4637   3.847   0.102  11.297  0.0137 -0.2366 -0.8614
  304TMC3    O1 4638   3.988   4.563  10.875  0.7508  0.4248 -0.2266
  304TMC3    O2 4639   3.771   0.034  11.231 -0.8708  0.5338  0.7615
  305MPD2     C 4640   2.183   2.206  14.323 -0.5206 -0.1786  0.2113
  305MPD2    C1 4641   2.149   2.075  14.313 -0.6949 -0.1629  0.1115
  305MPD2    C2 4642   2.097   2.025  14.190 -0.4414 -0.4742 -0.2657
  305MPD2    C3 4643   2.084   2.108  14.081 -0.5678 -0.6470 -0.4004
  305MPD2    C4 4644   2.123   2.241  14.100  0.5106 -0.3238 -0.3154
  305MPD2    C5 4645   2.190   2.282  14.208  0.0414 -0.4396  0.0573
  305MPD2     H 4646   2.062   1.922  14.191 -2.6476  0.2623 -3.6318
  305MPD2    H1 4647   2.104   2.314  14.022 -1.9000  0.5474  1.0921
  305MPD2    H2 4648   2.233   2.243  14.412  0.2176 -1.1718  0.2113
  305MPD2    H3 4649   2.213   2.386  14.226  2.2736 -0.7820 -0.9138
  305MPD2     N 4650   2.018   2.075  13.958 -0.5009 -0.5328 -0.1084
  305MPD2    H5 4651   2.022   2.148  13.888  0.8106 -1.6076 -1.1531
  305MPD2    N1 4652   2.160   1.998  14.436  0.2097  0.0683 -0.1735
  305MPD2    H7 4653   2.198   2.031  14.524  0.2421  1.1070 -0.5740
  306TMC3    C1 4654   2.184   1.817  14.580 -0.4509  0.3730 -0.0519
  306TMC3    C2 4655   2.252   1.696  14.562 -0.1817 -0.0403  0.7333
  306TMC3    C3 4656   2.355   1.667  14.648 -0.4687 -0.4886 -0.1257
  306TMC3    C4 4657   2.220   1.917  14.667 -0.0285 -0.3363 -0.5287
  306TMC3    C5 4658   2.327   1.881  14.750  0.3334 -0.0152 -0.0493
  306TMC3    C6 4659   2.394   1.758  14.747  0.2123 -0.4890 -0.3199
  306TMC3     C 4660   2.127   1.868  14.454  0.1591  0.3152 -0.5412
  306TMC3     O 4661   2.077   1.793  14.371  0.2446  0.2507 -0.1267
  306TMC3     H 4662   2.224   1.629  14.481  0.0782 -3.3811  3.3848
  306TMC3    H1 4663   2.161   2.008  14.669  0.1926 -0.1521 -1.8653
  306TMC3    H2 4664   2.487   1.755  14.804  0.9347 -1.4033 -1.5642
  306TMC3    C7 4665   2.390   1.994  14.807 -0.3221 -0.5367 -0.1588
  306TMC3    C8 4666   2.391   1.527  14.652 -0.1249 -0.2705  0.4792
  306TMC3    O1 4667   2.354   2.099  14.754  0.0712  0.1416  0.0731
  306TMC3    O2 4668   2.328   1.449  14.579  0.4560  0.5429 -0.1163
  307MPD2     C 4669   0.979   0.373   1.770  0.1236 -0.3972 -0.4900
  307MPD2    C1 4670   0.904   0.331   1.659  0.1059 -0.7157  0.0174
  307MPD2    C2 4671   0.766   0.334   1.672  0.2444 -0.4139 -0.8719
  307MPD2    C3 4672   0.704   0.362   1.785  0.0211 -0.4737 -0.0390
  307MPD2    C4 4673   0.779   0.388   1.897  0.0697  0.7538 -0.7227
  307MPD2    C5 4674   0.917   0.392   1.890  0.3339 -0.5760 -0.5631
  307MPD2     H 4675   0.710   0.314   1.581 -2.1847  1.6638  0.1336
  307MPD2    H1 4676   0.728   0.406   1.991 -1.1649  0.0403 -1.2532
  307MPD2    H2 4677   1.087   0.372   1.781  0.1741  1.7745 -0.6995
  307MPD2    H3 4678   0.978   0.407   1.979 -1.7108 -0.9094  0.9083
  307MPD2     N 4679   0.563   0.359   1.783 -0.0423  0.6040 -0.2242
  307MPD2    H5 4680   0.517   0.331   1.697 -0.6525  2.9590 -0.6592
  307MPD2    N1 4681   0.960   0.282   1.541  0.5710  1.2511  0.4005
  307MPD2    H7 4682   0.901   0.235   1.474  1.2858  1.8439 -0.6520
  308TMC3    C1 4683   0.205   0.346   1.656 -0.6314 -0.6493  0.0071
  308TMC3    C2 4684   0.162   0.475   1.633 -0.2927  0.4671  0.0338
  308TMC3    C3 4685   0.201   0.569   1.723 -0.7528  0.1182 -0.3376
  308TMC3    C4 4686   0.297   0.314   1.748  0.4006  0.8675 -0.1198
  308TMC3    C5 4687   0.346   0.416   1.825 -0.4468  0.8293 -0.5169
  308TMC3    C6 4688   0.285   0.542   1.822  0.0948  0.0310  0.0125
  308TMC3     C 4689   0.182   0.255   1.536 -0.3141  0.1160 -0.2453
  308TMC3     O 4690   0.199   0.135   1.551 -0.1401  0.1687 -0.2254
  308TMC3     H 4691   0.089   0.504   1.559  1.4198  2.3664 -0.9154
  308TMC3    H1 4692   0.331   0.212   1.754 -0.6709  0.4619 -0.8811
  308TMC3    H2 4693   0.327   0.624   1.879  0.6460  0.3869 -0.8952
  308TMC3    C7 4694   0.479   0.414   1.874  0.2841  0.5720  0.1946
  308TMC3    C8 4695   0.207   0.703   1.664 -0.2725  1.0996  0.5574
  308TMC3    O1 4696   0.510   0.488   1.967  0.9362  0.3422 -0.3066
  308TMC3    O2 4697   0.190   0.802   1.735 -0.0835 -0.2957  0.3714
  309MPD2     C 4698   4.730   0.630  17.372  0.0836  0.5553 -0.0880
  309MPD2    C1 4699   4.625   0.663  17.289 -0.5665  0.6365  0.7378
  309MPD2    C2 4700   4.496   0.659  17.335 -0.6206 -0.2651  0.7592
  309MPD2    C3 4701   4.466   0.620  17.466  0.4751  0.4236 -0.4536
  309MPD2    C4 4702   4.575   0.571  17.535 -0.0662  0.3075  0.1274
  309MPD2    C5 4703   4.701   0.576  17.490  1.0069 -0.3088 -0.0054
  309MPD2     H 4704   4.417   0.680  17.264  2.6526  0.3480 -2.7088
  309MPD2    H1 4705   4.562   0.539  17.638  1.6095  1.5528  0.7346
  309MPD2    H2 4706   0.101   0.638  17.348  0.8784 -3.1026  2.3247
  309MPD2    H3 4707   0.047   0.541  17.554 -1.5938 -0.3773  3.2143
  309MPD2     N 4708   4.332   0.621  17.517 -0.5771 -0.7561 -0.3638
  309MPD2    H5 4709   4.321   0.571  17.605 -0.3991  0.9230  0.6110
  309MPD2    N1 4710   4.646   0.705  17.153  0.3012 -0.3992  0.2910
  309MPD2    H7 4711   4.568   0.739  17.097 -0.4902 -1.8473  0.4996
  310TMC3    C1 4712   0.025   0.748  16.955 -0.1185  0.1136  0.3228
  310TMC3    C2 4713   4.679   0.859  16.937  0.1617  0.0589  0.4861
  310TMC3    C3 4714   4.681   0.915  16.811 -0.9367  0.0441 -0.2709
  310TMC3    C4 4715   0.100   0.687  16.857  0.0497 -0.1407  0.4789
  310TMC3    C5 4716   0.102   0.750  16.740  0.6937  0.0208  0.3349
  310TMC3    C6 4717   0.024   0.856  16.716  1.0290 -0.3152  0.1726
  310TMC3     C 4718   0.026   0.680  17.087  0.1650  0.1662  0.0171
  310TMC3     O 4719   0.113   0.595  17.101 -0.3190  0.0618 -0.5201
  310TMC3     H 4720   4.642   0.916  17.021  0.5541  2.0771 -0.7112
  310TMC3    H1 4721   0.171   0.609  16.881  0.0273  0.2674  1.9175
  310TMC3    H2 4722   0.026   0.895  16.615  1.5288  0.3069  0.4192
  310TMC3    C7 4723   0.133   0.663  16.620 -0.0516  0.3170 -0.0286
  310TMC3    C8 4724   4.560   0.973  16.765 -0.1687  0.6567  0.3512
  310TMC3    O1 4725   0.151   0.720  16.513 -0.5333  0.2191 -0.2158
  310TMC3    O2 4726   4.450   0.938  16.803 -0.2103 -0.6445  0.2793
  311MPD2     C 4727   1.068   2.293  12.931 -0.6707 -0.1908  0.0823
  311MPD2    C1 4728   1.057   2.238  13.055 -0.5143  0.3151  0.1409
  311MPD2    C2 4729   0.933   2.185  13.093 -0.9157  0.2429 -0.1973
  311MPD2    C3 4730   0.826   2.179  13.009 -0.5248 -0.1864  0.1726
  311MPD2    C4 4731   0.843   2.221  12.878  0.2825 -0.6084 -0.5006
  311MPD2    C5 4732   0.964   2.271  12.839 -0.0696 -0.0087  0.5738
  311MPD2     H 4733   0.913   2.136  13.188  2.1294  0.3100  0.4813
  311MPD2    H1 4734   0.765   2.209  12.804 -0.0711  2.0475 -0.5547
  311MPD2    H2 4735   1.155   2.342  12.888 -0.7928 -1.4786 -1.6232
  311MPD2    H3 4736   0.975   2.303  12.736 -1.0470 -0.3875  0.3584
  311MPD2     N 4737   0.701   2.125  13.058  0.5547  0.0066 -0.0366
  311MPD2    H5 4738   0.695   2.079  13.148  0.1449  0.2048  0.0369
  311MPD2    N1 4739   1.160   2.244  13.152  0.8893  0.6699  0.4612
  311MPD2    H7 4740   1.129   2.229  13.248  0.4164  0.9894  0.3558
  312TMC3    C1 4741   0.472   2.082  13.078 -0.3439  0.3818 -0.1757
  312TMC3    C2 4742   0.363   2.014  13.016  0.4615 -0.2412  0.9465
  312TMC3    C3 4743   0.280   1.949  13.100 -0.7833 -0.0664 -0.3503
  312TMC3    C4 4744   0.485   2.090  13.212  0.3463 -0.0557  0.0310
  312TMC3    C5 4745   0.395   2.020  13.288 -0.5555  0.4614 -0.0834
  312TMC3    C6 4746   0.300   1.943  13.233 -0.3085 -0.6741  0.0626
  312TMC3     C 4747   0.581   2.120  12.993 -0.0522  0.1179  0.5452
  312TMC3     O 4748   0.552   2.166  12.881  0.2179 -0.0378 -0.1892
  312TMC3     H 4749   0.352   2.012  12.908 -0.2913  0.7141  1.0033
  312TMC3    H1 4750   0.559   2.150  13.264  0.7258  0.1827 -0.7964
  312TMC3    H2 4751   0.231   1.895  13.301  0.5224 -0.3888  1.1027
  312TMC3    C7 4752   0.377   2.059  13.429 -0.1251  0.8661  0.2324
  312TMC3    C8 4753   0.150   1.915  13.054  0.6934 -0.2789 -0.1500
  312TMC3    O1 4754   0.383   2.177  13.463  0.4342  0.8136  0.9122
  312TMC3    O2 4755   0.087   1.855  13.142 -0.3133  0.3094  0.1277
  313MPD2     C 4756   4.512   1.544  11.818  0.1214 -0.2613 -0.3267
  313MPD2    C1 4757   4.611   1.555  11.721 -0.6592  0.2578 -1.3196
  313MPD2    C2 4758   4.673   1.446  11.668 -0.2084 -0.2146 -0.3796
  313MPD2    C3 4759   4.650   1.316  11.721  0.5033 -0.8973  0.3791
  313MPD2    C4 4760   4.545   1.308  11.813  0.3848  0.5289 -0.3233
  313MPD2    C5 4761   4.482   1.417  11.856 -0.3967  0.0199 -0.0240
  313MPD2     H 4762   0.015   1.468  11.594  0.8280  1.5969  1.2332
  313MPD2    H1 4763   4.508   1.215  11.855 -0.2659  0.3844 -1.2115
  313MPD2    H2 4764   4.463   1.620  11.878  0.3886  0.0971 -0.5645
  313MPD2    H3 4765   4.398   1.389  11.919 -0.3727 -2.6347 -1.1486
  313MPD2     N 4766   4.729   1.220  11.666 -0.5269  0.5541  0.1657
  313MPD2    H5 4767   0.056   1.240  11.587 -1.0207  0.3100 -0.2813
  313MPD2    N1 4768   4.653   1.680  11.671  0.2088  0.0909 -0.7481
  313MPD2    H7 4769   4.727   1.687  11.602 -0.0917 -2.3027 -1.3377
  314TMC3    C1 4770   4.637   1.902  11.610  0.3660  0.5793 -0.8727
  314TMC3    C2 4771   0.039   1.898  11.606  0.1850 -0.5063 -0.1361
  314TMC3    C3 4772   0.095   1.949  11.493  0.6847 -0.3089  0.4013
  314TMC3    C4 4773   4.552   1.955  11.508 -0.6985  0.5353  0.8163
  314TMC3    C5 4774   4.623   2.005  11.404 -1.0391  0.5419 -0.1843
  314TMC3    C6 4775   0.023   1.993  11.385  0.0035  0.2384 -0.0601
  314TMC3     C 4776   4.577   1.795  11.687 -0.8035  0.3027  0.5886
  314TMC3     O 4777   4.469   1.812  11.741  0.1202  0.3062 -0.5453
  314TMC3     H 4778   0.096   1.855  11.687 -1.5028  0.0469  1.3658
  314TMC3    H1 4779   4.444   1.962  11.513 -0.8516 -0.3313 -1.3254
  314TMC3    H2 4780   0.071   2.054  11.310 -2.8335  1.1374 -1.1179
  314TMC3    C7 4781   4.549   2.050  11.283  0.4720 -0.1770 -0.1753
  314TMC3    C8 4782   0.239   1.950  11.476 -0.1628 -0.5456  0.7033
  314TMC3    O1 4783   4.439   2.098  11.298  0.5269  0.3113 -0.1538
  314TMC3    O2 4784   0.278   1.982  11.364  0.1628  0.5978 -0.4168
  315MPD2     C 4785   0.698   0.391  17.656  0.4302  0.3395  0.1980
  315MPD2    C1 4786   0.823   0.427  17.708 -0.0878 -0.1276  0.0409
  315MPD2    C2 4787   0.876   0.553  17.680  0.3865 -0.4482 -0.0255
  315MPD2    C3 4788   0.801   0.642  17.602  0.5517  0.0111  0.2957
  315MPD2    C4 4789   0.677   0.606  17.551  0.0983 -0.3035  0.3806
  315MPD2    C5 4790   0.633   0.481  17.581 -0.1033  0.1172  0.3929
  315MPD2     H 4791   0.978   0.582  17.702  0.2947  0.1817 -0.4447
  315MPD2    H1 4792   0.617   0.677  17.495 -0.0193  0.7973  1.8884
  315MPD2    H2 4793   0.639   0.302  17.670  1.9749 -0.5477  1.0002
  315MPD2    H3 4794   0.536   0.461  17.538 -0.0195  0.7341 -0.0726
  315MPD2     N 4795   0.873   0.766  17.574  0.3169 -0.2733  0.7238
  315MPD2    H5 4796   0.970   0.767  17.601  0.5234 -1.3123  0.0124
  315MPD2    N1 4797   0.907   0.337   0.054  0.0405 -0.2177  0.1288
  315MPD2    H7 4798   0.988   0.373   0.104 -2.8857  2.6277  2.7494
  316TMC3    C1 4799   0.922   0.968  17.474 -0.0254 -0.1128 -0.0228
  316TMC3    C2 4800   1.027   0.980  17.563  0.5237  0.0205  0.3184
  316TMC3    C3 4801   1.106   1.090  17.557 -0.5982 -0.1685  0.1111
  316TMC3    C4 4802   0.895   1.057  17.370  0.0772  0.1290  0.3190
  316TMC3    C5 4803   0.982   1.166  17.371 -0.1778  0.1409  0.6816
  316TMC3    C6 4804   1.081   1.186  17.461 -0.3323  0.2809 -0.3510
  316TMC3     C 4805   0.834   0.861  17.489  0.2277 -0.3374  0.1215
  316TMC3     O 4806   0.728   0.865  17.422  0.2005 -0.1217  0.6763
  316TMC3     H 4807   1.055   0.915  17.645 -2.0730  0.0945  1.2737
  316TMC3    H1 4808   0.819   1.040  17.294  0.9832  0.5832 -0.6906
  316TMC3    H2 4809   1.147   1.272  17.464  2.9144 -2.1414 -2.7201
  316TMC3    C7 4810   0.988   1.247  17.248  0.0830  0.2767  0.2500
  316TMC3    C8 4811   1.192   1.133  17.660 -0.4530  0.0551 -0.6326
  316TMC3    O1 4812   1.101   1.293  17.231  0.4498 -0.1365  0.0094
  316TMC3    O2 4813   1.191   1.249  17.700  0.1081  0.7281  0.4408
  317MPD2     C 4814   2.041   3.375  13.073  0.3866  0.8843 -0.1112
  317MPD2    C1 4815   2.172   3.341  13.104  0.3588 -0.0334  0.1929
  317MPD2    C2 4816   2.210   3.305  13.234 -0.2254 -0.1602 -0.7589
  317MPD2    C3 4817   2.126   3.323  13.339  0.1758 -0.2623 -0.3542
  317MPD2    C4 4818   2.003   3.380  13.311 -0.1531  0.3461  0.3419
  317MPD2    C5 4819   1.959   3.401  13.184 -0.5983  0.7805  0.0918
  317MPD2     H 4820   2.307   3.259  13.243 -1.9119 -3.3920  0.6072
  317MPD2    H1 4821   1.937   3.398  13.395  0.5508 -0.3044  1.0415
  317MPD2    H2 4822   2.009   3.407  12.974 -0.6348  0.6585  0.1452
  317MPD2    H3 4823   1.855   3.433  13.174 -0.0572  2.6726  0.4751
  317MPD2     N 4824   2.169   3.277  13.462 -0.5002 -0.0528  0.1288
  317MPD2    H5 4825   2.265   3.247  13.476 -0.8075 -0.6081  1.0651
  317MPD2    N1 4826   2.269   3.318  12.998 -0.3737 -0.0182 -0.6975
  317MPD2    H7 4827   2.356   3.275  13.028 -0.1315  0.7280 -0.3136
  318TMC3    C1 4828   2.164   3.228  13.687  0.5447  0.4262  0.8620
  318TMC3    C2 4829   2.105   3.123  13.751 -0.5873  0.5369  0.5093
  318TMC3    C3 4830   2.184   3.058  13.842  0.2188 -0.4334  0.2150
  318TMC3    C4 4831   2.296   3.267  13.708  0.8596 -0.0301 -0.3664
  318TMC3    C5 4832   2.371   3.194  13.799 -0.1335  0.0056 -0.1015
  318TMC3    C6 4833   2.315   3.090  13.867  0.1005  0.0063 -0.3075
  318TMC3     C 4834   2.085   3.279  13.577  0.0772 -0.2296 -0.5434
  318TMC3     O 4835   1.963   3.291  13.592 -0.4262 -0.0498  0.2587
  318TMC3     H 4836   2.002   3.102  13.722 -0.6369  0.2384  0.8992
  318TMC3    H1 4837   2.339   3.352  13.657  2.4209 -0.4245  0.2723
  318TMC3    H2 4838   2.376   3.028  13.932  2.2131  1.6563 -0.7523
  318TMC3    C7 4839   2.509   3.237  13.816  0.7864  0.5955  0.2216
  318TMC3    C8 4840   2.119   2.941  13.914  0.1714  0.2468 -0.0175
  318TMC3    O1 4841   2.518   3.351  13.779 -0.1158 -0.1342  0.1377
  318TMC3    O2 4842   2.188   2.870  13.991  0.2801 -0.2759  0.1056
  319MPD2     C 4843   3.448   4.652  16.321 -0.7104  0.4902 -0.5804
  319MPD2    C1 4844   3.394   4.613  16.441  0.1259  0.2866  1.0586
  319MPD2    C2 4845   3.271   4.543  16.444  0.7192 -0.5902 -0.1145
  319MPD2    C3 4846   3.200   4.516  16.330  0.4362  1.0708 -0.0687
  319MPD2    C4 4847   3.253   4.551  16.207  0.2871 -0.1951 -0.1001
  319MPD2    C5 4848   3.379   4.616  16.207  0.6453  0.5650  0.3276
  319MPD2     H 4849   3.230   4.513  16.540  1.5358  2.3039  1.1385
  319MPD2    H1 4850   3.208   4.540  16.109  0.4988 -0.2240 -0.1944
  319MPD2    H2 4851   3.545   4.699  16.314  0.0927 -0.9493  0.7802
  319MPD2    H3 4852   3.425   4.626  16.109 -0.7508  1.8234 -0.2064
  319MPD2     N 4853   3.074   4.459  16.322  0.5243  0.4415  0.0310
  319MPD2    H5 4854   3.046   4.445  16.225 -1.4724  1.9874  0.3867
  319MPD2    N1 4855   3.457   4.647  16.562  0.2852  0.1746 -0.4327
  319MPD2    H7 4856   3.415   4.602  16.643 -0.6554 -1.0660 -1.6103
  320TMC3    C1 4857   2.881   4.343  16.359 -0.5281  0.4511  1.7160
  320TMC3    C2 4858   2.829   4.411  16.257 -1.2121 -0.2693  0.0194
  320TMC3    C3 4859   2.740   4.353  16.176  0.1540 -0.4811 -0.1191
  320TMC3    C4 4860   2.856   4.213  16.386 -0.1574 -0.0209 -0.5216
  320TMC3    C5 4861   2.762   4.157  16.305 -0.4094  0.1578  0.1262
  320TMC3    C6 4862   2.697   4.224  16.202 -0.7080 -0.9218  0.0711
  320TMC3     C 4863   3.006   4.394  16.418 -0.2004 -0.2093  1.0298
  320TMC3     O 4864   3.044   4.360  16.524  0.4490 -0.0073  0.5223
  320TMC3     H 4865   2.846   4.517  16.243 -1.1679 -0.3582 -0.5900
  320TMC3    H1 4866   2.927   4.148  16.437  1.7245  2.0023 -0.5464
  320TMC3    H2 4867   2.629   4.176  16.133 -0.6561 -1.0914  0.1372
  320TMC3    C7 4868   2.765   4.014  16.291 -0.2889  0.5791 -0.4340
  320TMC3    C8 4869   2.674   4.432  16.071 -0.2857 -0.7724 -0.0078
  320TMC3    O1 4870   2.749   3.973  16.177 -0.0708  0.3366 -0.2715
  320TMC3    O2 4871   2.646   4.550  16.100 -0.6642 -0.3052 -0.8056
  321TMC3    C1 4872   3.573   0.050  16.731 -0.7011 -0.6464 -0.4286
  321TMC3    C2 4873   3.494   0.007  16.831 -0.4181  0.4326 -0.3520
  321TMC3    C3 4874   3.509   0.054  16.962  0.4507  0.0965  0.4943
  321TMC3    C4 4875   3.668   0.144  16.755 -0.0061  0.7291  0.4645
  321TMC3    C5 4876   3.693   0.188  16.881 -0.4922 -0.4422 -0.0710
  321TMC3    C6 4877   3.613   0.142  16.985 -0.2857  0.7162 -0.2177
  321TMC3     C 4878   3.559   0.009  16.587  0.6858  0.6373  0.1335
  321TMC3     O 4879   3.612   0.080  16.508 -0.3544 -0.3819 -0.1692
  321TMC3     H 4880   3.424   4.660  16.814 -0.5476  0.4785 -0.0422
  321TMC3    H1 4881   3.747   0.166  16.683 -0.6607  0.8835 -0.2097
  321TMC3    H2 4882   3.629   0.173  17.088  0.3648 -1.7840  0.4272
  321TMC3    C7 4883   3.832   0.171  16.917 -0.1604 -0.2474 -0.0897
  321TMC3    C8 4884   3.494   4.699  17.078  0.2854  0.5224 -0.7632
  321TMC3    O1 4885   3.858   0.051  16.905  0.0667  0.1683 -0.0572
  321TMC3    O2 4886   3.482   0.022  17.188 -0.2518  0.3135 -0.1908
  322MPD2     C 4887   1.702   1.242  13.753  0.9674  0.1703 -0.3130
  322MPD2    C1 4888   1.754   1.164  13.853 -0.3040  0.0565  0.2215
  322MPD2    C2 4889   1.750   1.023  13.836  0.1088 -0.1127 -0.3800
  322MPD2    C3 4890   1.706   0.963  13.718 -0.3948  0.4618  0.1333
  322MPD2    C4 4891   1.663   1.045  13.619 -0.4981 -0.3780  0.1900
  322MPD2    C5 4892   1.653   1.180  13.638 -0.1016  0.4525 -0.8959
  322MPD2     H 4893   1.789   0.957  13.913 -0.9468 -2.0423 -1.4901
  322MPD2    H1 4894   1.628   1.010  13.523 -1.2266  1.7043 -0.3028
  322MPD2    H2 4895   1.710   1.350  13.753  1.0208  0.1660 -0.8576
  322MPD2    H3 4896   1.593   1.244  13.574 -1.0351  1.3704  0.8902
  322MPD2     N 4897   1.738   0.824  13.703  0.4575 -0.3334 -0.1673
  322MPD2    H5 4898   1.760   0.772  13.788  1.6520 -1.2243 -1.0359
  322MPD2    N1 4899   1.807   1.230  13.966  0.1094 -0.1890  0.8010
  322MPD2    H7 4900   1.820   1.331  13.964  1.1361 -0.3345  0.1854
  323TMC3    C1 4901   1.881   1.257  14.185  0.0556 -0.4781  0.7144
  323TMC3    C2 4902   1.981   1.342  14.148 -0.3633 -0.4139 -0.4466
  323TMC3    C3 4903   2.071   1.378  14.234 -0.1905  0.6338 -0.2148
  323TMC3    C4 4904   1.868   1.208  14.318  0.2583 -0.5932  0.4994
  323TMC3    C5 4905   1.966   1.256  14.407  0.0454 -0.1441 -0.8393
  323TMC3    C6 4906   2.066   1.337  14.362 -0.6413 -0.6026  0.2343
  323TMC3     C 4907   1.806   1.175  14.089  0.0121  0.3851  0.5565
  323TMC3     O 4908   1.763   1.063  14.124  0.3229 -0.1110 -0.1689
  323TMC3     H 4909   1.996   1.363  14.042  2.4639 -0.4901 -0.0339
  323TMC3    H1 4910   1.796   1.131  14.343 -0.4252  0.1794  0.9536
  323TMC3    H2 4911   2.157   1.355  14.417  0.5581  1.9982 -2.6252
  323TMC3    C7 4912   1.984   1.161  14.515  0.1802 -0.2538 -0.7912
  323TMC3    C8 4913   2.185   1.450  14.198  0.4732 -0.3740  1.0248
  323TMC3    O1 4914   1.918   1.060  14.518  0.0224 -0.3592 -0.5639
  323TMC3    O2 4915   2.296   1.419  14.240  0.1970  0.3774 -0.3796
  324MPD2     C 4916   3.614   1.809  14.491  0.1687 -0.2549 -0.7718
  324MPD2    C1 4917   3.631   1.942  14.463 -0.2694  0.1866 -0.4144
  324MPD2    C2 4918   3.525   2.023  14.426 -0.1201 -0.3360 -0.0097
  324MPD2    C3 4919   3.395   1.972  14.429  0.4037  1.0944 -0.4926
  324MPD2    C4 4920   3.381   1.842  14.460 -0.5664 -0.7698  0.2693
  324MPD2    C5 4921   3.489   1.762  14.477  0.7976 -0.2817 -0.2255
  324MPD2     H 4922   3.544   2.125  14.395  3.5712 -1.1112 -0.2460
  324MPD2    H1 4923   3.283   1.796  14.463  1.4443 -5.1432 -0.4454
  324MPD2    H2 4924   3.692   1.739  14.522 -1.4778 -1.4123  0.7465
  324MPD2    H3 4925   3.464   1.660  14.504 -0.3965 -0.0581 -0.5027
  324MPD2     N 4926   3.279   2.047  14.402  0.9195 -0.0491 -0.2778
  324MPD2    H5 4927   3.192   2.002  14.430 -0.2612  0.1736 -3.5867
  324MPD2    N1 4928   3.763   1.999  14.441 -0.7215  0.3740  0.3475
  324MPD2    H7 4929   3.766   2.089  14.395  1.6865 -0.0702 -0.3698
  325TMC3    C1 4930   3.152   2.239  14.367 -0.0302 -0.5772  0.3358
  325TMC3    C2 4931   3.060   2.166  14.302  0.2726  0.7844  0.0848
  325TMC3    C3 4932   2.931   2.212  14.296 -0.4126 -0.2754  0.3055
  325TMC3    C4 4933   3.121   2.360  14.430  0.4516  0.2671  0.3059
  325TMC3    C5 4934   2.990   2.405  14.410  0.1256 -0.2600 -0.2727
  325TMC3    C6 4935   2.893   2.328  14.344  0.2027 -0.1990  0.1101
  325TMC3     C 4936   3.284   2.183  14.386  0.0870  0.3661 -0.1931
  325TMC3     O 4937   3.375   2.264  14.390  0.0952  0.2485 -0.4160
  325TMC3     H 4938   3.104   2.087  14.242  0.2601  0.5470  0.3888
  325TMC3    H1 4939   3.189   2.413  14.495 -0.6154  0.0846  1.5655
  325TMC3    H2 4940   2.789   2.356  14.338  0.0715 -1.1120 -1.8444
  325TMC3    C7 4941   2.952   2.524  14.481 -0.0867  0.9158 -0.9143
  325TMC3    C8 4942   2.864   2.169  14.176  0.1291 -0.7138 -0.0045
  325TMC3    O1 4943   3.012   2.629  14.466 -0.0915  0.8117  0.0560
  325TMC3    O2 4944   2.928   2.108  14.092  0.1482 -0.0162  0.2121
  326MPD2     C 4945   0.014   3.455  11.217 -0.3783 -0.7698 -0.2198
  326MPD2    C1 4946   0.013   3.502  11.086 -0.3453 -0.4225 -0.5994
  326MPD2    C2 4947   0.124   3.564  11.030 -0.1173 -0.5681 -0.2825
  326MPD2    C3 4948   0.237   3.573  11.103  1.3361  0.0782 -0.2201
  326MPD2    C4 4949   0.238   3.530  11.232  0.5107 -0.1271  0.9728
  326MPD2    C5 4950   0.127   3.468  11.289  0.1353  0.0864 -0.0809
  326MPD2     H 4951   0.115   3.600  10.928  0.1607 -0.8817 -0.4192
  326MPD2    H1 4952   0.321   3.542  11.302  2.9124  0.4343 -1.9983
  326MPD2    H2 4953   4.670   3.389  11.252 -0.4600 -2.5151 -3.6251
  326MPD2    H3 4954   0.150   3.415  11.381 -1.7001 -1.9017 -0.7643
  326MPD2     N 4955   0.351   3.637  11.053 -0.2934  0.1027 -0.5328
  326MPD2    H5 4956   0.434   3.628  11.111 -1.0418  1.1265  0.7068
  326MPD2    N1 4957   4.623   3.495  11.004 -0.0836  0.0069  0.0493
  326MPD2    H7 4958   4.617   3.516  10.905 -0.8457 -2.4122 -0.4370
  327TMC3    C1 4959   4.397   3.502  10.943  0.2908 -0.1261 -0.2775
  327TMC3    C2 4960   4.307   3.602  10.943  0.4748  0.4801 -0.1075
  327TMC3    C3 4961   4.286   3.648  10.815  0.3057 -0.2611 -0.4654
  327TMC3    C4 4962   4.459   3.450  10.828  0.2865 -0.6913  0.2793
  327TMC3    C5 4963   4.439   3.504  10.703 -0.3139  0.2167  0.2570
  327TMC3    C6 4964   4.347   3.609  10.695 -0.4915  0.0364  0.3151
  327TMC3     C 4965   4.494   3.512  11.046 -0.7196  0.4780  0.1360
  327TMC3     O 4966   4.451   3.543  11.156 -0.0889 -0.1341 -0.1626
  327TMC3     H 4967   4.285   3.644  11.040 -2.1234 -1.1448  0.0104
  327TMC3    H1 4968   4.516   3.359  10.847 -0.5439 -1.2060  0.3202
  327TMC3    H2 4969   4.332   3.662  10.602 -0.7226  0.5190  0.6236
  327TMC3    C7 4970   4.558   3.536  10.634  0.1502 -0.6236 -0.4830
  327TMC3    C8 4971   4.263   3.792  10.811 -0.2257  0.8545  0.1242
  327TMC3    O1 4972   4.548   3.640  10.566  1.0825 -0.5010 -0.1170
  327TMC3    O2 4973   4.321   3.858  10.725  0.1487 -0.4722 -0.5530
  328MPD2     C 4974   3.359   3.937  17.343 -0.1276 -0.1595 -0.0426
  328MPD2    C1 4975   3.262   3.851  17.394 -0.1439  0.3252 -0.1486
  328MPD2    C2 4976   3.160   3.804  17.310 -0.0599 -0.0643 -0.0574
  328MPD2    C3 4977   3.153   3.844  17.176  0.7012 -0.3898 -0.1003
  328MPD2    C4 4978   3.260   3.921  17.131  0.3779 -0.2580  0.3118
  328MPD2    C5 4979   3.351   3.973  17.215 -0.3044 -1.0609 -0.1537
  328MPD2     H 4980   3.073   3.752  17.349 -0.5539  1.0931  0.3787
  328MPD2    H1 4981   3.269   3.958  17.030  1.1342 -0.6813  0.2220
  328MPD2    H2 4982   3.423   3.998  17.406 -0.4951 -0.2307  0.4008
  328MPD2    H3 4983   3.408   4.052  17.167  1.1010 -1.5193  0.7549
  328MPD2     N 4984   3.048   3.826  17.087  0.2715 -0.0606 -0.6865
  328MPD2    H5 4985   3.041   3.871  16.996  1.0291  0.0202 -0.7064
  328MPD2    N1 4986   3.260   3.839  17.534  0.4922  0.2027  0.4487
  328MPD2    H7 4987   3.324   3.892  17.592  1.0299  0.6102 -0.5141
  329TMC3    C1 4988   3.170   3.787  17.735 -0.4793  0.1470 -0.0847
  329TMC3    C2 4989   3.219   3.907   0.053 -0.3456  0.3459 -0.1316
  329TMC3    C3 4990   3.198   3.922   0.188  0.2350  0.2819  0.5338
  329TMC3    C4 4991   3.127   3.687   0.077 -0.3268 -0.3400 -0.0998
  329TMC3    C5 4992   3.115   3.719   0.212 -0.5565  0.3765 -0.6781
  329TMC3    C6 4993   3.147   3.835   0.273  0.2714 -0.0484  0.0301
  329TMC3     C 4994   3.167   3.768  17.600  0.5518 -0.7234  0.4717
  329TMC3     O 4995   3.078   3.694  17.558  0.1961 -0.5524 -0.2671
  329TMC3     H 4996   3.249   3.993  17.730 -1.0590  0.4073 -0.4069
  329TMC3    H1 4997   3.089   3.595   0.035  2.5175 -0.6351 -1.9745
  329TMC3    H2 4998   3.135   3.853   0.379  2.8994 -4.0909  1.0174
  329TMC3    C7 4999   3.031   3.631   0.289 -0.2458  0.6895  0.0414
  329TMC3    C8 5000   3.187   4.061   0.235 -0.2130 -0.0516  0.8240
  329TMC3    O1 5001   2.935   3.578   0.230  0.2574  0.0457 -0.3790
  329TMC3    O2 5002   3.273   4.136   0.197 -0.2241 -0.0027  0.6662
  330TMC3    C1 5003   0.479   2.796   9.845  0.2662  1.3158 -0.0706
  330TMC3    C2 5004   0.356   2.740   9.819 -0.6179  0.3663  0.1759
  330TMC3    C3 5005   0.341   2.613   9.866  0.6488 -0.1656  0.3827
  330TMC3    C4 5006   0.577   2.736   9.911  0.3681 -0.4197 -0.0441
  330TMC3    C5 5007   0.558   2.608   9.960 -0.3828 -0.2973  0.3292
  330TMC3    C6 5008   0.439   2.546   9.938 -0.0520 -0.1517 -1.2492
  330TMC3     C 5009   0.494   2.939   9.835  0.2515  0.3196 -0.4143
  330TMC3     O 5010   0.574   2.985   9.920  0.4006 -0.3568 -0.2071
  330TMC3     H 5011   0.276   2.798   9.774 -1.7804 -2.0346 -0.8633
  330TMC3    H1 5012   0.668   2.786   9.942 -0.5231  0.2129  1.5903
  330TMC3    H2 5013   0.425   2.443   9.970  0.2794  0.1506 -0.1094
  330TMC3    C7 5014   0.614   2.567  10.085 -1.0067 -0.6542 -0.1433
  330TMC3    C8 5015   0.225   2.540   9.820  0.0436  0.5989 -0.2759
  330TMC3    O1 5016   0.545   2.511  10.171  0.1184  0.1239 -0.1563
  330TMC3    O2 5017   0.157   2.574   9.723 -0.0980  0.5203 -0.1952
  331MPD2     C 5018   3.652   2.122  13.006  0.6185 -0.1399  0.0556
  331MPD2    C1 5019   3.648   2.096  12.872  1.0041 -0.6858 -0.5582
  331MPD2    C2 5020   3.566   1.999  12.828 -0.0697 -0.0377  0.5088
  331MPD2    C3 5021   3.487   1.925  12.909  0.0317  0.4191  0.2615
  331MPD2    C4 5022   3.508   1.934  13.045  0.6007  0.9410 -1.0847
  331MPD2    C5 5023   3.585   2.038  13.092 -0.0809 -0.1083  0.1390
  331MPD2     H 5024   3.554   1.978  12.723  2.2286  2.5159 -0.2370
  331MPD2    H1 5025   3.474   1.859  13.116 -1.4068  2.5021 -0.3916
  331MPD2    H2 5026   3.700   2.209  13.050 -0.1533  0.0563  0.5125
  331MPD2    H3 5027   3.592   2.058  13.199  0.0801 -1.9524  0.4721
  331MPD2     N 5028   3.393   1.839  12.842 -0.4975 -0.2007 -0.2741
  331MPD2    H5 5029   3.387   1.852  12.741  0.6065  0.0514 -0.2985
  331MPD2    N1 5030   3.717   2.179  12.786  0.1618 -0.1277  0.4514
  331MPD2    H7 5031   3.749   2.267  12.826  0.4893 -0.0803  0.0879
  332TMC3    C1 5032   3.280   1.632  12.806  0.9045 -0.1695  0.4974
  332TMC3    C2 5033   3.240   1.664  12.681 -0.1373 -0.2419  0.4054
  332TMC3    C3 5034   3.204   1.562  12.599 -0.3914 -0.1258 -0.5334
  332TMC3    C4 5035   3.289   1.504  12.858 -0.5108 -0.0688 -0.1613
  332TMC3    C5 5036   3.267   1.402  12.768  0.2040  0.1407 -0.3340
  332TMC3    C6 5037   3.231   1.430  12.637 -0.4138  0.2010  0.6042
  332TMC3     C 5038   3.330   1.735  12.900 -0.2038  0.9745  0.1846
  332TMC3     O 5039   3.329   1.701  13.018 -0.4243 -0.0308 -0.2415
  332TMC3     H 5040   3.242   1.767  12.649  2.9887  0.1843  2.0067
  332TMC3    H1 5041   3.322   1.481  12.958 -0.7876 -1.3169 -0.3547
  332TMC3    H2 5042   3.224   1.349  12.565 -2.1970  0.3494  0.5982
  332TMC3    C7 5043   3.350   1.284  12.785 -0.0327  0.3445  0.2659
  332TMC3    C8 5044   3.180   1.597  12.464 -0.3518  0.5187  0.3016
  332TMC3    O1 5045   3.313   1.177  12.734  0.7100 -0.0194 -0.4838
  332TMC3    O2 5046   3.219   1.704  12.423  0.1522 -0.2990 -0.3326
  333MPD2     C 5047   3.433   2.141  11.393 -0.4769  0.4445  0.0204
  333MPD2    C1 5048   3.432   2.124  11.256 -0.2431 -0.2758  0.0095
  333MPD2    C2 5049   3.348   2.028  11.211  0.3705 -0.0010  0.0471
  333MPD2    C3 5050   3.278   1.937  11.289  1.0142 -0.3929  0.8809
  333MPD2    C4 5051   3.270   1.959  11.424  0.1633 -0.2721  0.5000
  333MPD2    C5 5052   3.351   2.062  11.472  0.1652 -0.1896 -0.4408
  333MPD2     H 5053   3.340   2.025  11.103  1.2222  0.9212 -0.0435
  333MPD2    H1 5054   3.205   1.902  11.489 -2.8420  1.2841 -1.1589
  333MPD2    H2 5055   3.497   2.210  11.446  1.3074 -1.7544  0.7708
  333MPD2    H3 5056   3.357   2.079  11.579  0.3536 -1.1746 -0.3008
  333MPD2     N 5057   3.208   1.838  11.222 -0.0285  0.7025 -0.2151
  333MPD2    H5 5058   3.234   1.823  11.125 -1.4718  0.9127 -0.6257
  333MPD2    N1 5059   3.528   2.192  11.179  0.0890  0.6706 -0.2492
  333MPD2    H7 5060   3.592   2.256  11.224  0.0153  0.0264  0.7873
  334TMC3    C1 5061   3.662   2.248  10.993 -0.3736  0.4411 -0.1205
  334TMC3    C2 5062   3.743   2.196  10.897 -0.6068  0.3573  0.6388
  334TMC3    C3 5063   3.832   2.279  10.832 -1.0317  0.1314  0.2823
  334TMC3    C4 5064   3.674   2.382  11.031  0.6631 -0.1412 -0.0907
  334TMC3    C5 5065   3.773   2.458  10.964  0.1586 -0.3950 -0.0605
  334TMC3    C6 5066   3.854   2.412  10.865 -1.1991  0.4916  0.5017
  334TMC3     C 5067   3.548   2.170  11.042 -0.4008  0.7614 -0.3810
  334TMC3     O 5068   3.502   2.085  10.971  0.5888 -0.7895 -0.4903
  334TMC3     H 5069   3.724   2.092  10.872  1.2440 -0.3189  2.0315
  334TMC3    H1 5070   3.610   2.427  11.105  0.7731 -1.5015  0.8348
  334TMC3    H2 5071   3.946   2.459  10.831 -1.0376  1.6212  2.4478
  334TMC3    C7 5072   3.747   2.604  10.955 -0.3118 -0.3528 -0.1323
  334TMC3    C8 5073   3.903   2.211  10.723  0.6195 -0.3167  0.7815
  334TMC3    O1 5074   3.839   2.667  10.904  0.8597 -0.1224  0.1246
  334TMC3    O2 5075   3.864   2.101  10.692  0.1537  0.1143  0.4958
  335TMC3    C1 5076   3.510   3.615  17.640 -0.8813 -0.1324  0.2276
  335TMC3    C2 5077   3.445   3.516  17.560  0.2440  0.5987  0.5165
  335TMC3    C3 5078   3.456   3.527  17.426 -0.4693  0.0793 -0.0224
  335TMC3    C4 5079   3.591   3.714  17.589 -0.9005  0.0178 -0.2198
  335TMC3    C5 5080   3.610   3.710  17.451 -0.3344 -0.0637  0.3511
  335TMC3    C6 5081   3.544   3.619  17.368  0.3182  0.6783 -0.3228
  335TMC3     C 5082   3.501   3.602   0.048 -0.0401  0.3129 -0.3443
  335TMC3     O 5083   3.538   3.703   0.110  0.1628  0.4152 -0.1399
  335TMC3     H 5084   3.383   3.443  17.610  0.9276 -1.5849 -1.8227
  335TMC3    H1 5085   3.650   3.783  17.648 -1.0103  2.2160 -2.7059
  335TMC3    H2 5086   3.553   3.627  17.260  1.6159 -0.8884 -0.3148
  335TMC3    C7 5087   3.748   3.729  17.408 -0.1197  0.2678  0.4413
  335TMC3    C8 5088   3.440   3.409  17.336 -0.3739 -0.4660 -0.1119
  335TMC3    O1 5089   3.790   3.660  17.317 -0.3307  0.4783 -0.3787
  335TMC3    O2 5090   3.496   3.423  17.229  0.1198  0.3087  0.6678
  336MPD2     C 5091   3.304   1.011  16.269 -0.6187 -0.2168  0.1989
  336MPD2    C1 5092   3.224   0.964  16.174  0.0532  0.3484  0.1549
  336MPD2    C2 5093   3.217   0.825  16.157  0.2287  0.6545  0.1709
  336MPD2    C3 5094   3.293   0.742  16.229 -0.2989 -0.3548 -0.6296
  336MPD2    C4 5095   3.388   0.790  16.325 -0.3750 -0.4587 -0.2948
  336MPD2    C5 5096   3.383   0.928  16.341 -0.2568 -0.6054 -0.9534
  336MPD2     H 5097   3.144   0.787  16.086  0.1995  0.3764  0.3494
  336MPD2    H1 5098   3.452   0.737  16.394 -0.1940  0.7203  0.4480
  336MPD2    H2 5099   3.314   1.118  16.287  0.4779 -0.4231  0.8166
  336MPD2    H3 5100   3.454   0.971  16.410  0.6950 -1.4601 -1.4007
  336MPD2     N 5101   3.282   0.609  16.195  0.0123 -0.0851 -0.4526
  336MPD2    H5 5102   3.211   0.573  16.133 -1.3463  1.7404  0.0310
  336MPD2    N1 5103   3.139   1.041  16.097 -0.5738 -0.0903 -0.2969
  336MPD2    H7 5104   3.085   0.999  16.022 -0.4306 -0.1488 -0.3680
  337TMC3    C1 5105   3.032   1.235  16.013  0.1070  0.0974 -0.3424
  337TMC3    C2 5106   2.914   1.172  16.005  0.7863  0.4762 -0.1322
  337TMC3    C3 5107   2.802   1.253  15.979 -0.1353 -0.1036 -0.5046
  337TMC3    C4 5108   3.044   1.374  15.981 -0.4048 -0.7742  0.4747
  337TMC3    C5 5109   2.933   1.444  15.935 -0.7382  0.1437 -0.3739
  337TMC3    C6 5110   2.805   1.391  15.943  0.8261 -0.5728  0.5680
  337TMC3     C 5111   3.142   1.178  16.093  0.2306  0.0550 -0.3535
  337TMC3     O 5112   3.226   1.261  16.130  0.2925 -0.1412 -0.0536
  337TMC3     H 5113   2.907   1.065  16.015 -0.0260  0.0657 -5.0829
  337TMC3    H1 5114   3.136   1.430  15.995  0.0043 -1.0811 -0.9042
  337TMC3    H2 5115   2.726   1.460  15.919 -0.4968 -2.2625  0.0723
  337TMC3    C7 5116   2.952   1.553  15.847  0.1273  0.1455 -0.2141
  337TMC3    C8 5117   2.669   1.187  15.968  0.4104 -0.3859  0.5535
  337TMC3    O1 5118   3.051   1.627  15.862 -0.0552 -0.5185  0.6655
  337TMC3    O2 5119   2.667   1.072  15.921  0.0554  0.4309 -0.5124
  338MPD2     C 5120   4.692   1.093   0.981  0.7951 -0.8695 -0.1532
  338MPD2    C1 5121   4.570   1.041   0.940  0.2868 -0.2823  0.4782
  338MPD2    C2 5122   4.454   1.097   0.980 -0.4078  0.2574  0.0810
  338MPD2    C3 5123   4.459   1.196   1.078  0.1384  0.4739  0.3220
  338MPD2    C4 5124   4.580   1.247   1.111  0.2089 -0.6404 -0.1667
  338MPD2    C5 5125   4.699   1.201   1.065  1.1924 -0.8914  0.2728
  338MPD2     H 5126   4.351   1.075   0.957 -0.5863 -0.6347  1.7262
  338MPD2    H1 5127   4.586   1.326   1.186 -0.6685  1.2013 -2.0191
  338MPD2    H2 5128   0.056   1.065   0.945 -0.0952 -3.8410 -0.2936
  338MPD2    H3 5129   0.064   1.239   1.088  0.6582  0.7367 -0.1373
  338MPD2     N 5130   4.327   1.237   1.123 -0.3012  0.0479  0.4786
  338MPD2    H5 5131   4.252   1.204   1.063 -0.6026  3.2047 -0.8498
  338MPD2    N1 5132   4.563   0.935   0.848  0.2931  0.0343  0.2180
  338MPD2    H7 5133   4.472   0.894   0.826  1.3222 -1.1062 -1.9284
  339TMC3    C1 5134   4.149   1.324   1.250 -0.3244  0.7822  0.4860
  339TMC3    C2 5135   4.103   1.425   1.333 -0.5790 -0.7186  0.4637
  339TMC3    C3 5136   3.976   1.405   1.392 -0.0775  0.2970  0.0937
  339TMC3    C4 5137   4.071   1.211   1.239  0.3747  0.0980  0.2182
  339TMC3    C5 5138   3.959   1.189   1.313  0.7545 -0.6488  0.8757
  339TMC3    C6 5139   3.900   1.292   1.384 -0.2614  0.0873  0.1403
  339TMC3     C 5140   4.293   1.328   1.223  0.5053 -1.2933 -0.5316
  339TMC3     O 5141   4.375   1.390   1.294  0.2847  0.1496  0.2323
  339TMC3     H 5142   4.162   1.514   1.354  0.2033 -0.5380 -2.4991
  339TMC3    H1 5143   4.107   1.125   1.183  3.4205  0.2561  1.9773
  339TMC3    H2 5144   3.808   1.276   1.440 -0.8912  0.5027 -0.7743
  339TMC3    C7 5145   3.929   1.051   1.347  0.0897  0.2173 -0.3432
  339TMC3    C8 5146   3.930   1.512   1.474  0.3152 -0.1021 -0.0389
  339TMC3    O1 5147   3.969   0.971   1.260 -0.5258 -0.5382  0.2157
  339TMC3    O2 5148   3.985   1.620   1.455  0.3891 -0.4264  0.4932
  340MPD2     C 5149   3.858   3.774  10.697  0.0811 -0.2349  0.1124
  340MPD2    C1 5150   3.773   3.669  10.712 -0.3356  0.1847 -0.4663
  340MPD2    C2 5151   3.808   3.545  10.659 -0.4430 -0.3232 -0.1030
  340MPD2    C3 5152   3.932   3.531  10.590 -0.4944 -0.1731  0.2815
  340MPD2    C4 5153   4.014   3.637  10.577 -0.5643 -0.5911  0.7143
  340MPD2    C5 5154   3.975   3.757  10.634 -0.0776  0.5197  0.8168
  340MPD2     H 5155   3.750   3.458  10.687 -1.3964  0.8042  1.4886
  340MPD2    H1 5156   4.105   3.630  10.518 -2.1738  2.0853 -2.1132
  340MPD2    H2 5157   3.851   3.876  10.732  1.0247  0.2758 -1.2147
  340MPD2    H3 5158   4.034   3.846  10.614 -0.2091  0.0953 -1.4342
  340MPD2     N 5159   3.963   3.425  10.509  0.0217 -0.0562 -0.5981
  340MPD2    H5 5160   4.044   3.432  10.448  1.2923 -1.2354  0.9838
  340MPD2    N1 5161   3.648   3.693  10.772 -0.7329 -0.1076 -0.4845
  340MPD2    H7 5162   3.639   3.784  10.814  1.7939  0.3199 -0.8411
  341TMC3    C1 5163   3.531   3.524  10.648 -0.8737  0.8821  0.8045
  341TMC3    C2 5164   3.495   3.392  10.656 -0.0927 -0.7671  0.2052
  341TMC3    C3 5165   3.492   3.322  10.539  1.0377  0.1338  0.5041
  341TMC3    C4 5166   3.543   3.589  10.524 -0.3445  0.4629  0.2123
  341TMC3    C5 5167   3.523   3.516  10.409 -0.3865  0.4671  0.3082
  341TMC3    C6 5168   3.496   3.380  10.418  0.3154  0.7465 -0.5966
  341TMC3     C 5169   3.540   3.604  10.766  0.1438 -0.2374 -0.3632
  341TMC3     O 5170   3.454   3.580  10.851 -0.2832 -0.2794 -0.5680
  341TMC3     H 5171   3.465   3.351  10.752 -0.5210 -2.2776 -0.5766
  341TMC3    H1 5172   3.556   3.697  10.519  0.5920  0.3670  0.7338
  341TMC3    H2 5173   3.469   3.326  10.328 -2.2196 -2.2611  2.0176
  341TMC3    C7 5174   3.602   3.556  10.294  0.2251 -0.9581  0.0546
  341TMC3    C8 5175   3.435   3.190  10.551 -0.6193  0.3901 -0.1176
  341TMC3    O1 5176   3.634   3.464  10.220  0.2539 -0.1647 -0.4190
  341TMC3    O2 5177   3.374   3.159  10.653  0.1432 -0.6305  0.0780
  342MPD2     C 5178   1.473   1.836  17.200 -0.2120 -0.0566  0.2803
  342MPD2    C1 5179   1.597   1.812  17.255  0.5996  0.1666 -0.4056
  342MPD2    C2 5180   1.685   1.916  17.277  0.0680  0.1523  1.3699
  342MPD2    C3 5181   1.653   2.035  17.225  0.5327 -0.4517  0.0723
  342MPD2    C4 5182   1.525   2.064  17.178  0.0830  0.2801 -0.4415
  342MPD2    C5 5183   1.428   1.961  17.167  0.4463  0.4395 -1.2199
  342MPD2     H 5184   1.776   1.900  17.333  1.1942  1.0349 -0.2255
  342MPD2    H1 5185   1.495   2.166  17.155 -1.7874  0.3283  2.2254
  342MPD2    H2 5186   1.398   1.760  17.182  0.3435 -0.5144 -0.1304
  342MPD2    H3 5187   1.326   1.979  17.135  0.2362  1.5933  0.1173
  342MPD2     N 5188   1.742   2.143  17.232  0.1821  0.3758  0.0564
  342MPD2    H5 5189   1.705   2.230  17.195  2.5007  0.3264 -2.3678
  342MPD2    N1 5190   1.641   1.687  17.296  0.3393 -0.3304 -0.3091
  342MPD2    H7 5191   1.740   1.692  17.317  0.4355  0.0536 -0.8646
  343TMC3    C1 5192   1.651   1.447  17.304  0.4470 -0.0253 -0.3034
  343TMC3    C2 5193   1.784   1.449  17.292 -0.4497 -0.1558 -0.1779
  343TMC3    C3 5194   1.852   1.329  17.288 -0.1619 -0.2535 -0.2139
  343TMC3    C4 5195   1.581   1.327  17.333  0.4578  0.0287  0.5126
  343TMC3    C5 5196   1.654   1.216  17.356  0.8487 -0.9117  0.3065
  343TMC3    C6 5197   1.790   1.211  17.331 -0.4357 -0.2859 -0.0614
  343TMC3     C 5198   1.573   1.565  17.292  0.8100  0.4745 -0.6409
  343TMC3     O 5199   1.452   1.551  17.282  0.3546 -0.0528 -0.0635
  343TMC3     H 5200   1.824   1.543  17.254  0.5556 -0.0744  1.0623
  343TMC3    H1 5201   1.475   1.318  17.354  0.9268  0.1512  2.9671
  343TMC3    H2 5202   1.843   1.118  17.345 -0.9958 -0.5255  0.5210
  343TMC3    C7 5203   1.585   1.112  17.418  0.7839  0.3723  0.0648
  343TMC3    C8 5204   2.000   1.321  17.268  0.1205  0.0719 -0.6881
  343TMC3    O1 5205   1.471   1.082  17.389  0.1665 -0.2893 -0.2096
  343TMC3    O2 5206   2.060   1.424  17.290 -0.0865  0.0628  0.0541
  344MPD2     C 5207   1.804   1.204  11.550 -0.1710 -0.8448  0.3723
  344MPD2    C1 5208   1.828   1.130  11.427 -0.4870  0.6763 -0.1169
  344MPD2    C2 5209   1.882   1.197  11.318  0.3778 -0.1802 -0.6868
  344MPD2    C3 5210   1.899   1.335  11.312 -0.5484  0.6800  0.2998
  344MPD2    C4 5211   1.883   1.399  11.436  0.4467  0.2004 -0.4985
  344MPD2    C5 5212   1.837   1.339  11.551 -0.5795  0.0376 -0.1383
  344MPD2     H 5213   1.908   1.136  11.232  0.2358  0.5652 -1.2603
  344MPD2    H1 5214   1.898   1.506  11.446 -1.0152  0.2911  0.7675
  344MPD2    H2 5215   1.772   1.158  11.643  0.0039  0.0404  0.8743
  344MPD2    H3 5216   1.829   1.408  11.634  0.0887  1.4574 -1.2356
  344MPD2     N 5217   1.955   1.398  11.197  0.0225  0.1780 -0.3134
  344MPD2    H5 5218   1.978   1.497  11.202 -0.4038  0.1540  2.3165
  344MPD2    N1 5219   1.813   0.989  11.421 -0.2259  0.3763 -0.2292
  344MPD2    H7 5220   1.848   0.943  11.338 -1.8877  0.5299 -1.0019
  345TMC3    C1 5221   1.990   1.441  10.965 -0.6409  0.4493 -0.3560
  345TMC3    C2 5222   2.027   1.565  11.001 -0.3232  1.3959 -0.1361
  345TMC3    C3 5223   2.067   1.655  10.899  0.2959  0.5604 -0.6974
  345TMC3    C4 5224   1.974   1.408  10.833  0.6701 -0.1725 -0.6747
  345TMC3    C5 5225   1.996   1.503  10.740 -0.3615  0.2389  0.1770
  345TMC3    C6 5226   2.047   1.623  10.765 -0.2993  1.1354 -0.2263
  345TMC3     C 5227   1.955   1.341  11.069 -0.0716 -0.2780 -1.2218
  345TMC3     O 5228   1.928   1.228  11.026 -1.1732 -0.7669  0.1526
  345TMC3     H 5229   2.037   1.597  11.105  1.4276  1.2502 -0.2566
  345TMC3    H1 5230   1.929   1.311  10.813  0.0569 -0.3369  1.4948
  345TMC3    H2 5231   2.053   1.698  10.687  2.6916  1.7464  0.5526
  345TMC3    C7 5232   1.944   1.471  10.613  0.2994 -0.3169  0.1691
  345TMC3    C8 5233   2.103   1.789  10.931 -0.2605 -0.9843  0.4948
  345TMC3    O1 5234   1.860   1.384  10.606 -0.8133  0.2454  0.7527
  345TMC3    O2 5235   2.078   1.873  10.843 -0.1779  0.0144  0.1704
  346MPD2     C 5236   1.625   2.692  14.763 -0.1082  0.0719 -0.0156
  346MPD2    C1 5237   1.746   2.665  14.706 -0.4015 -0.5888  0.3019
  346MPD2    C2 5238   1.857   2.637  14.784 -0.0556 -0.2170 -0.2077
  346MPD2    C3 5239   1.847   2.635  14.920  0.4726  0.0137  0.2677
  346MPD2    C4 5240   1.723   2.657  14.976 -0.2941 -0.2671 -0.0027
  346MPD2    C5 5241   1.613   2.684  14.900  0.2294  0.0936  1.1322
  346MPD2     H 5242   1.945   2.608  14.728  0.1845  0.4263 -0.1560
  346MPD2    H1 5243   1.721   2.657  15.084  0.9399 -0.7417  0.0259
  346MPD2    H2 5244   1.533   2.714  14.711  0.4160 -0.5111 -1.1808
  346MPD2    H3 5245   1.520   2.720  14.942 -0.3901 -0.6957  0.4325
  346MPD2     N 5246   1.967   2.616  14.992  0.4344  0.3287  0.5707
  346MPD2    H5 5247   2.054   2.628  14.941  0.8173 -0.8254  0.9562
  346MPD2    N1 5248   1.772   2.673  14.571  0.3499  0.2548 -0.7301
  346MPD2    H7 5249   1.867   2.649  14.542 -0.2180 -1.3663 -1.2850
  347TMC3    C1 5250   2.132   2.568  15.152 -0.1804 -0.5787 -0.1704
  347TMC3    C2 5251   2.206   2.655  15.070  0.5642 -0.6087 -0.0182
  347TMC3    C3 5252   2.338   2.622  15.063  0.9381 -0.1713  0.1533
  347TMC3    C4 5253   2.181   2.458  15.212  0.2243 -0.3014 -0.5092
  347TMC3    C5 5254   2.315   2.442  15.218  0.1719  0.0378 -0.5126
  347TMC3    C6 5255   2.392   2.526  15.145 -0.3498 -0.0689  0.7013
  347TMC3     C 5256   1.988   2.572  15.120 -0.2943  0.3886 -0.4896
  347TMC3     O 5257   1.909   2.517  15.192  0.0709 -0.0404  0.1623
  347TMC3     H 5258   2.163   2.743  15.024 -1.1088 -1.0529  0.6811
  347TMC3    H1 5259   2.115   2.383  15.254  2.0253 -0.7828  1.4002
  347TMC3    H2 5260   2.499   2.508  15.141 -0.4112  0.0928 -1.3707
  347TMC3    C7 5261   2.360   2.402  15.342  0.3595 -0.7315  0.4849
  347TMC3    C8 5262   2.407   2.693  14.956 -0.3269  0.4734  0.7899
  347TMC3    O1 5263   2.283   2.330  15.403 -0.1007 -0.1029 -0.6895
  347TMC3    O2 5264   2.365   2.804  14.931 -0.6121 -0.6057  0.4212
  348MPD2     C 5265   1.158   2.210  11.660 -0.4356 -0.2986 -0.8435
  348MPD2    C1 5266   1.038   2.263  11.626 -0.2686  0.0874  0.3384
  348MPD2    C2 5267   1.028   2.357  11.526  0.1845 -0.0253  0.8121
  348MPD2    C3 5268   1.144   2.397  11.462  0.1410  0.0012 -0.1779
  348MPD2    C4 5269   1.268   2.343  11.494  0.0952  0.8410  0.6589
  348MPD2    C5 5270   1.273   2.247  11.591  0.2084  0.4622 -0.0043
  348MPD2     H 5271   0.936   2.412  11.509 -0.2468 -1.4587 -1.4704
  348MPD2    H1 5272   1.359   2.356  11.435  0.0710  0.7307  0.5971
  348MPD2    H2 5273   1.174   2.149  11.748  0.5275  1.1628 -0.0200
  348MPD2    H3 5274   1.367   2.202  11.621  0.4955  1.6627  0.9090
  348MPD2     N 5275   1.123   2.488  11.363 -0.0612  0.0437  0.3752
  348MPD2    H5 5276   1.029   2.523  11.349  0.0718  0.2650  0.0249
  348MPD2    N1 5277   0.920   2.242  11.702  0.2472 -0.4364  0.9846
  348MPD2    H7 5278   0.836   2.295  11.680  0.7725 -0.2747 -0.6828
  349TMC3    C1 5279   0.782   2.142  11.861 -0.2601 -0.0114 -0.0217
  349TMC3    C2 5280   0.787   2.095  11.987  0.2478 -0.1884 -0.0033
  349TMC3    C3 5281   0.675   2.065  12.051  0.9994 -0.5293  0.5993
  349TMC3    C4 5282   0.663   2.159  11.790 -0.0610 -0.6421  0.1323
  349TMC3    C5 5283   0.550   2.126  11.864 -0.3365  0.1382  0.1163
  349TMC3    C6 5284   0.551   2.077  11.992 -0.6383 -0.2729 -0.8839
  349TMC3     C 5285   0.906   2.139  11.789 -0.2340 -0.4025 -0.6737
  349TMC3     O 5286   0.990   2.058  11.826  0.4135 -0.2339 -0.3350
  349TMC3     H 5287   0.882   2.094  12.038  0.5933 -3.7333 -0.7471
  349TMC3    H1 5288   0.668   2.214  11.697 -0.4679 -0.5038  0.1926
  349TMC3    H2 5289   0.461   2.037  12.038 -0.3051  1.5413  1.2906
  349TMC3    C7 5290   0.420   2.143  11.801 -0.0934  0.1438 -0.5499
  349TMC3    C8 5291   0.691   2.029  12.190  1.0236  0.3763 -0.3624
  349TMC3    O1 5292   0.326   2.088  11.857 -0.5839 -0.1727 -0.3944
  349TMC3    O2 5293   0.804   2.031  12.238 -0.5218  0.2095 -0.3803
  350MPD2     C 5294   0.300   0.768  10.854 -0.6012 -0.1556 -0.3685
  350MPD2    C1 5295   0.174   0.748  10.900 -0.2881  0.1868 -0.4930
  350MPD2    C2 5296   0.139   0.803  11.021 -0.2287 -0.3590 -0.1919
  350MPD2    C3 5297   0.234   0.869  11.103  0.0047  0.6044  0.3505
  350MPD2    C4 5298   0.361   0.876  11.060 -0.2649  0.2621  1.2327
  350MPD2    C5 5299   0.395   0.827  10.933  0.1238  0.5127 -0.8120
  350MPD2     H 5300   0.048   0.782  11.077 -0.0837  2.6170  1.1409
  350MPD2    H1 5301   0.443   0.911  11.121 -0.1745 -0.1137  1.3254
  350MPD2    H2 5302   0.328   0.728  10.756 -2.2136 -0.6922 -0.6163
  350MPD2    H3 5303   0.500   0.824  10.906  0.1546  1.2035 -0.7703
  350MPD2     N 5304   0.197   0.908  11.231  0.1512  0.1832  0.5252
  350MPD2    H5 5305   0.103   0.882  11.258  0.4312 -1.0587  0.3186
  350MPD2    N1 5306   0.088   0.660  10.841 -0.2481 -0.4150  0.3894
  350MPD2    H7 5307   4.723   0.651  10.862 -0.2679 -0.3449  0.3263
  351TMC3    C1 5308   0.025   0.475  10.709  0.6932 -0.8222  1.4977
  351TMC3    C2 5309   0.047   0.344  10.705 -0.3594  0.0126 -0.5666
  351TMC3    C3 5310   4.699   0.269  10.626  0.3716  0.1613 -0.4939
  351TMC3    C4 5311   4.666   0.537  10.632 -0.4782  0.0529 -0.2624
  351TMC3    C5 5312   4.589   0.464  10.548 -0.1190  0.1350  0.5536
  351TMC3    C6 5313   4.609   0.327  10.542 -0.5070  0.0503  0.2759
  351TMC3     C 5314   0.132   0.564  10.753  0.1206 -0.4158  0.1641
  351TMC3     O 5315   0.243   0.513  10.747 -0.2867  0.0526 -0.6237
  351TMC3     H 5316   0.133   0.298  10.752 -2.1339 -1.6426  1.0246
  351TMC3    H1 5317   4.674   0.644  10.619  0.9130  0.3695  3.2032
  351TMC3    H2 5318   4.540   0.262  10.490 -0.8246 -0.7708  1.7180
  351TMC3    C7 5319   4.585   0.523  10.417  0.2436  0.6966 -0.3529
  351TMC3    C8 5320   0.020   0.172  10.541  0.4792 -0.0487  0.0460
  351TMC3    O1 5321   4.536   0.635  10.416  0.1437  0.4507  0.0476
  351TMC3    O2 5322   0.044   0.222  10.430 -0.0097 -0.0798 -0.3249
  352MPD2     C 5323   3.588   3.252   1.402 -0.3221 -0.3228  0.5610
  352MPD2    C1 5324   3.541   3.122   1.380 -0.3939 -0.2996  0.2415
  352MPD2    C2 5325   3.622   3.023   1.333 -0.0727  0.6037 -0.5510
  352MPD2    C3 5326   3.752   3.053   1.292 -0.0998 -0.2742  1.1163
  352MPD2    C4 5327   3.795   3.182   1.312 -0.9414  0.1528  0.0301
  352MPD2    C5 5328   3.713   3.276   1.368  0.1155  0.1635  0.8379
  352MPD2     H 5329   3.584   2.922   1.317  3.9439 -0.5254 -3.0094
  352MPD2    H1 5330   3.889   3.220   1.275 -0.2115  0.1882  1.9051
  352MPD2    H2 5331   3.527   3.332   1.442 -1.6352 -0.7583 -0.5684
  352MPD2    H3 5332   3.759   3.374   1.378  1.3569 -0.0317 -2.9523
  352MPD2     N 5333   3.838   2.962   1.223 -0.1502  0.1259 -0.0755
  352MPD2    H5 5334   3.936   2.990   1.226  0.3651 -1.7344  1.0638
  352MPD2    N1 5335   3.401   3.093   1.408  0.0768 -0.5106  0.2903
  352MPD2    H7 5336   3.346   3.170   1.445  0.2729  0.4533 -1.4401
  353TMC3    C1 5337   3.907   2.776   1.114  0.0413 -0.3915  0.4139
  353TMC3    C2 5338   3.996   2.746   1.218 -0.4593 -0.1012 -0.5310
  353TMC3    C3 5339   4.081   2.642   1.193  0.4377 -0.8568  0.2408
  353TMC3    C4 5340   3.908   2.720   0.989 -0.9329 -0.6659 -0.4265
  353TMC3    C5 5341   3.997   2.623   0.976  0.0549 -0.4230 -0.3071
  353TMC3    C6 5342   4.075   2.580   1.073 -0.0052  0.7587 -0.7204
  353TMC3     C 5343   3.793   2.853   1.147 -0.7046  0.4265 -0.3575
  353TMC3     O 5344   3.685   2.812   1.107  0.0606  0.0793 -0.2065
  353TMC3     H 5345   3.991   2.807   1.307  1.6189  0.9124 -1.0977
  353TMC3    H1 5346   3.825   2.739   0.921 -1.7213 -1.0711  0.4205
  353TMC3    H2 5347   4.158   2.516   1.044  1.7231  2.7104 -0.0856
  353TMC3    C7 5348   4.004   2.562   0.849 -0.3425  0.6415 -0.2301
  353TMC3    C8 5349   4.174   2.586   1.296  0.3213 -0.6254 -0.2337
  353TMC3    O1 5350   4.068   2.456   0.842  0.2554 -0.1234  0.0608
  353TMC3    O2 5351   4.197   2.657   1.392  0.1200 -0.0804  0.5473
  354TMC3    C1 5352   0.200   3.321  13.667 -0.5596  0.3498 -0.3129
  354TMC3    C2 5353   0.158   3.429  13.603  0.5537  0.0318 -0.0159
  354TMC3    C3 5354   0.194   3.447  13.470 -0.2543 -0.3227  0.2093
  354TMC3    C4 5355   0.272   3.219  13.608  0.0450 -0.2439  0.3224
  354TMC3    C5 5356   0.306   3.238  13.473 -0.2689 -0.0217  0.8359
  354TMC3    C6 5357   0.270   3.355  13.406 -0.0676  0.2569  0.4844
  354TMC3     C 5358   0.128   3.277  13.787  0.0933 -0.5121 -0.0207
  354TMC3     O 5359   0.013   3.258  13.765  0.1334  0.2116  0.2263
  354TMC3     H 5360   0.102   3.495  13.668  1.0350  1.6125 -1.2050
  354TMC3    H1 5361   0.318   3.150  13.677  0.9479  0.8363  0.8054
  354TMC3    H2 5362   0.283   3.359  13.299  1.4582  0.2691  0.6676
  354TMC3    C7 5363   0.372   3.130  13.394 -0.2709  0.0939 -0.3546
  354TMC3    C8 5364   0.177   3.582  13.424  0.1502 -0.2958  0.0561
  354TMC3    O1 5365   0.367   3.017  13.441  0.1651  0.4973  0.5201
  354TMC3    O2 5366   0.138   3.664  13.507 -0.4223 -0.3338  0.2236
  355MPD2     C 5367   0.355   4.309  12.102 -0.2716 -0.0640 -0.3851
  355MPD2    C1 5368   0.482   4.319  12.048 -0.2868  0.2740 -0.4669
  355MPD2    C2 5369   0.589   4.260  12.109  0.5129  0.1982 -0.4512
  355MPD2    C3 5370   0.568   4.212  12.237  0.0436 -0.2137 -0.3901
  355MPD2    C4 5371   0.446   4.204  12.298  0.9003 -0.9502 -0.3179
  355MPD2    C5 5372   0.338   4.262  12.229 -0.0507  0.6000 -0.1443
  355MPD2     H 5373   0.685   4.280  12.065  0.0639  0.5317 -1.2662
  355MPD2    H1 5374   0.430   4.158  12.395 -0.1666  0.1280  0.0242
  355MPD2    H2 5375   0.266   4.335  12.046  1.5643  0.6020 -2.9909
  355MPD2    H3 5376   0.235   4.249  12.260  0.5922  0.2635  1.8348
  355MPD2     N 5377   0.688   4.169  12.300  0.0624 -0.3448 -0.8311
  355MPD2    H5 5378   0.771   4.174  12.242  0.4481  0.9890 -0.1685
  355MPD2    N1 5379   0.490   4.390  11.931 -0.0148  0.3179 -0.2408
  355MPD2    H7 5380   0.406   4.442  11.908 -1.2631 -0.8981  1.5540
  356TMC3    C1 5381   0.841   4.123  12.467 -0.1584 -0.4700 -0.1322
  356TMC3    C2 5382   0.918   4.152  12.363  0.6485  0.0353 -0.2830
  356TMC3    C3 5383   1.016   4.249  12.386 -0.2470 -0.4283  0.8883
  356TMC3    C4 5384   0.856   4.178  12.589 -0.0310 -0.5971 -0.2937
  356TMC3    C5 5385   0.946   4.281  12.607  0.0496  0.4080 -0.0281
  356TMC3    C6 5386   1.031   4.311  12.507  0.5472  0.1543 -0.1081
  356TMC3     C 5387   0.701   4.110  12.425  0.4884 -0.0658  0.5152
  356TMC3     O 5388   0.620   4.088  12.514 -0.1124 -0.0941 -0.0309
  356TMC3     H 5389   0.915   4.090  12.274  2.6149 -0.7493  0.2058
  356TMC3    H1 5390   0.780   4.160  12.664 -0.0696  2.8080  0.5048
  356TMC3    H2 5391   1.113   4.381  12.520  2.4798 -1.9715 -1.0215
  356TMC3    C7 5392   0.919   4.365  12.724  0.7137 -0.7078 -0.4899
  356TMC3    C8 5393   1.095   4.289  12.271 -0.2480 -0.1553 -0.2873
  356TMC3    O1 5394   0.835   4.333  12.806  0.3223 -0.0527  0.3928
  356TMC3    O2 5395   1.090   4.215  12.173  0.2774 -0.0343  0.3529
  357MPD2     C 5396   0.324   4.703   2.081  0.1919  0.5710  0.2770
  357MPD2    C1 5397   0.346   4.678   1.946  0.1314  0.1290  0.4220
  357MPD2    C2 5398   0.229   4.686   1.861 -0.0803 -0.5691  0.3433
  357MPD2    C3 5399   0.107   4.724   1.919 -0.0828  0.6041  0.3730
  357MPD2    C4 5400   0.099   0.020   2.052  0.6726  0.6901  0.7669
  357MPD2    C5 5401   0.208   0.003   2.129  0.1758  0.1910 -0.2959
  357MPD2     H 5402   0.243   4.680   1.754 -2.8739 -1.0231 -0.0057
  357MPD2    H1 5403   0.005   0.051   2.098 -0.2919 -1.0449 -0.0356
  357MPD2    H2 5404   0.404   4.714   2.154  0.5312 -0.3627  0.0407
  357MPD2    H3 5405   0.203   0.030   2.234  0.0818 -0.0993 -0.2259
  357MPD2     N 5406   4.730   0.021   1.838  0.6339  0.5282 -0.4947
  357MPD2    H5 5407   4.648   0.062   1.881  0.3756  1.4789 -1.8831
  357MPD2    N1 5408   0.474   4.662   1.886 -0.3116 -0.1515 -0.2989
  357MPD2    H7 5409   0.558   4.687   1.938  0.3743 -1.6114 -0.6861
  358TMC3    C1 5410   0.626   4.626   1.704  0.1051 -0.1553 -0.0231
  358TMC3    C2 5411   0.649   4.597   1.570  0.2607  0.8041  0.6264
  358TMC3    C3 5412   0.776   4.618   1.523 -0.4727  0.0022  0.2463
  358TMC3    C4 5413   0.731   4.688   1.776  0.2032 -0.2376  0.5981
  358TMC3    C5 5414   0.862   4.699   1.728 -0.3774 -0.3255 -0.0016
  358TMC3    C6 5415   0.879   4.671   1.596  0.8059 -0.3540  0.7386
  358TMC3     C 5416   0.490   4.613   1.760  0.5006  0.2360  0.2230
  358TMC3     O 5417   0.409   4.553   1.691 -0.2353 -0.5965 -0.1904
  358TMC3     H 5418   0.584   4.533   1.512  3.0301 -0.6199 -0.8862
  358TMC3    H1 5419   0.713   4.706   1.881 -0.6537  3.7308 -0.2135
  358TMC3    H2 5420   0.978   4.661   1.553  0.4653 -1.6881  0.2427
  358TMC3    C7 5421   0.976   0.022   1.804 -0.4027  0.4624 -0.0842
  358TMC3    C8 5422   0.781   4.618   1.379 -0.4014 -0.2584  0.3738
  358TMC3    O1 5423   1.085   0.005   1.751  0.3939  0.3611 -0.3408
  358TMC3    O2 5424   0.888   4.616   1.323  0.4188 -0.3507 -0.2993
  359MPD2     C 5425   0.774   3.280  12.454 -0.3385  0.0216 -0.8374
  359MPD2    C1 5426   0.684   3.352  12.379 -0.1270  0.4560 -0.3376
  359MPD2    C2 5427   0.547   3.357  12.420  0.0205  0.6568  0.8571
  359MPD2    C3 5428   0.506   3.293  12.534 -0.3130  0.3119  0.1382
  359MPD2    C4 5429   0.602   3.225  12.605  0.4339 -0.1332 -0.0598
  359MPD2    C5 5430   0.731   3.209  12.561 -0.5576 -0.0164  0.3365
  359MPD2     H 5431   0.481   3.412  12.354 -0.0346  1.1071  1.2930
  359MPD2    H1 5432   0.577   3.182  12.701 -1.0205 -1.1476 -0.8976
  359MPD2    H2 5433   0.880   3.274  12.435 -0.1647  1.2088 -0.2104
  359MPD2    H3 5434   0.797   3.151  12.625 -0.2164 -0.8459 -0.7665
  359MPD2     N 5435   0.377   3.297  12.590 -0.1601 -0.0418 -0.4053
  359MPD2    H5 5436   0.346   3.230  12.658 -3.2908  0.9266 -0.8506
  359MPD2    N1 5437   0.724   3.418  12.259  0.3861 -0.8843  0.8489
  359MPD2    H7 5438   0.660   3.459  12.192  3.1835  1.1803 -0.5401
  360TMC3    C1 5439   0.869   3.467  12.080  0.1850 -0.6981  0.0920
  360TMC3    C2 5440   0.997   3.510  12.048 -0.3731  0.6552 -0.0946
  360TMC3    C3 5441   1.012   3.530  11.914 -0.3005 -0.8580  0.4754
  360TMC3    C4 5442   0.763   3.432  11.993 -0.0105 -0.2332  0.1063
  360TMC3    C5 5443   0.789   3.456  11.860 -0.5000 -0.0222 -0.6117
  360TMC3    C6 5444   0.911   3.505  11.819  0.6098  0.4187  0.0937
  360TMC3     C 5445   0.856   3.446  12.228 -0.8631 -0.0115 -0.8337
  360TMC3     O 5446   0.959   3.444  12.295 -0.4664  0.6393  0.1380
  360TMC3     H 5447   1.067   3.557  12.116  0.2622 -0.8152  0.2685
  360TMC3    H1 5448   0.662   3.402  12.020 -0.3142 -1.4115 -2.3560
  360TMC3    H2 5449   0.928   3.533  11.715 -0.6151  0.6791 -0.0360
  360TMC3    C7 5450   0.724   3.388  11.748 -0.4750  1.0239 -0.0121
  360TMC3    C8 5451   1.139   3.578  11.864  0.7639 -0.5342  0.3272
  360TMC3    O1 5452   0.790   3.394  11.646 -0.6849 -0.2405  0.6916
  360TMC3    O2 5453   1.192   3.684  11.897 -0.2457  0.0964  0.0319
  361MPD2     C 5454   2.899   1.941  16.888  0.7940  0.4512  0.1150
  361MPD2    C1 5455   2.891   1.993  17.018 -0.3373 -0.0493 -0.8894
  361MPD2    C2 5456   2.961   1.927  17.115  0.1213 -0.3693 -0.0221
  361MPD2    C3 5457   3.054   1.826  17.081  0.3687 -0.4625  0.2209
  361MPD2    C4 5458   3.067   1.789  16.948  0.4576  0.5897  0.0395
  361MPD2    C5 5459   2.996   1.846  16.849  0.0679  0.0055 -0.0266
  361MPD2     H 5460   2.942   1.961  17.217  2.0192  2.4892 -0.6185
  361MPD2    H1 5461   3.134   1.707  16.925  1.4594  1.1020  1.1091
  361MPD2    H2 5462   2.836   1.968  16.804  0.0753  0.3525  0.6345
  361MPD2    H3 5463   3.017   1.819  16.746  0.2511  0.4018 -0.0938
  361MPD2     N 5464   3.124   1.749  17.176 -0.3621  0.2866 -0.1461
  361MPD2    H5 5465   3.197   1.687  17.142 -0.6321 -0.2878  0.3031
  361MPD2    N1 5466   2.813   2.107  17.057  0.5687 -0.1939  0.5076
  361MPD2    H7 5467   2.798   2.120  17.156 -1.5777 -2.2942  0.4539
  362TMC3    C1 5468   2.641   2.262  17.039  0.5158  0.2013  0.0787
  362TMC3    C2 5469   2.685   2.340  17.141 -0.3458  0.2285  0.1910
  362TMC3    C3 5470   2.587   2.431  17.182 -0.0222 -0.4730  0.6798
  362TMC3    C4 5471   2.519   2.274  16.975 -0.3944 -0.0564 -0.3006
  362TMC3    C5 5472   2.425   2.358  17.029 -0.7613  0.1921  0.2585
  362TMC3    C6 5473   2.463   2.443  17.133  0.2785  0.2709  0.2352
  362TMC3     C 5474   2.738   2.177  16.968 -0.0237  0.0049  0.5911
  362TMC3     O 5475   2.728   2.161  16.849 -0.0241  0.8508 -0.5677
  362TMC3     H 5476   2.783   2.349  17.186 -0.5269  0.1113  0.6003
  362TMC3    H1 5477   2.495   2.215  16.888  0.2376 -0.6083 -0.1043
  362TMC3    H2 5478   2.403   2.526  17.168 -0.4711  0.0993 -0.6657
  362TMC3    C7 5479   2.349   2.428  16.926  0.0808 -0.2262 -0.8761
  362TMC3    C8 5480   2.650   2.546  17.248 -0.2430  0.1568 -0.8703
  362TMC3    O1 5481   2.338   2.550  16.937  0.2439 -0.1623  0.2344
  362TMC3    O2 5482   2.771   2.564  17.235 -0.1051  0.0409 -0.5188
  363TMC3    C1 5483   0.157   0.155   9.547 -0.5815 -0.2976  0.2456
  363TMC3    C2 5484   0.267   0.119   9.622 -0.4445 -0.4781 -0.2670
  363TMC3    C3 5485   0.236   0.092   9.756 -0.0651  0.1540  0.6020
  363TMC3    C4 5486   0.032   0.190   9.598  0.6908 -0.4373  0.3076
  363TMC3    C5 5487   0.019   0.165   9.734 -0.1098 -1.0809  0.3316
  363TMC3    C6 5488   0.119   0.109   9.816  0.9652  0.1474 -0.4656
  363TMC3     C 5489   0.183   0.190   9.404 -0.2525 -0.0341 -0.5229
  363TMC3     O 5490   0.287   0.140   9.356  0.3723  0.5240 -1.2603
  363TMC3     H 5491   0.361   0.092   9.576 -1.1891 -3.1775 -0.2140
  363TMC3    H1 5492   4.683   0.226   9.539 -0.1339 -2.0133  0.5293
  363TMC3    H2 5493   0.106   0.099   9.923  1.4235 -0.2504 -0.4478
  363TMC3    C7 5494   4.629   0.218   9.795 -0.6730  0.5729 -1.1864
  363TMC3    C8 5495   0.336   0.032   9.841  0.2332 -0.2809  0.0385
  363TMC3    O1 5496   4.558   0.297   9.730  0.2156 -0.0990  0.4073
  363TMC3    O2 5497   0.351   0.080   9.951  0.2380  0.8353  0.7704
  364MPD2     C 5498   4.090   4.237  10.997  0.4638 -0.4168  0.3294
  364MPD2    C1 5499   4.136   4.210  10.875 -0.0980  0.1169 -0.3323
  364MPD2    C2 5500   4.170   4.080  10.844  0.3065  0.7211 -0.2989
  364MPD2    C3 5501   4.165   3.976  10.941 -0.6449 -0.4189 -0.2373
  364MPD2    C4 5502   4.120   4.012  11.064 -0.0253  0.0241 -0.2447
  364MPD2    C5 5503   4.077   4.140  11.091  0.1318 -0.1314 -0.1571
  364MPD2     H 5504   4.210   4.050  10.748  0.2488 -1.6966  0.4470
  364MPD2    H1 5505   4.115   3.939  11.144  3.8800 -0.7805 -0.7312
  364MPD2    H2 5506   4.067   4.340  11.024  1.4932 -0.4503  1.3501
  364MPD2    H3 5507   4.052   4.164  11.193 -3.6449 -0.6184 -0.9674
  364MPD2     N 5508   4.200   3.842  10.917  0.1532 -0.4227  0.0019
  364MPD2    H5 5509   4.172   3.777  10.990 -0.6162 -1.1730 -0.9634
  364MPD2    N1 5510   4.143   4.318  10.787 -0.3202 -0.3457 -0.4855
  364MPD2    H7 5511   4.123   4.406  10.835 -0.5081 -1.4941  1.5219
  365TMC3    C1 5512   4.195   4.443  10.595 -0.4404 -0.9213  0.5839
  365TMC3    C2 5513   4.235   4.423  10.466 -0.1356 -0.8655 -0.2553
  365TMC3    C3 5514   4.335   4.501  10.417  0.6905 -0.4452 -0.2469
  365TMC3    C4 5515   4.259   4.536  10.667  0.2320 -1.0434  0.2292
  365TMC3    C5 5516   4.364   4.614  10.622 -0.6250  0.3758 -0.0094
  365TMC3    C6 5517   4.398   4.604  10.492  0.2719 -0.5775 -0.1260
  365TMC3     C 5518   4.167   4.312  10.652  0.3490  0.6473 -0.1722
  365TMC3     O 5519   4.183   4.217  10.579  0.3760 -0.1856 -0.4260
  365TMC3     H 5520   4.177   4.356  10.403  0.6764 -0.5104 -1.3693
  365TMC3    H1 5521   4.213   4.559  10.763 -0.9444 -1.2609 -0.2807
  365TMC3    H2 5522   4.466   4.675  10.446  0.9411 -1.2375 -0.1450
  365TMC3    C7 5523   4.392   0.004  10.690  0.4626  0.2107 -0.4261
  365TMC3    C8 5524   4.400   4.455  10.297 -0.1550 -0.5264 -0.1450
  365TMC3    O1 5525   4.402   0.098  10.610 -1.1800  0.4715  0.2020
  365TMC3    O2 5526   4.457   4.529  10.222  0.3370 -0.7734 -0.0634
  366MPD2     C 5527   2.957   0.091  15.849  0.1254 -0.2793  0.0567
  366MPD2    C1 5528   2.953   0.131  15.715 -0.4990 -0.3011  0.1125
  366MPD2    C2 5529   2.919   0.039  15.624 -0.0849 -0.6149  0.2314
  366MPD2    C3 5530   2.903   4.647  15.663  0.3430 -0.3499  0.2163
  366MPD2    C4 5531   2.928   4.601  15.795 -0.3628  0.2339 -0.5945
  366MPD2    C5 5532   2.943   4.695  15.893 -0.6927 -0.5425  0.1070
  366MPD2     H 5533   2.905   0.069  15.521 -1.0629 -0.7306  0.3326
  366MPD2    H1 5534   2.909   4.496  15.815  0.8618 -0.1859 -1.6469
  366MPD2    H2 5535   2.968   0.169  15.924 -1.1157  2.0485 -2.1779
  366MPD2    H3 5536   2.918   4.665  15.994  0.7004  0.7642  0.8502
  366MPD2     N 5537   2.878   4.552  15.567  0.5540  0.5247 -0.2164
  366MPD2    H5 5538   2.904   4.456  15.585  0.8038  0.0138 -3.4029
  366MPD2    N1 5539   3.006   0.251  15.663 -0.3534 -0.2040  0.4309
  366MPD2    H7 5540   3.010   0.266  15.563 -5.5552 -0.1448  0.1894
  367TMC3    C1 5541   3.119   0.455  15.668  0.2417 -0.6511 -0.5929
  367TMC3    C2 5542   3.208   0.523  15.744  0.6226 -0.0393 -0.3099
  367TMC3    C3 5543   3.217   0.654  15.718  0.6266 -0.1124 -0.1301
  367TMC3    C4 5544   3.050   0.502  15.560 -0.3145 -0.6960  1.0105
  367TMC3    C5 5545   3.066   0.634  15.542  0.4774  0.0354 -0.3363
  367TMC3    C6 5546   3.148   0.714  15.620 -0.5804 -0.5222  0.1896
  367TMC3     C 5547   3.058   0.353  15.742 -0.4480  0.0068  0.5725
  367TMC3     O 5548   3.051   0.370  15.862  0.3073 -0.3159  0.0126
  367TMC3     H 5549   3.258   0.481  15.831 -1.2293  0.7744  1.1568
  367TMC3    H1 5550   2.973   0.447  15.508  0.3149 -0.8342  0.2313
  367TMC3    H2 5551   3.144   0.823  15.614 -1.2184 -0.5571 -0.0687
  367TMC3    C7 5552   2.967   0.693  15.455  0.0955  0.3989 -0.0394
  367TMC3    C8 5553   3.316   0.726  15.796 -0.3801  0.0034  0.0943
  367TMC3    O1 5554   2.911   0.800  15.481 -0.3573  0.8488  0.0673
  367TMC3    O2 5555   3.362   0.665  15.894  0.2831 -0.0959 -0.1811
  368MPD2     C 5556   4.076   2.224  13.493  1.0993 -0.4346 -0.7480
  368MPD2    C1 5557   4.035   2.302  13.386 -0.2785 -0.0825  0.1618
  368MPD2    C2 5558   4.131   2.327  13.284 -0.1628 -0.4988  0.0403
  368MPD2    C3 5559   4.262   2.268  13.288  0.3412  0.1511 -0.6902
  368MPD2    C4 5560   4.293   2.196  13.398  0.1507 -0.1558  0.3382
  368MPD2    C5 5561   4.201   2.176  13.496  0.5416  0.0896  0.9483
  368MPD2     H 5562   4.101   2.388  13.199 -0.0067  1.2705  1.2478
  368MPD2    H1 5563   4.395   2.167  13.422  0.8632  0.2265 -2.1783
  368MPD2    H2 5564   4.012   2.198  13.577  1.3460 -1.4642 -0.8768
  368MPD2    H3 5565   4.238   2.115  13.577  0.4830 -2.9852 -1.3349
  368MPD2     N 5566   4.368   2.285  13.187  0.0606  0.3405  0.2411
  368MPD2    H5 5567   4.463   2.256  13.207  0.4741  1.7210  0.2744
  368MPD2    N1 5568   3.898   2.354  13.373  0.0492 -0.3788  0.6565
  368MPD2    H7 5569   3.817   2.311  13.416 -1.4585  2.3412  0.5195
  369TMC3    C1 5570   3.731   2.505  13.309  0.7899  0.0859 -0.0763
  369TMC3    C2 5571   3.723   2.631  13.260  0.7948 -0.4411 -0.3302
  369TMC3    C3 5572   3.628   2.652  13.164 -0.2077  0.5979  0.3427
  369TMC3    C4 5573   3.633   2.414  13.298 -0.0762  0.0738 -1.3106
  369TMC3    C5 5574   3.527   2.440  13.213 -0.2443 -0.9700 -0.4837
  369TMC3    C6 5575   3.527   2.562  13.138 -0.4432  0.2370 -0.1429
  369TMC3     C 5576   3.870   2.463  13.302  1.1143 -0.7318 -0.5234
  369TMC3     O 5577   3.949   2.538  13.244  0.1472 -0.5678 -0.0323
  369TMC3     H 5578   3.803   2.702  13.278  0.1352  0.8177 -2.4109
  369TMC3    H1 5579   3.643   2.318  13.347  3.0799 -0.2313 -2.5007
  369TMC3    H2 5580   3.448   2.586  13.068  0.9941 -0.1170 -1.8637
  369TMC3    C7 5581   3.425   2.342  13.206 -0.0358 -0.6763 -0.1962
  369TMC3    C8 5582   3.657   2.759  13.068 -0.0664 -0.3865 -0.1639
  369TMC3    O1 5583   3.416   2.255  13.293  0.2693 -0.7309 -0.1750
  369TMC3    O2 5584   3.778   2.790  13.057  0.2128  0.2317 -0.1881
  370TMC3    C1 5585   3.469   2.879  16.332  0.3017  0.3615  0.1670
  370TMC3    C2 5586   3.441   2.830  16.458  0.4642 -0.1680 -0.9759
  370TMC3    C3 5587   3.411   2.692  16.464  0.1567  0.2707 -0.0377
  370TMC3    C4 5588   3.480   2.795  16.223  0.1592  0.7555 -0.2772
  370TMC3    C5 5589   3.467   2.662  16.242  0.0148  0.4868  0.2647
  370TMC3    C6 5590   3.430   2.606  16.360 -0.0113  0.2088 -0.3662
  370TMC3     C 5591   3.543   3.002  16.316 -0.7596  0.6310 -0.4314
  370TMC3     O 5592   3.489   3.102  16.274  0.7289 -0.0312 -0.2557
  370TMC3     H 5593   3.453   2.900  16.540  0.6857 -0.4706 -0.7510
  370TMC3    H1 5594   3.515   2.838  16.130  0.4320 -2.6383 -1.7033
  370TMC3    H2 5595   3.429   2.499  16.374  0.4962 -0.0698 -2.4779
  370TMC3    C7 5596   3.536   2.593  16.132 -0.2317  0.5452 -0.4431
  370TMC3    C8 5597   3.386   2.620  16.591  0.1126  0.3845 -0.3162
  370TMC3    O1 5598   3.518   2.637  16.017  0.2997 -0.0011 -0.5521
  370TMC3    O2 5599   3.412   2.501  16.589  0.2995  0.7720 -0.6057
  371TMC3    C1 5600   4.561   1.076  15.523 -0.6166  0.1361 -0.6831
  371TMC3    C2 5601   4.529   1.084  15.655 -0.1362 -0.1854 -0.4684
  371TMC3    C3 5602   4.478   1.201  15.699 -0.1281  0.2819 -0.1601
  371TMC3    C4 5603   4.560   1.185  15.439  1.4599 -0.0298 -0.4613
  371TMC3    C5 5604   4.498   1.301  15.487 -0.5719  0.1700  0.7022
  371TMC3    C6 5605   4.459   1.309  15.619  0.0004  0.1733 -0.3683
  371TMC3     C 5606   4.602   0.955  15.462  0.0398  0.1706 -0.3106
  371TMC3     O 5607   4.639   0.951  15.343 -1.1591 -0.0601 -0.1624
  371TMC3     H 5608   4.563   1.013  15.729  1.7717  0.0173 -1.1305
  371TMC3    H1 5609   4.586   1.190  15.334 -0.5695  1.1619 -0.9220
  371TMC3    H2 5610   4.398   1.395  15.643  0.6528  0.0920  1.5790
  371TMC3    C7 5611   4.556   1.420  15.435  0.0701 -1.5646  0.3660
  371TMC3    C8 5612   4.518   1.230  15.832 -0.1378 -0.3233 -0.2463
  371TMC3    O1 5613   4.496   1.527  15.450  1.1073 -0.1993  0.4829
  371TMC3    O2 5614   4.603   1.164  15.887  0.3050  0.0918 -0.5402
  372MPD2     C 5615   3.794   2.434  13.837  0.7690 -0.2896 -0.2622
  372MPD2    C1 5616   3.900   2.360  13.800  0.1337 -0.7530  0.6209
  372MPD2    C2 5617   3.903   2.223  13.828 -0.1757 -0.0800  0.2154
  372MPD2    C3 5618   3.796   2.162  13.890 -0.0317 -0.3114  1.2106
  372MPD2    C4 5619   3.683   2.238  13.924  0.1390  0.4586  0.0666
  372MPD2    C5 5620   3.686   2.375  13.901 -0.1999 -0.0110 -0.3987
  372MPD2     H 5621   3.990   2.163  13.805 -0.3512  0.2885 -1.4330
  372MPD2    H1 5622   3.592   2.213  13.978  0.8150 -0.6516  0.6877
  372MPD2    H2 5623   3.793   2.540  13.816  0.8951 -0.6026 -1.8094
  372MPD2    H3 5624   3.609   2.437  13.944 -1.1236 -1.0128 -0.5952
  372MPD2     N 5625   3.810   2.024  13.923 -0.6285 -0.3246  0.2600
  372MPD2    H5 5626   3.890   1.973  13.888 -0.7112 -0.0171 -0.3879
  372MPD2    N1 5627   4.005   2.420  13.724 -0.4932  0.1811 -0.2912
  372MPD2    H7 5628   4.089   2.363  13.722 -0.4468  0.2989 -1.9951
  373TMC3    C1 5629   3.749   1.817  14.005 -0.3356 -0.0079  0.0788
  373TMC3    C2 5630   3.740   1.754  14.124  1.1434  0.1215  0.4012
  373TMC3    C3 5631   3.772   1.618  14.132 -0.2061  0.4459  0.6106
  373TMC3    C4 5632   3.797   1.751  13.895 -0.6476 -0.0132 -0.5404
  373TMC3    C5 5633   3.828   1.617  13.905 -0.9648  0.1754  0.4393
  373TMC3    C6 5634   3.809   1.548  14.021  0.8871 -0.0866 -0.4174
  373TMC3     C 5635   3.724   1.956  14.002  0.0677 -0.1627  0.7236
  373TMC3     O 5636   3.650   1.995  14.093 -0.4375  0.3832 -0.1990
  373TMC3     H 5637   3.704   1.809  14.210  1.0845  0.3702  0.2184
  373TMC3    H1 5638   3.823   1.799  13.802 -0.3330 -1.4290 -1.1842
  373TMC3    H2 5639   3.842   1.446  14.032  1.4878  0.1843  0.2668
  373TMC3    C7 5640   3.943   1.581  13.820  0.1261 -1.2035 -0.5029
  373TMC3    C8 5641   3.690   1.532  14.213 -0.1636 -0.2539  0.1266
  373TMC3    O1 5642   4.056   1.569  13.872  0.4325 -0.2179  0.1304
  373TMC3    O2 5643   3.577   1.532  14.164  0.9327 -0.0226 -0.0579
  374TMC3    C1 5644   4.379   2.684   9.643 -0.0379  0.0359 -0.4742
  374TMC3    C2 5645   4.420   2.794   9.714 -0.1469 -0.4427 -0.7731
  374TMC3    C3 5646   4.432   2.909   9.641  0.0499  0.3330  0.0090
  374TMC3    C4 5647   4.357   2.684   9.509 -0.0842 -0.3636 -0.0263
  374TMC3    C5 5648   4.357   2.809   9.444 -0.1914 -0.1249 -0.1495
  374TMC3    C6 5649   4.397   2.922   9.509  0.0880  0.2113 -0.1236
  374TMC3     C 5650   4.357   2.564   9.711 -0.5205  0.3720 -0.7702
  374TMC3     O 5651   4.279   2.488   9.650  0.0268 -0.5767  0.2965
  374TMC3     H 5652   4.440   2.784   9.820 -1.1720 -0.1237 -0.5565
  374TMC3    H1 5653   4.339   2.594   9.453 -1.7539  1.3173 -2.2076
  374TMC3    H2 5654   4.410   3.023   9.470 -0.5387  0.6572  0.8252
  374TMC3    C7 5655   4.362   2.813   9.299  0.2662  0.2131 -0.3766
  374TMC3    C8 5656   4.504   3.018   9.697 -0.3432  0.0973 -0.3195
  374TMC3    O1 5657   4.396   2.920   9.253 -0.4226  0.3360 -0.3596
  374TMC3    O2 5658   4.493   3.127   9.648 -0.0637  0.3577  0.4477
  375MPD2     C 5659   0.382   3.469  17.320  0.9984 -0.1236  0.2244
  375MPD2    C1 5660   0.311   3.512  17.203 -0.0423 -0.3265 -0.9563
  375MPD2    C2 5661   0.386   3.551  17.099  0.4995 -0.2515 -0.2270
  375MPD2    C3 5662   0.525   3.529  17.094  0.1632 -0.3293 -0.3245
  375MPD2    C4 5663   0.585   3.476  17.206  0.8873 -0.7207 -0.1567
  375MPD2    C5 5664   0.513   3.455  17.322 -0.1016 -0.5189  0.0742
  375MPD2     H 5665   0.327   3.596  17.019 -0.6209 -0.4790  0.4713
  375MPD2    H1 5666   0.692   3.464  17.214  0.9927  0.3011 -0.0479
  375MPD2    H2 5667   0.324   3.427  17.402 -0.8154  0.6647 -0.6558
  375MPD2    H3 5668   0.564   3.414  17.408 -2.0825  0.2145  1.5990
  375MPD2     N 5669   0.600   3.556  16.976  0.2295 -0.1714 -0.7947
  375MPD2    H5 5670   0.699   3.535  16.979  0.0614 -0.5190  1.7541
  375MPD2    N1 5671   0.172   3.521  17.197 -0.4237 -0.3543  0.2274
  375MPD2    H7 5672   0.128   3.557  17.113  3.8469  0.6943 -1.5380
  376TMC3    C1 5673   0.653   3.625  16.760 -0.2482 -0.4663 -0.3643
  376TMC3    C2 5674   0.786   3.598  16.792  0.2445 -0.0783  0.1917
  376TMC3    C3 5675   0.874   3.588  16.685  0.4239  0.2374  0.0394
  376TMC3    C4 5676   0.605   3.645  16.630  0.1104 -0.0256 -0.2256
  376TMC3    C5 5677   0.702   3.649  16.539  0.5768  0.0923  0.4345
  376TMC3    C6 5678   0.832   3.625  16.560 -0.1516 -0.6239 -0.2270
  376TMC3     C 5679   0.553   3.612  16.860 -0.1243 -0.3931  0.1221
  376TMC3     O 5680   0.446   3.669  16.843  0.4185 -0.7881  0.4966
  376TMC3     H 5681   0.827   3.589  16.892 -0.9933  0.2995  0.7249
  376TMC3    H1 5682   0.501   3.663  16.607  0.2323  0.8553 -0.1095
  376TMC3    H2 5683   0.893   3.613  16.471 -0.0849 -0.0569 -0.2591
  376TMC3    C7 5684   0.654   3.658  16.404  0.6089  0.4646  0.0478
  376TMC3    C8 5685   1.010   3.546  16.699 -0.2704 -0.1641  0.3014
  376TMC3    O1 5686   0.543   3.609  16.376 -0.0091 -0.2832  0.0121
  376TMC3    O2 5687   1.084   3.579  16.605  0.1751  0.0270 -0.3301
  377MPD2     C 5688   2.815   2.489  12.652  0.5605  0.5497 -0.0025
  377MPD2    C1 5689   2.915   2.559  12.710  0.2054  0.3594  0.4366
  377MPD2    C2 5690   2.928   2.556  12.846 -0.1482  0.1256 -0.1025
  377MPD2    C3 5691   2.835   2.496  12.921 -0.6812 -0.4929  0.4698
  377MPD2    C4 5692   2.724   2.442  12.866  0.3119  0.3572 -0.0885
  377MPD2    C5 5693   2.712   2.433  12.726 -0.3938  0.0670 -0.4556
  377MPD2     H 5694   3.007   2.615  12.891 -1.6066  2.1550 -0.1943
  377MPD2    H1 5695   2.641   2.393  12.917 -1.7130  1.0547 -2.7457
  377MPD2    H2 5696   2.801   2.485  12.544 -1.6360  1.7898  0.2262
  377MPD2    H3 5697   2.620   2.395  12.685 -1.7829  1.6811  1.1496
  377MPD2     N 5698   2.831   2.514  13.059  0.1399  0.5224 -0.0536
  377MPD2    H5 5699   2.762   2.461  13.111  0.7583 -0.7735 -0.5497
  377MPD2    N1 5700   3.004   2.630  12.621  0.0738 -0.0683 -0.9659
  377MPD2    H7 5701   2.976   2.630  12.523 -0.0918  0.5068 -0.9193
  378TMC3    C1 5702   3.194   2.837  12.332  0.5172  0.1174  0.4475
  378TMC3    C2 5703   3.121   2.788  12.436 -0.9594  1.0492  0.0181
  378TMC3    C3 5704   3.189   2.762  12.550  0.1041  1.1913 -0.5524
  378TMC3    C4 5705   3.321   2.880  12.338 -0.5150 -0.1053  0.3735
  378TMC3    C5 5706   3.382   2.864  12.458  0.2786  0.1298 -0.1508
  378TMC3    C6 5707   3.326   2.789  12.562  0.2332  0.5717 -0.1882
  378TMC3     C 5708   3.120   2.857  12.207 -0.6523  0.2974 -0.6004
  378TMC3     O 5709   3.012   2.804  12.199  0.0629  0.5627  0.3309
  378TMC3     H 5710   3.015   2.769  12.429 -0.5851 -0.2734 -2.2995
  378TMC3    H1 5711   3.367   2.933  12.256 -1.7856 -0.5712 -0.6478
  378TMC3    H2 5712   3.383   2.758  12.649  2.7334 -0.1547 -2.0936
  378TMC3    C7 5713   3.521   2.892  12.475  1.0715  0.6219 -0.4302
  378TMC3    C8 5714   3.125   2.687  12.659 -0.2012  0.9075  0.0337
  378TMC3    O1 5715   3.587   2.823  12.551 -0.1579  0.0240 -0.1124
  378TMC3    O2 5716   3.188   2.669  12.762  0.3312  0.3600 -0.6445
  379MPD2     C 5717   4.384   1.197  16.328  0.4365  0.1403 -0.0972
  379MPD2    C1 5718   4.321   1.115  16.414 -0.0136  0.7174  0.1338
  379MPD2    C2 5719   4.388   1.069  16.529  0.0808 -0.7721 -0.0891
  379MPD2    C3 5720   4.515   1.116  16.559 -0.0911 -0.5919 -0.3320
  379MPD2    C4 5721   4.575   1.200  16.472 -0.2708  0.0783  0.3301
  379MPD2    C5 5722   4.506   1.240  16.359 -0.1471  0.2166 -0.0899
  379MPD2     H 5723   4.342   0.998  16.597 -0.4639  1.8095  2.2505
  379MPD2    H1 5724   4.675   1.240  16.485 -0.0964  0.3996 -2.0235
  379MPD2    H2 5725   4.337   1.235  16.238 -0.2024 -0.4668 -0.0214
  379MPD2    H3 5726   4.561   1.303  16.291  1.1549 -1.5275 -0.6597
  379MPD2     N 5727   4.595   1.064  16.665 -0.4046 -0.4376 -0.2386
  379MPD2    H5 5728   4.694   1.086  16.664  0.0265 -2.2723  1.6516
  379MPD2    N1 5729   4.184   1.091  16.391  0.2900 -0.1891 -0.0992
  379MPD2    H7 5730   4.142   1.118  16.303  0.6262 -0.5118 -0.3558
  380TMC3    C1 5731   3.977   0.995  16.410  0.1324  0.6966 -0.3808
  380TMC3    C2 5732   3.931   0.873  16.453 -0.0393  0.0487  0.0381
  380TMC3    C3 5733   3.818   0.828  16.388  0.5777  0.0143  0.0780
  380TMC3    C4 5734   3.925   1.061  16.305 -0.3115 -0.7993 -0.1944
  380TMC3    C5 5735   3.808   1.012  16.256  0.5746  0.0177  0.8220
  380TMC3    C6 5736   3.738   0.904  16.308  0.6425 -0.0468  0.1282
  380TMC3     C 5737   4.109   1.017  16.474 -0.5786 -0.2874  0.1370
  380TMC3     O 5738   4.128   0.972  16.583  0.4377  0.5795  0.0945
  380TMC3     H 5739   3.980   0.805  16.521  0.3042 -1.5704 -1.8168
  380TMC3    H1 5740   3.956   1.159  16.268  1.5574 -1.3706 -0.1196
  380TMC3    H2 5741   3.650   0.849  16.277  0.3954  0.5786 -0.2746
  380TMC3    C7 5742   3.764   1.066  16.127 -0.7178 -0.6146 -1.0528
  380TMC3    C8 5743   3.754   0.711  16.445  0.1959 -0.0492  0.5789
  380TMC3    O1 5744   3.825   1.160  16.070 -0.2730  0.3541  0.1656
  380TMC3    O2 5745   3.754   0.703  16.567  0.0813  0.3814  0.3949
  381TMC3    C1 5746   3.497   1.944  16.441  0.1955  0.6394  0.5192
  381TMC3    C2 5747   3.559   2.066  16.414 -0.0182  0.8595 -0.2314
  381TMC3    C3 5748   3.539   2.170  16.499  0.0076  0.3779 -0.0889
  381TMC3    C4 5749   3.427   1.932  16.559  0.1692  0.1233  0.9294
  381TMC3    C5 5750   3.408   2.038  16.639  0.7897 -1.1253  0.2104
  381TMC3    C6 5751   3.456   2.159  16.609  1.0825  0.1843  0.8575
  381TMC3     C 5752   3.526   1.822  16.366 -0.1859  0.1804 -0.0260
  381TMC3     O 5753   3.478   1.716  16.404  0.0691 -0.0141  0.0030
  381TMC3     H 5754   3.633   2.085  16.337 -0.1493  0.9884 -0.3246
  381TMC3    H1 5755   3.385   1.837  16.588  0.1649 -0.7421 -1.9508
  381TMC3    H2 5756   3.466   2.235  16.686  0.4886  0.3694  0.7469
  381TMC3    C7 5757   3.394   2.003  16.775 -0.3788  0.6104  0.6374
  381TMC3    C8 5758   3.662   2.247  16.507  0.0663 -0.8304 -0.6394
  381TMC3    O1 5759   3.454   1.903  16.807  0.2871 -0.9193  0.3250
  381TMC3    O2 5760   3.762   2.178  16.487 -0.2482 -0.0961 -0.0489
  382MPD2     C 5761   3.097   0.113  16.659  0.5396 -0.0268 -0.0679
  382MPD2    C1 5762   3.140   0.145  16.790 -0.0309  0.1670 -0.0074
  382MPD2    C2 5763   3.133   0.054  16.891 -0.0629  0.5097 -0.5373
  382MPD2    C3 5764   3.087   4.660  16.870 -0.3603  0.2330 -0.2838
  382MPD2    C4 5765   3.040   4.632  16.745 -0.0257  0.5717  0.7229
  382MPD2    C5 5766   3.037   4.725  16.642  0.0278  0.6520  0.0589
  382MPD2     H 5767   3.156   0.083  16.993  0.9969 -2.5987  0.1243
  382MPD2    H1 5768   3.018   4.528  16.722 -1.4740  1.2091 -0.8081
  382MPD2    H2 5769   3.117   0.177  16.574 -2.3952  0.8081 -0.1326
  382MPD2    H3 5770   3.007   4.682  16.547 -1.4970 -2.1990  1.8279
  382MPD2     N 5771   3.101   4.547  16.956 -0.2289  0.2020  0.0133
  382MPD2    H5 5772   3.080   4.458  16.913  0.7638 -1.3470  2.7434
  382MPD2    N1 5773   3.208   0.271  16.820  0.5713  0.3353 -0.7620
  382MPD2    H7 5774   3.263   0.277  16.905 -0.5650  2.7969 -0.2068
  383TMC3    C1 5775   3.161   4.419  17.141  0.6583 -0.3503 -0.9278
  383TMC3    C2 5776   3.050   4.332  17.125 -0.0239 -0.1086 -0.6212
  383TMC3    C3 5777   3.047   4.225  17.216  0.5840 -0.0201  0.0067
  383TMC3    C4 5778   3.247   4.408  17.248  0.2387 -0.1313 -0.4699
  383TMC3    C5 5779   3.238   4.301  17.328  0.0816  0.5567  0.2883
  383TMC3    C6 5780   3.144   4.206  17.310  0.4946 -0.2436 -0.1674
  383TMC3     C 5781   3.150   4.551  17.083 -0.2360  0.2839 -0.5601
  383TMC3     O 5782   3.161   4.646  17.159 -0.1145  0.3221  0.5527
  383TMC3     H 5783   2.982   4.338  17.041 -0.0120 -0.0586 -0.6274
  383TMC3    H1 5784   3.314   4.493  17.260 -0.1235 -0.0202  0.6814
  383TMC3    H2 5785   3.141   4.119  17.375  1.7682 -0.4225 -0.3350
  383TMC3    C7 5786   3.289   4.306  17.464  0.3219  0.1064 -0.1538
  383TMC3    C8 5787   2.933   4.136  17.200 -0.4157 -0.2724 -0.5781
  383TMC3    O1 5788   3.298   4.202  17.531  0.0456 -0.5034  0.1455
  383TMC3    O2 5789   2.864   4.154  17.102  0.0722 -0.4990  0.4724
  384MPD2     C 5790   3.944   1.294  12.218  0.1462  0.1629  1.0694
  384MPD2    C1 5791   3.918   1.206  12.323 -0.4795 -0.3072  0.1841
  384MPD2    C2 5792   4.025   1.124  12.353  0.6064  0.3922  0.4046
  384MPD2    C3 5793   4.139   1.115  12.281 -0.5442 -0.6339 -0.2716
  384MPD2    C4 5794   4.159   1.194  12.174 -0.3732  0.5986  0.2404
  384MPD2    C5 5795   4.069   1.290  12.145  0.3740 -0.1413  0.3676
  384MPD2     H 5796   4.010   1.057  12.437 -2.3076 -1.6155 -1.7396
  384MPD2    H1 5797   4.255   1.203  12.124 -0.6019  1.0594 -0.1052
  384MPD2    H2 5798   3.867   1.367  12.199  0.8452  1.6348  3.8703
  384MPD2    H3 5799   4.089   1.361  12.065 -2.2222 -0.2232 -0.3675
  384MPD2     N 5800   4.234   1.017  12.326 -0.0635  0.3645 -0.4866
  384MPD2    H5 5801   4.200   0.962  12.404 -0.1834 -1.5094 -1.8563
  384MPD2    N1 5802   3.796   1.186  12.394  0.1711 -0.6117 -0.3537
  384MPD2    H7 5803   3.807   1.134  12.481  2.2703  1.3478  0.5522
  385TMC3    C1 5804   4.420   0.875  12.325 -0.3457 -0.0687 -0.5235
  385TMC3    C2 5805   4.441   0.773  12.234 -0.0706 -0.2946  0.3075
  385TMC3    C3 5806   4.393   0.656  12.280 -0.5537 -0.4856  0.5973
  385TMC3    C4 5807   4.365   0.860  12.452 -0.1080  0.4815 -0.2284
  385TMC3    C5 5808   4.313   0.732  12.476  0.2132 -0.1082 -0.9040
  385TMC3    C6 5809   4.329   0.623  12.398  0.3053  0.1354 -0.0138
  385TMC3     C 5810   4.357   0.990  12.262 -0.0994  0.4657  0.1274
  385TMC3     O 5811   4.411   1.038  12.163  0.3908 -0.2504 -0.1192
  385TMC3     H 5812   4.486   0.786  12.136 -1.0325  1.6286  0.1171
  385TMC3    H1 5813   4.359   0.939  12.526 -1.5546 -1.8494  2.1568
  385TMC3    H2 5814   4.295   0.523  12.422  2.6252 -0.5287  0.5903
  385TMC3    C7 5815   4.188   0.743  12.543 -0.7891  0.5881 -0.0574
  385TMC3    C8 5816   4.412   0.544  12.195 -0.1716  0.7592  0.7852
  385TMC3    O1 5817   4.145   0.855  12.556  0.6413 -0.3539  0.4403
  385TMC3    O2 5818   4.416   0.563  12.072  0.5074  0.2653  0.3639
  386TMC3    C1 5819   4.623   2.965  11.793 -0.4508  0.0213  0.6070
  386TMC3    C2 5820   4.592   3.019  11.669  0.1805  0.8077 -0.4360
  386TMC3    C3 5821   4.534   3.143  11.667  0.1009 -0.2205  0.5341
  386TMC3    C4 5822   4.598   3.033  11.913 -0.0028 -0.0087 -0.0667
  386TMC3    C5 5823   4.531   3.154  11.902  0.3375 -0.2894 -0.0793
  386TMC3    C6 5824   4.510   3.212  11.783 -0.0283 -0.1274  0.8986
  386TMC3     C 5825   4.669   2.828  11.801  0.0984 -0.1608 -0.0037
  386TMC3     O 5826   4.640   2.760  11.702  0.3621  0.0529 -0.3835
  386TMC3     H 5827   4.597   2.958  11.580 -0.5090  2.0285 -1.3001
  386TMC3    H1 5828   4.603   2.983  12.009 -0.4075 -0.2607 -0.1785
  386TMC3    H2 5829   4.457   3.306  11.780  2.6987  1.2279 -4.3087
  386TMC3    C7 5830   4.476   3.207  12.027 -0.0419  0.4969  0.3762
  386TMC3    C8 5831   4.479   3.194  11.549  0.0188  0.1809 -0.9686
  386TMC3    O1 5832   4.418   3.126  12.100 -0.2944  0.2164  0.2019
  386TMC3    O2 5833   4.375   3.254  11.563 -0.1458 -0.9463 -0.0345
  387MPD2     C 5834   1.809   2.685   9.856  0.3897 -0.1268  0.1182
  387MPD2    C1 5835   1.947   2.692   9.857  0.8311 -0.0652 -0.2608
  387MPD2    C2 5836   2.017   2.577   9.847 -0.6337  0.3492  0.0747
  387MPD2    C3 5837   1.963   2.455   9.821  0.2107  0.0580 -0.0093
  387MPD2    C4 5838   1.824   2.446   9.810  0.0235 -0.0985  0.2087
  387MPD2    C5 5839   1.748   2.562   9.827 -0.6596  0.1760 -0.7100
  387MPD2     H 5840   2.124   2.582   9.838 -0.4753 -1.1159  1.2142
  387MPD2    H1 5841   1.770   2.354   9.787  1.7341 -1.4765  1.6966
  387MPD2    H2 5842   1.743   2.764   9.890 -0.2404 -0.8926  0.6738
  387MPD2    H3 5843   1.641   2.550   9.820 -0.7337  0.4153 -0.0221
  387MPD2     N 5844   2.048   2.345   9.818  0.3782  0.4253  0.0698
  387MPD2    H5 5845   2.147   2.367   9.821  0.5068 -0.2146  0.7385
  387MPD2    N1 5846   2.017   2.805   9.904  1.0952 -0.6276 -0.2399
  387MPD2    H7 5847   2.119   2.797   9.906  1.1794  1.2621  2.1197
  388TMC3    C1 5848   2.055   2.962  10.065 -0.3214  0.0188 -0.2789
  388TMC3    C2 5849   2.036   3.089  10.110  0.1291 -0.6317 -0.4324
  388TMC3    C3 5850   2.128   3.133  10.201  0.4862  0.0835 -0.0903
  388TMC3    C4 5851   2.146   2.874  10.123  0.3849  0.0991  0.0800
  388TMC3    C5 5852   2.237   2.921  10.214  0.1654  0.1448 -0.4677
  388TMC3    C6 5853   2.237   3.053  10.239  0.0727 -0.1017  0.7306
  388TMC3     C 5854   1.964   2.910   9.968 -0.2927  0.1709 -1.3365
  388TMC3     O 5855   1.852   2.960   9.955 -0.1354 -0.3076 -0.3152
  388TMC3     H 5856   1.970   3.157  10.058  0.0256  0.4394  1.1041
  388TMC3    H1 5857   2.146   2.769  10.097  1.5572  0.4745 -1.4053
  388TMC3    H2 5858   2.316   3.087  10.306 -1.2418  0.5521  1.9406
  388TMC3    C7 5859   2.359   2.843  10.240 -0.1937 -0.1806 -0.1446
  388TMC3    C8 5860   2.151   3.275  10.198  0.5593 -0.2216  0.1977
  388TMC3    O1 5861   2.468   2.896  10.223 -0.2593  0.9792 -0.1764
  388TMC3    O2 5862   2.114   3.330  10.096 -0.2141  0.0901  0.4926
  389MPD2     C 5863   0.685   1.165  10.824 -0.1955 -0.4771  0.4381
  389MPD2    C1 5864   0.811   1.209  10.856  0.1319 -0.3340 -0.2055
  389MPD2    C2 5865   0.873   1.164  10.967  0.2798 -0.5447 -0.2136
  389MPD2    C3 5866   0.815   1.064  11.043  0.5651  0.8137  1.6879
  389MPD2    C4 5867   0.693   1.018  11.005 -0.5072 -0.3287 -0.5010
  389MPD2    C5 5868   0.622   1.071  10.900  0.1719 -0.0450  0.0625
  389MPD2     H 5869   0.972   1.203  10.989  0.7993 -0.9813 -1.7620
  389MPD2    H1 5870   0.637   0.946  11.064  0.9900 -0.7815  0.3610
  389MPD2    H2 5871   0.629   1.205  10.741  0.6164 -0.0927  0.0735
  389MPD2    H3 5872   0.525   1.029  10.878  0.0171  1.1052 -1.4028
  389MPD2     N 5873   0.881   1.003  11.152 -0.2742 -0.2085  0.1608
  389MPD2    H5 5874   0.829   0.931  11.201 -0.8240 -0.2221 -0.4394
  389MPD2    N1 5875   0.861   1.298  10.760  0.1877 -0.2718 -1.1210
  389MPD2    H7 5876   0.800   1.308  10.680  0.7040 -1.8183 -1.6956
  390TMC3    C1 5877   1.044   0.956  11.318  0.2192  0.5695 -1.1158
  390TMC3    C2 5878   0.986   0.837  11.333  0.1413  0.1946  0.5103
  390TMC3    C3 5879   1.008   0.776  11.453  1.3494  0.0671  0.2406
  390TMC3    C4 5880   1.108   1.020  11.412 -0.1562 -0.4316  0.1040
  390TMC3    C5 5881   1.133   0.963  11.535  0.7032 -0.6494 -0.3494
  390TMC3    C6 5882   1.081   0.832  11.557  0.4651 -0.5115 -0.4129
  390TMC3     C 5883   1.001   1.047  11.213  0.0149  0.0369 -0.1258
  390TMC3     O 5884   1.068   1.144  11.193 -0.0745  0.7338  0.4406
  390TMC3     H 5885   0.937   0.784  11.252 -1.5511  0.9624  1.0255
  390TMC3    H1 5886   1.128   1.126  11.406 -2.5342 -0.0351 -0.6714
  390TMC3    H2 5887   1.113   0.774  11.643  1.7124 -0.1740 -0.6461
  390TMC3    C7 5888   1.182   1.037  11.649 -0.1565 -0.1162 -0.0578
  390TMC3    C8 5889   0.931   0.664  11.501  0.5366 -0.5827 -0.0768
  390TMC3    O1 5890   1.253   1.134  11.623 -0.8049  0.0142  0.4235
  390TMC3    O2 5891   0.908   0.578  11.420  0.2733  0.1134 -0.3182
  391MPD2     C 5892   0.673   2.488  10.908  0.0791  0.1774  0.1749
  391MPD2    C1 5893   0.747   2.603  10.881  0.7985 -0.6287  0.9836
  391MPD2    C2 5894   0.715   2.673  10.766 -0.2689  0.6775 -0.1890
  391MPD2    C3 5895   0.618   2.636  10.680 -0.1361  0.2089 -0.0549
  391MPD2    C4 5896   0.536   2.534  10.716 -1.0391 -0.5501  1.0509
  391MPD2    C5 5897   0.568   2.461  10.827  0.1918  0.0840  0.4690
  391MPD2     H 5898   0.775   2.758  10.735 -1.1093  1.5806  0.6420
  391MPD2    H1 5899   0.463   2.494  10.647 -2.4544 -0.0044  2.2448
  391MPD2    H2 5900   0.693   2.416  10.986  0.2865  1.4813  1.3124
  391MPD2    H3 5901   0.517   2.366  10.838  0.4081  0.0832  1.4483
  391MPD2     N 5902   0.603   2.711  10.564 -0.1284  1.0144  0.3163
  391MPD2    H5 5903   0.678   2.778  10.549  0.3420  0.1640 -1.2104
  391MPD2    N1 5904   0.847   2.640  10.974  0.6731  0.8108  0.2743
  391MPD2    H7 5905   0.857   2.585  11.059 -1.1874  0.6938  0.4179
  392TMC3    C1 5906   0.523   2.769  10.346 -0.8262  0.5386 -0.7783
  392TMC3    C2 5907   0.399   2.809  10.299  0.3466 -0.3480  0.1320
  392TMC3    C3 5908   0.391   2.923  10.220  0.8997  0.6856 -0.5813
  392TMC3    C4 5909   0.633   2.848  10.329 -0.5986 -0.4108  0.1438
  392TMC3    C5 5910   0.623   2.955  10.248 -0.4431  0.1052 -0.1925
  392TMC3    C6 5911   0.505   3.001  10.197  0.1967  0.2777 -0.3136
  392TMC3     C 5912   0.523   2.675  10.460 -0.5872  0.2221 -0.4375
  392TMC3     O 5913   0.431   2.595  10.456  0.6769  0.6400 -0.4392
  392TMC3     H 5914   0.303   2.760  10.311  0.8067 -1.8826 -2.4388
  392TMC3    H1 5915   0.733   2.829  10.367  0.0300  0.0214 -1.3184
  392TMC3    H2 5916   0.508   3.092  10.139  2.2966  1.0278  0.9806
  392TMC3    C7 5917   0.742   3.037  10.240  0.8305 -0.0613  0.1550
  392TMC3    C8 5918   0.258   2.964  10.164  0.2567  0.1680 -0.0088
  392TMC3    O1 5919   0.814   3.044  10.336 -0.4777  0.0496  0.3083
  392TMC3    O2 5920   0.161   2.890  10.179 -0.3980 -0.2232 -0.7320
  393TMC3    C1 5921   4.327   1.009  10.758 -0.3375  0.1702  0.5787
  393TMC3    C2 5922   4.231   1.059  10.840 -0.2453  0.2891 -0.0687
  393TMC3    C3 5923   4.191   0.978  10.942  0.7855  0.2551 -0.1765
  393TMC3    C4 5924   4.384   0.885  10.771  0.0628 -0.3160 -0.5879
  393TMC3    C5 5925   4.342   0.810  10.877 -0.6312  0.1837  1.0499
  393TMC3    C6 5926   4.235   0.852  10.959 -0.4845 -0.1013  0.5421
  393TMC3     C 5927   4.378   1.103  10.653 -0.5477 -0.3748 -0.4623
  393TMC3     O 5928   4.491   1.074  10.613  0.2241  0.0887  0.2180
  393TMC3     H 5929   4.200   1.163  10.841 -2.0056 -0.2683  2.1592
  393TMC3    H1 5930   4.474   0.861  10.717  0.1895 -1.1442 -0.0032
  393TMC3    H2 5931   4.195   0.784  11.033  1.3097 -0.0066  1.6134
  393TMC3    C7 5932   4.424   0.694  10.912  0.0090  0.5017 -0.4497
  393TMC3    C8 5933   4.084   1.015  11.035  0.2052  0.0729 -0.0576
  393TMC3    O1 5934   4.485   0.655  10.813 -0.0066 -0.2127  0.6626
  393TMC3    O2 5935   4.011   0.932  11.089 -0.2217  0.3694  0.7224
  394TMC3    C1 5936   1.014   1.414  10.632 -0.8262 -0.1556 -0.9638
  394TMC3    C2 5937   0.970   1.363  10.512  0.2396 -0.1456 -0.3094
  394TMC3    C3 5938   1.023   1.413  10.395  0.3255 -0.4697 -0.3941
  394TMC3    C4 5939   1.114   1.504  10.629  0.3922 -0.0373 -0.0212
  394TMC3    C5 5940   1.176   1.544  10.506  0.6554 -0.4423  0.0517
  394TMC3    C6 5941   1.126   1.505  10.385  0.0742 -0.5585 -0.1392
  394TMC3     C 5942   0.981   1.365  10.764 -0.0326 -0.2506 -0.5540
  394TMC3     O 5943   1.050   1.377  10.866 -0.6035  0.4837 -0.0811
  394TMC3     H 5944   0.895   1.285  10.514 -0.3234  0.4754  3.4690
  394TMC3    H1 5945   1.143   1.548  10.724  1.2628 -1.4451  0.3607
  394TMC3    H2 5946   1.174   1.536  10.293  0.9537  1.7938  1.1108
  394TMC3    C7 5947   1.257   1.661  10.501 -0.3402  0.9894  0.1726
  394TMC3    C8 5948   1.030   1.319  10.290  0.2197 -0.9330 -0.4369
  394TMC3    O1 5949   1.246   1.737  10.409  0.3897  0.1524 -0.2744
  394TMC3    O2 5950   1.053   1.362  10.179 -0.2882  0.0921 -0.4458
  395TMC3    C1 5951   1.343   3.014  14.924  0.0689 -0.1779 -0.3603
  395TMC3    C2 5952   1.207   3.019  14.913 -0.4846  0.0427 -0.1781
  395TMC3    C3 5953   1.154   3.127  14.847  0.1415  0.0792 -1.1606
  395TMC3    C4 5954   1.419   3.108  14.872  0.0040  0.2040  0.6523
  395TMC3    C5 5955   1.366   3.216  14.811 -0.1191  0.3803  0.4334
  395TMC3    C6 5956   1.229   3.235  14.806 -0.7363  0.0685  0.2701
  395TMC3     C 5957   1.409   2.941  15.027  0.7433 -0.3565 -0.1097
  395TMC3     O 5958   1.531   2.960  15.041 -0.4508  0.0096 -0.8802
  395TMC3     H 5959   1.142   2.940  14.948  1.9326 -1.5623  0.6665
  395TMC3    H1 5960   1.524   3.089  14.849  0.0917 -2.3224  3.2147
  395TMC3    H2 5961   1.180   3.325  14.771 -0.6699 -0.3502 -0.8986
  395TMC3    C7 5962   1.451   3.306  14.748 -0.1529 -0.0918 -0.1242
  395TMC3    C8 5963   1.008   3.135  14.821 -0.0126 -0.2399 -0.3319
  395TMC3    O1 5964   1.576   3.295  14.768  0.2667  0.3657  0.5310
  395TMC3    O2 5965   0.985   3.220  14.731  0.6225 -0.6747  0.7170
  396MPD2     C 5966   1.165   3.898  17.319 -0.6217 -0.4524 -0.0117
  396MPD2    C1 5967   1.279   3.967  17.274  0.3008 -0.1344 -0.0435
  396MPD2    C2 5968   1.257   4.084  17.211  0.1406 -0.4561  0.9793
  396MPD2    C3 5969   1.128   4.139  17.195 -0.0669  0.2870 -0.2087
  396MPD2    C4 5970   1.023   4.071  17.255  0.3409 -0.6638 -0.4531
  396MPD2    C5 5971   1.044   3.952  17.315 -0.5056  0.2101 -0.3037
  396MPD2     H 5972   1.343   4.134  17.167  0.1435  0.7812  2.3810
  396MPD2    H1 5973   0.922   4.111  17.251  0.5605  0.1117  1.6186
  396MPD2    H2 5974   1.174   3.807  17.377 -1.9066  0.5816  1.8108
  396MPD2    H3 5975   0.971   3.901  17.377  1.7524 -2.5694  0.0523
  396MPD2     N 5976   1.113   4.255  17.114  0.2898  0.4010 -0.1888
  396MPD2    H5 5977   1.198   4.295  17.076 -0.2684  1.1481 -0.6448
  396MPD2    N1 5978   1.405   3.918  17.305 -0.4322  0.6965  0.0801
  396MPD2    H7 5979   1.421   3.840  17.368 -1.4024  0.2590 -0.2200
  397TMC3    C1 5980   1.619   3.877  17.279  0.0815 -0.1397 -0.4518
  397TMC3    C2 5981   1.615   3.790  17.168  0.1214 -0.2124 -0.0927
  397TMC3    C3 5982   1.580   3.656  17.188  0.0862 -0.1542  0.2256
  397TMC3    C4 5983   1.606   3.814  17.403  0.5051 -1.1567 -0.3319
  397TMC3    C5 5984   1.587   3.676  17.422 -0.0401 -0.2900  0.4741
  397TMC3    C6 5985   1.581   3.596  17.312  0.3720 -0.4193  0.0136
  397TMC3     C 5986   1.522   3.977  17.260 -0.3175 -0.0431  0.0695
  397TMC3     O 5987   1.543   4.066  17.178  0.1003  0.0465  0.1319
  397TMC3     H 5988   1.598   3.834  17.070  1.7474  0.5338 -0.0560
  397TMC3    H1 5989   1.606   3.888  17.482  0.3979  0.4446 -1.8398
  397TMC3    H2 5990   1.566   3.492  17.337 -1.0591 -1.1523 -3.9702
  397TMC3    C7 5991   1.536   3.622  17.547  0.2794 -0.0194 -0.5156
  397TMC3    C8 5992   1.468   3.627  17.101  0.3776 -0.6761  0.9100
  397TMC3    O1 5993   1.482   3.512  17.537  0.0341 -0.0526  0.1207
  397TMC3    O2 5994   1.472   3.658  16.984 -0.3446  0.0535 -0.1074
  398MPD2     C 5995   4.638   0.680   0.253 -0.7123 -0.0881  0.4948
  398MPD2    C1 5996   4.662   0.570   0.324 -0.0035  0.4927 -0.5665
  398MPD2    C2 5997   0.020   0.570   0.431  0.6010 -0.7536  0.0903
  398MPD2    C3 5998   0.085   0.684   0.466  0.2016  0.2698  0.2729
  398MPD2    C4 5999   0.067   0.793   0.382 -0.5446  0.9298  0.7225
  398MPD2    C5 6000   4.710   0.788   0.276  1.1387 -0.5168  0.1026
  398MPD2     H 6001   0.034   0.477   0.485  0.6982 -0.3225  0.8092
  398MPD2    H1 6002   0.118   0.888   0.390 -0.0036  0.6453  0.6422
  398MPD2    H2 6003   4.563   0.687   0.175 -0.7894 -0.9782  0.4971
  398MPD2    H3 6004   4.685   0.871   0.211  2.5579  0.2404  0.5451
  398MPD2     N 6005   0.189   0.665   0.555 -1.0304 -0.4932  0.1661
  398MPD2    H5 6006   0.180   0.584   0.615  2.2617 -1.1522 -0.2242
  398MPD2    N1 6007   4.587   0.449   0.301 -0.1864 -0.2171  1.1768
  398MPD2    H7 6008   4.623   0.363   0.343  0.2719 -0.7294 -0.2626
  399TMC3    C1 6009   4.457   0.285   0.208 -0.3651 -0.4921  0.2816
  399TMC3    C2 6010   4.552   0.200   0.253 -0.4637 -0.7791  0.5098
  399TMC3    C3 6011   4.506   0.082   0.309  0.0750  0.2832 -0.4819
  399TMC3    C4 6012   4.321   0.256   0.217 -0.5970  0.2150 -0.3668
  399TMC3    C5 6013   4.283   0.133   0.262  0.3851  0.3234  0.0431
  399TMC3    C6 6014   4.373   0.050   0.316  0.1448 -0.1575 -0.1643
  399TMC3     C 6015   4.486   0.427   0.216 -0.0898  0.4142  0.8613
  399TMC3     O 6016   4.421   0.506   0.150  0.4392  0.6370 -0.4986
  399TMC3     H 6017   4.656   0.228   0.262 -0.0997 -0.7595 -3.8063
  399TMC3    H1 6018   4.252   0.334   0.188 -2.0113 -0.7015  0.5749
  399TMC3    H2 6019   4.337   4.689   0.353  1.2725 -1.2256 -1.8042
  399TMC3    C7 6020   4.147   0.090   0.246 -0.5878  0.1865  0.0768
  399TMC3    C8 6021   4.597   4.716   0.329  0.1602  0.2073  1.2382
  399TMC3    O1 6022   4.109   4.727   0.313 -0.5748 -0.2326 -0.1499
  399TMC3    O2 6023   4.705   0.020   0.366 -0.0019 -0.3433 -0.5067
  400TMC3    C1 6024   2.841   3.759  17.006  0.1953 -0.6035  0.5268
  400TMC3    C2 6025   2.747   3.656  17.013  0.1665  0.5745  0.0841
  400TMC3    C3 6026   2.641   3.667  16.930  0.3887 -0.4287 -0.0459
  400TMC3    C4 6027   2.816   3.886  16.946 -0.1588  0.5648  0.2259
  400TMC3    C5 6028   2.695   3.892  16.883 -0.3596  0.8715  0.0363
  400TMC3    C6 6029   2.612   3.782  16.868 -0.6295 -0.0549  0.1331
  400TMC3     C 6030   2.940   3.751  17.113  1.3160 -0.2892 -0.1405
  400TMC3     O 6031   2.930   3.659  17.195  0.4609 -0.4904  0.9004
  400TMC3     H 6032   2.768   3.568  17.073  1.8859  1.1849  0.3905
  400TMC3    H1 6033   2.882   3.971  16.954 -0.2017  1.0005 -3.6870
  400TMC3    H2 6034   2.512   3.798  16.829 -0.7472 -2.3692 -0.5441
  400TMC3    C7 6035   2.660   4.006  16.808 -0.0530 -0.2015  0.1194
  400TMC3    C8 6036   2.525   3.583  16.976  0.6119 -0.4467 -0.0345
  400TMC3    O1 6037   2.578   3.990  16.720 -0.3148  0.8332 -0.0045
  400TMC3    O2 6038   2.539   3.541  17.090 -0.3232  0.0297 -0.4802
  401MPD2     C 6039   1.251   2.916   1.227 -0.4493  0.1876 -0.2132
  401MPD2    C1 6040   1.327   2.806   1.269 -0.3500  0.3189  0.3331
  401MPD2    C2 6041   1.276   2.684   1.277  0.0717 -0.2786  0.1897
  401MPD2    C3 6042   1.140   2.665   1.267  0.0470  0.1492 -0.7223
  401MPD2    C4 6043   1.061   2.776   1.240  0.2325  0.0041  0.0577
  401MPD2    C5 6044   1.123   2.894   1.199 -0.0398 -0.3779 -0.3711
  401MPD2     H 6045   1.330   2.591   1.292  0.0495 -0.5411 -1.4064
  401MPD2    H1 6046   0.959   2.760   1.206 -0.6401  0.9660  2.1965
  401MPD2    H2 6047   1.279   3.017   1.201  1.1994 -0.1394  0.3134
  401MPD2    H3 6048   1.067   2.980   1.165 -0.8034 -1.1400 -1.0834
  401MPD2     N 6049   1.098   2.532   1.276  0.2256 -0.2559 -0.0308
  401MPD2    H5 6050   1.165   2.462   1.306  0.2382 -0.4044 -0.4010
  401MPD2    N1 6051   1.464   2.821   1.285  0.2253 -0.0092  0.5879
  401MPD2    H7 6052   1.509   2.734   1.312  2.1300  0.4813 -1.0642
  402TMC3    C1 6053   0.958   2.342   1.253  0.3626 -0.0700 -0.4772
  402TMC3    C2 6054   1.063   2.263   1.225  1.1805  0.3659  0.1254
  402TMC3    C3 6055   1.033   2.128   1.204  0.0418  0.3700 -0.4584
  402TMC3    C4 6056   0.832   2.294   1.247  0.5140  0.5472  0.4350
  402TMC3    C5 6057   0.801   2.164   1.216  0.4131 -0.6059 -0.2237
  402TMC3    C6 6058   0.904   2.069   1.206 -0.7339  0.1308 -0.3954
  402TMC3     C 6059   0.967   2.492   1.261 -0.0284 -0.0602  0.0238
  402TMC3     O 6060   0.865   2.558   1.263 -0.0817  0.3740  0.0266
  402TMC3     H 6061   1.164   2.303   1.217  0.8320  1.2005 -0.1357
  402TMC3    H1 6062   0.746   2.359   1.241 -0.4381 -0.5365  2.5426
  402TMC3    H2 6063   0.880   1.965   1.183 -0.3066 -0.7079  2.9874
  402TMC3    C7 6064   0.655   2.132   1.201 -0.9130  0.2246 -0.9111
  402TMC3    C8 6065   1.148   2.039   1.213  0.1277  0.4738 -0.5645
  402TMC3    O1 6066   0.570   2.209   1.254  0.0400 -0.1660 -0.3209
  402TMC3    O2 6067   1.259   2.087   1.246  0.2671 -0.0592 -0.3376
  403MPD2     C 6068   3.159   0.589  13.875  0.6529 -0.0692  0.4896
  403MPD2    C1 6069   3.251   0.602  13.768  0.7614  0.6567 -0.1508
  403MPD2    C2 6070   3.382   0.639  13.792  0.1791 -0.5214  0.9820
  403MPD2    C3 6071   3.428   0.658  13.922  0.2983 -0.2041 -0.1537
  403MPD2    C4 6072   3.335   0.655  14.024  0.0736 -0.2911 -0.2243
  403MPD2    C5 6073   3.204   0.624  14.004  0.2601  0.0471 -0.0752
  403MPD2     H 6074   3.461   0.644  13.719  1.3431 -1.7419  2.1628
  403MPD2    H1 6075   3.354   0.671  14.130 -1.0753  0.0766 -0.0655
  403MPD2    H2 6076   3.056   0.557  13.871  1.4693 -2.8990  1.9488
  403MPD2    H3 6077   3.133   0.641  14.084  0.2212 -0.3358 -0.0273
  403MPD2     N 6078   3.566   0.691  13.950 -0.0138  0.0527 -0.1112
  403MPD2    H5 6079   3.630   0.699  13.872 -1.6602  3.1651 -1.1084
  403MPD2    N1 6080   3.205   0.585  13.638  0.0421  0.0752 -0.3938
  403MPD2    H7 6081   3.106   0.564  13.627  0.2959 -1.9284  1.2957
  404TMC3    C1 6082   3.227   0.529  13.422  0.3911  0.0882 -0.6753
  404TMC3    C2 6083   3.207   0.399  13.443  0.0564  0.2444  0.3256
  404TMC3    C3 6084   3.188   0.309  13.339  0.0638  0.4908 -0.2519
  404TMC3    C4 6085   3.233   0.577  13.297  0.7503  0.3079  0.3170
  404TMC3    C5 6086   3.207   0.491  13.194  0.9733 -0.8662 -0.0000
  404TMC3    C6 6087   3.177   0.357  13.210  0.1156 -0.2716 -0.3978
  404TMC3     C 6088   3.275   0.609  13.526 -0.0753  0.3191  0.2489
  404TMC3     O 6089   3.381   0.666  13.507 -0.2005  0.7679 -0.1648
  404TMC3     H 6090   3.236   0.361  13.540 -0.6745  1.2231  0.9204
  404TMC3    H1 6091   3.262   0.681  13.286  1.0680  0.1423 -0.4159
  404TMC3    H2 6092   3.175   0.288  13.126  0.7380  1.3182 -1.7116
  404TMC3    C7 6093   3.203   0.539  13.056  0.0422  0.0531  0.2375
  404TMC3    C8 6094   3.254   0.178  13.358  1.3089 -0.1611  0.0409
  404TMC3    O1 6095   3.242   0.648  13.034 -0.4987  0.1153 -0.0897
  404TMC3    O2 6096   3.301   0.128  13.257 -0.2851 -0.3244 -0.6006
  405MPD2     C 6097   3.661   1.231  15.177 -0.2367  0.8298 -0.4697
  405MPD2    C1 6098   3.649   1.132  15.087  0.2449 -0.1113 -0.3572
  405MPD2    C2 6099   3.534   1.126  15.011  0.6040  0.9162 -0.3327
  405MPD2    C3 6100   3.437   1.224  15.024 -0.0679  0.0281  1.1977
  405MPD2    C4 6101   3.454   1.328  15.110  0.5397  0.7412  0.1573
  405MPD2    C5 6102   3.566   1.330  15.189  0.3402 -0.0239 -0.0682
  405MPD2     H 6103   3.520   1.040  14.946  1.7537 -0.4944  1.2699
  405MPD2    H1 6104   3.376   1.400  15.133 -0.4687  0.0201 -0.9884
  405MPD2    H2 6105   3.740   1.218  15.251 -0.0925 -2.2543 -1.1606
  405MPD2    H3 6106   3.570   1.402  15.271  3.6062  1.1354 -1.2756
  405MPD2     N 6107   3.316   1.205  14.946 -0.5890  0.4265  0.0815
  405MPD2    H5 6108   3.320   1.130  14.878 -2.0337  0.5811 -0.1725
  405MPD2    N1 6109   3.751   1.031  15.087  0.0741 -0.2023  0.3617
  405MPD2    H7 6110   3.812   1.032  15.168  2.2499 -2.1134 -1.2284
  406TMC3    C1 6111   3.037   1.243  14.610  0.0544  0.3833 -0.0929
  406TMC3    C2 6112   3.022   1.110  14.600  0.3498 -0.2920 -0.0163
  406TMC3    C3 6113   3.065   1.039  14.705  0.4648  0.3288  0.5487
  406TMC3    C4 6114   3.089   1.310  14.721 -0.5093 -0.2706  0.8832
  406TMC3    C5 6115   3.128   1.239  14.826  0.3842  0.7528  0.8058
  406TMC3    C6 6116   3.126   1.102  14.816 -0.3420 -0.4826  0.8896
  406TMC3     C 6117   2.954   1.323  14.529  0.5324 -0.0914  0.1249
  406TMC3     O 6118   2.914   1.425  14.574 -0.3208  0.5872 -0.0986
  406TMC3     H 6119   2.964   1.056  14.526  1.0455 -1.0900  0.0184
  406TMC3    H1 6120   3.105   1.417  14.713  0.7890 -0.4678  0.8756
  406TMC3    H2 6121   3.136   1.036  14.901 -1.7998 -0.2028  1.2820
  406TMC3    C7 6122   3.224   1.297  14.913 -0.7526  0.4523  0.8944
  406TMC3    C8 6123   3.119   0.915  14.668 -0.1858 -0.0994  0.1121
  406TMC3    O1 6124   3.218   1.421  14.928  0.7279 -0.8094 -0.4018
  406TMC3    O2 6125   3.069   0.851  14.578  0.3054 -0.0050 -0.8037
  407MPD2     C 6126   1.430   2.653   9.665  0.2326  0.7929 -0.2067
  407MPD2    C1 6127   1.510   2.767   9.677 -0.2258  0.4121  0.2856
  407MPD2    C2 6128   1.484   2.865   9.773  0.0424  0.9536  0.0926
  407MPD2    C3 6129   1.380   2.852   9.861  0.4078 -0.1237  0.0043
  407MPD2    C4 6130   1.298   2.746   9.850  0.2366  0.2527 -0.3822
  407MPD2    C5 6131   1.317   2.649   9.748 -0.4715  0.4333  0.0426
  407MPD2     H 6132   1.540   2.957   9.771  1.4367  0.1066  0.4972
  407MPD2    H1 6133   1.208   2.734   9.909 -0.2760  1.1240 -0.9819
  407MPD2    H2 6134   1.451   2.581   9.586 -0.4511  0.2080  0.1464
  407MPD2    H3 6135   1.245   2.569   9.735  0.1022 -0.3099  1.4248
  407MPD2     N 6136   1.361   2.948   9.953 -0.8197 -0.0043 -0.0535
  407MPD2    H5 6137   1.424   3.027   9.940 -0.8542  0.2253  1.1917
  407MPD2    N1 6138   1.631   2.795   9.596 -0.1612  0.4831 -0.2776
  407MPD2    H7 6139   1.678   2.883   9.616  0.8296 -0.0981 -0.0663
  408TMC3    C1 6140   1.825   2.731   9.471  0.3921  0.2825 -0.3220
  408TMC3    C2 6141   1.888   2.612   9.442 -0.5497  0.9232  0.8034
  408TMC3    C3 6142   2.023   2.604   9.470 -0.1782  0.3143  0.7895
  408TMC3    C4 6143   1.899   2.844   9.504  0.6943 -0.4059 -0.1178
  408TMC3    C5 6144   2.036   2.828   9.533 -0.2838  1.0755 -0.3926
  408TMC3    C6 6145   2.100   2.706   9.520 -0.3759 -0.2116 -0.2897
  408TMC3     C 6146   1.688   2.708   9.504 -0.1647  0.0843 -0.5863
  408TMC3     O 6147   1.623   2.622   9.443 -0.0516 -0.3165  0.3463
  408TMC3     H 6148   1.836   2.521   9.413  0.5390  0.1837  1.1942
  408TMC3    H1 6149   1.847   2.938   9.519  3.1685  0.9550 -0.0711
  408TMC3    H2 6150   2.204   2.697   9.548 -0.1936 -0.2062 -0.9717
  408TMC3    C7 6151   2.114   2.934   9.591  0.3151  0.2000  0.0072
  408TMC3    C8 6152   2.077   2.470   9.470 -0.2130 -0.4945  0.5952
  408TMC3    O1 6153   2.224   2.905   9.631  0.1977  0.0401  0.0214
  408TMC3    O2 6154   2.002   2.377   9.442  0.6824  0.1393 -0.1711
  409MPD2     C 6155   1.756   3.216  17.161  0.3018 -0.5139 -0.0943
  409MPD2    C1 6156   1.843   3.281  17.249  0.3075  0.0430 -0.3997
  409MPD2    C2 6157   1.894   3.408  17.213  0.6438 -0.2658  0.4359
  409MPD2    C3 6158   1.867   3.471  17.095 -0.0554  0.3160 -0.2867
  409MPD2    C4 6159   1.779   3.412  17.014 -0.2385 -0.5475 -0.3336
  409MPD2    C5 6160   1.728   3.287  17.051 -0.0060 -0.4726  0.1913
  409MPD2     H 6161   1.958   3.460  17.284  0.9623  0.9688 -0.7539
  409MPD2    H1 6162   1.742   3.467  16.928  1.9734  2.1870  0.4673
  409MPD2    H2 6163   1.722   3.114  17.178 -0.5826 -0.3664 -0.9475
  409MPD2    H3 6164   1.653   3.239  16.989 -0.7607  2.2989 -1.0227
  409MPD2     N 6165   1.937   3.589  17.058 -0.4939  0.2554  0.0492
  409MPD2    H5 6166   1.937   3.602  16.958  0.5862  0.8268  0.1258
  409MPD2    N1 6167   1.884   3.237  17.369  0.4535  0.4684 -0.1671
  409MPD2    H7 6168   1.951   3.293  17.422 -0.6326 -0.5353  2.2433
  410TMC3    C1 6169   2.121   3.736  17.049  0.0420  0.0372 -0.1161
  410TMC3    C2 6170   2.219   3.804  17.122  0.6492 -0.3607  0.4916
  410TMC3    C3 6171   2.289   3.899  17.050 -0.5096 -0.6095  0.3262
  410TMC3    C4 6172   2.077   3.780  16.925 -0.4118 -0.7415  0.7527
  410TMC3    C5 6173   2.144   3.886  16.864 -0.2014  0.3746 -0.1575
  410TMC3    C6 6174   2.251   3.945  16.933  0.3643 -0.2432  0.3692
  410TMC3     C 6175   2.034   3.656  17.133 -0.2899 -0.0715  0.1876
  410TMC3     O 6176   2.061   3.648  17.253  0.4255  0.1792 -0.4532
  410TMC3     H 6177   2.243   3.778  17.224  1.3277  0.4313  0.5311
  410TMC3    H1 6178   1.999   3.729  16.871 -0.3001 -3.5404  3.2247
  410TMC3    H2 6179   2.310   4.029  16.897 -0.7109  0.5912  0.5600
  410TMC3    C7 6180   2.098   3.932  16.736 -0.5032 -0.6028 -0.3624
  410TMC3    C8 6181   2.419   3.944  17.114  0.1391 -0.5567 -0.4030
  410TMC3    O1 6182   2.041   3.852  16.664 -0.0226 -0.5790  0.1591
  410TMC3    O2 6183   2.470   4.048  17.072 -0.1975 -0.0686  0.3425
  411MPD2     C 6184   1.294   3.696  14.806  0.6763  0.5944 -0.1249
  411MPD2    C1 6185   1.208   3.766  14.727  0.0107 -0.6278 -0.5854
  411MPD2    C2 6186   1.069   3.739  14.718  0.4030  0.1187 -0.8439
  411MPD2    C3 6187   1.016   3.644  14.810  0.0597 -0.1060  0.1696
  411MPD2    C4 6188   1.107   3.572  14.889  0.3902  0.0759  0.1198
  411MPD2    C5 6189   1.239   3.595  14.881  0.2781 -0.4049  0.1426
  411MPD2     H 6190   1.008   3.802  14.655 -0.5616  0.2166  0.1761
  411MPD2    H1 6191   1.080   3.478  14.936 -0.9764  0.0136 -0.7690
  411MPD2    H2 6192   1.398   3.724  14.802  0.6305  0.9519  1.1658
  411MPD2    H3 6193   1.306   3.528  14.934 -0.0346  0.2650  1.3932
  411MPD2     N 6194   0.882   3.596  14.814  0.3815  0.0833 -0.2621
  411MPD2    H5 6195   0.863   3.509  14.863 -0.7306 -0.4958 -1.7229
  411MPD2    N1 6196   1.272   3.867  14.654  0.6286 -0.1133 -0.1186
  411MPD2    H7 6197   1.370   3.882  14.678 -0.1442  2.0354  1.7586
  412TMC3    C1 6198   0.668   3.552  14.735  0.2970  0.0110 -0.1341
  412TMC3    C2 6199   0.547   3.599  14.689  0.0461 -0.2866 -0.9580
  412TMC3    C3 6200   0.462   3.523  14.613 -0.7180  0.5602 -0.4919
  412TMC3    C4 6201   0.715   3.432  14.691  0.4810 -0.5035  0.0240
  412TMC3    C5 6202   0.649   3.376  14.580 -0.4475  0.8946 -0.1147
  412TMC3    C6 6203   0.513   3.404  14.560 -0.1361 -0.2264 -0.4908
  412TMC3     C 6204   0.772   3.650  14.754 -0.1353 -0.4884  0.0752
  412TMC3     O 6205   0.760   3.756  14.699  0.0397 -0.4966  0.1700
  412TMC3     H 6206   0.513   3.689  14.739  0.0979 -0.6239 -0.3215
  412TMC3    H1 6207   0.818   3.401  14.704  1.3332  1.5792 -1.7357
  412TMC3    H2 6208   0.455   3.372  14.474 -1.2402 -2.1881  0.9933
  412TMC3    C7 6209   0.715   3.414  14.454 -0.1507  0.0465 -0.2042
  412TMC3    C8 6210   0.378   3.598  14.520  0.3502 -0.0473  0.2885
  412TMC3    O1 6211   0.643   3.395  14.360 -0.0544 -0.3845 -0.4509
  412TMC3    O2 6212   0.404   3.719  14.505 -0.4177 -0.1246  0.0861
  413MPD2     C 6213   3.176   2.300  15.754  0.5653  0.0387  0.4663
  413MPD2    C1 6214   3.122   2.212  15.659  0.4137 -0.6885  0.1642
  413MPD2    C2 6215   3.206   2.171  15.558 -0.0989  0.5678 -0.2024
  413MPD2    C3 6216   3.343   2.201  15.565  0.9100 -0.3112  0.2419
  413MPD2    C4 6217   3.386   2.287  15.659  0.2165  0.7834  0.4078
  413MPD2    C5 6218   3.306   2.346  15.746 -0.8883 -0.4496 -0.2070
  413MPD2     H 6219   3.162   2.117  15.475 -0.9732  3.4493 -1.6020
  413MPD2    H1 6220   3.488   2.324  15.660  0.1883  0.8367  1.2249
  413MPD2    H2 6221   3.124   2.336  15.842  0.9001  1.8999 -0.0965
  413MPD2    H3 6222   3.339   2.408  15.827  0.5168 -1.8327  0.2777
  413MPD2     N 6223   3.424   2.135  15.468  0.4074  0.1001  0.1640
  413MPD2    H5 6224   3.386   2.066  15.404  2.7556 -1.5490  0.5394
  413MPD2    N1 6225   2.993   2.156  15.661 -0.0760  0.1469  0.5850
  413MPD2    H7 6226   2.971   2.099  15.579 -0.6458 -0.7238  1.3428
  414TMC3    C1 6227   3.603   2.024  15.385  0.1478  0.4522 -0.2747
  414TMC3    C2 6228   3.641   1.924  15.468  0.5023 -0.0315 -0.0099
  414TMC3    C3 6229   3.625   1.800  15.421 -0.5541  0.1153 -0.1794
  414TMC3    C4 6230   3.533   1.998  15.273 -0.6019 -0.0337  0.0839
  414TMC3    C5 6231   3.521   1.868  15.232  0.4018 -0.4125  0.7723
  414TMC3    C6 6232   3.560   1.763  15.309  0.0466  0.1045  0.2386
  414TMC3     C 6233   3.561   2.133  15.468 -0.7204  0.1810 -0.6011
  414TMC3     O 6234   3.643   2.190  15.535  0.0430  0.4895 -0.0913
  414TMC3     H 6235   3.666   1.944  15.571 -0.9136  3.8239 -0.4137
  414TMC3    H1 6236   3.484   2.079  15.220  0.7478  0.5652 -0.2450
  414TMC3    H2 6237   3.545   1.659  15.283 -1.0662  0.5989 -1.0994
  414TMC3    C7 6238   3.411   1.843  15.139 -0.2902 -0.0850  0.1224
  414TMC3    C8 6239   3.701   1.693  15.487 -0.8310  0.0953  0.4296
  414TMC3    O1 6240   3.319   1.923  15.151  0.2865 -0.4490 -0.8081
  414TMC3    O2 6241   3.690   1.582  15.432 -0.1208  0.0717 -0.5029
  415TMC3    C1 6242   3.801   0.871  10.692  0.7422 -0.4593 -0.5705
  415TMC3    C2 6243   3.821   0.945  10.577  0.4368  0.8961  0.0905
  415TMC3    C3 6244   3.707   0.979  10.508  0.4749  0.5977 -0.2425
  415TMC3    C4 6245   3.680   0.837  10.746  0.0870 -0.2844 -0.6349
  415TMC3    C5 6246   3.566   0.867  10.667  0.7580  0.4255 -0.2518
  415TMC3    C6 6247   3.584   0.930  10.542 -0.0517 -0.5222 -0.2473
  415TMC3     C 6248   3.902   0.780  10.740 -0.0122 -1.0982 -0.1125
  415TMC3     O 6249   3.895   0.741  10.854  0.0594  0.2700  0.2112
  415TMC3     H 6250   3.923   0.963  10.544  0.7816 -3.3812 -1.1492
  415TMC3    H1 6251   3.671   0.803  10.849 -0.9950 -1.0540 -0.9830
  415TMC3    H2 6252   3.499   0.935  10.474 -0.9702 -2.7759  0.7771
  415TMC3    C7 6253   3.432   0.837  10.691 -0.3365 -0.5712 -0.0210
  415TMC3    C8 6254   3.706   1.070  10.391 -0.5175  0.5133  0.3395
  415TMC3    O1 6255   3.347   0.910  10.640  0.1272 -0.3196  0.3362
  415TMC3    O2 6256   3.594   1.095  10.352  0.1644  0.4588  0.5847
  416MPD2     C 6257   1.051   3.950  11.151  0.2346  0.2296 -0.1446
  416MPD2    C1 6258   0.999   3.880  11.256 -0.0792  0.3885 -0.0358
  416MPD2    C2 6259   0.963   3.749  11.239  0.1237 -1.0601 -0.1567
  416MPD2    C3 6260   0.945   3.692  11.114  0.6662  1.0624 -0.2917
  416MPD2    C4 6261   0.988   3.769  11.007 -0.3462 -0.0704  0.2920
  416MPD2    C5 6262   1.051   3.888  11.025  0.4661  1.0713 -0.1489
  416MPD2     H 6263   0.933   3.694  11.327  1.5537 -1.8131 -0.1348
  416MPD2    H1 6264   1.004   3.728  10.908  0.0022  0.6203  0.0575
  416MPD2    H2 6265   1.054   4.057  11.168 -0.4131  0.3183 -0.6038
  416MPD2    H3 6266   1.098   3.933  10.938  2.0417 -1.5758 -0.6581
  416MPD2     N 6267   0.869   3.581  11.101  0.9157 -0.8428 -0.5360
  416MPD2    H5 6268   0.855   3.520  11.180  0.8505 -1.2015 -0.8233
  416MPD2    N1 6269   0.992   3.951  11.379  0.0809  0.1938  0.0216
  416MPD2    H7 6270   0.997   4.052  11.368  4.2321  0.1249  1.3285
  417TMC3    C1 6271   0.887   3.983  11.592  0.0202 -0.0803  0.1897
  417TMC3    C2 6272   0.893   3.948  11.723 -0.4840  0.3645  0.0576
  417TMC3    C3 6273   0.795   3.992  11.815  0.0263  0.5296 -0.7193
  417TMC3    C4 6274   0.776   4.057  11.547  0.5753  0.3703 -0.3218
  417TMC3    C5 6275   0.672   4.095  11.635 -0.0314 -0.7043 -0.4128
  417TMC3    C6 6276   0.686   4.068  11.774  0.0823 -0.5491  0.1810
  417TMC3     C 6277   0.950   3.891  11.497  0.3662 -0.2267  0.1606
  417TMC3     O 6278   0.968   3.774  11.526  0.8481 -0.5539 -0.1670
  417TMC3     H 6279   0.960   3.868  11.753  0.6849  1.7839  1.2421
  417TMC3    H1 6280   0.769   4.070  11.440 -1.5963  2.0945  0.0180
  417TMC3    H2 6281   0.623   4.125  11.841 -0.4898  1.0211 -1.6810
  417TMC3    C7 6282   0.547   4.149  11.589 -0.7832  0.0567  0.0874
  417TMC3    C8 6283   0.793   3.953  11.948 -0.7208 -0.3073 -0.1526
  417TMC3    O1 6284   0.539   4.221  11.493  0.0836  0.1337  0.6474
  417TMC3    O2 6285   0.685   3.969  11.997  0.1274 -0.0339 -0.8007
  418TMC3    C1 6286   0.500   0.518   0.722 -0.4872  0.2639  0.9539
  418TMC3    C2 6287   0.438   0.604   0.638  0.3927  0.4419 -0.3288
  418TMC3    C3 6288   0.378   0.711   0.680  0.1199 -0.0239  0.7924
  418TMC3    C4 6289   0.495   0.543   0.856 -0.4697  0.0772  0.0910
  418TMC3    C5 6290   0.434   0.658   0.899  0.5210  0.0855  0.1134
  418TMC3    C6 6291   0.370   0.742   0.811  0.7807 -0.1140  0.9933
  418TMC3     C 6292   0.587   0.414   0.666  0.2446 -0.7102  0.5131
  418TMC3     O 6293   0.568   0.391   0.547  0.3261  0.2588  0.8444
  418TMC3     H 6294   0.453   0.595   0.531  1.1085 -0.8044 -0.1293
  418TMC3    H1 6295   0.547   0.479   0.927 -1.3304  0.7883  1.3533
  418TMC3    H2 6296   0.305   0.820   0.849 -0.5381 -0.0468 -1.4183
  418TMC3    C7 6297   0.417   0.678   1.046 -0.2768  0.1520 -0.2882
  418TMC3    C8 6298   0.272   0.770   0.599 -0.4242 -0.8374  0.2888
  418TMC3    O1 6299   0.424   0.576   1.113 -0.0770 -0.4328  0.3693
  418TMC3    O2 6300   0.282   0.887   0.563  0.0999  0.0732  0.3933
  419MPD2     C 6301   2.962   3.518  12.585  0.3542 -0.6560  0.3585
  419MPD2    C1 6302   2.843   3.555  12.528  0.0218 -0.9039  0.2380
  419MPD2    C2 6303   2.735   3.587  12.612  0.1818  0.0779 -0.1962
  419MPD2    C3 6304   2.741   3.570  12.746  0.5180  0.6814  0.4270
  419MPD2    C4 6305   2.858   3.543  12.806  0.2759 -0.1385 -0.3723
  419MPD2    C5 6306   2.969   3.516  12.722  0.4606  0.3889 -0.0310
  419MPD2     H 6307   2.642   3.628  12.575 -0.2782 -0.4595  0.3732
  419MPD2    H1 6308   2.880   3.545  12.912  0.1885  1.6518 -0.3924
  419MPD2    H2 6309   3.058   3.506  12.535 -0.7091 -0.5198 -1.7135
  419MPD2    H3 6310   3.067   3.493  12.762 -0.0314  0.1552  1.0389
  419MPD2     N 6311   2.633   3.607  12.826 -0.1366 -0.0144 -0.4612
  419MPD2    H5 6312   2.553   3.654  12.785  0.0443 -1.1283 -2.0795
  419MPD2    N1 6313   2.835   3.596  12.393 -0.3276 -0.0896  0.1301
  419MPD2    H7 6314   2.744   3.635  12.371 -0.1455 -0.2518 -0.8962
  420TMC3    C1 6315   2.503   3.620  13.034  0.0503  0.2507  0.4711
  420TMC3    C2 6316   2.405   3.696  12.975 -0.3766 -0.6817  0.3001
  420TMC3    C3 6317   2.307   3.741  13.060  0.3013 -0.2520  0.3808
  420TMC3    C4 6318   2.504   3.589  13.170  0.0766  0.5746  0.4915
  420TMC3    C5 6319   2.402   3.636  13.248 -0.3518  0.6328  0.1008
  420TMC3    C6 6320   2.304   3.716  13.197  0.4397  0.1500  0.1990
  420TMC3     C 6321   2.619   3.566  12.958  0.4044 -0.1281  0.0428
  420TMC3     O 6322   2.678   3.473  13.015  0.2629  0.0255  0.3533
  420TMC3     H 6323   2.414   3.735  12.874 -1.4550 -0.8753  0.1231
  420TMC3    H1 6324   2.560   3.502  13.203 -0.5625  0.0169  0.1072
  420TMC3    H2 6325   2.230   3.767  13.258  0.5136  1.1110 -0.5226
  420TMC3    C7 6326   2.439   3.654  13.381  0.0177 -0.9852  0.3408
  420TMC3    C8 6327   2.196   3.802  13.007  0.2070 -0.2620  0.4155
  420TMC3    O1 6328   2.356   3.675  13.471 -0.3475 -0.3066 -0.5317
  420TMC3    O2 6329   2.213   3.899  12.936  0.2525  0.3082  0.6759
  421TMC3    C1 6330   3.756   0.786  14.034  0.2776  0.7536  0.1777
  421TMC3    C2 6331   3.814   0.880  14.109 -0.5104 -0.5518 -0.2765
  421TMC3    C3 6332   3.942   0.925  14.082  0.7588  0.3512 -0.5079
  421TMC3    C4 6333   3.837   0.710  13.947  0.3122 -0.2535  0.3656
  421TMC3    C5 6334   3.976   0.743  13.944 -0.2372  0.6062 -0.1862
  421TMC3    C6 6335   4.026   0.855  13.999 -0.4603 -0.7203 -0.1957
  421TMC3     C 6336   3.615   0.741  14.066 -0.3104 -0.0443 -0.4825
  421TMC3     O 6337   3.560   0.767  14.170 -0.5950  0.0624 -0.2934
  421TMC3     H 6338   3.748   0.932  14.179  0.7834 -1.5269  1.6704
  421TMC3    H1 6339   3.805   0.617  13.900  0.8186 -0.1851 -0.1160
  421TMC3    H2 6340   4.133   0.873  13.991 -0.9188  1.6923 -0.9255
  421TMC3    C7 6341   4.084   0.649  13.905  0.3133 -0.8060 -0.2338
  421TMC3    C8 6342   3.980   1.034  14.171 -0.1369 -0.9201  0.5114
  421TMC3    O1 6343   4.186   0.658  13.974 -0.6537 -0.2394  0.0860
  421TMC3    O2 6344   3.950   1.028  14.290 -0.0013 -0.5197  0.3494
  422TMC3    C1 6345   1.584   2.333  13.311  0.5276 -0.0954  0.2728
  422TMC3    C2 6346   1.534   2.348  13.442  0.2309  0.3135 -0.3427
  422TMC3    C3 6347   1.399   2.337  13.461  0.4392  0.7737  0.4944
  422TMC3    C4 6348   1.501   2.298  13.210 -0.5145  0.3205 -0.0625
  422TMC3    C5 6349   1.370   2.280  13.231 -0.3901  0.0309 -0.3866
  422TMC3    C6 6350   1.313   2.307  13.354 -0.5194  0.0145  0.0123
  422TMC3     C 6351   1.725   2.342  13.278 -0.1369  0.5492  0.1819
  422TMC3     O 6352   1.758   2.335  13.159 -0.3004  0.0395 -0.3135
  422TMC3     H 6353   1.594   2.375  13.527 -1.5878  0.9729  0.7320
  422TMC3    H1 6354   1.545   2.278  13.113 -1.8980  0.9401 -0.7990
  422TMC3    H2 6355   1.206   2.323  13.364 -0.6446 -0.1974 -0.9862
  422TMC3    C7 6356   1.290   2.263  13.117  0.0709 -0.1433 -0.0385
  422TMC3    C8 6357   1.347   2.375  13.589  0.3186  0.0351 -0.3082
  422TMC3    O1 6358   1.341   2.262  13.006 -0.2430  0.6020  0.4811
  422TMC3    O2 6359   1.420   2.437  13.670 -0.0487 -0.5470 -0.1051
  423MPD2     C 6360   2.817   2.922   0.872 -0.8319 -0.1679  0.2047
  423MPD2    C1 6361   2.918   2.853   0.921  0.0088 -0.4797 -0.0563
  423MPD2    C2 6362   2.975   2.758   0.839  0.0879 -0.4986  0.0413
  423MPD2    C3 6363   2.932   2.743   0.706  0.1979 -0.7132  0.9877
  423MPD2    C4 6364   2.826   2.813   0.660 -0.4529  0.6083  0.0062
  423MPD2    C5 6365   2.760   2.903   0.748  0.1525 -0.2850 -0.3682
  423MPD2     H 6366   3.073   2.716   0.858  0.1023  0.1539  1.3721
  423MPD2    H1 6367   2.791   2.802   0.558 -1.0676  0.0734  0.2767
  423MPD2    H2 6368   2.778   3.007   0.927 -0.0253  0.7410 -0.6375
  423MPD2    H3 6369   2.677   2.961   0.709  0.9108  0.0454 -1.4914
  423MPD2     N 6370   3.001   2.664   0.604 -0.2447 -0.3402  0.4853
  423MPD2    H5 6371   2.976   2.676   0.507 -0.9772 -0.4232  0.6621
  423MPD2    N1 6372   2.979   2.874   1.047  0.4927  0.1525  0.0268
  423MPD2    H7 6373   3.064   2.822   1.068 -2.3725 -4.0414  1.4784
  424TMC3    C1 6374   2.989   2.944   1.275  0.3747  0.1727  0.2008
  424TMC3    C2 6375   3.124   2.935   1.269  0.3870  0.2793 -0.1522
  424TMC3    C3 6376   3.187   2.999   1.368 -0.2049  0.0375 -0.1229
  424TMC3    C4 6377   2.918   2.997   1.375 -0.7302  0.5521  0.9454
  424TMC3    C5 6378   2.988   3.042   1.483 -0.8631 -0.1843  0.2003
  424TMC3    C6 6379   3.127   3.042   1.480 -1.0327 -0.1891  0.7720
  424TMC3     C 6380   2.911   2.925   1.156 -0.2023 -0.0008  0.0518
  424TMC3     O 6381   2.806   2.985   1.160  0.4725 -0.2455  0.5476
  424TMC3     H 6382   3.179   2.906   1.180 -0.6386  1.1706 -1.0660
  424TMC3    H1 6383   2.813   2.974   1.391 -0.6520  1.2284  2.4525
  424TMC3    H2 6384   3.178   3.098   1.557  1.1202  1.4027 -1.8255
  424TMC3    C7 6385   2.924   3.136   1.578  0.0173  0.6151  0.7420
  424TMC3    C8 6386   3.331   2.983   1.356 -0.0712 -0.1581  0.5946
  424TMC3    O1 6387   2.994   3.205   1.651 -0.1723  0.2586 -0.3293
  424TMC3    O2 6388   3.371   2.890   1.288 -0.0574  0.3513  0.7377
  425MPD2     C 6389   2.729   2.101  17.424  0.5382 -0.2744  0.4919
  425MPD2    C1 6390   2.641   2.019  17.357 -0.5390  0.2537 -0.4687
  425MPD2    C2 6391   2.510   2.062  17.336 -0.2814  0.0941  0.4749
  425MPD2    C3 6392   2.468   2.189  17.377 -0.6273 -0.3135 -0.2619
  425MPD2    C4 6393   2.555   2.256  17.458 -0.2718 -0.0969  0.3366
  425MPD2    C5 6394   2.685   2.218  17.478  1.1508  0.1076  0.3604
  425MPD2     H 6395   2.439   2.005  17.278  1.4094 -0.3679 -1.1253
  425MPD2    H1 6396   2.526   2.351  17.502  0.4750  1.1222 -1.8012
  425MPD2    H2 6397   2.832   2.071  17.432 -0.3877 -3.2510  1.3550
  425MPD2    H3 6398   2.745   2.279  17.543  2.1155  0.9415 -1.3236
  425MPD2     N 6399   2.333   2.230  17.356 -0.1850 -0.1408  0.8727
  425MPD2    H5 6400   2.264   2.170  17.312 -0.5717  0.7102  0.3070
  425MPD2    N1 6401   2.693   1.898  17.304  0.5454 -0.1379 -0.1552
  425MPD2    H7 6402   2.779   1.866  17.348 -0.2665 -1.0258  0.7791
  426TMC3    C1 6403   2.714   1.707  17.172 -0.7816  0.2988  0.3133
  426TMC3    C2 6404   2.688   1.652  17.049 -0.0074  0.0821  0.7848
  426TMC3    C3 6405   2.723   1.519  17.034 -0.3920  0.3608  0.6741
  426TMC3    C4 6406   2.773   1.636  17.273  0.2135 -0.4025  0.7383
  426TMC3    C5 6407   2.806   1.502  17.246  0.2550 -0.6280 -0.5199
  426TMC3    C6 6408   2.787   1.442  17.128 -0.8194 -0.6551  0.0714
  426TMC3     C 6409   2.640   1.827  17.197 -0.3350  0.4331  0.0837
  426TMC3     O 6410   2.534   1.852  17.137  0.9225  0.1587 -0.4604
  426TMC3     H 6411   2.627   1.707  16.979  2.3349  2.0079  0.2710
  426TMC3    H1 6412   2.781   1.681  17.371 -0.6489  0.0831  0.5905
  426TMC3    H2 6413   2.819   1.342  17.103 -0.9011 -0.4033 -1.0564
  426TMC3    C7 6414   2.901   1.432  17.329 -0.0866  0.0405  0.5861
  426TMC3    C8 6415   2.655   1.446  16.928  0.4063 -0.9486  0.3845
  426TMC3    O1 6416   2.973   1.347  17.274  0.5466 -0.3384  0.1577
  426TMC3    O2 6417   2.710   1.343  16.894 -0.4201 -0.0132 -0.7988
  427MPD2     C 6418   0.145   3.508  14.779  0.4059  0.4562 -0.3192
  427MPD2    C1 6419   0.220   3.590  14.864  0.2693 -0.2209  0.4482
  427MPD2    C2 6420   0.201   3.727  14.865 -0.5748 -0.0187  0.1904
  427MPD2    C3 6421   0.098   3.776  14.785  0.2156 -0.5583  0.5680
  427MPD2    C4 6422   0.017   3.693  14.707 -0.1708 -1.2023 -0.2196
  427MPD2    C5 6423   0.038   3.558  14.707  0.4297  0.2292  0.0747
  427MPD2     H 6424   0.264   3.788  14.930 -1.2217 -0.7939  1.5565
  427MPD2    H1 6425   4.684   3.738  14.635 -0.4755 -2.2938 -0.6146
  427MPD2    H2 6426   0.148   3.400  14.769  3.2303  0.6223 -1.1670
  427MPD2    H3 6427   4.709   3.498  14.643 -1.6843  2.0589  0.4834
  427MPD2     N 6428   0.049   3.908  14.793  0.5545  0.4171  0.1613
  427MPD2    H5 6429   4.693   3.933  14.754  0.0291 -2.2995 -0.3612
  427MPD2    N1 6430   0.328   3.544  14.940 -0.4897 -0.1759 -0.2472
  427MPD2    H7 6431   0.380   3.616  14.989 -1.1666 -0.4879  0.9174
  428TMC3    C1 6432   0.462   3.396  15.057 -0.2776 -0.4707 -0.1213
  428TMC3    C2 6433   0.459   3.276  15.131 -0.1011 -0.3394  0.1496
  428TMC3    C3 6434   0.555   3.263  15.228  0.4470 -0.6154 -0.2733
  428TMC3    C4 6435   0.544   3.503  15.087 -0.6847  0.7578  0.1625
  428TMC3    C5 6436   0.630   3.487  15.188  0.3955  0.0455  0.0487
  428TMC3    C6 6437   0.644   3.365  15.253  0.3908  0.5102 -0.2569
  428TMC3     C 6438   0.357   3.412  14.965  0.5665 -0.2975  0.6172
  428TMC3     O 6439   0.302   3.312  14.925  0.5238 -0.2591 -0.0396
  428TMC3     H 6440   0.382   3.202  15.114 -0.2586  0.3377 -2.0085
  428TMC3    H1 6441   0.533   3.597  15.035 -2.2240 -0.3878 -1.5687
  428TMC3    H2 6442   0.713   3.344  15.334  1.5311  0.4745 -1.2419
  428TMC3    C7 6443   0.749   3.579  15.205 -0.2944  0.2933 -0.7032
  428TMC3    C8 6444   0.571   3.143  15.301  0.5326  0.4904 -0.3821
  428TMC3    O1 6445   0.811   3.544  15.305 -0.2710  0.3523 -0.1023
  428TMC3    O2 6446   0.682   3.106  15.337 -0.4710 -0.2113 -0.0409
  429MPD2     C 6447   2.454   4.574   0.097 -0.1868 -0.3421 -0.0690
  429MPD2    C1 6448   2.519   4.493   0.012 -0.2532  0.3817 -0.6273
  429MPD2    C2 6449   2.574   4.549  17.640  0.1969 -0.4070  0.4283
  429MPD2    C3 6450   2.563   4.684  17.616  0.4343 -0.7082 -0.0642
  429MPD2    C4 6451   2.506   0.037  17.701 -0.1134  0.1349  0.4884
  429MPD2    C5 6452   2.449   4.710   0.077  0.2211 -0.0796  0.7331
  429MPD2     H 6453   2.633   4.489  17.571 -2.0116 -1.0906 -0.8432
  429MPD2    H1 6454   2.490   0.142  17.679 -0.5975 -0.3639 -1.5186
  429MPD2    H2 6455   2.398   4.544   0.184  2.1837  0.2965  1.6667
  429MPD2    H3 6456   2.402   0.028   0.159 -3.2280 -3.3349  0.8025
  429MPD2     N 6457   2.596   4.721  17.485 -0.1596  0.3459 -0.1097
  429MPD2    H5 6458   2.614   4.647  17.419  0.7640  0.6760 -0.2366
  429MPD2    N1 6459   2.535   4.354   0.035 -0.4369  0.0480  0.1492
  429MPD2    H7 6460   2.589   4.296  17.707 -1.4161 -2.2872  1.4582
  430TMC3    C1 6461   2.659   0.118  17.298 -0.3662  0.1329  0.8063
  430TMC3    C2 6462   2.606   0.221  17.226 -0.0930 -0.3982 -0.8167
  430TMC3    C3 6463   2.613   0.216  17.091 -0.0506  0.4069 -0.4514
  430TMC3    C4 6464   2.726   0.011  17.249 -0.2703 -0.0561  0.7704
  430TMC3    C5 6465   2.749   0.011  17.110  0.4348  0.5847  0.7156
  430TMC3    C6 6466   2.693   0.117  17.035 -0.3046 -0.0078  0.6037
  430TMC3     C 6467   2.614   0.115  17.437  0.2843 -0.1792 -0.1532
  430TMC3     O 6468   2.597   0.224  17.488 -0.3312  0.2893  0.5181
  430TMC3     H 6469   2.543   0.299  17.267 -0.0297 -0.6590 -0.2346
  430TMC3    H1 6470   2.767   4.662  17.305 -2.6830 -2.0167 -0.3639
  430TMC3    H2 6471   2.715   0.128  16.930  0.0028  2.2513  0.9127
  430TMC3    C7 6472   2.755   4.612  17.049 -0.9372 -0.0327  0.6700
  430TMC3    C8 6473   2.503   0.258  17.004  1.0695 -0.8048  0.1842
  430TMC3    O1 6474   2.797   4.518  17.116  0.3488  0.4156 -0.2693
  430TMC3    O2 6475   2.483   0.191  16.902 -0.2375  0.1171 -0.8999
  431MPD2     C 6476   2.515   4.279  12.515 -0.3824  0.6475  0.8515
  431MPD2    C1 6477   2.590   4.312  12.407  0.2534 -0.2450  0.4585
  431MPD2    C2 6478   2.636   4.220  12.320  0.1786  0.2934  0.3503
  431MPD2    C3 6479   2.615   4.088  12.345  0.4358 -0.6422 -0.0108
  431MPD2    C4 6480   2.523   4.051  12.443  0.7776  0.7052 -0.2455
  431MPD2    C5 6481   2.477   4.149  12.527 -0.2474  0.4498  0.5676
  431MPD2     H 6482   2.691   4.260  12.235  0.9445  0.6612  1.0184
  431MPD2    H1 6483   2.495   3.947  12.460  1.3850  0.4100 -1.0453
  431MPD2    H2 6484   2.478   4.343  12.595 -2.7357  0.6866 -0.2723
  431MPD2    H3 6485   2.416   4.128  12.614  0.7385  0.8265  1.3556
  431MPD2     N 6486   2.655   3.987  12.256 -0.2212 -0.6133  0.7567
  431MPD2    H5 6487   2.632   3.892  12.285 -1.7502  0.0218  1.6296
  431MPD2    N1 6488   2.643   4.444  12.387  0.4948  0.1075  0.3876
  431MPD2    H7 6489   2.682   4.462  12.295  1.7973 -1.5032  0.6187
  432TMC3    C1 6490   2.788   3.869  12.109 -0.6305  0.3570 -0.5072
  432TMC3    C2 6491   2.848   3.855  11.981 -0.8491 -0.3883  0.1368
  432TMC3    C3 6492   2.906   3.732  11.959  0.7782 -0.1123 -0.5122
  432TMC3    C4 6493   2.804   3.779  12.213  0.8437  0.0340 -0.1089
  432TMC3    C5 6494   2.882   3.670  12.182  0.0620  0.9032 -0.6151
  432TMC3    C6 6495   2.926   3.637  12.055  0.0737  1.0439 -0.0524
  432TMC3     C 6496   2.744   3.996  12.151 -0.3378  1.3102  0.4054
  432TMC3     O 6497   2.798   4.093  12.098 -0.2010 -0.3006 -0.3653
  432TMC3     H 6498   2.833   3.932  11.906  0.1186 -0.3453 -0.0115
  432TMC3    H1 6499   2.817   3.818  12.314  0.5149 -0.2729  0.0503
  432TMC3    H2 6500   3.008   3.567  12.052 -1.1409 -0.3385 -1.7240
  432TMC3    C7 6501   2.929   3.592  12.292 -0.3513 -0.2020  0.9728
  432TMC3    C8 6502   2.999   3.736  11.851 -0.0631 -0.1497 -0.4842
  432TMC3    O1 6503   3.034   3.529  12.282 -0.2483 -0.2011 -0.1611
  432TMC3    O2 6504   3.029   3.632  11.795  0.0907 -0.4271 -0.5255
  433MPD2     C 6505   1.279   2.784  10.690  0.1776  0.4536  0.4743
  433MPD2    C1 6506   1.355   2.704  10.766 -0.5153 -0.0864  0.0625
  433MPD2    C2 6507   1.412   2.751  10.879 -0.1695  0.0883 -0.1410
  433MPD2    C3 6508   1.413   2.888  10.901  0.2789 -0.4243 -0.7252
  433MPD2    C4 6509   1.341   2.976  10.830 -0.8825  0.7265 -0.9666
  433MPD2    C5 6510   1.267   2.921  10.722  0.1409 -0.1788  0.1456
  433MPD2     H 6511   1.473   2.691  10.946  0.4476  2.1685  1.1577
  433MPD2    H1 6512   1.326   3.079  10.859 -0.4567  0.2122  1.0902
  433MPD2    H2 6513   1.231   2.748  10.600  3.3446  2.0258 -1.8724
  433MPD2    H3 6514   1.208   2.989  10.663  1.1575  1.4406  0.9895
  433MPD2     N 6515   1.495   2.924  11.003 -0.2517 -0.1254 -0.3051
  433MPD2    H5 6516   1.539   2.853  11.059  3.5406  1.2940 -1.4685
  433MPD2    N1 6517   1.398   2.572  10.717  0.3397 -0.2659 -0.2138
  433MPD2    H7 6518   1.362   2.541  10.627  1.1032 -2.3639  0.2060
  434TMC3    C1 6519   1.495   2.351  10.717 -0.3434 -0.2496 -0.1425
  434TMC3    C2 6520   1.600   2.283  10.778  0.0251  0.1384  0.6076
  434TMC3    C3 6521   1.597   2.146  10.788 -0.1615 -0.2726  0.6545
  434TMC3    C4 6522   1.394   2.280  10.650  0.7721 -0.2739  0.3564
  434TMC3    C5 6523   1.395   2.144  10.658 -0.7078  0.0224 -0.2036
  434TMC3    C6 6524   1.487   2.074  10.733 -0.0100 -0.1131  0.0329
  434TMC3     C 6525   1.477   2.485  10.782 -0.4431  0.5977 -0.5454
  434TMC3     O 6526   1.541   2.496  10.882 -0.1786 -0.4216  0.0858
  434TMC3     H 6527   1.660   2.329  10.856 -0.2884  0.1639  0.8310
  434TMC3    H1 6528   1.308   2.326  10.602  1.2407  1.5334  1.2254
  434TMC3    H2 6529   1.500   1.966  10.730  0.6005  0.0072 -1.5619
  434TMC3    C7 6530   1.281   2.078  10.609  0.1228  0.5918  0.2042
  434TMC3    C8 6531   1.684   2.083  10.886  0.8628 -0.2380 -0.2065
  434TMC3    O1 6532   1.229   2.133  10.513  0.8491 -0.8419 -0.7171
  434TMC3    O2 6533   1.781   2.151  10.912 -0.1359  0.5597  0.2951
  435MPD2     C 6534   3.691   2.651  15.536  1.0071 -0.8004  0.4607
  435MPD2    C1 6535   3.660   2.658  15.669  0.5915  0.1539  0.1210
  435MPD2    C2 6536   3.755   2.616  15.758 -0.0756  0.0630  0.1655
  435MPD2    C3 6537   3.887   2.584  15.725  0.2740  0.2608 -0.6471
  435MPD2    C4 6538   3.921   2.588  15.594  0.4232 -0.0785 -0.0146
  435MPD2    C5 6539   3.821   2.614  15.502  0.1123  0.4670 -0.0410
  435MPD2     H 6540   3.718   2.614  15.860  1.6902  2.2704  0.8581
  435MPD2    H1 6541   4.018   2.563  15.554 -0.8391 -1.2240 -2.3944
  435MPD2    H2 6542   3.630   2.687  15.454 -0.7853  0.4107  2.3323
  435MPD2    H3 6543   3.857   2.621  15.400 -0.0449 -0.2127 -0.1403
  435MPD2     N 6544   3.974   2.548  15.834 -0.0349  0.1604 -0.0952
  435MPD2    H5 6545   3.943   2.560  15.930 -1.9069  0.5423 -0.7487
  435MPD2    N1 6546   3.535   2.695  15.722  0.5113 -0.8916  0.1565
  435MPD2    H7 6547   3.521   2.675  15.820  1.8917  0.2002  0.5650
  436TMC3    C1 6548   3.155   2.697  15.875 -0.1430  0.7495  0.6195
  436TMC3    C2 6549   3.280   2.692  15.819 -0.4734  0.4977 -0.0218
  436TMC3    C3 6550   3.310   2.765  15.708 -0.0924  0.2950 -0.6194
  436TMC3    C4 6551   3.059   2.782  15.826 -0.5928 -0.2709 -0.0748
  436TMC3    C5 6552   3.090   2.846  15.714 -0.5549  0.3869 -0.3329
  436TMC3    C6 6553   3.211   2.844  15.651  0.1145  1.2513  0.5136
  436TMC3     C 6554   3.149   2.638  16.007  0.5597  0.2521 -0.0966
  436TMC3     O 6555   3.218   2.534  16.017  0.3172  0.4955 -0.4979
  436TMC3     H 6556   3.350   2.624  15.868 -0.3654 -0.8592 -2.0697
  436TMC3    H1 6557   2.960   2.764  15.867  0.1361 -0.6909  1.5007
  436TMC3    H2 6558   3.216   2.897  15.557 -2.5051 -0.2509 -0.4823
  436TMC3    C7 6559   2.982   2.907  15.636  0.9835 -0.1889 -0.4715
  436TMC3    C8 6560   3.440   2.754  15.642  0.6447 -0.6999 -0.1409
  436TMC3    O1 6561   3.012   2.978  15.542 -0.2155  0.4129 -0.3997
  436TMC3    O2 6562   3.454   2.815  15.535  0.2628 -0.0509 -0.7861
  437TMC3    C1 6563   2.175   4.248  12.416  0.4769  0.1670 -1.0251
  437TMC3    C2 6564   2.135   4.291  12.539 -0.4777 -0.3733 -0.2730
  437TMC3    C3 6565   2.147   4.430  12.558 -0.0446  0.0542 -0.8561
  437TMC3    C4 6566   2.235   4.323  12.316 -0.5072 -0.6063 -0.0466
  437TMC3    C5 6567   2.256   4.453  12.347  0.0251 -0.6966  0.0066
  437TMC3    C6 6568   2.205   4.506  12.468  0.2434 -0.7890 -0.3094
  437TMC3     C 6569   2.178   4.106  12.392  0.0533  0.1802  0.4155
  437TMC3     O 6570   2.234   4.066  12.292 -0.2464  0.5352 -0.0330
  437TMC3     H 6571   2.077   4.234  12.611  0.2053  1.2969  1.6003
  437TMC3    H1 6572   2.258   4.274  12.223  1.3834  1.0126 -0.4402
  437TMC3    H2 6573   2.179   4.612  12.471  2.5638 -0.2953  2.1441
  437TMC3    C7 6574   2.323   4.535  12.252  0.1763  0.3471 -0.7518
  437TMC3    C8 6575   2.078   4.483  12.676 -0.1605  0.2160  0.5678
  437TMC3    O1 6576   2.357   4.476  12.149 -0.0615  0.7981  0.0285
  437TMC3    O2 6577   2.031   4.595  12.659 -0.8319  0.1763  0.0479
  438MPD2     C 6578   0.221   1.095  16.862  0.1796 -0.0901  0.0315
  438MPD2    C1 6579   0.306   0.996  16.899 -0.0447  0.0291  0.3506
  438MPD2    C2 6580   0.316   0.966  17.032 -0.6560 -0.0334  0.4342
  438MPD2    C3 6581   0.245   1.038  17.126  0.3086  0.7052  0.0269
  438MPD2    C4 6582   0.159   1.134  17.084 -0.1632  0.2297  0.9966
  438MPD2    C5 6583   0.145   1.160  16.952  0.3390  0.4604 -0.2817
  438MPD2     H 6584   0.366   0.876  17.067 -0.2772 -0.4094 -1.0712
  438MPD2    H1 6585   0.091   1.182  17.153 -0.1863  1.5880  0.0183
  438MPD2    H2 6586   0.216   1.125  16.758 -4.0823 -2.8083 -0.5858
  438MPD2    H3 6587   0.076   1.240  16.927 -0.6539 -1.6422 -4.1675
  438MPD2     N 6588   0.237   1.003  17.262  0.1887  0.7968 -0.1820
  438MPD2    H5 6589   0.165   1.044  17.321 -2.4485 -1.9377 -1.5204
  438MPD2    N1 6590   0.403   0.931  16.816 -0.9500 -0.3418 -0.4719
  438MPD2    H7 6591   0.453   0.850  16.851 -0.6607 -0.6037 -1.4840
  439TMC3    C1 6592   0.516   0.872  16.621 -0.3458  0.4334 -0.2684
  439TMC3    C2 6593   0.479   0.833  16.490  0.8306 -0.0635 -0.4147
  439TMC3    C3 6594   0.552   0.727  16.440 -0.0925  0.3960  0.2406
  439TMC3    C4 6595   0.611   0.803  16.695 -0.3527 -0.4629 -0.1566
  439TMC3    C5 6596   0.676   0.705  16.633  0.0631 -0.2724  0.0666
  439TMC3    C6 6597   0.654   0.660  16.505  0.8736  0.0734  0.6720
  439TMC3     C 6598   0.429   0.971  16.686 -0.5903 -0.0295 -0.4352
  439TMC3     O 6599   0.380   1.062  16.622  0.2264 -0.4053 -0.3513
  439TMC3     H 6600   0.407   0.889  16.430  1.0694  2.1528  1.3578
  439TMC3    H1 6601   0.630   0.818  16.800 -1.4024  1.7745 -0.2896
  439TMC3    H2 6602   0.707   0.570  16.475  0.7986  0.6098 -1.0543
  439TMC3    C7 6603   0.765   0.619  16.717  0.2298  0.3023 -0.3250
  439TMC3    C8 6604   0.502   0.645  16.328  0.2861  0.1156  0.8278
  439TMC3    O1 6605   0.825   0.676  16.808 -0.6462  0.1085  0.3174
  439TMC3    O2 6606   0.564   0.544  16.315  0.0210 -0.2381  0.0556
  440MPD2     C 6607   3.252   0.930  15.321 -0.5781 -0.2798  0.3875
  440MPD2    C1 6608   3.307   1.046  15.370 -0.0989  0.0420 -0.0362
  440MPD2    C2 6609   3.433   1.041  15.434 -0.4052 -0.1022  0.4519
  440MPD2    C3 6610   3.504   0.921  15.450  0.5929  0.2598  0.5254
  440MPD2    C4 6611   3.437   0.803  15.410  0.6389 -0.7165 -1.2034
  440MPD2    C5 6612   3.317   0.807  15.344 -0.2943  0.1146  0.1881
  440MPD2     H 6613   3.479   1.134  15.465 -0.6157  0.4416 -0.8596
  440MPD2    H1 6614   3.485   0.708  15.425  2.1644  0.1975 -0.2978
  440MPD2    H2 6615   3.157   0.923  15.270  0.5529  1.7592 -1.9815
  440MPD2    H3 6616   3.271   0.712  15.317 -0.8671  1.1913 -2.5198
  440MPD2     N 6617   3.638   0.910  15.485  0.1659 -0.0919 -0.2339
  440MPD2    H5 6618   3.673   0.815  15.493 -0.6656 -0.2845  1.0383
  440MPD2    N1 6619   3.250   1.180  15.358 -0.6395 -0.5791 -0.1080
  440MPD2    H7 6620   3.304   1.251  15.407  0.9256 -1.9066  0.0934
  441TMC3    C1 6621   3.833   0.970  15.599  0.2878  0.0285 -0.4780
  441TMC3    C2 6622   3.928   1.065  15.585  0.1952  0.2942  0.5744
  441TMC3    C3 6623   4.027   1.078  15.678 -0.9575  0.7110  1.0458
  441TMC3    C4 6624   3.844   0.873  15.696 -0.6318 -0.6569  0.6641
  441TMC3    C5 6625   3.956   0.876  15.781 -0.3285  0.3456  0.6189
  441TMC3    C6 6626   4.039   0.982  15.778  0.5296 -0.0679 -0.3330
  441TMC3     C 6627   3.706   1.012  15.541 -0.7558  0.3172 -0.1447
  441TMC3     O 6628   3.691   1.135  15.537  0.7497  0.0044 -0.3756
  441TMC3     H 6629   3.907   1.139  15.508  0.7124  0.4842  0.6177
  441TMC3    H1 6630   3.769   0.794  15.700 -2.3889  1.0209  0.3914
  441TMC3    H2 6631   4.117   0.992  15.853 -1.6851 -1.5797  2.1899
  441TMC3    C7 6632   3.952   0.803  15.904 -0.0393 -0.9076 -0.1424
  441TMC3    C8 6633   4.066   1.211  15.724  1.0383  0.5518  0.2518
  441TMC3    O1 6634   4.011   0.825  16.009  0.5929 -0.0508 -0.1569
  441TMC3    O2 6635   4.154   1.221  15.808  0.3510  0.1133  0.1713
  442MPD2     C 6636   1.916   1.481  16.259  0.0317  1.0281  0.1341
  442MPD2    C1 6637   1.869   1.394  16.359 -0.3479 -0.0985 -0.4397
  442MPD2    C2 6638   1.835   1.267  16.323 -0.0821 -0.0279  0.7519
  442MPD2    C3 6639   1.833   1.231  16.191 -0.1522 -0.2062 -0.4987
  442MPD2    C4 6640   1.884   1.317  16.098 -0.7496 -0.7925  0.1945
  442MPD2    C5 6641   1.920   1.440  16.131  0.1034 -0.0021 -0.4268
  442MPD2     H 6642   1.804   1.190  16.392  1.4080 -2.4161 -1.2395
  442MPD2    H1 6643   1.890   1.298  15.992  2.0006  1.9371 -0.1655
  442MPD2    H2 6644   1.945   1.584  16.277 -2.6643  1.5359  1.6629
  442MPD2    H3 6645   1.942   1.503  16.046 -1.1344 -1.0699 -1.5418
  442MPD2     N 6646   1.786   1.111  16.137 -0.2759  0.4372 -0.3423
  442MPD2    H5 6647   1.804   1.102  16.037 -0.9967 -0.9350 -0.3464
  442MPD2    N1 6648   1.853   1.427  16.499  0.3001 -0.1870 -0.3992
  442MPD2    H7 6649   1.826   1.351  16.561  1.7946 -1.5083 -1.3505
  443TMC3    C1 6650   1.862   1.563  16.692  0.6520  0.2859  0.3614
  443TMC3    C2 6651   1.832   1.687  16.731  0.9303 -0.9516  0.3155
  443TMC3    C3 6652   1.742   1.704  16.833 -1.0477  0.0458 -0.2958
  443TMC3    C4 6653   1.837   1.456  16.770  0.3405 -0.0669  0.5790
  443TMC3    C5 6654   1.750   1.481  16.878  0.1866  0.7796  0.7887
  443TMC3    C6 6655   1.701   1.605  16.907  0.1803 -0.0927  0.3355
  443TMC3     C 6656   1.874   1.553  16.548 -0.4352  0.1677  0.3275
  443TMC3     O 6657   1.891   1.655  16.486 -0.5333  0.2325  0.2886
  443TMC3     H 6658   1.868   1.776  16.681 -1.9530 -0.2137 -0.4410
  443TMC3    H1 6659   1.851   1.357  16.729 -1.7498 -0.3665  0.5868
  443TMC3    H2 6660   1.622   1.615  16.980  3.4659  1.8584  3.6314
  443TMC3    C7 6661   1.685   1.365  16.946  0.1417 -0.4305  0.1547
  443TMC3    C8 6662   1.629   1.785  16.791 -0.4251  0.6021 -0.8348
  443TMC3    O1 6663   1.591   1.400  17.014  0.0616  0.0810 -0.8026
  443TMC3    O2 6664   1.522   1.719  16.773  0.4899  0.0393 -0.6332
  444MPD2     C 6665   2.276   1.268  17.173 -0.3741  0.0339  0.2432
  444MPD2    C1 6666   2.166   1.192  17.133 -0.3236 -0.4644 -0.1721
  444MPD2    C2 6667   2.179   1.091  17.043  0.1304 -0.4350  0.4937
  444MPD2    C3 6668   2.301   1.054  16.991  0.3065  0.1725 -0.4458
  444MPD2    C4 6669   2.411   1.130  17.019  0.8553  0.4884  0.2376
  444MPD2    C5 6670   2.398   1.232  17.114 -0.0087  0.2258 -0.2555
  444MPD2     H 6671   2.093   1.032  17.014  0.4256 -0.2087 -0.8483
  444MPD2    H1 6672   2.514   1.106  16.992  0.5556 -1.3777  0.7413
  444MPD2    H2 6673   2.280   1.346  17.248  1.5358  0.8723 -0.7258
  444MPD2    H3 6674   2.483   1.288  17.152  0.0019 -0.0458  0.1230
  444MPD2     N 6675   2.311   0.954  16.891 -0.2957  0.6734 -0.0670
  444MPD2    H5 6676   2.225   0.925  16.846  1.1239  0.9783 -2.9701
  444MPD2    N1 6677   2.041   1.217  17.188 -0.0179  0.3806 -0.2835
  444MPD2    H7 6678   1.967   1.152  17.168 -0.7850  0.9667  0.6228
  445TMC3    C1 6679   2.416   0.783  16.757  0.0349 -0.2849 -0.7971
  445TMC3    C2 6680   2.289   0.753  16.714  0.3570 -0.3597  0.1119
  445TMC3    C3 6681   2.271   0.633  16.651  0.2836 -0.1271  0.3074
  445TMC3    C4 6682   2.525   0.691  16.755 -0.5000  0.1265  0.0839
  445TMC3    C5 6683   2.500   0.566  16.710  0.3192 -0.4827  0.1285
  445TMC3    C6 6684   2.376   0.541  16.648  0.5339 -0.2144 -0.4694
  445TMC3     C 6685   2.433   0.893  16.854  0.7382 -0.2167  0.2900
  445TMC3     O 6686   2.547   0.904  16.896 -0.1858  0.0867 -0.5714
  445TMC3     H 6687   2.222   0.836  16.696  2.1001  1.0003 -0.1039
  445TMC3    H1 6688   2.627   0.719  16.782 -0.2878  0.6786 -1.2732
  445TMC3    H2 6689   2.373   0.461  16.575 -0.4330 -0.2926 -0.3525
  445TMC3    C7 6690   2.621   0.498  16.661 -0.3496  0.1944 -0.0885
  445TMC3    C8 6691   2.153   0.623  16.574 -0.1757 -0.1500  0.4768
  445TMC3    O1 6692   2.718   0.564  16.629 -0.2143 -0.1433 -0.0248
  445TMC3    O2 6693   2.080   0.718  16.587 -0.0719 -0.8420  0.2297
  446MPD2     C 6694   1.517   2.123  11.287 -0.5010  0.3323 -0.2614
  446MPD2    C1 6695   1.448   2.214  11.205 -0.1448 -0.2096 -0.0306
  446MPD2    C2 6696   1.513   2.326  11.151 -0.2796  0.8462  0.2640
  446MPD2    C3 6697   1.653   2.341  11.169 -0.1791  0.1146 -0.0200
  446MPD2    C4 6698   1.711   2.266  11.272  0.2432  0.0263 -0.4114
  446MPD2    C5 6699   1.640   2.161  11.329 -0.1154 -0.3064  0.1485
  446MPD2     H 6700   1.464   2.385  11.075  1.2910  1.0741 -0.5630
  446MPD2    H1 6701   1.811   2.283  11.311 -1.0660 -1.1294  3.4343
  446MPD2    H2 6702   1.472   2.040  11.340 -1.4558  0.0392 -1.5404
  446MPD2    H3 6703   1.690   2.100  11.403  0.4685  0.8852  0.7157
  446MPD2     N 6704   1.721   2.446  11.100  0.1750  0.3892 -0.5419
  446MPD2    H5 6705   1.664   2.494  11.032 -1.7795  0.4483  1.1362
  446MPD2    N1 6706   1.309   2.196  11.155  0.2339  1.0812 -0.4302
  446MPD2    H7 6707   1.269   2.265  11.093 -0.1287  1.0001 -0.2894
  447TMC3    C1 6708   1.893   2.595  11.052  0.3376  0.5345  0.1536
  447TMC3    C2 6709   1.835   2.657  10.939 -0.0395  1.1493  0.1493
  447TMC3    C3 6710   1.895   2.767  10.874 -0.0874 -0.7381 -0.7505
  447TMC3    C4 6711   2.009   2.656  11.105  0.3644 -0.5856  0.3506
  447TMC3    C5 6712   2.065   2.760  11.035 -0.4783 -0.0020  0.2394
  447TMC3    C6 6713   2.007   2.824  10.924  0.0545 -0.3635  0.6544
  447TMC3     C 6714   1.860   2.465  11.103  0.2800  0.1902 -0.7806
  447TMC3     O 6715   1.948   2.411  11.175  0.4996 -0.0006  0.2409
  447TMC3     H 6716   1.755   2.605  10.888  1.1425  0.2283 -0.7845
  447TMC3    H1 6717   2.050   2.616  11.197  0.4405 -2.4244 -0.4823
  447TMC3    H2 6718   2.063   2.898  10.868  1.3866 -2.2241 -0.4796
  447TMC3    C7 6719   2.174   2.833  11.097  0.1081 -0.2351 -0.6127
  447TMC3    C8 6720   1.806   2.836  10.785 -0.6326  0.1665 -0.1877
  447TMC3    O1 6721   2.201   2.946  11.058 -0.0709  0.9121  0.5722
  447TMC3    O2 6722   1.713   2.777  10.732  0.1970 -0.1245 -0.0113
  448TMC3    C1 6723   0.626   2.349  17.145  0.6192  0.4458 -0.6012
  448TMC3    C2 6724   0.515   2.295  17.091  0.2216 -1.1404  0.4183
  448TMC3    C3 6725   0.439   2.209  17.171  0.0387  0.6477 -0.1695
  448TMC3    C4 6726   0.665   2.328  17.278 -0.3914 -0.4414 -0.5317
  448TMC3    C5 6727   0.596   2.237  17.349  0.3659 -0.1737 -0.1235
  448TMC3    C6 6728   0.486   2.171  17.301  0.1136 -0.1059 -0.4830
  448TMC3     C 6729   0.705   2.435  17.054 -0.7602 -0.4964  0.8017
  448TMC3     O 6730   0.657   2.486  16.956 -0.9213  0.3487  0.0230
  448TMC3     H 6731   0.499   2.305  16.984  2.5191  0.3179  0.2075
  448TMC3    H1 6732   0.745   2.389  17.321 -1.3387  0.2152  0.3209
  448TMC3    H2 6733   0.430   2.102  17.363  0.8011 -0.3286 -0.1209
  448TMC3    C7 6734   0.629   2.238  17.494  0.2270  0.4073 -0.2077
  448TMC3    C8 6735   0.379   2.102  17.088 -0.4174 -0.5116  0.0452
  448TMC3    O1 6736   0.698   2.332  17.530  0.1278 -0.1136  0.3107
  448TMC3    O2 6737   0.405   1.983  17.117 -0.1788 -0.4192  0.1055
  449MPD2     C 6738   1.238   0.740  13.822  0.2088 -0.0332  0.2896
  449MPD2    C1 6739   1.119   0.723  13.758  0.3206 -0.5849 -0.3904
  449MPD2    C2 6740   1.030   0.641  13.813 -0.1570 -0.5867 -0.1305
  449MPD2    C3 6741   1.054   0.569  13.933  0.0239  0.4415 -0.4443
  449MPD2    C4 6742   1.173   0.590  13.997 -0.6845 -0.0002  0.2029
  449MPD2    C5 6743   1.265   0.674  13.935 -0.1954  0.5848 -0.1027
  449MPD2     H 6744   0.932   0.629  13.768  0.8230  1.0438 -2.7435
  449MPD2    H1 6745   1.203   0.546  14.091 -2.4520 -1.4196  0.1040
  449MPD2    H2 6746   1.307   0.820  13.795  1.3655 -0.5604  1.6968
  449MPD2    H3 6747   1.345   0.705  14.002  0.2400  1.8361 -1.2155
  449MPD2     N 6748   0.955   0.479  13.988  0.4379 -0.8835 -0.5656
  449MPD2    H5 6749   0.870   0.464  13.935  0.2047  3.6766 -1.4267
  449MPD2    N1 6750   1.077   0.797  13.645 -0.0181 -0.0238 -0.4176
  449MPD2    H7 6751   0.983   0.777  13.611  0.4802 -0.1410 -1.7239
  450TMC3    C1 6752   1.075   0.909  13.457  1.0444 -0.3082  0.2809
  450TMC3    C2 6753   1.115   0.837  13.348  0.3788  0.4152 -0.2250
  450TMC3    C3 6754   1.021   0.773  13.271 -0.5262  0.3205  0.0560
  450TMC3    C4 6755   0.944   0.937  13.473 -0.0949 -0.3084 -0.1591
  450TMC3    C5 6756   0.852   0.883  13.385 -0.3473 -0.9979 -0.3060
  450TMC3    C6 6757   0.891   0.799  13.286  1.4878 -0.2546 -0.9303
  450TMC3     C 6758   1.153   0.878  13.568  0.1577 -0.0447  0.6257
  450TMC3     O 6759   1.273   0.907  13.564  0.0361 -0.4014  0.2660
  450TMC3     H 6760   1.218   0.805  13.344  0.6423  1.3091 -0.4472
  450TMC3    H1 6761   0.914   0.995  13.560 -1.9266 -0.9089 -0.3868
  450TMC3    H2 6762   0.808   0.744  13.243 -0.3493  2.0227 -0.2881
  450TMC3    C7 6763   0.750   0.815  13.467  0.3717  0.4281  0.2484
  450TMC3    C8 6764   1.047   0.643  13.227  0.1820 -0.3119 -0.1574
  450TMC3    O1 6765   0.759   0.691  13.473 -0.1415  0.0003 -0.2379
  450TMC3    O2 6766   0.945   0.583  13.201 -0.0332  0.2293 -0.3770
  451MPD2     C 6767   3.321   4.421   1.411  0.9117 -0.5774 -0.1117
  451MPD2    C1 6768   3.330   4.423   1.273  0.1944 -0.6172 -0.3762
  451MPD2    C2 6769   3.359   4.297   1.208  0.5577  0.1558 -0.3184
  451MPD2    C3 6770   3.392   4.186   1.288  0.1814  0.0817  0.2823
  451MPD2    C4 6771   3.387   4.197   1.429 -0.2591 -0.6947 -1.0027
  451MPD2    C5 6772   3.346   4.313   1.488 -0.4697  0.5676 -0.2881
  451MPD2     H 6773   3.349   4.297   1.100 -0.4623  1.9359 -0.2285
  451MPD2    H1 6774   3.417   4.115   1.494 -1.7120 -1.8776 -1.8436
  451MPD2    H2 6775   3.304   4.511   1.469  0.4270 -0.1160 -0.9640
  451MPD2    H3 6776   3.331   4.327   1.594 -2.0736  1.3910 -0.6102
  451MPD2     N 6777   3.417   4.065   1.222  0.6961  0.2745  0.1153
  451MPD2    H5 6778   3.417   4.074   1.121 -2.6622  1.6276  0.2270
  451MPD2    N1 6779   3.307   4.550   1.209  0.1185 -0.6584  0.4320
  451MPD2    H7 6780   3.291   4.626   1.275  0.9555  0.6225 -0.8595
  452TMC3    C1 6781   3.486   3.846   1.185  0.1666 -0.4568  0.0454
  452TMC3    C2 6782   3.474   3.722   1.236  0.1624 -0.4790 -0.5543
  452TMC3    C3 6783   3.528   3.632   1.152 -0.0778 -0.0654  0.0619
  452TMC3    C4 6784   3.578   3.879   1.088  0.2864  0.4554 -0.0702
  452TMC3    C5 6785   3.642   3.781   1.016  0.5731 -0.2714  0.2935
  452TMC3    C6 6786   3.619   3.657   1.047  0.8753 -0.1242  0.5597
  452TMC3     C 6787   3.439   3.946   1.277  0.2331 -0.2719  0.5194
  452TMC3     O 6788   3.429   3.912   1.393 -0.1714 -0.1736 -0.3850
  452TMC3     H 6789   3.398   3.699   1.310 -0.9810  0.3447 -1.4742
  452TMC3    H1 6790   3.611   3.981   1.075 -0.5930  0.6269 -0.9195
  452TMC3    H2 6791   3.676   3.573   1.009  0.7663  0.1549 -0.2242
  452TMC3    C7 6792   3.662   3.812   0.869 -0.0795  0.0715  0.0325
  452TMC3    C8 6793   3.453   3.513   1.121  0.2862 -0.5660  0.8433
  452TMC3    O1 6794   3.674   3.927   0.826 -0.0434  0.7592 -0.0305
  452TMC3    O2 6795   3.439   3.489   1.004  0.3584  0.3350 -0.1774
  453TMC3    C1 6796   3.709   1.911  12.100 -0.8329  0.7122  0.1960
  453TMC3    C2 6797   3.650   1.800  12.037  0.3038 -0.6497  0.5894
  453TMC3    C3 6798   3.602   1.815  11.908  0.3203 -0.3122 -0.4365
  453TMC3    C4 6799   3.729   2.026  12.015  0.3106  0.2983  1.6722
  453TMC3    C5 6800   3.675   2.034  11.886 -0.9603 -0.3133 -0.6947
  453TMC3    C6 6801   3.606   1.927  11.834 -0.1986  0.4657 -0.9911
  453TMC3     C 6802   3.792   1.894  12.216  0.6070  0.1246 -0.0995
  453TMC3     O 6803   3.886   1.971  12.226  0.1782  0.6924  1.1549
  453TMC3     H 6804   3.655   1.703  12.086  0.3869 -0.9753 -0.0726
  453TMC3    H1 6805   3.784   2.109  12.057  0.5194  1.7144 -1.3811
  453TMC3    H2 6806   3.562   1.934  11.736 -2.6781  4.0246  0.3655
  453TMC3    C7 6807   3.735   2.120  11.785 -0.3355  0.1067  0.0078
  453TMC3    C8 6808   3.549   1.696  11.836  0.2479 -0.3707  0.0847
  453TMC3    O1 6809   3.688   2.121  11.676 -0.3632 -0.3442 -0.9740
  453TMC3    O2 6810   3.492   1.700  11.728  0.0063  0.0654 -0.0080
  454MPD2     C 6811   2.738   0.415  16.025 -0.0306  0.1527  0.9419
  454MPD2    C1 6812   2.724   0.488  15.911 -0.1235 -1.4371  0.6755
  454MPD2    C2 6813   2.726   0.625  15.920 -0.5319 -1.0029  0.0366
  454MPD2    C3 6814   2.729   0.681  16.044 -0.1044  0.2485  0.2122
  454MPD2    C4 6815   2.752   0.597  16.158  0.3299  0.4087  1.0827
  454MPD2    C5 6816   2.758   0.460  16.153  0.1547 -0.6813  0.2633
  454MPD2     H 6817   2.709   0.687  15.832  2.0159 -1.4175 -0.7518
  454MPD2    H1 6818   2.760   0.644  16.255  0.4695 -0.9048  1.7143
  454MPD2    H2 6819   2.724   0.308  16.014 -0.4269  0.2221  0.7573
  454MPD2    H3 6820   2.742   0.401  16.242 -0.2909  1.0565  1.3417
  454MPD2     N 6821   2.713   0.819  16.058  0.3202  0.1933  0.3389
  454MPD2    H5 6822   2.668   0.872  15.984 -1.4731 -2.0116 -0.1549
  454MPD2    N1 6823   2.695   0.413  15.791 -1.1541  0.3116  0.2578
  454MPD2    H7 6824   2.683   0.313  15.800 -2.1689  0.3561 -0.5308
  455TMC3    C1 6825   2.606   0.976  16.199  0.5508 -0.0633 -0.1339
  455TMC3    C2 6826   2.613   1.036  16.316 -0.1852  0.7505  0.2873
  455TMC3    C3 6827   2.502   1.061  16.385 -0.4222 -0.2851 -0.3801
  455TMC3    C4 6828   2.487   0.924  16.154 -0.1020  0.3497 -0.1695
  455TMC3    C5 6829   2.375   0.946  16.226 -0.2604 -0.6577 -0.3797
  455TMC3    C6 6830   2.384   1.001  16.348  0.1546  0.7631  0.4147
  455TMC3     C 6831   2.716   0.881  16.181  0.3185 -0.5618 -0.1573
  455TMC3     O 6832   2.795   0.877  16.271 -0.3539 -0.0110 -1.0451
  455TMC3     H 6833   2.703   1.084  16.352  0.7287  0.4971 -1.6370
  455TMC3    H1 6834   2.474   0.859  16.068 -1.8562 -1.8783  1.7864
  455TMC3    H2 6835   2.292   1.015  16.403 -0.1933 -0.6668  0.1877
  455TMC3    C7 6836   2.301   0.826  16.233  0.1103 -0.0410  0.3013
  455TMC3    C8 6837   2.521   1.122  16.514 -0.5909  0.2801  0.1249
  455TMC3    O1 6838   2.184   0.829  16.192  0.2238 -0.4941 -0.0228
  455TMC3    O2 6839   2.633   1.149  16.547 -0.1290  0.0710  0.0911
  456MPD2     C 6840   0.325   1.220  15.997  0.2006  0.1596  0.3930
  456MPD2    C1 6841   0.398   1.141  16.083 -0.1404  0.0180  0.5735
  456MPD2    C2 6842   0.400   1.174  16.213 -0.0087  0.5933  0.2664
  456MPD2    C3 6843   0.334   1.281  16.261  0.1501  0.2906 -0.0040
  456MPD2    C4 6844   0.266   1.366  16.169  0.2932 -0.1514  0.3737
  456MPD2    C5 6845   0.283   1.340  16.043  0.2359 -0.4741  0.7904
  456MPD2     H 6846   0.444   1.105  16.284 -1.4359 -0.3568  0.2320
  456MPD2    H1 6847   0.207   1.453  16.199  1.0093  0.0971  1.0527
  456MPD2    H2 6848   0.326   1.186  15.895 -2.5299  1.3845 -0.0535
  456MPD2    H3 6849   0.234   1.406  15.973 -0.3118 -2.3343 -0.5849
  456MPD2     N 6850   0.335   1.309  16.399 -0.0327  0.5012  0.3166
  456MPD2    H5 6851   0.371   1.239  16.462  1.7633 -0.0584 -1.3425
  456MPD2    N1 6852   0.461   1.025  16.035 -0.1673 -0.1524  0.0465
  456MPD2    H7 6853   0.447   0.991  15.940  0.3336  1.2536 -0.5317
  457TMC3    C1 6854   0.276   1.419  16.607 -0.4339  0.1106  0.4477
  457TMC3    C2 6855   0.178   1.498  16.666  0.0152 -1.0602 -0.1855
  457TMC3    C3 6856   0.187   1.516  16.803  0.3266  0.0418  0.5762
  457TMC3    C4 6857   0.382   1.358  16.675  0.0070 -0.1610 -0.0880
  457TMC3    C5 6858   0.383   1.380  16.803  0.7221  0.5064  0.1776
  457TMC3    C6 6859   0.278   1.440  16.876  1.0402  0.4316 -0.6114
  457TMC3     C 6860   0.283   1.424  16.459  1.0503 -0.0773 -0.3029
  457TMC3     O 6861   0.229   1.522  16.409  0.1904  0.4947  0.5282
  457TMC3     H 6862   0.109   1.554  16.605  0.3139 -1.3612 -0.8028
  457TMC3    H1 6863   0.467   1.314  16.624 -1.2310 -0.5939 -1.8000
  457TMC3    H2 6864   0.271   1.453  16.983 -0.9513  1.3733 -0.8470
  457TMC3    C7 6865   0.503   1.343  16.875  0.0684  0.0776 -0.3516
  457TMC3    C8 6866   0.174   1.655  16.853 -1.1052  0.6097  0.3799
  457TMC3    O1 6867   0.476   1.314  16.988  0.1599 -0.5344 -0.1373
  457TMC3    O2 6868   0.221   1.672  16.962  0.4583 -0.2343  0.4626
  458MPD2     C 6869   2.566   0.236  12.118 -0.2716 -0.0810 -0.2078
  458MPD2    C1 6870   2.532   0.239  12.249  0.0508 -0.2869  0.2087
  458MPD2    C2 6871   2.456   0.130  12.306  0.1775 -0.8041 -0.2736
  458MPD2    C3 6872   2.429   0.019  12.226 -0.3373 -0.3794 -0.7567
  458MPD2    C4 6873   2.475   0.010  12.099  1.2424 -0.6798 -0.0567
  458MPD2    C5 6874   2.542   0.121  12.044  0.0491 -0.2270  0.7791
  458MPD2     H 6875   2.413   0.126  12.405  0.2996  2.0663 -0.0928
  458MPD2    H1 6876   2.466   4.654  12.039  0.3230 -0.4616 -0.2504
  458MPD2    H2 6877   2.628   0.314  12.075  2.3887 -1.7258  0.6157
  458MPD2    H3 6878   2.563   0.115  11.938  0.2803  0.5707  0.7808
  458MPD2     N 6879   2.354   4.661  12.291 -0.0295  0.8701  0.7428
  458MPD2    H5 6880   2.324   4.694  12.382 -2.5008  2.4044 -0.6290
  458MPD2    N1 6881   2.564   0.353  12.325  0.0276 -0.1910 -0.6736
  458MPD2    H7 6882   2.590   0.435  12.272  1.8067  0.6989  1.5681
  459TMC3    C1 6883   2.552   0.499  12.519  0.2369  0.9926  0.3558
  459TMC3    C2 6884   2.650   0.586  12.466 -0.2660  0.0013  0.0957
  459TMC3    C3 6885   2.697   0.684  12.548  0.6523 -0.1470  0.1745
  459TMC3    C4 6886   2.528   0.503  12.656  0.1171 -0.1393 -0.7735
  459TMC3    C5 6887   2.592   0.594  12.737  0.4475 -0.3126 -0.1574
  459TMC3    C6 6888   2.674   0.689  12.687 -0.9574 -0.4487  0.3353
  459TMC3     C 6889   2.541   0.364  12.463 -0.0815  0.5179  0.4948
  459TMC3     O 6890   2.524   0.275  12.540  0.1431 -0.0243 -0.8714
  459TMC3     H 6891   2.697   0.568  12.369 -1.1370 -1.2287 -0.1002
  459TMC3    H1 6892   2.454   0.438  12.703 -2.3492  1.1258 -2.9143
  459TMC3    H2 6893   2.721   0.759  12.755  0.3434 -0.1280 -0.8960
  459TMC3    C7 6894   2.604   0.543  12.877  0.4378 -0.3674 -0.6344
  459TMC3    C8 6895   2.805   0.764  12.507  0.4946  0.3174 -0.3447
  459TMC3    O1 6896   2.545   0.437  12.901  0.1996  0.2764 -0.2944
  459TMC3    O2 6897   2.862   0.836  12.586 -0.0009 -0.4910 -0.9246
  460MPD2     C 6898   1.782   3.197  10.759  0.1605  0.3371  0.8112
  460MPD2    C1 6899   1.749   3.069  10.732  0.1561  0.1114 -0.4023
  460MPD2    C2 6900   1.640   3.052  10.642  0.0526  0.0480  0.5624
  460MPD2    C3 6901   1.576   3.161  10.581  0.1728 -0.0036 -0.1780
  460MPD2    C4 6902   1.614   3.285  10.613 -0.4068 -0.2248  0.1853
  460MPD2    C5 6903   1.719   3.302  10.702  0.5438  0.4103  0.3685
  460MPD2     H 6904   1.600   2.954  10.619  1.4651 -0.6205  0.9505
  460MPD2    H1 6905   1.578   3.378  10.570 -0.6174 -0.7389 -0.7665
  460MPD2    H2 6906   1.860   3.225  10.829  2.6659  2.9168 -2.9559
  460MPD2    H3 6907   1.740   3.402  10.738  1.2059  0.5631 -0.4550
  460MPD2     N 6908   1.480   3.136  10.482 -0.6336  0.5121 -0.4667
  460MPD2    H5 6909   1.461   3.041  10.451 -0.0358 -0.0726  0.9414
  460MPD2    N1 6910   1.821   2.972  10.795 -0.1662 -0.0849 -0.5182
  460MPD2    H7 6911   1.888   3.007  10.864 -0.6869  1.3713 -0.7591
  461TMC3    C1 6912   1.340   3.217  10.301  0.0179  0.2935 -0.1453
  461TMC3    C2 6913   1.293   3.100  10.250 -0.1935 -0.2881  0.5517
  461TMC3    C3 6914   1.269   3.084  10.118 -0.8654 -0.9645 -0.3089
  461TMC3    C4 6915   1.342   3.327  10.216  0.0172  0.2909 -0.5836
  461TMC3    C5 6916   1.313   3.313  10.082  1.0973  0.6850  0.6517
  461TMC3    C6 6917   1.279   3.190  10.028 -0.7567 -0.1111  0.2686
  461TMC3     C 6918   1.390   3.235  10.435  0.1804 -0.4914  0.0440
  461TMC3     O 6919   1.379   3.344  10.490  0.4380 -0.8487  0.3595
  461TMC3     H 6920   1.306   3.010  10.310  0.2513 -1.9145 -1.9854
  461TMC3    H1 6921   1.399   3.410  10.255  0.4567 -0.9040  1.2923
  461TMC3    H2 6922   1.253   3.186   9.923  1.2326  0.0679 -0.2338
  461TMC3    C7 6923   1.317   3.429   9.994 -0.3600  0.0163 -0.7240
  461TMC3    C8 6924   1.275   2.944  10.062 -0.3699 -0.5098 -0.2412
  461TMC3    O1 6925   1.286   3.538  10.041  0.0342 -0.3219 -0.2529
  461TMC3    O2 6926   1.231   2.846  10.118  0.8622 -0.4327 -0.5301
  462TMC3    C1 6927   2.240   4.373   0.609  0.1194  0.4941 -0.1269
  462TMC3    C2 6928   2.373   4.410   0.609 -0.3486  0.5140 -0.4482
  462TMC3    C3 6929   2.456   4.327   0.534 -0.0010 -0.2358 -0.5963
  462TMC3    C4 6930   2.197   4.258   0.557 -0.2199  0.1040  0.3142
  462TMC3    C5 6931   2.291   4.162   0.516  0.5931  0.0349  0.0557
  462TMC3    C6 6932   2.421   4.197   0.504 -0.0136 -0.1503  0.3354
  462TMC3     C 6933   2.150   4.456   0.688  0.7426 -0.0307  0.1318
  462TMC3     O 6934   2.043   4.484   0.635  0.0191  0.2156 -0.7201
  462TMC3     H 6935   2.406   4.508   0.641  1.4065 -0.0518 -0.5432
  462TMC3    H1 6936   2.092   4.235   0.550 -0.1750  0.2955 -1.1442
  462TMC3    H2 6937   2.489   4.131   0.452 -1.5561 -1.9892  0.6132
  462TMC3    C7 6938   2.260   4.026   0.485 -0.5087  0.8838 -0.9279
  462TMC3    C8 6939   2.592   4.370   0.511 -1.0243 -0.4805 -0.1850
  462TMC3    O1 6940   2.351   3.951   0.458 -0.9949  0.4442 -0.2236
  462TMC3    O2 6941   2.617   4.488   0.535  0.0551 -0.0874 -0.3937
  463MPD2     C 6942   3.856   3.157   1.640 -0.6980 -0.1164 -0.1856
  463MPD2    C1 6943   3.746   3.130   1.706 -0.3072  0.0969  0.1765
  463MPD2    C2 6944   3.698   3.221   1.804  0.7176 -0.5845 -0.6263
  463MPD2    C3 6945   3.768   3.334   1.826  0.7052  0.3142 -0.3496
  463MPD2    C4 6946   3.890   3.357   1.762 -0.2526 -0.4913  0.1889
  463MPD2    C5 6947   3.931   3.268   1.668 -0.5443 -0.3948 -1.6704
  463MPD2     H 6948   3.607   3.203   1.859 -0.1264 -0.0290 -1.8394
  463MPD2    H1 6949   3.952   3.440   1.792 -1.1879  0.8928 -1.6714
  463MPD2    H2 6950   3.894   3.093   1.561 -1.1298 -0.0775 -0.4237
  463MPD2    H3 6951   4.026   3.280   1.616  1.4026 -3.6123  1.1248
  463MPD2     N 6952   3.715   3.440   1.905  0.2527 -0.3738 -0.3256
  463MPD2    H5 6953   3.775   3.521   1.915  0.6388 -0.7983  0.7451
  463MPD2    N1 6954   3.672   3.009   1.696  0.1160 -0.0236  0.2147
  463MPD2    H7 6955   3.584   2.999   1.745  0.8355  3.1629  2.1244
  464TMC3    C1 6956   3.604   2.796   1.622 -0.9246 -0.1778 -0.3441
  464TMC3    C2 6957   3.470   2.823   1.625 -0.3009 -0.4011  0.1733
  464TMC3    C3 6958   3.382   2.728   1.599 -0.3167  0.3150  0.3573
  464TMC3    C4 6959   3.652   2.673   1.589 -0.3833  0.9057  0.1501
  464TMC3    C5 6960   3.563   2.573   1.563 -0.1040  0.5611 -0.3271
  464TMC3    C6 6961   3.425   2.602   1.569 -0.5892 -0.1843  0.7880
  464TMC3     C 6962   3.706   2.896   1.618  0.0259 -0.4658  0.0976
  464TMC3     O 6963   3.818   2.871   1.584  0.5032  0.6670  0.2208
  464TMC3     H 6964   3.442   2.927   1.623 -0.1202 -0.3990 -1.7759
  464TMC3    H1 6965   3.758   2.655   1.582 -0.5780  0.1597 -0.9195
  464TMC3    H2 6966   3.354   2.520   1.572 -0.5605 -0.2285  0.1655
  464TMC3    C7 6967   3.619   2.445   1.536 -0.2015 -0.2395  0.1763
  464TMC3    C8 6968   3.243   2.741   1.641 -0.4598  0.4201 -0.3849
  464TMC3    O1 6969   3.738   2.428   1.526 -0.0115 -0.3702 -0.2607
  464TMC3    O2 6970   3.165   2.664   1.580 -0.2005  0.4415  0.0037
  465MPD2     C 6971   4.636   1.878  17.174  0.3155 -0.4398 -0.2913
  465MPD2    C1 6972   4.577   1.765  17.225  0.1158 -0.8301  0.5829
  465MPD2    C2 6973   4.518   1.676  17.140 -0.2799 -0.6764 -0.5478
  465MPD2    C3 6974   4.517   1.688  17.007 -0.2295  0.4421 -0.7710
  465MPD2    C4 6975   4.572   1.805  16.952 -1.5131  0.2034  0.2054
  465MPD2    C5 6976   4.634   1.887  17.037  0.8062  0.4040  0.0908
  465MPD2     H 6977   4.473   1.586  17.180 -2.6058  0.4059 -0.7185
  465MPD2    H1 6978   4.575   1.826  16.845 -0.8066 -1.3829 -0.0819
  465MPD2    H2 6979   4.672   1.966  17.227  1.1607 -1.0196  0.0931
  465MPD2    H3 6980   4.681   1.975  16.995 -0.1794  1.9540  2.2424
  465MPD2     N 6981   4.485   1.574  16.925  0.0148 -0.0889  0.7084
  465MPD2    H5 6982   4.455   1.489  16.971  1.3033  0.0421  1.7838
  465MPD2    N1 6983   4.564   1.743  17.365  0.1164 -0.2737 -0.0301
  465MPD2    H7 6984   4.511   1.658  17.383 -3.1165  1.8043  0.2603
  466TMC3    C1 6985   4.310   1.268  16.770  0.0277  0.2256  0.3081
  466TMC3    C2 6986   4.221   1.299  16.666 -0.0631  0.5733 -0.1987
  466TMC3    C3 6987   4.264   1.396  16.580  0.1617  0.1817  0.4765
  466TMC3    C4 6988   4.417   1.347  16.804  0.9257  0.7102  0.3097
  466TMC3    C5 6989   4.441   1.454  16.718  0.2788  0.3260 -0.3379
  466TMC3    C6 6990   4.371   1.479  16.601 -0.3255  0.3611  0.3394
  466TMC3     C 6991   4.254   1.191  16.879  0.5707 -0.3745 -0.5219
  466TMC3     O 6992   4.307   1.204  16.987  0.2128 -0.3283  0.0217
  466TMC3     H 6993   4.132   1.237  16.660  0.1888  0.4286 -2.3256
  466TMC3    H1 6994   4.480   1.333  16.891  1.0144  0.1529  0.1541
  466TMC3    H2 6995   4.394   1.558  16.530 -0.5723  0.5372  0.4537
  466TMC3    C7 6996   4.484   1.578  16.784 -0.1756  0.4419 -0.4325
  466TMC3    C8 6997   4.162   1.471  16.511 -0.3429 -0.0871 -0.0291
  466TMC3    O1 6998   4.513   1.662  16.704  0.8415  0.2876 -0.0529
  466TMC3    O2 6999   4.168   1.501  16.393  0.0756  0.3011  0.0388
  467TMC3    C1 7000   0.215   4.117  13.629 -1.0600 -0.0985  0.7117
  467TMC3    C2 7001   0.230   4.257  13.614  0.1992  0.1290  0.1717
  467TMC3    C3 7002   0.132   4.323  13.545 -0.1248 -0.3133  0.1194
  467TMC3    C4 7003   0.110   4.047  13.574  0.3145  0.6234  0.2683
  467TMC3    C5 7004   0.021   4.121  13.511 -0.4470 -0.7460 -0.2761
  467TMC3    C6 7005   0.028   4.257  13.490  0.2871  0.2975 -0.6463
  467TMC3     C 7006   0.342   4.056  13.643 -0.1163  0.5362  0.2765
  467TMC3     O 7007   0.406   4.110  13.732  0.3081  0.1283 -0.4966
  467TMC3     H 7008   0.321   4.311  13.640  0.5280 -1.3104  1.9709
  467TMC3    H1 7009   0.078   3.947  13.604 -1.0424  0.9643 -0.0345
  467TMC3    H2 7010   4.679   4.312  13.447  1.4527  1.7783 -1.0180
  467TMC3    C7 7011   4.626   4.066  13.482 -1.0355  0.2465  0.1185
  467TMC3    C8 7012   0.183   4.448  13.488 -0.5588 -0.1055 -0.3824
  467TMC3    O1 7013   4.624   3.955  13.435 -0.2105  1.1209  0.1723
  467TMC3    O2 7014   0.257   4.519  13.556  0.0571 -0.2874  0.2219
  468MPD2     C 7015   3.462   3.026  10.954  0.0295 -0.7582  0.2272
  468MPD2    C1 7016   3.598   3.010  10.970  0.5890  0.5440  0.5895
  468MPD2    C2 7017   3.652   2.885  10.967  0.2730 -0.2075  0.5991
  468MPD2    C3 7018   3.566   2.773  10.965 -0.5331  0.1019  0.2819
  468MPD2    C4 7019   3.426   2.794  10.964  0.1955  0.6097 -0.8616
  468MPD2    C5 7020   3.381   2.922  10.957  0.2304  0.4557  0.3187
  468MPD2     H 7021   3.759   2.869  10.975  0.2822 -0.6400 -0.3543
  468MPD2    H1 7022   3.356   2.713  10.978  0.7522  0.5905  1.9754
  468MPD2    H2 7023   3.419   3.125  10.945 -0.7901 -1.0339  1.1814
  468MPD2    H3 7024   3.274   2.939  10.964  0.5278  3.0945 -1.4669
  468MPD2     N 7025   3.613   2.639  10.971  0.3935 -0.3234  0.0646
  468MPD2    H5 7026   3.539   2.569  10.967  0.2530 -0.1013 -1.4218
  468MPD2    N1 7027   3.688   3.120  10.989 -0.5140  0.2933 -0.1068
  468MPD2    H7 7028   3.786   3.096  10.988 -0.0030  2.3924  0.0515
  469TMC3    C1 7029   3.778   3.321  11.003 -0.3973 -0.3743 -0.0515
  469TMC3    C2 7030   3.894   3.263  10.956  0.4086  0.1899  0.1039
  469TMC3    C3 7031   4.010   3.332  10.984  0.2564  0.3812  0.0507
  469TMC3    C4 7032   3.775   3.441  11.071  0.1905  0.1651 -0.2097
  469TMC3    C5 7033   3.899   3.492  11.097 -0.2262 -0.7282  0.0211
  469TMC3    C6 7034   4.019   3.445  11.059  0.0995  0.7861 -0.0252
  469TMC3     C 7035   3.655   3.252  10.992 -0.1368  0.3905  0.2205
  469TMC3     O 7036   3.550   3.312  10.993 -0.3885  0.3112  0.8447
  469TMC3     H 7037   3.910   3.164  10.915 -3.8781 -1.2758  1.9874
  469TMC3    H1 7038   3.683   3.494  11.092  0.8533  1.3464 -0.2721
  469TMC3    H2 7039   4.115   3.487  11.086  0.7593 -0.9332  0.3297
  469TMC3    C7 7040   3.904   3.629  11.139  0.0098 -0.1565 -0.1106
  469TMC3    C8 7041   4.126   3.255  10.985 -0.5873 -0.6556 -0.4769
  469TMC3    O1 7042   4.000   3.697  11.094  0.2210 -0.0856 -0.4738
  469TMC3    O2 7043   4.152   3.195  10.884  0.0146 -0.3316 -0.3338
  470TMC3    C1 7044   1.837   3.972   1.207  0.6073  0.2087 -0.3030
  470TMC3    C2 7045   1.960   4.016   1.261 -0.2544  0.2499 -0.2553
  470TMC3    C3 7046   1.956   4.120   1.354  0.0167  0.1325  0.0255
  470TMC3    C4 7047   1.725   4.042   1.238 -0.3054 -0.4053  0.1236
  470TMC3    C5 7048   1.729   4.142   1.326 -0.3981 -0.4327 -0.1934
  470TMC3    C6 7049   1.841   4.186   1.380 -0.1387 -0.6503 -0.1593
  470TMC3     C 7050   1.840   3.892   1.089  0.2590  0.2070 -0.2106
  470TMC3     O 7051   1.949   3.856   1.051  0.1059  0.1040  0.6050
  470TMC3     H 7052   2.045   3.959   1.226  0.8577  1.6021  0.2317
  470TMC3    H1 7053   1.635   4.034   1.178 -0.6354 -3.4532  1.0543
  470TMC3    H2 7054   1.842   4.272   1.447 -2.6643 -0.9108  0.1923
  470TMC3    C7 7055   1.623   4.241   1.325  0.7461  0.7066 -0.3277
  470TMC3    C8 7056   2.078   4.179   1.389  0.3419 -0.0490  0.5956
  470TMC3    O1 7057   1.552   4.231   1.227  0.2993  0.4316  0.1201
  470TMC3    O2 7058   2.071   4.270   1.469 -0.1341 -0.3041 -0.2951
  471MPD2     C 7059   2.085   0.503  16.889 -0.0771 -0.2923 -0.0676
  471MPD2    C1 7060   2.117   0.377  16.854  0.2446  0.6183 -0.1690
  471MPD2    C2 7061   2.232   0.330  16.913 -0.8757 -0.1455 -0.8592
  471MPD2    C3 7062   2.314   0.414  16.989  0.1886  0.3694 -0.2828
  471MPD2    C4 7063   2.275   0.548  17.015 -0.2500 -0.5087 -0.2029
  471MPD2    C5 7064   2.159   0.587  16.961 -0.1467  0.6143 -0.3040
  471MPD2     H 7065   2.255   0.230  16.878  1.4291 -0.5000  1.6350
  471MPD2    H1 7066   2.337   0.614  17.074 -3.3743  0.4225  2.0428
  471MPD2    H2 7067   1.995   0.542  16.842 -0.3689 -1.0872 -0.1664
  471MPD2    H3 7068   2.115   0.685  16.975  0.5763  0.7756  0.8622
  471MPD2     N 7069   2.439   0.370  17.045 -0.6549  0.2384 -1.0776
  471MPD2    H5 7070   2.478   0.426  17.121  0.0583  1.4373 -2.3157
  471MPD2    N1 7071   2.046   0.290  16.771 -0.3499  0.1020 -0.6097
  471MPD2    H7 7072   2.075   0.194  16.760 -0.5034  0.1586 -1.5145
  472TMC3    C1 7073   1.869   0.198  16.664 -0.7323  0.3303  0.3992
  472TMC3    C2 7074   1.755   0.215  16.596 -0.2749 -0.5341  0.5315
  472TMC3    C3 7075   1.685   0.104  16.558  0.3379  0.0143 -0.3933
  472TMC3    C4 7076   1.922   0.071  16.689 -0.0974 -0.1466 -0.5762
  472TMC3    C5 7077   1.863   4.699  16.628 -0.1498  0.0002  0.4552
  472TMC3    C6 7078   1.736   4.708  16.573 -0.6613 -0.2945 -0.4011
  472TMC3     C 7079   1.920   0.320  16.722 -0.1399  0.0306 -0.2849
  472TMC3     O 7080   1.848   0.418  16.741  0.3815  0.7807 -0.0536
  472TMC3     H 7081   1.716   0.312  16.569 -0.4316 -0.7312  0.0414
  472TMC3    H1 7082   2.009   0.051  16.751 -0.6403 -0.8320 -0.0481
  472TMC3    H2 7083   1.679   4.624  16.534 -1.1221  0.6589 -1.7678
  472TMC3    C7 7084   1.941   4.577  16.620 -0.5351 -0.1639 -0.5595
  472TMC3    C8 7085   1.547   0.113  16.512  0.2339 -0.5846 -0.4985
  472TMC3    O1 7086   2.025   4.567  16.709 -0.2206 -0.0001  0.0276
  472TMC3    O2 7087   1.523   0.191  16.428  0.4227  0.3131  0.1885
  473MPD2     C 7088   1.661   1.914  14.181  0.3631  0.0922 -0.3035
  473MPD2    C1 7089   1.535   1.968  14.168 -0.5891  0.3151 -0.8241
  473MPD2    C2 7090   1.496   2.066  14.257  0.1116 -0.3114 -0.7183
  473MPD2    C3 7091   1.585   2.112  14.354 -0.0861  0.1484 -0.2057
  473MPD2    C4 7092   1.712   2.059  14.368 -0.1069  0.1111  0.2457
  473MPD2    C5 7093   1.742   1.964  14.281  0.1986 -0.6386  0.1067
  473MPD2     H 7094   1.396   2.107  14.247  0.5107  0.4132 -1.7256
  473MPD2    H1 7095   1.777   2.081  14.452 -0.7273  0.7494  0.5565
  473MPD2    H2 7096   1.693   1.837  14.112  0.9232  0.3820 -0.3645
  473MPD2    H3 7097   1.838   1.913  14.287 -0.2311 -1.5833 -1.2103
  473MPD2     N 7098   1.563   2.226  14.434 -0.5392  0.1442  0.2746
  473MPD2    H5 7099   1.644   2.235  14.495 -1.0146  1.3827  0.7207
  473MPD2    N1 7100   1.443   1.905  14.078  0.7408  0.7265 -0.2042
  473MPD2    H7 7101   1.351   1.948  14.072  0.3771  0.0169  0.3136
  474TMC3    C1 7102   1.449   2.405  14.538 -0.1225 -0.2675 -0.1163
  474TMC3    C2 7103   1.372   2.513  14.521 -0.2968 -0.0403 -0.1985
  474TMC3    C3 7104   1.317   2.565  14.637  0.7697 -0.0007 -0.1679
  474TMC3    C4 7105   1.485   2.354  14.661  0.4945  0.6265 -0.5392
  474TMC3    C5 7106   1.429   2.420  14.771  0.1496 -0.4616  0.6515
  474TMC3    C6 7107   1.333   2.518  14.765  0.0143  0.0098  0.1723
  474TMC3     C 7108   1.456   2.313  14.427  0.4706 -0.8924 -1.0575
  474TMC3     O 7109   1.368   2.322  14.341  0.4498 -0.3472 -0.0897
  474TMC3     H 7110   1.350   2.554  14.423  0.0169 -0.5910 -0.5011
  474TMC3    H1 7111   1.560   2.277  14.672 -0.6316 -0.7385 -2.4210
  474TMC3    H2 7112   1.287   2.563  14.853 -0.7980 -0.2343 -0.1315
  474TMC3    C7 7113   1.486   2.375  14.893  0.1521  0.4636  0.0598
  474TMC3    C8 7114   1.233   2.679  14.628 -0.0687 -0.1720  1.1077
  474TMC3    O1 7115   1.603   2.338  14.906 -0.0252 -0.1145 -0.3544
  474TMC3    O2 7116   1.135   2.687  14.697 -0.0293  0.2359  0.3289
  475MPD2     C 7117   0.038   0.479  11.205  0.5016  0.3403 -0.7276
  475MPD2    C1 7118   4.703   0.574  11.273  1.1051  0.7714  0.3428
  475MPD2    C2 7119   4.584   0.618  11.219  0.3780  0.7756  0.5621
  475MPD2    C3 7120   4.546   0.593  11.089 -0.5945  0.0988  0.4963
  475MPD2    C4 7121   4.626   0.508  11.016  0.3323 -0.0552 -0.0038
  475MPD2    C5 7122   0.000   0.448  11.074  0.2773  0.2794 -0.7837
  475MPD2     H 7123   4.518   0.688  11.269 -1.9518  0.4859 -2.1165
  475MPD2    H1 7124   4.596   0.476  10.917 -2.1712  0.9641  0.4253
  475MPD2    H2 7125   0.136   0.448  11.241 -0.0452  0.0533  0.4836
  475MPD2    H3 7126   0.079   0.389  11.029 -0.3623 -1.0544 -0.1470
  475MPD2     N 7127   4.436   0.665  11.045  0.4048 -0.3399  0.5584
  475MPD2    H5 7128   4.378   0.713  11.114  1.2325  0.4921  0.6725
  475MPD2    N1 7129   0.021   0.612  11.397 -0.5507  0.3002  0.5871
  475MPD2    H7 7130   0.116   0.578  11.408 -0.4420 -0.3515 -2.3327
  476TMC3    C1 7131   0.074   0.763  11.547  0.0014  0.0107 -0.4118
  476TMC3    C2 7132   0.174   0.802  11.460  0.5878 -0.5748  0.3778
  476TMC3    C3 7133   0.226   0.927  11.450  0.1774  0.3177 -0.2391
  476TMC3    C4 7134   0.020   0.864  11.629 -0.2538  0.1330 -0.6599
  476TMC3    C5 7135   0.055   0.993  11.602 -0.2887  0.4847 -0.2168
  476TMC3    C6 7136   0.157   1.027  11.513  0.6005  0.3949  0.1053
  476TMC3     C 7137   4.705   0.700  11.481 -0.1134 -0.0394  0.3066
  476TMC3     O 7138   4.594   0.753  11.480  0.2798  0.0802 -0.4159
  476TMC3     H 7139   0.241   0.729  11.416 -0.0557 -1.0132  0.1466
  476TMC3    H1 7140   4.672   0.830  11.690 -0.8905  2.5829 -0.1737
  476TMC3    H2 7141   0.198   1.128  11.516  2.9585 -0.5906  1.1588
  476TMC3    C7 7142   4.722   1.081  11.695  0.6758 -0.2014  1.0551
  476TMC3    C8 7143   0.279   0.964  11.325  0.1974 -0.4528  0.1581
  476TMC3    O1 7144   4.663   1.030  11.791 -0.2018 -0.0681 -0.0197
  476TMC3    O2 7145   0.390   1.011  11.318  0.0843  0.5123 -0.0324
  477MPD2     C 7146   2.658   2.126  11.886 -0.0585  0.0940  1.0642
  477MPD2    C1 7147   2.587   2.017  11.841  0.0790 -0.2231 -0.0321
  477MPD2    C2 7148   2.610   1.899  11.901 -0.0908  0.1505  0.1708
  477MPD2    C3 7149   2.696   1.887  12.006 -0.0054  1.0771  0.7823
  477MPD2    C4 7150   2.760   1.995  12.059 -1.0833  0.0951  0.4803
  477MPD2    C5 7151   2.733   2.120  12.002  0.0022 -0.4108  0.1681
  477MPD2     H 7152   2.556   1.812  11.867  0.2046  0.7637 -1.8806
  477MPD2    H1 7153   2.826   1.985  12.145  0.2923 -0.0188 -0.5854
  477MPD2    H2 7154   2.633   2.221  11.841 -1.1795 -0.9579 -0.5151
  477MPD2    H3 7155   2.773   2.209  12.049  0.0724 -0.0887 -0.5009
  477MPD2     N 7156   2.713   1.756  12.050 -0.3856 -0.3822 -0.0872
  477MPD2    H5 7157   2.680   1.682  11.989  0.7408 -1.5048  0.6595
  477MPD2    N1 7158   2.495   2.035  11.734  1.0213  0.1294 -0.2296
  477MPD2    H7 7159   2.500   2.113  11.670 -0.0908  0.2394 -0.1689
  478TMC3    C1 7160   2.285   2.016  11.631 -0.2864  0.3368  0.2612
  478TMC3    C2 7161   2.258   2.149  11.640  0.7610 -0.5628 -1.1262
  478TMC3    C3 7162   2.141   2.191  11.585  0.2373 -0.6860  0.2016
  478TMC3    C4 7163   2.191   1.932  11.578 -0.0552  0.2008  1.0849
  478TMC3    C5 7164   2.072   1.978  11.520  0.3815  0.1385 -0.2538
  478TMC3    C6 7165   2.048   2.110  11.519  0.0331  0.1367  0.1861
  478TMC3     C 7166   2.378   1.961  11.726  0.4683 -0.0570 -1.3142
  478TMC3     O 7167   2.328   1.882  11.806  0.0945 -0.0193  0.0449
  478TMC3     H 7168   2.326   2.217  11.690  1.6930 -2.6513  0.4717
  478TMC3    H1 7169   2.194   1.824  11.593 -2.3323  0.4618  3.3510
  478TMC3    H2 7170   1.956   2.153  11.482  1.3496  0.6552 -2.4934
  478TMC3    C7 7171   1.995   1.880  11.449 -0.1096  0.4006 -0.8757
  478TMC3    C8 7172   2.090   2.303  11.653 -0.3735  0.3584 -0.0882
  478TMC3    O1 7173   2.009   1.759  11.469 -0.2088 -0.3122  0.0742
  478TMC3    O2 7174   2.126   2.306  11.771 -0.4951  0.1430  0.2535
  479MPD2     C 7175   0.831   3.907  15.046  0.5941 -0.3108  0.1712
  479MPD2    C1 7176   0.857   3.796  15.127 -0.3652  0.5665 -1.3939
  479MPD2    C2 7177   0.963   3.793  15.216  0.1494 -0.0724 -0.4780
  479MPD2    C3 7178   1.059   3.895  15.211 -0.1060 -0.5165 -0.7251
  479MPD2    C4 7179   1.040   3.998  15.123  0.0661  0.1311 -0.2859
  479MPD2    C5 7180   0.924   4.010  15.049  0.3747 -0.5859  0.3972
  479MPD2     H 7181   0.987   3.710  15.281 -1.2946 -0.3636 -0.3140
  479MPD2    H1 7182   1.106   4.082  15.105  1.0442 -0.2515  1.5751
  479MPD2    H2 7183   0.747   3.913  14.978 -0.6795  0.1380  1.7634
  479MPD2    H3 7184   0.904   4.090  14.978 -0.9480 -0.1837  1.2242
  479MPD2     N 7185   1.177   3.900  15.288 -0.2750 -0.2619 -0.0411
  479MPD2    H5 7186   1.240   3.977  15.271  1.0373 -1.2374  0.4333
  479MPD2    N1 7187   0.758   3.686  15.120 -0.0853 -0.1019  0.0208
  479MPD2    H7 7188   0.674   3.702  15.064  1.1299 -0.6980 -1.9801
  480TMC3    C1 7189   1.507   3.775  15.604  0.4054 -0.3668  0.5463
  480TMC3    C2 7190   1.595   3.854  15.536  1.2225  0.3772 -0.0957
  480TMC3    C3 7191   1.555   3.927  15.426  0.4140 -0.1788  0.0547
  480TMC3    C4 7192   1.385   3.758  15.546  0.0767  0.6959  0.5245
  480TMC3    C5 7193   1.338   3.832  15.436  0.6394  0.1114 -0.1244
  480TMC3    C6 7194   1.427   3.925  15.378  0.0415 -0.8350  0.5103
  480TMC3     C 7195   1.549   3.710  15.722  0.3308  0.4568 -0.1289
  480TMC3     O 7196   1.465   3.627  15.755 -0.3441  0.1308 -0.6591
  480TMC3     H 7197   1.699   3.847  15.566  0.6846 -0.0737  1.6696
  480TMC3    H1 7198   1.329   3.673  15.583 -0.0945  0.7049  0.2904
  480TMC3    H2 7199   1.405   3.996  15.299  1.0728 -2.2668 -1.0455
  480TMC3    C7 7200   1.211   3.799  15.377  0.5928  0.1031  0.2361
  480TMC3    C8 7201   1.657   4.011  15.362  0.0269  0.1135 -0.0576
  480TMC3    O1 7202   1.154   3.695  15.416  0.5168  0.4666  0.1245
  480TMC3    O2 7203   1.754   4.043  15.430 -0.0494  0.2258 -0.2294
  481MPD2     C 7204   3.099   3.137  14.349 -0.1091  0.2061  0.4372
  481MPD2    C1 7205   2.968   3.148  14.402 -0.6096 -0.2649  0.8527
  481MPD2    C2 7206   2.936   3.078  14.514 -0.1484 -0.0004 -0.4834
  481MPD2    C3 7207   3.029   2.998  14.578  0.7380 -0.6889 -0.6476
  481MPD2    C4 7208   3.157   2.978  14.529  0.2637 -0.7013  0.2663
  481MPD2    C5 7209   3.187   3.054  14.418 -0.4132 -0.1956  0.0186
  481MPD2     H 7210   2.834   3.082  14.551  0.7913 -1.7066  2.3248
  481MPD2    H1 7211   3.230   2.923  14.586  0.6116 -2.0606 -1.4843
  481MPD2    H2 7212   3.145   3.190  14.267 -1.7925  0.7932 -0.1324
  481MPD2    H3 7213   3.293   3.063  14.395 -0.4784 -2.8166 -1.3791
  481MPD2     N 7214   2.988   2.920  14.695  0.8228  0.0459 -0.0555
  481MPD2    H5 7215   3.052   2.851  14.731 -0.3995 -0.9073  0.2951
  481MPD2    N1 7216   2.872   3.229  14.337  0.2789 -0.3159  0.2012
  481MPD2    H7 7217   2.775   3.218  14.363  0.2834  2.0483  1.2691
  482TMC3    C1 7218   2.789   3.399  14.198 -0.5974 -0.6892  0.2474
  482TMC3    C2 7219   2.659   3.367  14.232  0.1850  0.0638 -0.1979
  482TMC3    C3 7220   2.557   3.424  14.167 -0.2896  0.8631 -0.5063
  482TMC3    C4 7221   2.813   3.513  14.123  0.1494  0.0046  0.0868
  482TMC3    C5 7222   2.712   3.577  14.065  0.5303 -0.2601  0.3137
  482TMC3    C6 7223   2.585   3.527  14.080  0.0316  0.7502  0.6190
  482TMC3     C 7224   2.903   3.320  14.241  0.3281  0.2670 -0.6217
  482TMC3     O 7225   3.014   3.364  14.212 -0.0375  0.0423  0.1514
  482TMC3     H 7226   2.627   3.286  14.297  2.5589 -1.0373 -0.4012
  482TMC3    H1 7227   2.915   3.536  14.095  1.0974 -1.6368  2.1666
  482TMC3    H2 7228   2.509   3.576  14.020  0.0563 -1.6594 -1.3985
  482TMC3    C7 7229   2.748   3.666  13.951 -0.3181  0.7983 -0.5709
  482TMC3    C8 7230   2.428   3.359  14.162 -0.0745 -1.2291 -0.2624
  482TMC3    O1 7231   2.858   3.714  13.963  0.0937 -0.3075  0.5141
  482TMC3    O2 7232   2.422   3.254  14.224  0.0626  0.7966  0.3621
  483TMC3    C1 7233   1.680   2.923   1.290 -0.2675  0.3377 -0.1129
  483TMC3    C2 7234   1.762   3.025   1.251 -0.1530 -0.6897 -0.1029
  483TMC3    C3 7235   1.899   3.006   1.266  0.0256  0.4148  0.4382
  483TMC3    C4 7236   1.728   2.815   1.365  0.5036  0.1596  0.2421
  483TMC3    C5 7237   1.862   2.806   1.391 -0.4824  0.0637  0.4452
  483TMC3    C6 7238   1.946   2.903   1.347 -0.4913 -0.3060 -0.1493
  483TMC3     C 7239   1.538   2.934   1.263 -0.1422 -0.3921  0.0045
  483TMC3     O 7240   1.502   3.034   1.208  0.1242 -0.4795  0.4108
  483TMC3     H 7241   1.723   3.105   1.189  0.2720 -1.5746 -1.5066
  483TMC3    H1 7242   1.660   2.741   1.406  0.7968 -1.4861 -2.2591
  483TMC3    H2 7243   2.052   2.881   1.354 -0.0560  1.3936 -1.5272
  483TMC3    C7 7244   1.930   2.676   1.410  0.9302  0.5275  0.5363
  483TMC3    C8 7245   1.981   3.058   1.157 -0.2235  0.5930 -0.0669
  483TMC3    O1 7246   2.048   2.689   1.444 -0.0432 -0.1290  0.3373
  483TMC3    O2 7247   1.921   3.080   1.050 -0.0062 -0.0284  0.3845
  484MPD2     C 7248   2.856   0.890  12.166  0.6393 -0.2047 -0.4765
  484MPD2    C1 7249   2.893   0.863  12.295  0.2684  0.4114  0.7520
  484MPD2    C2 7250   3.018   0.900  12.342 -0.3058 -0.5139 -0.1634
  484MPD2    C3 7251   3.109   0.957  12.264  0.1863 -0.3925  0.0671
  484MPD2    C4 7252   3.070   0.976  12.132 -0.3312  0.2425 -0.6284
  484MPD2    C5 7253   2.945   0.948  12.085 -0.8399  0.7387  0.4305
  484MPD2     H 7254   3.041   0.891  12.448  3.3325  1.3378 -0.7843
  484MPD2    H1 7255   3.139   1.016  12.059  0.4773  0.1771  0.0945
  484MPD2    H2 7256   2.756   0.862  12.134  0.1350  0.0168  0.9257
  484MPD2    H3 7257   2.906   0.974  11.987  0.6405 -0.0091 -0.3607
  484MPD2     N 7258   3.243   1.000  12.296 -0.7059 -1.1049 -0.1315
  484MPD2    H5 7259   3.305   1.015  12.218 -1.1339 -0.6228 -0.3743
  484MPD2    N1 7260   2.799   0.792  12.371 -0.3267 -0.1570  0.3697
  484MPD2    H7 7261   2.715   0.771  12.318 -2.1543  2.7981  2.0696
  485TMC3    C1 7262   3.439   0.999  12.426  0.4731  0.1929  0.5320
  485TMC3    C2 7263   3.501   0.923  12.523  0.0359  0.0143 -0.2217
  485TMC3    C3 7264   3.603   0.987  12.593  0.8642  0.8590 -0.0890
  485TMC3    C4 7265   3.479   1.113  12.380  0.2182 -0.6795  0.4305
  485TMC3    C5 7266   3.579   1.175  12.453 -0.5954 -0.0727  0.4679
  485TMC3    C6 7267   3.643   1.112  12.559 -0.1980  0.1120 -0.4270
  485TMC3     C 7268   3.299   0.963  12.410 -0.5643  0.0864 -0.3413
  485TMC3     O 7269   3.244   0.914  12.505  0.7165  0.9732  0.6906
  485TMC3     H 7270   3.470   0.824  12.554 -0.2075 -0.2899 -1.4372
  485TMC3    H1 7271   3.431   1.156  12.292 -2.0151 -2.1575  0.9326
  485TMC3    H2 7272   3.717   1.168  12.614 -1.5260  1.1768  0.2911
  485TMC3    C7 7273   3.671   1.234  12.371  0.3488  0.9113  0.6139
  485TMC3    C8 7274   3.718   0.909  12.626 -0.2392 -0.9178 -0.4011
  485TMC3    O1 7275   3.632   1.303  12.277  0.1163  0.2936 -0.1218
  485TMC3    O2 7276   3.828   0.967  12.607 -0.1378  0.2249  1.1972
  486MPD2     C 7277   0.690   3.933  13.066  0.1990  0.5861  0.4753
  486MPD2    C1 7278   0.724   3.896  12.937  0.1724  0.2094  0.2780
  486MPD2    C2 7279   0.657   3.965  12.828 -0.0194  0.1310 -0.1024
  486MPD2    C3 7280   0.571   4.068  12.857 -0.0539  0.0206 -0.8570
  486MPD2    C4 7281   0.537   4.094  12.991  0.0518 -0.4619  0.0223
  486MPD2    C5 7282   0.604   4.035  13.091 -0.7837  0.0476  0.1116
  486MPD2     H 7283   0.681   3.947  12.724 -0.0549  0.3087 -0.1409
  486MPD2    H1 7284   0.470   4.169  13.032 -0.8992 -1.8372  0.9800
  486MPD2    H2 7285   0.745   3.896  13.152 -1.5360  0.3854  1.5191
  486MPD2    H3 7286   0.587   4.057  13.196  1.9377 -1.6818  0.9191
  486MPD2     N 7287   0.515   4.139  12.754 -0.2162  0.1129 -0.3348
  486MPD2    H5 7288   0.562   4.124  12.665 -1.1332  1.7272 -1.0834
  486MPD2    N1 7289   0.816   3.793  12.919 -0.4059  0.1145 -0.2742
  486MPD2    H7 7290   0.864   3.767  13.004 -3.3207 -2.5696  0.5556
  487TMC3    C1 7291   0.916   3.601  12.827 -0.4190  0.6856 -0.2026
  487TMC3    C2 7292   0.860   3.485  12.784  0.2314 -0.0357 -0.5561
  487TMC3    C3 7293   0.886   3.365  12.848 -0.1682  0.1204 -0.5815
  487TMC3    C4 7294   0.991   3.607  12.945  0.2497  0.6898 -0.4040
  487TMC3    C5 7295   1.013   3.481  13.004 -0.1817 -0.1793  0.1233
  487TMC3    C6 7296   0.979   3.359  12.949  0.0128  0.3976  0.5789
  487TMC3     C 7297   0.828   3.715  12.810 -0.2365 -0.3402 -0.2053
  487TMC3     O 7298   0.774   3.725  12.702  0.1650 -0.2282 -0.4365
  487TMC3     H 7299   0.783   3.488  12.709 -1.2460  1.4496  1.0387
  487TMC3    H1 7300   1.029   3.698  12.989 -1.9877  1.4177  0.0148
  487TMC3    H2 7301   0.994   3.269  13.008  0.7779 -0.1618 -0.4594
  487TMC3    C7 7302   0.967   3.505  13.136  0.1218  0.3438  0.1995
  487TMC3    C8 7303   0.758   3.299  12.889 -0.0134 -0.2949 -0.6910
  487TMC3    O1 7304   0.938   3.619  13.169  0.2556  0.3696  0.2197
  487TMC3    O2 7305   0.649   3.355  12.879  0.3695  0.0246 -0.0590
  488MPD2     C 7306   0.773   1.267  16.401  0.3860  0.2333 -0.9975
  488MPD2    C1 7307   0.897   1.307  16.446  0.0879  0.4468 -0.4159
  488MPD2    C2 7308   0.948   1.250  16.566  0.0743  0.6264 -0.3612
  488MPD2    C3 7309   0.873   1.155  16.638  0.9655 -0.5811  0.1869
  488MPD2    C4 7310   0.748   1.121  16.588  0.2568 -0.0527  0.2159
  488MPD2    C5 7311   0.697   1.171  16.469 -0.5703  0.3680 -0.3315
  488MPD2     H 7312   1.037   1.291  16.613  0.2539  0.9691 -0.9865
  488MPD2    H1 7313   0.690   1.050  16.646  1.3996 -0.3446  1.0004
  488MPD2    H2 7314   0.728   1.314  16.314  0.5678  0.3601 -1.0229
  488MPD2    H3 7315   0.594   1.152  16.442 -0.3707 -1.3826  0.1496
  488MPD2     N 7316   0.926   1.108  16.760 -0.1427 -0.0740 -0.2687
  488MPD2    H5 7317   1.023   1.132  16.780  0.2757 -2.3543  0.4231
  488MPD2    N1 7318   0.983   1.393  16.367 -0.4895 -0.4210 -0.5285
  488MPD2    H7 7319   1.073   1.410  16.410 -0.5707  3.6821 -2.0529
  489TMC3    C1 7320   0.937   1.001  16.967 -0.6273 -0.4786 -0.8045
  489TMC3    C2 7321   1.059   1.051  16.992 -1.1225  0.2243  0.3610
  489TMC3    C3 7322   1.158   0.978  17.057  0.0911 -0.2421 -0.7961
  489TMC3    C4 7323   0.911   0.870  17.016 -0.5446 -0.6099  0.6965
  489TMC3    C5 7324   1.004   0.808  17.100 -0.1513  0.1576 -0.5826
  489TMC3    C6 7325   1.130   0.860  17.120  0.1925  0.3500  0.3603
  489TMC3     C 7326   0.853   1.041  16.852  0.2462  0.0343 -0.2166
  489TMC3     O 7327   0.737   1.014  16.868 -0.3221 -0.2550 -0.4117
  489TMC3     H 7328   1.078   1.147  16.946 -1.8477 -0.2746 -0.9903
  489TMC3    H1 7329   0.808   0.837  17.007 -1.2998  1.6325  1.3128
  489TMC3    H2 7330   1.196   0.798  17.180 -0.7880 -1.0178  0.0288
  489TMC3    C7 7331   0.976   0.670  17.159 -0.0703  0.1155 -0.3881
  489TMC3    C8 7332   1.287   1.032  17.057  0.5689 -0.1149  0.0092
  489TMC3    O1 7333   1.050   0.645  17.254  0.2751  0.4817  0.8204
  489TMC3    O2 7334   1.295   1.145  17.008 -0.4340  0.1062  0.0346
  490MPD2     C 7335   1.989   0.820  17.353 -0.0183  0.2668 -0.1226
  490MPD2    C1 7336   2.086   0.748  17.292 -0.6703  1.0764 -0.4881
  490MPD2    C2 7337   2.217   0.781  17.296  0.0098 -0.0531 -0.4284
  490MPD2    C3 7338   2.245   0.900  17.350  0.7894  0.2228  0.0009
  490MPD2    C4 7339   2.157   0.967  17.419  0.7679 -0.2273 -0.0465
  490MPD2    C5 7340   2.025   0.927  17.423  0.6725  0.4931 -0.1857
  490MPD2     H 7341   2.294   0.720  17.250 -0.6825  0.1180 -1.8159
  490MPD2    H1 7342   2.195   1.060  17.462 -0.4651  0.5972 -0.7367
  490MPD2    H2 7343   1.885   0.789  17.348 -0.0187  0.2909 -0.2639
  490MPD2    H3 7344   1.945   0.986  17.465  0.7709  0.4925  0.0061
  490MPD2     N 7345   2.371   0.961  17.336 -0.1421 -0.5596  0.1720
  490MPD2    H5 7346   2.395   1.050  17.379 -0.9015 -0.3918  0.2401
  490MPD2    N1 7347   2.050   0.620  17.249  0.0879 -0.9289  0.4680
  490MPD2    H7 7348   2.118   0.552  17.216  2.2354  2.2164 -1.4821
  491TMC3    C1 7349   1.935   0.429  17.205 -1.0106  0.6625 -0.6710
  491TMC3    C2 7350   2.002   0.348  17.295  0.2702  0.1417 -0.7528
  491TMC3    C3 7351   1.972   0.215  17.307 -0.1728 -0.4303  0.0149
  491TMC3    C4 7352   1.854   0.367  17.113 -0.0155  0.4861  0.0269
  491TMC3    C5 7353   1.819   0.241  17.132 -0.0960 -0.1089 -0.2287
  491TMC3    C6 7354   1.871   0.162  17.230 -0.2224 -0.3911 -0.2823
  491TMC3     C 7355   1.928   0.569  17.225 -0.0629  0.0203  0.2857
  491TMC3     O 7356   1.827   0.625  17.197  0.2610 -1.3064  0.1480
  491TMC3     H 7357   2.055   0.400  17.373 -0.4993 -0.3426  0.0884
  491TMC3    H1 7358   1.809   0.419  17.029 -0.7845  1.2555  0.9247
  491TMC3    H2 7359   1.840   0.059  17.241 -1.1970  0.0454  1.0537
  491TMC3    C7 7360   1.702   0.181  17.058 -0.1136 -0.4373 -0.4119
  491TMC3    C8 7361   1.959   0.177  17.450  0.1251  0.2421 -0.3844
  491TMC3    O1 7362   1.663   0.075  17.099  0.6412  0.0040  0.0521
  491TMC3    O2 7363   1.847   0.156  17.493 -0.3266 -0.1032 -0.5507
  492MPD2     C 7364   1.611   0.499  11.986  0.1491 -0.5894  0.1903
  492MPD2    C1 7365   1.652   0.420  11.871 -1.1629  0.1194  0.7136
  492MPD2    C2 7366   1.676   0.284  11.885  0.0559  0.1389 -0.0634
  492MPD2    C3 7367   1.642   0.220  12.004 -0.1385  0.3862 -0.0682
  492MPD2    C4 7368   1.590   0.300  12.110 -0.2150 -0.0051  0.2182
  492MPD2    C5 7369   1.577   0.436  12.097 -0.3731  0.1807 -0.0097
  492MPD2     H 7370   1.723   0.240  11.797 -0.6704  1.1435 -0.9552
  492MPD2    H1 7371   1.538   0.254  12.193 -1.5786  1.5803  0.2512
  492MPD2    H2 7372   1.605   0.607  11.988  1.3496 -0.5143  0.0620
  492MPD2    H3 7373   1.530   0.498  12.173 -0.2960 -1.1527  1.1283
  492MPD2     N 7374   1.640   0.079  12.027  0.0530 -0.1320  0.1703
  492MPD2    H5 7375   1.629   0.055  12.125 -1.1612 -1.8800 -0.4047
  492MPD2    N1 7376   1.669   0.496  11.754  0.3401 -0.2633  1.3014
  492MPD2    H7 7377   1.642   0.594  11.758 -1.0577 -0.4885 -2.5945
  493TMC3    C1 7378   1.708   0.552  11.529  0.3634  0.0388 -0.7257
  493TMC3    C2 7379   1.757   0.677  11.567 -0.2491  0.1465  0.3545
  493TMC3    C3 7380   1.760   0.770  11.468  0.3215  0.4721  0.2814
  493TMC3    C4 7381   1.678   0.526  11.400  0.5908 -0.2725 -0.6652
  493TMC3    C5 7382   1.679   0.626  11.309 -0.2549 -0.7295  0.0664
  493TMC3    C6 7383   1.722   0.754  11.337  0.6221 -0.1196  0.0605
  493TMC3     C 7384   1.696   0.449  11.627 -0.1469 -0.1102  0.4976
  493TMC3     O 7385   1.679   0.334  11.590  0.3081  0.8403 -0.0777
  493TMC3     H 7386   1.790   0.704  11.666 -0.4414  1.5468  0.0373
  493TMC3    H1 7387   1.659   0.423  11.372  0.6836  0.0409 -1.8863
  493TMC3    H2 7388   1.703   0.831  11.263  0.1348  0.1393  0.4590
  493TMC3    C7 7389   1.621   0.600  11.179 -1.1420  0.2374 -0.2390
  493TMC3    C8 7390   1.775   0.906  11.520  1.3801  0.1073  0.4727
  493TMC3    O1 7391   1.524   0.527  11.181  0.4598 -0.2604 -0.3835
  493TMC3    O2 7392   1.726   0.939  11.628 -0.8231  0.1695 -0.4879
  494TMC3    C1 7393   2.726   2.478   0.807 -0.2286  0.9662 -0.3025
  494TMC3    C2 7394   2.812   2.369   0.833  0.7101 -0.3260 -0.0923
  494TMC3    C3 7395   2.841   2.287   0.719 -0.1294  0.9538  0.5999
  494TMC3    C4 7396   2.681   2.504   0.679 -0.6295  0.2102  0.1460
  494TMC3    C5 7397   2.717   2.423   0.574 -0.2354 -0.2022  0.0902
  494TMC3    C6 7398   2.808   2.318   0.589  0.2347  0.2940  0.2217
  494TMC3     C 7399   2.657   2.518   0.924 -0.3129 -0.5238 -0.2744
  494TMC3     O 7400   2.715   2.519   1.034 -0.1527  0.0061 -0.0760
  494TMC3     H 7401   2.848   2.343   0.931  1.1715 -0.9255 -0.4186
  494TMC3    H1 7402   2.621   2.594   0.670  0.7096  0.8849 -1.9286
  494TMC3    H2 7403   2.825   2.255   0.503 -1.4205  0.1929 -0.0401
  494TMC3    C7 7404   2.715   2.481   0.442  0.0947  0.0647  0.1037
  494TMC3    C8 7405   2.956   2.191   0.730 -0.5177 -0.2823 -0.0539
  494TMC3    O1 7406   2.789   2.429   0.358 -0.6368 -0.0772 -0.1139
  494TMC3    O2 7407   2.997   2.135   0.628  0.0454  0.4161 -0.3135
  495TMC3    C1 7408   1.296   4.059  14.527 -0.3395 -0.2359 -0.8432
  495TMC3    C2 7409   1.234   4.179  14.491  0.4311 -0.1059  0.7957
  495TMC3    C3 7410   1.313   4.289  14.516  0.0501 -0.2374 -0.2233
  495TMC3    C4 7411   1.426   4.044  14.565 -0.5549  0.2163  0.3645
  495TMC3    C5 7412   1.494   4.157  14.602  0.7278  0.4659 -0.5478
  495TMC3    C6 7413   1.433   4.280  14.582  0.3331  0.0087  0.4901
  495TMC3     C 7414   1.207   3.959  14.566  1.1184 -0.0341  0.1120
  495TMC3     O 7415   1.094   3.958  14.524 -0.4925 -0.3165  0.1228
  495TMC3     H 7416   1.128   4.181  14.470  0.1394 -0.9945  2.1650
  495TMC3    H1 7417   1.481   3.951  14.562 -0.0039  0.4908  2.1023
  495TMC3    H2 7418   1.473   4.374  14.617 -0.7817  0.4644  0.5373
  495TMC3    C7 7419   1.543   4.134  14.735 -0.3500 -0.2728 -0.0472
  495TMC3    C8 7420   1.236   4.403  14.557 -0.4019 -0.0383 -0.0474
  495TMC3    O1 7421   1.507   4.030  14.789  0.6720 -0.3363 -0.2404
  495TMC3    O2 7422   1.265   4.454  14.663  0.1838 -0.4118 -0.1199
  496MPD2     C 7423   3.064   4.243  14.997  0.2033  1.2312  0.2479
  496MPD2    C1 7424   3.152   4.190  15.086 -0.4809 -0.5292  0.1348
  496MPD2    C2 7425   3.102   4.129  15.202 -0.4426 -0.2870 -0.5760
  496MPD2    C3 7426   2.966   4.114  15.222 -0.5377 -0.3130  0.4825
  496MPD2    C4 7427   2.877   4.181  15.133  0.2447 -0.4762 -0.0366
  496MPD2    C5 7428   2.927   4.222  15.018  0.2198 -0.8534 -0.8160
  496MPD2     H 7429   3.175   4.086  15.270  0.2785  2.9668  0.7250
  496MPD2    H1 7430   2.771   4.173  15.155 -0.1014 -0.0772 -1.5656
  496MPD2    H2 7431   3.087   4.304  14.910 -1.6507  1.5552 -0.0012
  496MPD2    H3 7432   2.863   4.269  14.944  0.2584 -3.1320 -2.2910
  496MPD2     N 7433   2.920   4.054  15.337  0.1248 -0.0182 -0.2365
  496MPD2    H5 7434   2.819   4.044  15.331  0.0682 -0.0230  0.8224
  496MPD2    N1 7435   3.297   4.212  15.080  0.8437  0.2338  0.2960
  496MPD2    H7 7436   3.354   4.163  15.149  2.6791 -0.0429 -1.4444
  497TMC3    C1 7437   2.916   3.923  15.533  0.6486  0.4036 -0.1782
  497TMC3    C2 7438   2.806   3.851  15.475  0.5286 -0.6635 -0.1593
  497TMC3    C3 7439   2.791   3.718  15.514 -0.5861 -0.6959  0.7226
  497TMC3    C4 7440   2.988   3.863  15.637 -0.1300  0.2405 -0.9563
  497TMC3    C5 7441   2.954   3.745  15.682  0.0949  0.5311 -0.4709
  497TMC3    C6 7442   2.869   3.664  15.614 -0.0856  0.3511  0.0704
  497TMC3     C 7443   2.994   4.011  15.449 -0.1263 -0.5646 -0.3605
  497TMC3     O 7444   3.110   4.043  15.476 -0.4355 -0.3784 -0.1716
  497TMC3     H 7445   2.750   3.886  15.389 -1.0816  0.7963  1.4908
  497TMC3    H1 7446   3.069   3.925  15.674  0.1567 -1.8068  1.8415
  497TMC3    H2 7447   2.856   3.565  15.657  1.5348  0.9335  1.8832
  497TMC3    C7 7448   2.982   3.711  15.822 -0.0281 -0.1637 -0.2292
  497TMC3    C8 7449   2.745   3.627  15.411 -0.2101  0.5199  0.0695
  497TMC3    O1 7450   2.939   3.603  15.852  0.0960 -0.0465 -0.1681
  497TMC3    O2 7451   2.690   3.682  15.316  0.3960 -0.8325 -0.1074
  498MPD2     C 7452   3.898   1.359  10.022  0.0676  0.4673  0.5360
  498MPD2    C1 7453   4.009   1.310  10.094 -0.6835 -0.1698 -0.0980
  498MPD2    C2 7454   3.973   1.230  10.201  0.4465  0.2419 -0.1820
  498MPD2    C3 7455   3.845   1.191  10.235  0.5563  0.5714  0.0565
  498MPD2    C4 7456   3.743   1.233  10.150  0.3343  0.6179  0.6431
  498MPD2    C5 7457   3.769   1.319  10.049  0.2539  0.3698  0.0619
  498MPD2     H 7458   4.053   1.186  10.259  2.2360  1.6733 -1.5895
  498MPD2    H1 7459   3.636   1.216  10.156  0.3915  0.5864  1.4865
  498MPD2    H2 7460   3.910   1.430   9.941 -0.1665 -1.0392 -0.7994
  498MPD2    H3 7461   3.683   1.377  10.019 -1.1687  0.0466  3.4856
  498MPD2     N 7462   3.829   1.105  10.347 -0.5358  0.3452  0.1891
  498MPD2    H5 7463   3.914   1.093  10.402 -0.9352 -0.1597  0.7014
  498MPD2    N1 7464   4.144   1.328  10.057 -0.0849  0.0920 -0.2770
  498MPD2    H7 7465   4.216   1.274  10.103 -0.2301 -0.8299 -1.1039
  499TMC3    C1 7466   4.338   1.454   9.958 -0.3111  0.0145  0.4186
  499TMC3    C2 7467   4.424   1.383  10.034  0.2425  0.6158 -0.4169
  499TMC3    C3 7468   4.556   1.419  10.031 -0.4720  0.5028  0.2064
  499TMC3    C4 7469   4.385   1.534   9.852 -0.5166 -0.0137 -0.1788
  499TMC3    C5 7470   4.519   1.571   9.862 -0.3996  0.9045  0.5137
  499TMC3    C6 7471   4.600   1.521   9.953  0.0303  0.0478  0.0709
  499TMC3     C 7472   4.186   1.426   9.966  0.2241 -0.1239 -0.4135
  499TMC3     O 7473   4.122   1.502   9.903  0.3287 -0.5648 -0.0007
  499TMC3     H 7474   4.388   1.329  10.120 -1.6344  0.9118 -1.0022
  499TMC3    H1 7475   4.317   1.590   9.789 -0.3686 -1.6554 -1.8247
  499TMC3    H2 7476   4.702   1.558   9.960 -0.2339  1.0372 -1.2200
  499TMC3    C7 7477   4.578   1.678   9.781  1.1304  0.0402  0.4466
  499TMC3    C8 7478   4.660   1.360  10.117 -0.2616  0.0267 -0.5618
  499TMC3    O1 7479   4.670   1.738   9.829  0.1046 -0.3466 -0.2744
  499TMC3    O2 7480   0.006   1.427  10.170 -0.2989 -0.6958 -0.0983
  500MPD2     C 7481   0.357   1.283  11.124 -0.7358  0.0893  0.3794
  500MPD2    C1 7482   0.430   1.371  11.049 -0.3849  0.2673  0.0912
  500MPD2    C2 7483   0.367   1.416  10.940  0.6715 -0.6816  0.3270
  500MPD2    C3 7484   0.238   1.379  10.898  0.4198 -0.0148  0.2555
  500MPD2    C4 7485   0.169   1.283  10.972 -0.1600 -0.1893  0.3629
  500MPD2    C5 7486   0.230   1.238  11.086 -0.1002  0.0598  0.0131
  500MPD2     H 7487   0.423   1.488  10.882 -3.6242  2.0185 -0.5011
  500MPD2    H1 7488   0.065   1.257  10.954 -0.2762  0.2332  0.4088
  500MPD2    H2 7489   0.396   1.241  11.216 -0.9650  0.6457  0.7303
  500MPD2    H3 7490   0.179   1.163  11.145 -1.1007  0.4904 -0.3032
  500MPD2     N 7491   0.181   1.430  10.778  0.0756  0.2000  0.1118
  500MPD2    H5 7492   0.081   1.422  10.768  0.2788  0.1052 -1.9197
  500MPD2    N1 7493   0.563   1.414  11.081 -0.7067 -0.3296 -0.4565
  500MPD2    H7 7494   0.592   1.487  11.016  1.4111 -0.3549  0.4628
  501TMC3    C1 7495   0.762   1.452  11.199 -0.2055 -0.3729  0.3240
  501TMC3    C2 7496   0.819   1.530  11.105  0.0393 -0.0931 -0.2258
  501TMC3    C3 7497   0.914   1.620  11.138  0.5858 -0.1255 -0.6935
  501TMC3    C4 7498   0.810   1.455  11.333 -0.0358  0.1261 -0.6541
  501TMC3    C5 7499   0.894   1.560  11.364 -0.1081  0.2438 -0.0323
  501TMC3    C6 7500   0.948   1.645  11.269  0.4094  0.4505 -0.2485
  501TMC3     C 7501   0.641   1.376  11.184 -0.0075  0.5241  0.6295
  501TMC3     O 7502   0.617   1.298  11.275 -0.1972 -0.1947 -0.3350
  501TMC3     H 7503   0.805   1.502  11.001  3.0939 -0.8939 -0.4151
  501TMC3    H1 7504   0.764   1.396  11.411  0.5881 -1.3810 -1.4211
  501TMC3    H2 7505   1.020   1.722  11.293  0.6411  0.8131 -2.0528
  501TMC3    C7 7506   0.988   1.515  11.465 -0.2377  0.0649  0.9373
  501TMC3    C8 7507   0.956   1.719  11.043 -0.2831 -0.6191 -0.3285
  501TMC3    O1 7508   0.977   1.397  11.496 -0.0557 -0.4498  0.1048
  501TMC3    O2 7509   1.026   1.809  11.091  0.5075  0.0629  0.5026
  502TMC3    C1 7510   0.662   4.602  15.047 -0.2565  0.5164 -0.1269
  502TMC3    C2 7511   0.680   4.718  14.971  0.2980  0.7732 -0.5685
  502TMC3    C3 7512   0.579   0.074  14.953 -0.2413 -0.1416  0.3118
  502TMC3    C4 7513   0.535   4.584  15.109 -0.6785 -0.1676  0.3825
  502TMC3    C5 7514   0.443   4.689  15.096  0.2095 -0.1891  0.7380
  502TMC3    C6 7515   0.463   0.066  15.023  1.1007 -0.8341  0.5886
  502TMC3     C 7516   0.781   4.582  15.134 -0.6134  0.2789  0.3882
  502TMC3     O 7517   0.887   4.587  15.075  0.1062 -0.2195  0.1357
  502TMC3     H 7518   0.775   4.723  14.920  0.3184  0.8074 -0.5274
  502TMC3    H1 7519   0.527   4.500  15.178 -2.0266 -1.3600 -1.2152
  502TMC3    H2 7520   0.384   0.139  15.029 -0.9245 -2.8911 -0.7566
  502TMC3    C7 7521   0.363   4.710  15.218  0.2293  0.4669  0.5003
  502TMC3    C8 7522   0.629   0.206  14.914  0.0064 -0.2324 -0.6345
  502TMC3    O1 7523   0.415   4.665  15.315  0.3201  0.3779  0.3637
  502TMC3    O2 7524   0.614   0.295  14.998 -0.1751 -0.2299  0.2684
  503MPD2     C 7525   3.393   1.079  17.248 -0.4383 -0.5305 -0.0132
  503MPD2    C1 7526   3.446   1.126  17.364  0.4791  0.6113 -0.8640
  503MPD2    C2 7527   3.528   1.054  17.444 -0.6041 -0.5382  0.5939
  503MPD2    C3 7528   3.586   0.938  17.399 -1.2012 -0.1066 -0.2076
  503MPD2    C4 7529   3.549   0.892  17.270  0.7146  0.6945  0.2822
  503MPD2    C5 7530   3.457   0.966  17.198  0.1481 -0.0978 -0.3489
  503MPD2     H 7531   3.545   1.092  17.544  1.6132 -0.0949  0.0483
  503MPD2    H1 7532   3.581   0.804  17.216 -0.9854  0.1877  0.0867
  503MPD2    H2 7533   3.311   1.128  17.198  0.8093 -0.6700 -2.1990
  503MPD2    H3 7534   3.429   0.932  17.100 -1.9598  1.3513 -0.2529
  503MPD2     N 7535   3.675   0.867  17.482 -0.4794 -0.2060 -0.5484
  503MPD2    H5 7536   3.696   0.900  17.576 -0.4180  1.5490 -1.1945
  503MPD2    N1 7537   3.414   1.258  17.403 -0.0581  0.5768 -0.3531
  503MPD2    H7 7538   3.435   1.287  17.498  1.2754  1.7592 -1.0062
  504TMC3    C1 7539   3.874   0.747  17.507 -0.7698  0.2493 -0.1103
  504TMC3    C2 7540   3.841   0.696  17.628  0.6785 -0.3596 -0.2640
  504TMC3    C3 7541   3.945   0.629  17.688  0.4507  0.2779 -0.1909
  504TMC3    C4 7542   3.994   0.727  17.446 -0.5667 -0.9168 -0.1917
  504TMC3    C5 7543   4.090   0.658  17.510 -0.6240  0.0760  0.1235
  504TMC3    C6 7544   4.070   0.608  17.633 -0.1707  0.2970 -0.3874
  504TMC3     C 7545   3.760   0.771  17.424  0.4770 -0.4613  0.6407
  504TMC3     O 7546   3.781   0.745  17.309  0.1599  0.1166 -0.2709
  504TMC3     H 7547   3.740   0.706  17.666  0.9178 -3.5996  1.2177
  504TMC3    H1 7548   4.009   0.766  17.346 -2.5113  0.9436  0.2294
  504TMC3    H2 7549   4.147   0.551  17.684 -0.1595 -0.3232 -1.0963
  504TMC3    C7 7550   4.219   0.657  17.446  0.0109  0.5973  0.2680
  504TMC3    C8 7551   3.923   0.557   0.074 -0.1573  0.2088 -0.0436
  504TMC3    O1 7552   4.212   0.700  17.333  0.5547  0.1706  0.0299
  504TMC3    O2 7553   3.821   0.491   0.085 -0.3611  0.0643 -0.1657
  505MPD2     C 7554   3.451   0.335  11.519 -0.8759 -0.5824 -0.0404
  505MPD2    C1 7555   3.454   0.225  11.437 -0.4460  0.0202 -1.3169
  505MPD2    C2 7556   3.576   0.185  11.384  0.2051  0.5617  0.1402
  505MPD2    C3 7557   3.694   0.245  11.422 -0.2797 -0.6195  1.0998
  505MPD2    C4 7558   3.687   0.355  11.504 -0.0332  0.5479  0.0904
  505MPD2    C5 7559   3.568   0.398  11.546  0.1740  0.4194 -0.6712
  505MPD2     H 7560   3.570   0.110  11.306 -2.3235 -0.3937  1.2422
  505MPD2    H1 7561   3.779   0.403  11.537 -1.0878  1.8666  1.0904
  505MPD2    H2 7562   3.365   0.387  11.560 -0.9824 -0.2394 -0.6890
  505MPD2    H3 7563   3.587   0.491  11.597 -0.1096 -0.4275  0.9933
  505MPD2     N 7564   3.819   0.205  11.385 -0.1227  0.6238 -0.6006
  505MPD2    H5 7565   3.904   0.245  11.425  0.4106  0.4704 -1.5758
  505MPD2    N1 7566   3.328   0.174  11.389  0.3597 -0.5465 -0.6260
  505MPD2    H7 7567   3.246   0.229  11.412  1.7732  1.8581 -1.3254
  506TMC3    C1 7568   3.190   0.053  11.256 -0.0586 -0.1309 -0.1899
  506TMC3    C2 7569   3.147   0.156  11.184 -0.1239 -0.2494 -0.1784
  506TMC3    C3 7570   3.119   0.135  11.052 -0.0959  1.1828  0.2707
  506TMC3    C4 7571   3.184   4.660  11.203  0.5840 -0.1007  0.0286
  506TMC3    C5 7572   3.138   4.638  11.080 -0.3799  0.5566  0.0471
  506TMC3    C6 7573   3.109   0.012  10.999  0.0984  0.2514 -0.5929
  506TMC3     C 7574   3.319   0.065  11.310 -0.1721  0.1313  0.2392
  506TMC3     O 7575   3.396   4.702  11.303  0.1288 -0.5918 -0.5986
  506TMC3     H 7576   3.164   0.256  11.221 -1.4055 -0.2324  0.3649
  506TMC3    H1 7577   3.214   4.569  11.253  0.0255  0.0647  0.6579
  506TMC3    H2 7578   3.091   4.725  10.894 -3.0664 -0.8326  0.1545
  506TMC3    C7 7579   3.222   4.541  11.008  0.4390 -1.0992 -0.0737
  506TMC3    C8 7580   3.087   0.249  10.973  0.0653  0.5139 -0.1162
  506TMC3    O1 7581   3.186   4.494  10.902 -0.1222 -0.3571  0.2899
  506TMC3    O2 7582   3.007   0.215  10.884  0.0231  0.4794 -0.2445
  507TMC3    C1 7583   3.813   0.634  15.190  0.0840  0.6924 -0.0952
  507TMC3    C2 7584   3.820   0.538  15.095  0.1139 -0.1150  0.5161
  507TMC3    C3 7585   3.837   0.588  14.962  0.4857  0.1994  0.3306
  507TMC3    C4 7586   3.816   0.768  15.163 -1.1265  1.0426 -0.0586
  507TMC3    C5 7587   3.841   0.812  15.037  0.0191 -0.7071 -0.0522
  507TMC3    C6 7588   3.861   0.718  14.936 -0.6098 -0.7142 -0.6032
  507TMC3     C 7589   3.766   0.595  15.314 -0.6956  0.2841 -0.3140
  507TMC3     O 7590   3.779   0.673  15.405 -0.0514 -0.0659 -0.0302
  507TMC3     H 7591   3.812   0.431  15.108 -0.2135 -0.4004 -2.0125
  507TMC3    H1 7592   3.814   0.840  15.244  4.1554  0.3324  0.6756
  507TMC3    H2 7593   3.884   0.739  14.832  1.5642  1.5252  0.3339
  507TMC3    C7 7594   3.767   0.929  14.998  0.2946 -0.0885 -0.0093
  507TMC3    C8 7595   3.719   0.532  14.887 -0.4012  0.1088 -0.8734
  507TMC3    O1 7596   3.725   0.907  14.884  0.2358 -0.3710 -0.0026
  507TMC3    O2 7597   3.687   0.413  14.911 -0.0168 -0.0747 -0.1743
  508MPD2     C 7598   0.866   3.745  16.111 -0.0226 -0.0317  0.3797
  508MPD2    C1 7599   0.752   3.703  16.175 -0.1697  0.3965 -0.5958
  508MPD2    C2 7600   0.645   3.656  16.102  0.1935  0.0572 -0.2982
  508MPD2    C3 7601   0.652   3.659  15.963  0.5506  0.0574 -0.2123
  508MPD2    C4 7602   0.765   3.698  15.900 -0.1286  0.7711  0.1756
  508MPD2    C5 7603   0.877   3.732  15.974 -0.1242  0.1399  0.3375
  508MPD2     H 7604   0.561   3.606  16.149  0.4036  0.4851  0.5269
  508MPD2    H1 7605   0.777   3.702  15.792 -1.8534  0.1868 -0.0266
  508MPD2    H2 7606   0.947   3.792  16.165  0.1623  0.9983 -0.7912
  508MPD2    H3 7607   0.966   3.767  15.923 -0.2438 -0.3931 -0.2344
  508MPD2     N 7608   0.544   3.602  15.893 -0.3521  0.1500  0.3448
  508MPD2    H5 7609   0.474   3.559  15.952  0.2553  0.8358  1.5543
  508MPD2    N1 7610   0.752   3.707  16.320  0.4976  0.1747 -0.6540
  508MPD2    H7 7611   0.826   3.757  16.368 -0.8229 -0.5734  2.1809
  509TMC3    C1 7612   0.186   3.536  15.714 -0.3662 -0.2001  0.1913
  509TMC3    C2 7613   0.182   3.464  15.599 -0.4266 -0.4065  0.1875
  509TMC3    C3 7614   0.299   3.449  15.531  0.1451 -0.0210 -0.3913
  509TMC3    C4 7615   0.300   3.539  15.789  0.3993 -0.4913 -0.5026
  509TMC3    C5 7616   0.417   3.502  15.733  0.8936 -0.5700 -0.0460
  509TMC3    C6 7617   0.414   3.473  15.597  0.4912  0.4720 -0.0669
  509TMC3     C 7618   0.093   3.644  15.728  0.4685 -0.0248  0.2437
  509TMC3     O 7619   0.093   3.694  15.841 -0.1431  1.0965  0.0837
  509TMC3     H 7620   0.085   3.449  15.554 -1.6595  0.6568  2.4801
  509TMC3    H1 7621   0.301   3.578  15.891  1.7365  0.3216 -0.8306
  509TMC3    H2 7622   0.508   3.435  15.559  0.8781  2.6105 -1.2316
  509TMC3    C7 7623   0.539   3.573  15.762  0.3053 -1.0965  0.6945
  509TMC3    C8 7624   0.296   3.549  15.427  0.7012  0.3235 -0.3858
  509TMC3    O1 7625   0.620   3.597  15.671  0.7429 -0.6117  0.6679
  509TMC3    O2 7626   0.182   3.563  15.387  0.2452 -0.2026  0.1091
  510MPD2     C 7627   2.675   4.380  14.373  0.1018  0.1740 -0.6404
  510MPD2    C1 7628   2.749   4.385  14.492 -0.2604  1.0222 -0.0628
  510MPD2    C2 7629   2.883   4.426  14.481  0.7087  0.3258  0.7556
  510MPD2    C3 7630   2.947   4.461  14.356 -0.1368  0.6985  0.3556
  510MPD2    C4 7631   2.868   4.464  14.246 -0.3955  0.4179  0.0233
  510MPD2    C5 7632   2.731   4.421  14.253  0.4435  0.2376 -0.5784
  510MPD2     H 7633   2.944   4.453  14.566 -1.5881 -1.9629  3.0780
  510MPD2    H1 7634   2.918   4.475  14.150  0.6788 -1.8757  0.3246
  510MPD2    H2 7635   2.569   4.357  14.368  0.0755 -0.1738  1.4817
  510MPD2    H3 7636   2.662   4.428  14.169 -0.9252  0.5378  0.5662
  510MPD2     N 7637   3.080   4.500  14.347 -0.0207 -0.2734  0.3988
  510MPD2    H5 7638   3.138   4.479  14.427  0.1084  0.7936  0.5847
  510MPD2    N1 7639   2.680   4.348  14.612 -0.7874  0.5871 -0.0325
  510MPD2    H7 7640   2.583   4.320  14.603 -0.7521  0.5259 -0.2221
  511TMC3    C1 7641   2.634   4.306  14.838  0.2944 -0.3089  0.1149
  511TMC3    C2 7642   2.591   4.365  14.954  0.7877  0.1298  0.3967
  511TMC3    C3 7643   2.478   4.313  15.015 -0.4607  0.4400 -0.6951
  511TMC3    C4 7644   2.573   4.196  14.781  0.7472 -0.0845  0.0886
  511TMC3    C5 7645   2.471   4.142  14.847  0.2934  0.6500 -0.1945
  511TMC3    C6 7646   2.414   4.204  14.954 -0.0891 -0.3841 -0.0892
  511TMC3     C 7647   2.720   4.373  14.739 -0.5073  0.0227  0.4958
  511TMC3     O 7648   2.819   4.436  14.768 -0.2981  0.3099  0.0656
  511TMC3     H 7649   2.630   4.460  14.987  1.5936 -0.6202  1.5790
  511TMC3    H1 7650   2.619   4.141  14.699  0.8227 -0.5170  0.4226
  511TMC3    H2 7651   2.320   4.156  14.980 -1.2374  1.3586 -1.0490
  511TMC3    C7 7652   2.406   4.039  14.784  0.1266  0.0420 -0.6338
  511TMC3    C8 7653   2.424   4.387  15.130 -0.6000  0.4647 -0.0015
  511TMC3    O1 7654   2.421   4.038  14.664  0.5689 -0.3155  0.0727
  511TMC3    O2 7655   2.479   4.490  15.171 -0.4718  0.3646  0.2445
  512TMC3    C1 7656   1.315   3.664  13.348 -0.5022 -0.2805 -0.1279
  512TMC3    C2 7657   1.442   3.628  13.378 -0.1628  0.0322 -0.1114
  512TMC3    C3 7658   1.474   3.585  13.507 -0.0976  0.6151  0.1063
  512TMC3    C4 7659   1.224   3.681  13.446 -0.7182 -0.7113 -0.1502
  512TMC3    C5 7660   1.261   3.649  13.576  0.7360 -0.0873 -0.0450
  512TMC3    C6 7661   1.386   3.602  13.612  0.5648  0.6366 -0.2611
  512TMC3     C 7662   1.296   3.711  13.209  0.8167  0.4114 -0.9486
  512TMC3     O 7663   1.369   3.656  13.131 -0.1843  0.4555  0.1248
  512TMC3     H 7664   1.513   3.629  13.296  1.7319  4.7130  1.5681
  512TMC3    H1 7665   1.120   3.697  13.419  0.2329  3.0639 -1.5269
  512TMC3    H2 7666   1.425   3.586  13.712  0.1841  1.7570  0.0661
  512TMC3    C7 7667   1.151   3.608  13.664  0.4448 -0.4969 -0.6591
  512TMC3    C8 7668   1.618   3.595  13.535  0.7144 -0.7476 -0.0516
  512TMC3    O1 7669   1.038   3.642  13.636  0.3334 -0.1262  0.0473
  512TMC3    O2 7670   1.655   3.513  13.620  0.0579 -0.0785  0.4115
  513MPD2     C 7671   2.840   4.291  13.123 -0.3210 -0.6998  0.0711
  513MPD2    C1 7672   2.860   4.163  13.079 -0.0752 -0.5601 -0.4035
  513MPD2    C2 7673   2.926   4.071  13.152  0.0900  0.2963  0.6971
  513MPD2    C3 7674   2.978   4.108  13.270  0.1572  0.6849 -0.1901
  513MPD2    C4 7675   2.950   4.224  13.325 -0.6350 -0.9653  0.0700
  513MPD2    C5 7676   2.884   4.323  13.254 -0.2163 -0.2971 -0.5456
  513MPD2     H 7677   2.942   3.968  13.122  0.9813  0.6532 -0.0447
  513MPD2    H1 7678   2.985   4.256  13.422 -0.8058  0.5342 -0.3549
  513MPD2    H2 7679   2.800   4.371  13.063  2.2440  0.2724 -0.3530
  513MPD2    H3 7680   2.867   4.423  13.293 -3.0894 -1.0157  0.0489
  513MPD2     N 7681   3.063   4.015  13.331  0.2539 -0.3675  0.5140
  513MPD2    H5 7682   3.066   3.923  13.290  0.0824 -0.7206  1.2894
  513MPD2    N1 7683   2.800   4.134  12.949  0.2111 -0.7668  0.0807
  513MPD2    H7 7684   2.751   4.215  12.913 -0.8901 -0.7657  1.5474
  514TMC3    C1 7685   2.762   4.025  12.744  0.7625  0.5551  0.1124
  514TMC3    C2 7686   2.773   4.152  12.701  0.2122 -0.3968  0.5757
  514TMC3    C3 7687   2.860   4.180  12.602 -0.1155  0.0087  0.4519
  514TMC3    C4 7688   2.831   3.922  12.683 -0.4591  0.2079  0.5523
  514TMC3    C5 7689   2.923   3.957  12.597 -0.6411  0.1766  0.3245
  514TMC3    C6 7690   2.936   4.084  12.551  0.1718  0.0833  0.2930
  514TMC3     C 7691   2.811   4.016  12.884  1.0185  0.0375 -0.6784
  514TMC3     O 7692   2.864   3.912  12.921  0.4913  0.0901 -0.1261
  514TMC3     H 7693   2.715   4.236  12.739 -1.0026 -0.2540 -1.5976
  514TMC3    H1 7694   2.830   3.820  12.718 -0.4697 -0.0279 -0.1404
  514TMC3    H2 7695   3.006   4.104  12.471  0.3948 -0.2316  0.4113
  514TMC3    C7 7696   3.042   3.876  12.601 -0.3731 -0.0123 -0.4135
  514TMC3    C8 7697   2.919   4.317  12.609  0.0573 -0.1523  0.9387
  514TMC3    O1 7698   3.110   3.879  12.498  0.5564 -0.2953  0.0714
  514TMC3    O2 7699   2.894   4.387  12.707 -0.3510 -0.3725  0.3142
  515MPD2     C 7700   1.797   1.184  14.789 -0.8491 -0.4472  0.7265
  515MPD2    C1 7701   1.778   1.051  14.826 -0.1672 -0.5430 -0.1465
  515MPD2    C2 7702   1.862   0.999  14.915  0.9272 -0.1479  0.8718
  515MPD2    C3 7703   1.966   1.071  14.982 -0.0262 -0.4482 -0.6766
  515MPD2    C4 7704   1.974   1.203  14.941 -0.3569 -0.4111  0.4806
  515MPD2    C5 7705   1.897   1.255  14.848  0.6276 -0.3607  0.4942
  515MPD2     H 7706   1.843   0.897  14.946  0.0770 -0.1651  0.3017
  515MPD2    H1 7707   2.048   1.274  14.977  0.4065  0.0024 -1.8663
  515MPD2    H2 7708   1.734   1.237  14.719  1.9220  2.6486  0.5412
  515MPD2    H3 7709   1.893   1.353  14.802  1.7991 -0.2048  0.7187
  515MPD2     N 7710   2.057   1.029  15.083  0.5093  0.5085  0.4504
  515MPD2    H5 7711   2.111   1.098  15.135  0.0950  0.8792  0.3871
  515MPD2    N1 7712   1.667   0.978  14.773  0.0854 -0.3374 -0.7671
  515MPD2    H7 7713   1.684   0.879  14.779 -0.0767 -0.1463  2.6829
  516TMC3    C1 7714   1.484   0.925  14.661  0.1763 -0.2546  0.0493
  516TMC3    C2 7715   1.396   0.955  14.555 -0.4799 -0.3516  1.8950
  516TMC3    C3 7716   1.313   0.854  14.512 -0.2809 -0.1392  0.1668
  516TMC3    C4 7717   1.462   0.816  14.742 -0.4390  0.1779  0.0338
  516TMC3    C5 7718   1.373   0.724  14.701  0.3191  0.4730  0.3289
  516TMC3    C6 7719   1.300   0.738  14.588  0.3936  0.2308  0.4585
  516TMC3     C 7720   1.560   1.032  14.715 -0.1279  0.6223  0.6636
  516TMC3     O 7721   1.520   1.145  14.707  0.1400 -0.2439 -0.4120
  516TMC3     H 7722   1.402   1.045  14.496  3.6828 -1.7346  0.1872
  516TMC3    H1 7723   1.531   0.790  14.822  0.3379  1.0195 -0.3597
  516TMC3    H2 7724   1.223   0.666  14.563 -0.8703  1.7743 -0.0743
  516TMC3    C7 7725   1.378   0.601  14.766 -0.7049 -0.2411  0.2875
  516TMC3    C8 7726   1.225   0.866  14.399  0.5212 -0.4238 -0.2756
  516TMC3    O1 7727   1.441   0.593  14.871  0.2209 -0.7063 -0.0297
  516TMC3    O2 7728   1.112   0.821  14.406 -0.0095  0.0672 -0.0090
  517MPD2     C 7729   1.709   2.744  17.670  0.9878 -0.4801 -0.1574
  517MPD2    C1 7730   1.846   2.708  17.693  0.4533  0.4126  0.0797
  517MPD2    C2 7731   1.923   2.772   0.053  0.0958  0.7474  1.0487
  517MPD2    C3 7732   1.878   2.887   0.120 -0.0761 -0.2878 -0.1066
  517MPD2    C4 7733   1.747   2.920   0.085  0.2412 -0.6360  0.0116
  517MPD2    C5 7734   1.662   2.853  17.736 -0.9776 -0.0956  0.3937
  517MPD2     H 7735   2.028   2.748   0.067  0.2055  0.7606  0.2700
  517MPD2    H1 7736   1.702   3.008   0.131  0.8729 -0.5022  0.3727
  517MPD2    H2 7737   1.642   2.698  17.598 -1.6801 -0.1912  2.1633
  517MPD2    H3 7738   1.562   2.889  17.714 -1.0903 -1.0459 -0.6225
  517MPD2     N 7739   1.947   2.971   0.212 -1.0629 -0.4406  0.8815
  517MPD2    H5 7740   1.887   3.040   0.255 -0.0824  1.1485 -0.3402
  517MPD2    N1 7741   1.908   2.607  17.622 -0.1252  0.2102  0.0775
  517MPD2    H7 7742   2.008   2.596  17.635 -0.0916  1.1874  0.6977
  518TMC3    C1 7743   1.927   2.438  17.457  0.0947  0.2443 -0.1137
  518TMC3    C2 7744   1.869   2.360  17.358 -0.6568 -0.3802  0.3331
  518TMC3    C3 7745   1.937   2.268  17.285 -0.8833  0.5447  0.1064
  518TMC3    C4 7746   2.067   2.445  17.465 -0.2783 -0.3764 -0.4637
  518TMC3    C5 7747   2.130   2.360  17.378 -0.1237 -0.7818  0.6215
  518TMC3    C6 7748   2.072   2.266  17.298  0.4162  0.0537  0.2681
  518TMC3     C 7749   1.843   2.525  17.527 -0.2042 -0.1833 -0.0379
  518TMC3     O 7750   1.723   2.505  17.515  0.0842 -0.3416 -0.1938
  518TMC3     H 7751   1.761   2.358  17.357 -0.6761  0.0829  1.5584
  518TMC3    H1 7752   2.129   2.503  17.533  1.0755 -2.0341 -0.2786
  518TMC3    H2 7753   2.126   2.202  17.230 -2.0931 -3.0500  1.2160
  518TMC3    C7 7754   2.279   2.350  17.398  0.1280  0.3623  0.0228
  518TMC3    C8 7755   1.876   2.137  17.268  0.5180 -0.2411  0.5639
  518TMC3    O1 7756   2.324   2.445  17.455 -0.2781 -0.2710 -0.4107
  518TMC3    O2 7757   1.940   2.040  17.306  0.4104 -0.1432  0.5707
  519MPD2     C 7758   2.412   0.678  14.536 -0.3957  0.5038  0.3848
  519MPD2    C1 7759   2.403   0.662  14.400  0.4733  0.4009 -0.0082
  519MPD2    C2 7760   2.466   0.553  14.345 -0.9045 -0.2196 -0.3873
  519MPD2    C3 7761   2.546   0.467  14.416  0.5895 -0.0194 -0.1209
  519MPD2    C4 7762   2.561   0.495  14.554 -0.0144  0.1515  0.0290
  519MPD2    C5 7763   2.498   0.596  14.612 -0.4754  0.1834 -0.5723
  519MPD2     H 7764   2.452   0.535  14.239  0.3488  0.5470 -0.6886
  519MPD2    H1 7765   2.628   0.431  14.609 -0.0656 -0.7659 -0.9732
  519MPD2    H2 7766   2.351   0.754  14.584 -2.2654 -0.6798 -0.1093
  519MPD2    H3 7767   2.513   0.608  14.718  0.0238 -2.7059 -0.3347
  519MPD2     N 7768   2.604   0.348  14.365 -0.3433 -0.1061 -0.1168
  519MPD2    H5 7769   2.670   0.297  14.422  1.5860  1.0102 -1.3539
  519MPD2    N1 7770   2.341   0.764  14.320 -0.5409 -0.6019  0.2138
  519MPD2    H7 7771   2.354   0.762  14.219  0.9859 -1.9683  0.4321
  520TMC3    C1 7772   2.653   0.189  14.182  0.5892  0.0370  0.0303
  520TMC3    C2 7773   2.629   0.193  14.049 -0.1801  0.0277  0.3414
  520TMC3    C3 7774   2.730   0.236  13.968 -0.2800 -0.3046 -0.1169
  520TMC3    C4 7775   2.776   0.197  14.234  0.7566 -0.2901  0.4118
  520TMC3    C5 7776   2.879   0.231  14.153  0.1178 -0.5736 -0.2594
  520TMC3    C6 7777   2.855   0.257  14.018 -0.1286 -0.8808  0.0229
  520TMC3     C 7778   2.563   0.287  14.245 -0.0452 -0.7220 -0.2393
  520TMC3     O 7779   2.463   0.311  14.180  0.2518  0.1166  0.5465
  520TMC3     H 7780   2.529   0.180  14.012 -0.3568 -0.3008  0.9316
  520TMC3    H1 7781   2.791   0.172  14.338  1.8596  3.0936  1.0499
  520TMC3    H2 7782   2.932   0.292  13.950 -0.7631 -1.4920 -1.0078
  520TMC3    C7 7783   3.010   0.234  14.215  0.2371 -0.2472 -0.5231
  520TMC3    C8 7784   2.698   0.298  13.833  0.5474 -0.0182 -0.2068
  520TMC3    O1 7785   3.025   0.197  14.335  0.0070 -0.1237 -0.2812
  520TMC3    O2 7786   2.789   0.359  13.782  0.3797 -0.0658 -0.0971
  521MPD2     C 7787   3.999   3.972  17.547  0.0585  0.0065 -0.0661
  521MPD2    C1 7788   3.946   3.869  17.468 -0.2369  0.0586 -0.6223
  521MPD2    C2 7789   4.044   3.789  17.402 -0.1382  0.2604  0.5285
  521MPD2    C3 7790   4.177   3.818  17.412 -0.0072 -0.2042 -0.4656
  521MPD2    C4 7791   4.219   3.927  17.484 -0.0435  0.3503 -0.4388
  521MPD2    C5 7792   4.130   3.994  17.562  0.3240 -1.0213  0.1129
  521MPD2     H 7793   4.014   3.699  17.351 -0.3063  0.7193 -0.1930
  521MPD2    H1 7794   4.324   3.950  17.495  0.5884 -2.5416 -0.5777
  521MPD2    H2 7795   3.933   4.035  17.606  0.8274  1.0667 -0.3383
  521MPD2    H3 7796   4.164   4.073  17.627  2.2888 -2.7945  1.2274
  521MPD2     N 7797   4.261   3.724  17.354 -0.4412 -0.3863  0.5293
  521MPD2    H5 7798   4.219   3.657  17.290 -2.6761  0.2350  1.3292
  521MPD2    N1 7799   3.809   3.835  17.475 -0.6804 -0.6191  0.5370
  521MPD2    H7 7800   3.739   3.893  17.521  0.0394 -1.5508  2.7868
  522TMC3    C1 7801   4.471   3.631  17.284  0.3520  0.0889  0.6705
  522TMC3    C2 7802   4.591   3.583  17.337 -0.2542  0.6335  0.1347
  522TMC3    C3 7803   4.673   3.516  17.257  0.1393 -0.0658 -0.3945
  522TMC3    C4 7804   4.437   3.618  17.153  0.1570  0.2970  0.6363
  522TMC3    C5 7805   4.528   3.554  17.074 -0.0103  0.1994  0.5350
  522TMC3    C6 7806   4.647   3.502  17.119 -0.1226  0.5092  0.4639
  522TMC3     C 7807   4.399   3.720  17.371 -0.6084  0.2748 -0.2157
  522TMC3     O 7808   4.466   3.775  17.458 -0.9334 -0.2831  0.2966
  522TMC3     H 7809   4.628   3.609  17.435 -1.7552  0.3514  0.7858
  522TMC3    H1 7810   4.344   3.656  17.113  0.2520 -2.0532 -1.8366
  522TMC3    H2 7811   4.715   3.448  17.053  1.6604  1.4024  1.5579
  522TMC3    C7 7812   4.506   3.535  16.936 -0.7241  0.3621  1.0679
  522TMC3    C8 7813   0.079   3.488  17.303  0.4501 -0.7904 -0.1743
  522TMC3    O1 7814   4.610   3.524  16.875  0.2432  0.3362  0.9741
  522TMC3    O2 7815   0.099   3.455  17.421 -0.0309 -0.4064  0.4573
  523MPD2     C 7816   1.394   3.432   9.643 -0.4216  0.5994  0.3784
  523MPD2    C1 7817   1.335   3.478   9.755  1.0272  0.1684 -0.6014
  523MPD2    C2 7818   1.255   3.591   9.759 -0.2464  0.1663 -0.1179
  523MPD2    C3 7819   1.227   3.650   9.630 -0.6899 -1.4288  0.1818
  523MPD2    C4 7820   1.294   3.611   9.514 -0.3839 -0.7754 -0.2355
  523MPD2    C5 7821   1.382   3.507   9.524  0.3025  0.3406 -0.4312
  523MPD2     H 7822   1.208   3.624   9.851 -2.4246 -0.1531 -1.1257
  523MPD2    H1 7823   1.277   3.656   9.417  0.7570 -1.2528 -0.6633
  523MPD2    H2 7824   1.457   3.344   9.648 -0.9192  0.2752  1.0004
  523MPD2    H3 7825   1.436   3.481   9.433  0.8300 -0.9093  0.2505
  523MPD2     N 7826   1.143   3.761   9.614 -1.0382 -0.5136  0.2481
  523MPD2    H5 7827   1.115   3.774   9.517 -0.2184 -3.0697 -0.3221
  523MPD2    N1 7828   1.349   3.394   9.866 -0.3084  0.1817 -0.7299
  523MPD2    H7 7829   1.383   3.300   9.851  0.7750  0.4999 -0.2557
  524TMC3    C1 7830   0.973   3.905   9.669  0.2030  0.2652  0.0979
  524TMC3    C2 7831   0.934   3.913   9.541 -0.6600 -1.0002 -0.2431
  524TMC3    C3 7832   0.833   3.998   9.511  0.4481 -0.0108 -0.3469
  524TMC3    C4 7833   0.931   3.994   9.760 -0.6561  0.1609 -0.4175
  524TMC3    C5 7834   0.844   4.095   9.725  0.2709 -0.5046  0.5110
  524TMC3    C6 7835   0.788   4.098   9.593  0.2544 -0.7259  0.1089
  524TMC3     C 7836   1.076   3.818   9.715 -0.4071 -0.3280 -0.0268
  524TMC3     O 7837   1.106   3.826   9.836 -0.2680  0.6783 -0.8920
  524TMC3     H 7838   0.944   3.826   9.476 -1.4468  1.2409 -3.3330
  524TMC3    H1 7839   0.958   3.991   9.865  2.4440 -0.5213 -1.2145
  524TMC3    H2 7840   0.713   4.164   9.551  0.2392  0.1941  1.5633
  524TMC3    C7 7841   0.822   4.207   9.819 -0.0231  0.3511  0.1601
  524TMC3    C8 7842   0.797   4.004   9.364 -0.8810 -0.3325 -0.4302
  524TMC3    O1 7843   0.875   4.197   9.927 -0.3450  0.0062  0.4217
  524TMC3    O2 7844   0.831   3.910   9.300 -0.6960  0.2884  0.2200
  525MPD2     C 7845   4.230   0.486  14.853  0.4316  0.0711  0.7997
  525MPD2    C1 7846   4.346   0.421  14.840  0.6464 -0.3162 -0.0188
  525MPD2    C2 7847   4.446   0.482  14.768  0.0791 -0.0607  0.3166
  525MPD2    C3 7848   4.421   0.606  14.712 -0.0440 -0.1740  0.8994
  525MPD2    C4 7849   4.302   0.670  14.719 -0.5954 -0.3192 -0.1882
  525MPD2    C5 7850   4.209   0.606  14.794  0.0820 -0.4771 -0.2556
  525MPD2     H 7851   4.541   0.432  14.752  0.9116  0.9579  2.1082
  525MPD2    H1 7852   4.279   0.762  14.667  1.7081  0.0019 -0.6074
  525MPD2    H2 7853   4.148   0.444  14.909  1.0884 -0.8818  1.0461
  525MPD2    H3 7854   4.118   0.664  14.797  1.0001  0.9395  0.1732
  525MPD2     N 7855   4.529   0.678  14.644 -0.3448 -0.1083  0.8679
  525MPD2    H5 7856   4.498   0.769  14.611 -1.7799 -0.7157  0.5493
  525MPD2    N1 7857   4.372   0.303  14.909 -0.1059 -0.0011 -0.0239
  525MPD2    H7 7858   4.441   0.239  14.873  0.5883  1.0287 -0.5335
  526TMC3    C1 7859   4.362   0.123  15.058 -0.5170 -0.2123  0.4287
  526TMC3    C2 7860   4.311   0.066  15.173  0.5053  0.2478  0.2291
  526TMC3    C3 7861   4.370   4.687  15.214  0.7176 -0.3540 -0.3001
  526TMC3    C4 7862   4.478   0.073  15.001  0.2200 -0.2060 -0.3006
  526TMC3    C5 7863   4.527   4.693  15.044  0.5210  0.1524 -0.3992
  526TMC3    C6 7864   4.480   4.627  15.157 -0.2704 -0.5235  0.4531
  526TMC3     C 7865   4.301   0.252  15.014  0.6527  0.3340 -0.2354
  526TMC3     O 7866   4.238   0.316  15.093  0.4981 -0.0524 -0.7301
  526TMC3     H 7867   4.223   0.108  15.220 -1.0835 -0.0326 -2.5285
  526TMC3    H1 7868   4.522   0.113  14.910  1.2038  0.8744  0.6639
  526TMC3    H2 7869   4.497   4.523  15.180  1.3523 -0.1039  1.1192
  526TMC3    C7 7870   4.650   4.651  14.977 -0.7168 -0.4252  0.4929
  526TMC3    C8 7871   4.327   4.633  15.342 -0.1013  0.3697 -0.8439
  526TMC3    O1 7872   4.677   4.684  14.860 -0.1224  0.0751  0.6390
  526TMC3    O2 7873   4.416   4.590  15.416 -0.0556  0.2255 -0.0340
  527MPD2     C 7874   2.508   3.379   1.748  1.2654  0.5909  0.2992
  527MPD2    C1 7875   2.468   3.294   1.638  0.2898  0.2754  0.1002
  527MPD2    C2 7876   2.567   3.210   1.587 -0.5186 -0.2327  0.4550
  527MPD2    C3 7877   2.694   3.211   1.639 -0.3751 -0.3249  0.3460
  527MPD2    C4 7878   2.729   3.283   1.748 -0.5944  0.0318  0.3534
  527MPD2    C5 7879   2.634   3.369   1.809 -0.1036 -0.5224  1.0377
  527MPD2     H 7880   2.556   3.149   1.498 -0.6340 -0.3989  0.5840
  527MPD2    H1 7881   2.830   3.287   1.788  0.5936  0.9804 -2.7984
  527MPD2    H2 7882   2.446   3.450   1.802  1.2246  0.1459  0.8314
  527MPD2    H3 7883   2.655   3.445   1.884  1.3682  0.2683 -0.1915
  527MPD2     N 7884   2.784   3.128   1.571 -0.1165  0.9874 -0.6348
  527MPD2    H5 7885   2.738   3.066   1.506  1.5698  0.2538 -1.1355
  527MPD2    N1 7886   2.334   3.305   1.584 -0.4815 -0.1027  0.9700
  527MPD2    H7 7887   2.317   3.263   1.492  2.0740 -0.6669  0.7487
  528TMC3    C1 7888   2.112   3.369   1.544 -0.3790 -0.6493 -0.0095
  528TMC3    C2 7889   2.130   3.396   1.410 -0.1158  0.0004  1.1375
  528TMC3    C3 7890   2.026   3.373   1.326 -0.6160  0.9965 -0.7261
  528TMC3    C4 7891   1.986   3.329   1.590  0.5109 -0.0987  0.0035
  528TMC3    C5 7892   1.883   3.315   1.499  0.2642  0.2937  0.3902
  528TMC3    C6 7893   1.904   3.329   1.363 -0.2927 -0.0030 -0.1344
  528TMC3     C 7894   2.223   3.370   1.641 -0.7359 -0.0982  0.0037
  528TMC3     O 7895   2.214   3.422   1.752 -0.1563  0.5104 -0.1208
  528TMC3     H 7896   2.229   3.428   1.379 -0.5384 -1.1740 -1.4375
  528TMC3    H1 7897   1.970   3.306   1.695 -4.0089 -0.7919 -0.8394
  528TMC3    H2 7898   1.831   3.319   1.283 -1.5042 -1.2579  1.1219
  528TMC3    C7 7899   1.779   3.224   1.528 -0.9343  0.0759 -0.7261
  528TMC3    C8 7900   2.048   3.405   1.185 -0.0051 -0.8193 -1.3575
  528TMC3    O1 7901   1.684   3.232   1.453  0.4887  0.1587  0.2186
  528TMC3    O2 7902   1.949   3.445   1.125  0.4693  0.3677 -0.1161
  529MPD2     C 7903   0.676   0.829   0.225 -0.1872 -0.4293  0.1467
  529MPD2    C1 7904   0.687   0.912   0.334 -0.2085  0.2600  0.4507
  529MPD2    C2 7905   0.634   1.037   0.324 -0.0847 -0.5724 -0.5471
  529MPD2    C3 7906   0.582   1.086   0.206  0.1381 -0.4388 -0.0570
  529MPD2    C4 7907   0.594   1.005   0.087  1.0282 -0.4324  0.6087
  529MPD2    C5 7908   0.637   0.875   0.106 -0.6400  0.3770 -0.1388
  529MPD2     H 7909   0.622   1.089   0.418  1.9264 -0.3453 -0.4145
  529MPD2    H1 7910   0.574   1.036  17.721 -2.3490 -3.1579  0.4577
  529MPD2    H2 7911   0.716   0.729   0.235 -0.3845 -0.5649 -0.4181
  529MPD2    H3 7912   0.636   0.808   0.022 -2.1238  2.6000 -1.8918
  529MPD2     N 7913   0.519   1.211   0.200  0.4804  0.3537 -0.4700
  529MPD2    H5 7914   0.515   1.267   0.116 -1.4695 -0.8190 -1.1516
  529MPD2    N1 7915   0.736   0.874   0.460 -0.3455 -0.3303  0.0247
  529MPD2    H7 7916   0.743   0.952   0.525 -0.9673 -0.6512  0.4779
  530TMC3    C1 7917   0.863   0.764   0.633 -0.3212 -0.2342  0.6334
  530TMC3    C2 7918   0.916   0.885   0.666  0.3578  0.4311 -0.0146
  530TMC3    C3 7919   0.963   0.920   0.794 -0.5044  0.0066  0.0842
  530TMC3    C4 7920   0.839   0.672   0.728  0.5017 -0.1434 -0.2073
  530TMC3    C5 7921   0.871   0.705   0.859  0.1940  0.4951  0.6153
  530TMC3    C6 7922   0.934   0.826   0.893  0.4125  0.1656  0.1749
  530TMC3     C 7923   0.798   0.757   0.502 -0.2261 -0.9362  0.2118
  530TMC3     O 7924   0.809   0.650   0.444 -0.6093  0.2170 -0.4986
  530TMC3     H 7925   0.948   0.942   0.580 -0.5340  0.6683 -0.1959
  530TMC3    H1 7926   0.786   0.582   0.700  0.5670 -0.4523  0.6501
  530TMC3    H2 7927   0.967   0.853   0.993 -2.9848  0.9077  1.0948
  530TMC3    C7 7928   0.799   0.637   0.966 -0.4163  0.0978  0.1654
  530TMC3    C8 7929   1.051   1.032   0.818 -0.3750  0.2875 -0.1335
  530TMC3    O1 7930   0.785   0.516   0.969  0.1587  0.0218 -0.4766
  530TMC3    O2 7931   1.040   1.131   0.753 -0.3838 -0.1976 -0.0293
  531MPD2     C 7932   3.418   3.670  12.887  0.2161  0.1808 -0.7535
  531MPD2    C1 7933   3.313   3.703  12.967  0.4518 -0.3022 -0.0227
  531MPD2    C2 7934   3.190   3.742  12.913 -0.3739  0.5658  0.2227
  531MPD2    C3 7935   3.188   3.758  12.777  0.9111 -0.1824  0.2166
  531MPD2    C4 7936   3.295   3.721  12.696 -0.0994 -0.0424  0.0943
  531MPD2    C5 7937   3.412   3.685  12.750 -0.3060 -0.0164 -0.7741
  531MPD2     H 7938   3.104   3.775  12.970  1.7498  1.4671  2.9114
  531MPD2    H1 7939   3.295   3.744  12.590 -0.9571  0.9037  0.3011
  531MPD2    H2 7940   3.511   3.632  12.928  0.2181  0.6808 -0.3073
  531MPD2    H3 7941   3.498   3.659  12.689 -1.5357 -0.9385 -2.0949
  531MPD2     N 7942   3.073   3.827  12.728 -0.1337  0.3258  0.7075
  531MPD2    H5 7943   3.006   3.860  12.797 -3.0360 -0.5231 -1.7241
  531MPD2    N1 7944   3.339   3.704  13.104 -0.3734 -0.5511  0.2266
  531MPD2    H7 7945   3.433   3.683  13.136 -0.6880  1.5593  2.6013
  532TMC3    C1 7946   3.295   3.752  13.336 -0.1269  0.0407 -0.2608
  532TMC3    C2 7947   3.200   3.819  13.410  0.0916  0.1292  0.0392
  532TMC3    C3 7948   3.230   3.937  13.472  0.4763  0.1972  0.4608
  532TMC3    C4 7949   3.425   3.789  13.359 -0.7896 -0.1180  0.0790
  532TMC3    C5 7950   3.457   3.892  13.436 -1.2406  0.4054 -1.1302
  532TMC3    C6 7951   3.360   3.968  13.489  0.4127  0.4228  0.2401
  532TMC3     C 7952   3.242   3.732  13.196 -0.1746 -0.5765 -0.5399
  532TMC3     O 7953   3.126   3.765  13.186  0.4695  0.0407 -0.1035
  532TMC3     H 7954   3.098   3.784  13.408  0.1025  0.2315 -1.8252
  532TMC3    H1 7955   3.505   3.731  13.314  0.5033 -0.0268  2.2369
  532TMC3    H2 7956   3.385   4.060  13.541  4.0566  0.8269 -2.2004
  532TMC3    C7 7957   3.594   3.898  13.485 -0.7352 -0.3150 -0.5489
  532TMC3    C8 7958   3.147   4.043  13.439  0.0352 -0.2574 -0.3413
  532TMC3    O1 7959   3.616   4.015  13.521  0.2425 -0.0660 -0.7368
  532TMC3    O2 7960   3.172   4.146  13.493 -0.3517 -0.2663  0.5845
  533TMC3    C1 7961   0.011   0.769  14.610  0.2270  1.1184  0.3834
  533TMC3    C2 7962   0.121   0.773  14.689 -0.0506 -0.1442  0.3242
  533TMC3    C3 7963   0.135   0.875  14.776  0.4291 -0.6820 -0.1561
  533TMC3    C4 7964   4.678   0.885  14.598  0.7711 -0.1199 -0.0866
  533TMC3    C5 7965   4.682   0.984  14.692 -0.5291 -0.3108 -0.7083
  533TMC3    C6 7966   0.041   0.974  14.788 -0.1395  0.5902  0.0566
  533TMC3     C 7967   4.667   0.652  14.629  0.7921  0.0589  0.3699
  533TMC3     O 7968   4.728   0.553  14.664  0.3086 -0.5313 -0.1524
  533TMC3     H 7969   0.168   0.678  14.713 -0.0731  0.2499  1.9306
  533TMC3    H1 7970   4.591   0.889  14.533 -0.7762 -0.2313  2.0051
  533TMC3    H2 7971   0.055   1.065  14.845 -3.9022  0.9542  0.3954
  533TMC3    C7 7972   4.553   1.031  14.740 -0.1877 -0.1760 -0.2312
  533TMC3    C8 7973   0.254   0.876  14.857  0.1556  0.9262  0.2232
  533TMC3    O1 7974   4.472   1.067  14.654 -0.2026  0.1292  0.1492
  533TMC3    O2 7975   0.357   0.829  14.805 -0.3988  0.0877  0.1689
  534MPD2     C 7976   3.637   2.151   1.498  0.0215 -0.1418  0.2549
  534MPD2    C1 7977   3.525   2.221   1.476 -0.4804  0.8261  0.3828
  534MPD2    C2 7978   3.406   2.162   1.442 -0.2293  0.7463  0.1444
  534MPD2    C3 7979   3.399   2.026   1.438 -0.3448  0.1382 -0.4531
  534MPD2    C4 7980   3.515   1.958   1.447 -0.4280  0.1873 -0.2414
  534MPD2    C5 7981   3.635   2.013   1.476 -0.0311  0.2061 -0.0731
  534MPD2     H 7982   3.315   2.220   1.446  0.1336  1.2256  1.5581
  534MPD2    H1 7983   3.521   1.851   1.437 -0.4341  0.3359 -1.8383
  534MPD2    H2 7984   3.736   2.192   1.516  0.8808 -1.3772 -1.6540
  534MPD2    H3 7985   3.722   1.949   1.485  0.4924  1.0105  0.5288
  534MPD2     N 7986   3.289   1.947   1.412  1.3283 -0.2592  0.7814
  534MPD2    H5 7987   3.299   1.847   1.421  1.6866 -0.4739 -1.9686
  534MPD2    N1 7988   3.518   2.363   1.489 -0.3123 -0.5645  0.1028
  534MPD2    H7 7989   3.431   2.413   1.469 -1.1168 -2.4261 -1.0325
  535TMC3    C1 7990   3.070   1.884   1.364  0.3007  0.2892 -0.3849
  535TMC3    C2 7991   2.934   1.898   1.371 -1.0427 -0.3778  0.7349
  535TMC3    C3 7992   2.848   1.810   1.308 -0.3443 -1.0017 -0.2217
  535TMC3    C4 7993   3.121   1.782   1.288 -0.5129 -0.6025 -0.5712
  535TMC3    C5 7994   3.036   1.702   1.218  0.8747  0.5702 -0.5547
  535TMC3    C6 7995   2.903   1.711   1.235  0.3223 -0.4086 -0.5667
  535TMC3     C 7996   3.155   1.993   1.415  0.1204  0.4622 -0.5654
  535TMC3     O 7997   3.111   2.106   1.434 -0.7814 -0.2402  0.5244
  535TMC3     H 7998   2.894   1.985   1.421 -1.7002  0.9552 -2.0753
  535TMC3    H1 7999   3.228   1.761   1.281 -0.1607  0.9727  0.2779
  535TMC3    H2 8000   2.842   1.635   1.188  1.2757 -1.2604 -0.4476
  535TMC3    C7 8001   3.083   1.634   1.097  0.0813 -0.2197 -0.1016
  535TMC3    C8 8002   2.709   1.789   1.359 -0.3203 -0.1765 -0.1062
  535TMC3    O1 8003   3.019   1.533   1.071  0.1278 -0.3378 -0.3422
  535TMC3    O2 8004   2.646   1.694   1.310  0.0797 -0.1402 -0.3442
  536MPD2     C 8005   0.509   4.371  16.653  0.6112 -0.5812 -0.5048
  536MPD2    C1 8006   0.615   4.447  16.606 -0.2752  0.4759  0.3663
  536MPD2    C2 8007   0.618   4.485  16.473  0.2795  0.0808 -0.1455
  536MPD2    C3 8008   0.505   4.462  16.390 -0.3507  0.7016  0.3600
  536MPD2    C4 8009   0.390   4.408  16.437  0.3766  0.0303  0.6225
  536MPD2    C5 8010   0.399   4.355  16.564 -0.1943 -0.3379 -0.1825
  536MPD2     H 8011   0.704   4.537  16.432 -0.0220  0.9057  0.2668
  536MPD2    H1 8012   0.299   4.400  16.378  0.0162  1.7161  0.9511
  536MPD2    H2 8013   0.487   4.337  16.754 -2.1274  0.9585 -0.5774
  536MPD2    H3 8014   0.313   4.310  16.612  2.2939 -1.8824  2.7714
  536MPD2     N 8015   0.499   4.522  16.259 -0.3940  0.7072 -0.1627
  536MPD2    H5 8016   0.414   4.537  16.205 -2.2693 -0.9722  2.3534
  536MPD2    N1 8017   0.713   4.473  16.705  0.2821 -0.4025  0.9769
  536MPD2    H7 8018   0.693   4.432  16.796  0.4305  1.2618  1.7686
  537TMC3    C1 8019   0.911   4.536  16.816  0.2491  0.0471 -0.5613
  537TMC3    C2 8020   1.031   4.606  16.806 -0.0840 -0.5031 -0.6036
  537TMC3    C3 8021   1.132   4.587  16.893  0.0820 -0.5123 -0.6613
  537TMC3    C4 8022   0.898   4.438  16.913 -0.1036  0.0573  0.1431
  537TMC3    C5 8023   1.003   4.416  16.988 -0.7664 -0.4764  0.5126
  537TMC3    C6 8024   1.123   4.485  16.985 -0.3336 -0.0079  0.5099
  537TMC3     C 8025   0.828   4.545  16.695  0.9502 -0.1070 -0.2464
  537TMC3     O 8026   0.868   4.613  16.600 -0.6380  0.0525  0.0027
  537TMC3     H 8027   1.026   4.689  16.736  0.0059 -0.0404 -0.0558
  537TMC3    H1 8028   0.818   4.365  16.915 -0.2067  0.2118  2.1191
  537TMC3    H2 8029   1.209   4.466  17.048  0.7841  1.5359 -0.5569
  537TMC3    C7 8030   0.991   4.315  17.095  1.0351  0.6621  0.0717
  537TMC3    C8 8031   1.240   4.677  16.909 -0.5671  0.2329 -0.3302
  537TMC3    O1 8032   0.878   4.279  17.119  0.1074 -0.0104 -0.6735
  537TMC3    O2 8033   1.305   4.660  17.012  0.1973 -0.4637  0.3708
  538TMC3    C1 8034   2.139   3.445  11.004  0.1782 -0.6236  0.3315
  538TMC3    C2 8035   2.239   3.371  10.948  0.2878 -0.3219  0.4528
  538TMC3    C3 8036   2.261   3.376  10.816  0.1902  0.2571 -0.0777
  538TMC3    C4 8037   2.052   3.516  10.924  0.4377  0.3362  0.5762
  538TMC3    C5 8038   2.075   3.515  10.786  0.3787 -0.6789  0.2173
  538TMC3    C6 8039   2.184   3.446  10.729 -0.1762  0.1528 -0.9272
  538TMC3     C 8040   2.085   3.393  11.124 -0.0293  0.0573  0.5210
  538TMC3     O 8041   1.966   3.409  11.133 -0.3427  0.0814  0.0267
  538TMC3     H 8042   2.281   3.286  11.000  2.5665 -0.5725 -1.8237
  538TMC3    H1 8043   1.970   3.566  10.976  1.1209  2.2108 -0.1418
  538TMC3    H2 8044   2.204   3.456  10.623 -1.6434 -0.3085 -1.2461
  538TMC3    C7 8045   1.964   3.551  10.701  0.0350  0.5671  0.3845
  538TMC3    C8 8046   2.314   3.244  10.774  0.0668  0.3015 -0.7523
  538TMC3    O1 8047   1.880   3.604  10.770  0.0932 -1.2928 -0.1175
  538TMC3    O2 8048   2.249   3.145  10.803 -0.0255 -0.2841  0.3318
  539MPD2     C 8049   1.912   2.509  11.770  0.2595  0.5536  0.2352
  539MPD2    C1 8050   1.919   2.479  11.637  0.4657 -0.3253  0.6684
  539MPD2    C2 8051   1.855   2.562  11.546 -0.0224 -0.3542  0.5506
  539MPD2    C3 8052   1.805   2.687  11.600 -1.0528 -0.1271  0.1247
  539MPD2    C4 8053   1.792   2.704  11.739  0.5494 -0.6440 -0.5511
  539MPD2    C5 8054   1.850   2.619  11.824  0.4036 -0.8498  0.8078
  539MPD2     H 8055   1.854   2.547  11.439  1.3090  2.7708  0.0819
  539MPD2    H1 8056   1.737   2.791  11.774 -0.8288 -1.5421 -0.4863
  539MPD2    H2 8057   1.979   2.458  11.839 -0.5255 -0.6899  0.0866
  539MPD2    H3 8058   1.851   2.636  11.931 -0.3878  1.4313  0.4533
  539MPD2     N 8059   1.753   2.792  11.525  0.2127 -0.3825  0.2731
  539MPD2    H5 8060   1.721   2.874  11.577 -0.8130  0.2883 -1.3996
  539MPD2    N1 8061   1.994   2.372  11.589 -0.2692  0.2795  0.1605
  539MPD2    H7 8062   1.983   2.343  11.492  1.8246  1.5750 -0.4551
  540TMC3    C1 8063   1.683   2.924  11.341 -0.2282  0.0176  0.5693
  540TMC3    C2 8064   1.680   2.945  11.200 -1.0110  0.3421 -0.0357
  540TMC3    C3 8065   1.611   3.059  11.154 -0.3499  0.5406 -0.0299
  540TMC3    C4 8066   1.624   3.013  11.425 -1.0168  0.7112  0.2312
  540TMC3    C5 8067   1.563   3.120  11.376 -0.2192 -0.3147  0.0128
  540TMC3    C6 8068   1.562   3.145  11.246 -0.0659  0.5125 -0.2992
  540TMC3     C 8069   1.747   2.807  11.391 -0.0652 -0.2142  0.6137
  540TMC3     O 8070   1.794   2.732  11.309  0.0223  0.3950  0.2843
  540TMC3     H 8071   1.725   2.876  11.129  0.2350  1.3309 -0.2177
  540TMC3    H1 8072   1.620   2.993  11.532 -0.2586 -0.9255 -0.0481
  540TMC3    H2 8073   1.507   3.231  11.210 -2.4867 -1.0781 -0.4157
  540TMC3    C7 8074   1.499   3.208  11.468  0.4316 -0.1291 -0.0836
  540TMC3    C8 8075   1.539   3.054  11.031 -0.0949 -0.3569  0.0443
  540TMC3    O1 8076   1.447   3.149  11.561 -0.1347  0.1808  0.3600
  540TMC3    O2 8077   1.506   3.159  10.981 -0.0056 -0.4256  0.5480
  541MPD2     C 8078   0.153   3.824  13.267  0.4340 -0.1659 -0.2140
  541MPD2    C1 8079   0.221   3.712  13.218  0.3360  0.0354 -0.5057
  541MPD2    C2 8080   0.272   3.723  13.092 -0.1866 -0.4640  1.2369
  541MPD2    C3 8081   0.269   3.845  13.019 -1.5120 -0.4493  0.7144
  541MPD2    C4 8082   0.206   3.960  13.073 -0.2463 -0.8132  0.7916
  541MPD2    C5 8083   0.143   3.939  13.193 -0.0892  0.3849 -0.0617
  541MPD2     H 8084   0.326   3.635  13.058 -0.3289  0.2154 -0.6797
  541MPD2    H1 8085   0.200   4.056  13.024  0.9048 -1.4333 -0.5637
  541MPD2    H2 8086   0.112   3.828  13.367  0.2363 -0.8029 -0.2694
  541MPD2    H3 8087   0.088   4.019  13.241 -2.7632 -1.4450 -0.0664
  541MPD2     N 8088   0.329   3.864  12.893 -0.2430  0.2332 -0.5177
  541MPD2    H5 8089   0.328   3.956  12.851  0.9479  0.2233 -0.5830
  541MPD2    N1 8090   0.214   3.599  13.288 -0.2291  0.0798 -0.3853
  541MPD2    H7 8091   0.257   3.522  13.236 -1.1897 -1.9254  1.7860
  542TMC3    C1 8092   0.394   3.814  12.673 -0.2789 -0.1622  0.0016
  542TMC3    C2 8093   0.477   3.738  12.590  0.1304  0.4636  0.9270
  542TMC3    C3 8094   0.465   3.760  12.459  0.2464 -0.7345 -0.5241
  542TMC3    C4 8095   0.301   3.907  12.625 -0.1350 -0.3375 -0.5706
  542TMC3    C5 8096   0.283   3.907  12.490  0.0905  0.7324 -0.6785
  542TMC3    C6 8097   0.367   3.844  12.399  0.2935 -0.2944 -0.1655
  542TMC3     C 8098   0.389   3.769  12.813  0.4814 -0.2259  0.4922
  542TMC3     O 8099   0.429   3.656  12.835  0.2577  0.2946 -0.2354
  542TMC3     H 8100   0.550   3.674  12.638 -0.3271  0.6629  1.8795
  542TMC3    H1 8101   0.230   3.959  12.689 -0.2926  0.9292 -1.7852
  542TMC3    H2 8102   0.346   3.835  12.293 -1.4681 -1.3409  0.2627
  542TMC3    C7 8103   0.190   4.006  12.438 -0.1826 -0.4501  0.4060
  542TMC3    C8 8104   0.571   3.717  12.362 -0.6683  0.8278  0.2245
  542TMC3    O1 8105   0.166   4.102  12.511 -0.4356 -0.1620 -0.2445
  542TMC3    O2 8106   0.545   3.691  12.247  0.3050  0.3676 -0.1139
  543TMC3    C1 8107   0.267   0.898  17.465 -0.3516 -0.3273  0.3269
  543TMC3    C2 8108   0.309   0.785  17.530 -0.4164  0.6921  0.9806
  543TMC3    C3 8109   0.281   0.775  17.666 -1.1431 -0.3302  0.8052
  543TMC3    C4 8110   0.233   1.011  17.541 -0.4460 -0.4712  0.6358
  543TMC3    C5 8111   0.232   0.996  17.676  0.3730  0.3622  0.0963
  543TMC3    C6 8112   0.258   0.882   0.012  0.6792  0.0262  0.1060
  543TMC3     C 8113   0.312   0.911  17.336  0.9796  0.8294  0.2211
  543TMC3     O 8114   0.389   0.829  17.288  0.2001 -0.1619  0.1545
  543TMC3     H 8115   0.345   0.700  17.472 -0.2981  1.9806 -0.8182
  543TMC3    H1 8116   0.213   1.110  17.502 -0.7528 -0.2248  1.4365
  543TMC3    H2 8117   0.236   0.881   0.118  2.1618  1.4400  0.4333
  543TMC3    C7 8118   0.188   1.112   0.020  0.1400  0.5116 -0.0935
  543TMC3    C8 8119   0.273   0.634  17.713 -0.0011 -0.2691 -0.8842
  543TMC3    O1 8120   0.157   1.082   0.134 -0.1261  0.4421 -0.7454
  543TMC3    O2 8121   0.280   0.543  17.630  0.0961  0.1933  0.1814
  544MPD2     C 8122   0.241   0.269   0.310  0.7244  0.1219  0.7974
  544MPD2    C1 8123   0.186   0.275   0.189 -0.2578 -0.2642  0.1266
  544MPD2    C2 8124   0.191   0.394   0.122 -0.8628 -0.3320  0.3314
  544MPD2    C3 8125   0.259   0.502   0.174 -0.7682 -0.3832  0.3002
  544MPD2    C4 8126   0.307   0.501   0.304 -0.4881  0.1119 -0.1401
  544MPD2    C5 8127   0.303   0.376   0.370  0.4097  0.5840 -0.1987
  544MPD2     H 8128   0.154   0.401   0.020 -1.9036 -0.0359  0.7324
  544MPD2    H1 8129   0.352   0.588   0.350  2.5180  0.4605 -3.8185
  544MPD2    H2 8130   0.244   0.176   0.366 -1.3594 -0.6330 -0.3217
  544MPD2    H3 8131   0.338   0.367   0.472  0.5525  0.3481 -0.2686
  544MPD2     N 8132   0.272   0.621   0.112 -0.3477  0.4851 -0.6788
  544MPD2    H5 8133   0.297   0.701   0.169  1.0057  0.2806 -0.9772
  544MPD2    N1 8134   0.129   0.157   0.131 -0.0189  0.2611  0.1101
  544MPD2    H7 8135   0.120   0.075   0.190 -0.6956 -0.7872 -1.4468
  545TMC3    C1 8136   0.038   4.734  17.715  0.3095 -0.2999  0.9573
  545TMC3    C2 8137   4.673   4.709  17.623  0.3382 -0.0239  0.5915
  545TMC3    C3 8138   4.657   4.581  17.585 -0.1694 -0.6679 -0.5313
  545TMC3    C4 8139   0.126   4.640   0.025 -0.3126 -0.5449 -0.0327
  545TMC3    C5 8140   0.108   4.512  17.714  0.0547 -0.6488  0.4129
  545TMC3    C6 8141   0.003   4.481  17.631 -0.3761 -0.6257  0.5023
  545TMC3     C 8142   0.052   0.142   0.021  0.1827  0.2550 -0.1264
  545TMC3     O 8143   0.007   0.223  17.682  0.0738 -0.3141  0.4681
  545TMC3     H 8144   4.598   0.045  17.589 -1.7967 -1.9896  1.2432
  545TMC3    H1 8145   0.210   4.665   0.089 -2.7189 -0.8447  3.2362
  545TMC3    H2 8146   4.726   4.380  17.594 -0.1195 -0.5829  0.3055
  545TMC3    C7 8147   0.189   4.407   0.020  0.9180 -0.2052 -0.2616
  545TMC3    C8 8148   4.576   4.547  17.473  0.4545  0.3200  0.0639
  545TMC3    O1 8149   0.166   4.296  17.711  0.1666  0.1928 -0.1981
  545TMC3    O2 8150   4.555   4.432  17.449 -0.5336 -0.0567  0.5232
  546MPD2     C 8151   1.653   0.648  17.628 -0.0206  0.1663 -0.4634
  546MPD2    C1 8152   1.590   0.681  17.510  0.1548  0.5870 -0.3375
  546MPD2    C2 8153   1.598   0.813  17.469 -0.4611 -0.6832 -0.1162
  546MPD2    C3 8154   1.655   0.913  17.546 -0.2907 -0.5659 -0.6995
  546MPD2    C4 8155   1.719   0.871  17.658  0.3391 -0.1372 -0.8491
  546MPD2    C5 8156   1.719   0.738  17.701 -0.1433 -0.2282  0.5816
  546MPD2     H 8157   1.557   0.846  17.374  0.8705  0.3581 -0.3390
  546MPD2    H1 8158   1.772   0.951  17.709  1.4885 -0.6158 -1.2788
  546MPD2    H2 8159   1.661   0.542  17.650  1.7153  0.4466  0.2041
  546MPD2    H3 8160   1.778   0.706   0.051 -0.4998 -1.0637  0.5197
  546MPD2     N 8161   1.668   1.047  17.505  0.2986 -0.0351 -0.2928
  546MPD2    H5 8162   1.728   1.103  17.565  1.8705 -2.1209  0.0966
  546MPD2    N1 8163   1.539   0.567  17.431  0.1930  0.5730 -0.7087
  546MPD2    H7 8164   1.553   0.472  17.462 -0.8372  1.0001  1.0573
  547TMC3    C1 8165   1.413   0.457  17.258  0.1820  0.1783 -1.2119
  547TMC3    C2 8166   1.305   0.469  17.179  0.2200 -0.1165  0.4091
  547TMC3    C3 8167   1.246   0.360  17.132 -0.3014  0.1350 -0.5903
  547TMC3    C4 8168   1.451   0.336  17.309 -0.2107  0.0031 -0.0719
  547TMC3    C5 8169   1.380   0.227  17.268  0.6336 -0.0988  0.9906
  547TMC3    C6 8170   1.287   0.232  17.169 -0.5004 -0.6109 -0.7198
  547TMC3     C 8171   1.458   0.582  17.321 -0.3950 -0.6542  0.0312
  547TMC3     O 8172   1.427   0.686  17.261 -0.2180  0.3229  0.3283
  547TMC3     H 8173   1.272   0.569  17.154  0.7091  0.7202  3.0911
  547TMC3    H1 8174   1.542   0.329  17.368 -0.4730  2.0816  0.6065
  547TMC3    H2 8175   1.242   0.146  17.120 -0.4786  0.3616 -2.4396
  547TMC3    C7 8176   1.394   0.115  17.356 -1.0334  0.1103  0.4171
  547TMC3    C8 8177   1.151   0.378  17.020 -0.3377 -0.2469 -0.0612
  547TMC3    O1 8178   1.447   0.127  17.467  0.1910 -0.1885 -0.6861
  547TMC3    O2 8179   1.173   0.479  16.952  0.0005 -0.4484  0.2038
  548MPD2     C 8180   0.760   0.993  12.974 -0.0929  0.1921 -0.2975
  548MPD2    C1 8181   0.713   0.864  12.942  0.1908 -0.0755 -0.6949
  548MPD2    C2 8182   0.801   0.766  12.922  0.3649  0.6374 -0.4141
  548MPD2    C3 8183   0.936   0.788  12.923  0.7055 -0.4641  0.0804
  548MPD2    C4 8184   0.984   0.912  12.954 -0.3188 -0.0664  0.0652
  548MPD2    C5 8185   0.895   1.013  12.984 -0.2320  0.3147 -0.2142
  548MPD2     H 8186   0.775   0.665  12.892 -1.9248  1.3371 -0.7747
  548MPD2    H1 8187   1.089   0.934  12.969  0.1597 -2.5830  0.4780
  548MPD2    H2 8188   0.698   1.078  12.999 -1.1730 -1.1782  1.6186
  548MPD2    H3 8189   0.929   1.115  12.997 -0.2359  0.4765 -1.4765
  548MPD2     N 8190   1.022   0.688  12.882  0.1929 -0.3421  0.0756
  548MPD2    H5 8191   0.982   0.597  12.866 -1.5822  0.4121  0.2208
  548MPD2    N1 8192   0.577   0.849  12.944  0.1735 -0.4269 -0.2807
  548MPD2    H7 8193   0.521   0.929  12.973 -0.2030 -0.7992  0.0191
  549TMC3    C1 8194   0.362   0.752  12.943 -0.1847  0.5322 -0.0478
  549TMC3    C2 8195   0.309   0.881  12.958  1.0285 -0.6048 -0.0374
  549TMC3    C3 8196   0.179   0.879  13.008 -0.1909  0.1220  0.9577
  549TMC3    C4 8197   0.290   0.641  12.952 -0.1761 -0.4998 -0.3019
  549TMC3    C5 8198   0.157   0.647  12.985  0.2755  0.5144  0.0788
  549TMC3    C6 8199   0.101   0.771  13.014 -0.1833 -0.0762 -0.2333
  549TMC3     C 8200   0.507   0.737  12.913 -0.8541 -0.1786 -0.2098
  549TMC3     O 8201   0.549   0.632  12.876  0.1689 -0.0135  0.5647
  549TMC3     H 8202   0.359   0.974  12.934  1.9859 -0.7887  1.2263
  549TMC3    H1 8203   0.349   0.550  12.949  1.9879  0.8982 -0.1939
  549TMC3    H2 8204   0.008   0.780  13.069 -0.3988  1.4848 -0.8448
  549TMC3    C7 8205   0.058   0.553  12.927 -0.2993  0.0039 -0.1262
  549TMC3    C8 8206   0.103   1.009  12.998 -0.6182 -0.4962 -0.0354
  549TMC3    O1 8207   4.677   0.572  12.955 -0.0596 -0.0098  0.3129
  549TMC3    O2 8208   4.724   1.008  12.963  0.2817 -0.1684  0.6072
  550TMC3    C1 8209   4.161   3.762  12.320 -0.2955 -0.4717 -0.1437
  550TMC3    C2 8210   4.111   3.788  12.446 -0.2267  0.5316  0.0816
  550TMC3    C3 8211   4.143   3.906  12.499 -0.0195 -0.2331  0.7189
  550TMC3    C4 8212   4.238   3.854  12.245  0.4238 -0.9409 -0.2282
  550TMC3    C5 8213   4.252   3.980  12.305  0.5878  0.0755  0.2668
  550TMC3    C6 8214   4.214   4.001  12.432  0.6035 -0.1250 -0.1840
  550TMC3     C 8215   4.143   3.628  12.260 -0.3585 -0.0800  0.8278
  550TMC3     O 8216   4.108   3.541  12.340 -0.3772 -0.0604  0.2264
  550TMC3     H 8217   4.061   3.707  12.498  0.2058  0.2435  0.0512
  550TMC3    H1 8218   4.271   3.844  12.143  0.0650 -1.1391 -0.3250
  550TMC3    H2 8219   4.215   4.099  12.477  0.7104 -0.8245  1.3682
  550TMC3    C7 8220   4.179   4.081  12.226 -0.0326 -0.5647  0.7115
  550TMC3    C8 8221   4.068   3.955  12.611  0.0304 -0.0763  0.1903
  550TMC3    O1 8222   4.107   4.026  12.141  0.0415 -0.5522  0.2246
  550TMC3    O2 8223   4.125   4.042  12.679 -0.2262  0.1498  0.2347
  551TMC3    C1 8224   1.690   1.975  13.667  0.1230 -0.0120 -0.1560
  551TMC3    C2 8225   1.764   2.012  13.561 -0.6012  0.5335  0.0140
  551TMC3    C3 8226   1.898   2.009  13.580 -0.4411 -0.1866 -0.2698
  551TMC3    C4 8227   1.753   1.954  13.785  0.0082  0.2238 -0.1636
  551TMC3    C5 8228   1.892   1.961  13.801 -0.1589  0.3563  0.3017
  551TMC3    C6 8229   1.968   1.996  13.696 -0.2560  0.0422  0.5061
  551TMC3     C 8230   1.547   2.005  13.670 -0.5191  0.1806  0.1744
  551TMC3     O 8231   1.499   2.042  13.776  0.6256  0.0509 -0.0482
  551TMC3     H 8232   1.726   2.030  13.461 -1.4579 -0.2369  0.1901
  551TMC3    H1 8233   1.691   1.934  13.871  2.0519 -1.2308  0.9433
  551TMC3    H2 8234   2.075   1.979  13.698  0.1939  2.4838 -3.0071
  551TMC3    C7 8235   1.947   1.957  13.936 -0.1998  0.5225  0.0982
  551TMC3    C8 8236   1.972   2.050  13.459  0.3340 -0.1431 -0.5861
  551TMC3    O1 8237   1.914   1.858  13.998 -0.0008 -0.0684 -0.0948
  551TMC3    O2 8238   1.924   2.017  13.350  0.2719  0.1968 -0.1001
  552MPD2     C 8239   3.753   3.833  13.880 -0.3132 -0.2897  0.0674
  552MPD2    C1 8240   3.740   3.708  13.931  0.2020 -0.5323 -0.1760
  552MPD2    C2 8241   3.841   3.662  14.016 -0.6823 -0.2374 -0.5448
  552MPD2    C3 8242   3.958   3.731  14.030  0.2450  0.5420 -0.1578
  552MPD2    C4 8243   3.971   3.855  13.976 -0.5613 -0.0828  0.7424
  552MPD2    C5 8244   3.870   3.903  13.896  0.4718 -0.3251 -0.0347
  552MPD2     H 8245   3.829   3.564  14.060 -0.4060 -0.3329 -0.6798
  552MPD2    H1 8246   4.051   3.924  13.999  1.3043 -1.4876 -1.5446
  552MPD2    H2 8247   3.688   3.886  13.810 -0.1132 -2.0808 -1.4613
  552MPD2    H3 8248   3.879   4.005  13.860  0.5069 -0.4014 -0.2427
  552MPD2     N 8249   4.062   3.687  14.115 -0.1997  0.6787 -0.5697
  552MPD2    H5 8250   4.152   3.734  14.107  0.6119 -0.4490  1.7731
  552MPD2    N1 8251   3.628   3.629  13.916  0.1950 -0.4526  0.1727
  552MPD2    H7 8252   3.639   3.534  13.949  0.5227 -0.3914  0.2396
  553TMC3    C1 8253   3.433   3.557  13.813 -0.2065  0.3645  0.1572
  553TMC3    C2 8254   3.371   3.573  13.690  0.1886 -0.2011 -0.5300
  553TMC3    C3 8255   3.328   3.462  13.624  0.0733 -0.5975 -0.3878
  553TMC3    C4 8256   3.440   3.441  13.872  0.3487 -0.3008  0.9703
  553TMC3    C5 8257   3.369   3.341  13.813 -0.0830  0.1720 -0.2580
  553TMC3    C6 8258   3.327   3.340  13.685  0.2726  0.0158  0.5333
  553TMC3     C 8259   3.515   3.661  13.850  0.6930 -0.6704 -0.0383
  553TMC3     O 8260   3.487   3.777  13.818 -0.1641 -0.0275 -0.0679
  553TMC3     H 8261   3.386   3.666  13.637  0.3899  1.0548  1.7080
  553TMC3    H1 8262   3.476   3.444  13.975  0.4125  0.0246  0.9384
  553TMC3    H2 8263   3.292   3.252  13.633  2.1616 -0.0969 -0.5746
  553TMC3    C7 8264   3.408   3.199  13.839  0.5043  0.7104  0.1604
  553TMC3    C8 8265   3.395   3.463  13.493 -0.6688  0.5877 -0.4204
  553TMC3    O1 8266   3.320   3.119  13.827 -0.2754 -0.2383  0.0144
  553TMC3    O2 8267   3.503   3.524  13.475 -0.0637 -0.5220  0.9085
  554TMC3    C1 8268   1.168   2.668  11.228  0.6403  0.2732 -0.0333
  554TMC3    C2 8269   1.052   2.642  11.154  0.4526  0.0727  0.5322
  554TMC3    C3 8270   1.008   2.753  11.086 -0.0302 -0.0209  0.0685
  554TMC3    C4 8271   1.219   2.793  11.259 -0.3236 -1.0017  0.0747
  554TMC3    C5 8272   1.162   2.897  11.192 -0.2096  0.2341 -0.3313
  554TMC3    C6 8273   1.062   2.878  11.104  0.3487 -0.8135 -0.0406
  554TMC3     C 8274   1.231   2.563  11.308  0.4981  0.3648  0.0987
  554TMC3     O 8275   1.351   2.567  11.333  0.3442 -0.0521 -0.7180
  554TMC3     H 8276   1.018   2.542  11.130 -1.5255  0.6732  0.8346
  554TMC3    H1 8277   1.288   2.811  11.341  1.8490 -0.3156 -1.9132
  554TMC3    H2 8278   1.016   2.964  11.056 -0.5000 -1.0304  0.3739
  554TMC3    C7 8279   1.215   3.036  11.211  0.3193 -0.1154 -0.1515
  554TMC3    C8 8280   0.924   2.747  10.970 -0.2690  0.3342  0.8984
  554TMC3    O1 8281   1.249   3.055  11.328 -0.0732 -0.5196  0.1863
  554TMC3    O2 8282   0.928   2.837  10.889 -0.5484 -0.4951 -0.0580
  555TMC3    C1 8283   4.624   2.275  15.278  0.4654 -1.4644 -0.0917
  555TMC3    C2 8284   4.698   2.340  15.371 -0.0811 -0.2709  0.0833
  555TMC3    C3 8285   0.050   2.263  15.441  0.1753  0.9948 -0.1986
  555TMC3    C4 8286   4.629   2.134  15.263  0.0586  0.0366  0.0368
  555TMC3    C5 8287   4.715   2.060  15.336  0.7436  0.1606 -0.0099
  555TMC3    C6 8288   0.064   2.123  15.431 -0.2771  0.0041 -0.3348
  555TMC3     C 8289   4.554   2.364  15.186 -0.3884 -0.4199  0.2333
  555TMC3     O 8290   4.594   2.482  15.185 -0.2600 -0.0494  0.2082
  555TMC3     H 8291   4.695   2.447  15.381  0.6418 -0.1879 -0.6319
  555TMC3    H1 8292   4.561   2.086  15.193 -1.7995  1.6926  0.6763
  555TMC3    H2 8293   0.132   2.072  15.499 -1.2517 -0.1927  0.4791
  555TMC3    C7 8294   4.701   1.916  15.325 -1.0501 -0.4811 -0.1383
  555TMC3    C8 8295   0.117   2.328  15.555  0.0295  0.1284 -0.2691
  555TMC3    O1 8296   4.598   1.866  15.285  0.4591 -0.8034  0.5685
  555TMC3    O2 8297   0.214   2.275  15.611  0.0833 -0.0072 -0.7071
  556MPD2     C 8298   3.225   3.982  10.582 -0.2993 -0.2783 -0.1773
  556MPD2    C1 8299   3.196   3.889  10.680 -0.0365 -0.5649  0.8258
  556MPD2    C2 8300   3.175   3.758  10.643  0.1344 -0.3493  0.1771
  556MPD2    C3 8301   3.188   3.719  10.508 -0.0754 -0.5236  0.6138
  556MPD2    C4 8302   3.219   3.811  10.404 -0.4326 -0.3393 -0.0139
  556MPD2    C5 8303   3.224   3.943  10.450  0.3874  0.1462 -0.6372
  556MPD2     H 8304   3.125   3.695  10.716  1.1158 -2.2686 -0.8133
  556MPD2    H1 8305   3.229   3.791  10.298  2.4424 -1.4223  0.4600
  556MPD2    H2 8306   3.236   4.088  10.601  1.9745 -0.5766  0.1281
  556MPD2    H3 8307   3.241   4.022  10.378 -0.5343  1.4530  0.5993
  556MPD2     N 8308   3.172   3.583  10.489 -0.9028  0.1072 -0.3118
  556MPD2    H5 8309   3.146   3.530  10.572  0.7568 -0.7698 -0.3559
  556MPD2    N1 8310   3.188   3.924  10.817 -0.8106  0.5225 -0.7087
  556MPD2    H7 8311   3.164   3.848  10.881  0.7757  1.8730  1.5090
  557TMC3    C1 8312   3.157   3.372  10.381  0.7706 -0.2940 -0.4393
  557TMC3    C2 8313   3.175   3.292  10.272 -0.2588  0.3800  0.1920
  557TMC3    C3 8314   3.155   3.158  10.291  0.3014 -0.1139 -0.0525
  557TMC3    C4 8315   3.097   3.329  10.499  0.4699  0.1591 -0.7690
  557TMC3    C5 8316   3.055   3.200  10.500 -0.1466 -0.2725 -0.2147
  557TMC3    C6 8317   3.089   3.112  10.403  0.2993  0.2419  0.8609
  557TMC3     C 8318   3.192   3.513  10.373  0.4190  0.2810  0.9616
  557TMC3     O 8319   3.254   3.546  10.274 -0.3072 -0.5085 -0.0398
  557TMC3     H 8320   3.244   3.329  10.198  1.1597  0.5265  1.5868
  557TMC3    H1 8321   3.071   3.392  10.583  0.3445 -1.4727  0.4148
  557TMC3    H2 8322   3.072   3.007  10.424  2.6603 -0.5014 -0.8248
  557TMC3    C7 8323   2.922   3.174  10.566  0.2976 -0.2976 -0.5453
  557TMC3    C8 8324   3.212   3.070  10.187  0.4200  0.0222  0.4636
  557TMC3    O1 8325   2.896   3.252  10.656  0.1204  0.5694  0.1699
  557TMC3    O2 8326   3.272   3.124  10.098 -0.0352 -0.0584 -0.0500
  558TMC3    C1 8327   0.180   1.565  10.583 -0.5976 -0.8626 -0.1631
  558TMC3    C2 8328   0.068   1.633  10.630 -0.4249  0.5092  0.0957
  558TMC3    C3 8329   0.025   1.739  10.550 -0.1430 -0.1126  0.2640
  558TMC3    C4 8330   0.254   1.619  10.479  0.5705 -0.2670 -0.3711
  558TMC3    C5 8331   0.203   1.720  10.400  0.0609 -0.4762  0.1692
  558TMC3    C6 8332   0.085   1.786  10.435 -0.9941  0.6603 -0.2462
  558TMC3     C 8333   0.257   1.483  10.679 -0.2327 -0.1204  0.5549
  558TMC3     O 8334   0.378   1.467  10.656 -0.2643  0.4184  0.1938
  558TMC3     H 8335   0.009   1.601  10.714 -1.5913 -0.9619 -1.2823
  558TMC3    H1 8336   0.343   1.566  10.444 -0.4446 -0.0989 -3.1700
  558TMC3    H2 8337   0.055   1.881  10.393 -0.6757  0.7304 -0.3065
  558TMC3    C7 8338   0.308   1.806  10.357  1.0798 -0.4546 -0.7094
  558TMC3    C8 8339   4.649   1.821  10.605  0.5093 -0.4756  0.1075
  558TMC3    O1 8340   0.412   1.814  10.426 -0.5033 -0.2279 -0.2435
  558TMC3    O2 8341   4.559   1.843  10.528 -0.1812  0.0298  0.1336
  559MPD2     C 8342   0.504   2.203  10.524 -0.4660  0.1448  0.6949
  559MPD2    C1 8343   0.454   2.149  10.644  0.1238 -0.1420  0.2959
  559MPD2    C2 8344   0.540   2.124  10.753  0.3374 -0.3504  0.7140
  559MPD2    C3 8345   0.680   2.141  10.743  0.0827 -0.2333 -0.4188
  559MPD2    C4 8346   0.728   2.176  10.618  0.7353  0.5196  0.3145
  559MPD2    C5 8347   0.642   2.209  10.518  0.2328  0.1578  0.6853
  559MPD2     H 8348   0.495   2.098  10.848  1.2441 -0.9005  0.9934
  559MPD2    H1 8349   0.836   2.175  10.609  0.5708 -1.8874 -1.3014
  559MPD2    H2 8350   0.436   2.225  10.443  0.3075 -0.8329 -0.2247
  559MPD2    H3 8351   0.681   2.237  10.420 -1.3154  1.6922  0.5116
  559MPD2     N 8352   0.765   2.123  10.851  0.3385  0.2683  0.0574
  559MPD2    H5 8353   0.729   2.065  10.927 -0.8098  0.0953 -0.6222
  559MPD2    N1 8354   0.313   2.147  10.656 -0.0644 -0.6131 -0.1779
  559MPD2    H7 8355   0.258   2.179  10.577  0.8995  0.1495 -0.5350
  560TMC3    C1 8356   0.926   2.172  11.005  0.5027  0.1082  0.2300
  560TMC3    C2 8357   0.825   2.143  11.099  0.2951 -0.5871 -0.5074
  560TMC3    C3 8358   0.857   2.114  11.229  0.2449 -0.3492 -0.0083
  560TMC3    C4 8359   1.056   2.173  11.037 -0.7344 -0.1372  0.1589
  560TMC3    C5 8360   1.086   2.137  11.166 -0.2026  0.1983 -1.0323
  560TMC3    C6 8361   0.992   2.121  11.268  0.7036 -0.1310 -0.8839
  560TMC3     C 8362   0.890   2.175  10.866 -0.1706 -0.0983 -0.7112
  560TMC3     O 8363   0.958   2.250  10.804  0.2093  0.3372 -0.2632
  560TMC3     H 8364   0.718   2.160  11.090  0.0703 -0.9039  1.4165
  560TMC3    H1 8365   1.135   2.194  10.965 -1.1807 -0.6575 -0.4891
  560TMC3    H2 8366   1.036   2.101  11.365 -4.1916 -0.8767  1.2199
  560TMC3    C7 8367   1.222   2.107  11.215 -0.0404  0.7306 -0.2103
  560TMC3    C8 8368   0.748   2.077  11.318  0.1348  0.4409 -0.3106
  560TMC3    O1 8369   1.243   2.013  11.288 -0.5979 -0.1950  0.3384
  560TMC3    O2 8370   0.638   2.118  11.290  0.3094  0.3633  0.0615
  561TMC3    C1 8371   3.166   1.466  11.076 -0.1161  1.0175 -0.5179
  561TMC3    C2 8372   3.061   1.378  11.099 -0.7087  0.1366 -0.9427
  561TMC3    C3 8373   2.962   1.425  11.182 -0.1897  0.7119 -0.3196
  561TMC3    C4 8374   3.191   1.585  11.135 -0.3326 -0.4897 -0.1395
  561TMC3    C5 8375   3.093   1.633  11.211  0.0796 -0.6545  0.0873
  561TMC3    C6 8376   2.984   1.550  11.241 -0.1071 -0.0396  0.2575
  561TMC3     C 8377   3.274   1.404  11.003 -0.4624 -0.4440  0.3081
  561TMC3     O 8378   3.239   1.303  10.941 -0.4057  0.1983 -0.1313
  561TMC3     H 8379   3.064   1.272  11.075 -2.4202 -0.1097 -0.1207
  561TMC3    H1 8380   3.280   1.644  11.115 -0.5113 -0.1095  0.1826
  561TMC3    H2 8381   2.905   1.597  11.298 -1.5875 -1.7564 -0.3784
  561TMC3    C7 8382   3.113   1.757  11.279  0.3880 -0.0447 -0.1169
  561TMC3    C8 8383   2.882   1.326  11.251  0.6957 -0.3386 -0.7156
  561TMC3    O1 8384   3.057   1.768  11.386  0.0224 -0.3908 -0.1292
  561TMC3    O2 8385   2.859   1.217  11.202 -0.0493  0.0912 -0.1111
  562TMC3    C1 8386   4.396   2.644  16.298  0.3685  0.1391 -0.3388
  562TMC3    C2 8387   4.320   2.751  16.277 -0.5863 -0.6671  0.5553
  562TMC3    C3 8388   4.320   2.815  16.149  0.4628 -0.1321 -1.0383
  562TMC3    C4 8389   4.469   2.590  16.198 -0.2544 -0.1176  0.6580
  562TMC3    C5 8390   4.467   2.644  16.075 -0.7931  0.0583 -0.3233
  562TMC3    C6 8391   4.384   2.754  16.044  0.6986 -0.0782 -0.1680
  562TMC3     C 8392   4.432   2.609  16.439 -0.0708 -0.3353 -0.8385
  562TMC3     O 8393   4.419   2.702  16.521 -0.5967 -0.1675 -0.1500
  562TMC3     H 8394   4.262   2.798  16.355  0.9641 -0.0596  1.3314
  562TMC3    H1 8395   4.541   2.512  16.220  0.3120 -0.8984 -3.8582
  562TMC3    H2 8396   4.379   2.794  15.943 -1.9990 -1.5589 -0.6410
  562TMC3    C7 8397   4.496   2.566  15.963 -0.2292 -0.5999  0.1858
  562TMC3    C8 8398   4.183   2.848  16.125 -0.8362 -0.5971 -0.1940
  562TMC3    O1 8399   4.461   2.609  15.854 -0.3502  0.3193  0.6577
  562TMC3    O2 8400   4.103   2.789  16.196 -0.0089 -0.1627  0.2101
  563MPD2     C 8401   2.315   3.693  15.627  0.2940  0.0381  0.1583
  563MPD2    C1 8402   2.387   3.760  15.719  0.1373  0.7421 -1.0810
  563MPD2    C2 8403   2.501   3.710  15.770  0.1821  0.4077 -0.1903
  563MPD2    C3 8404   2.534   3.580  15.740 -0.9559  0.2765  0.3069
  563MPD2    C4 8405   2.471   3.508  15.638  0.6755  0.0496 -0.3180
  563MPD2    C5 8406   2.356   3.569  15.591  0.4664  0.5536 -0.3805
  563MPD2     H 8407   2.553   3.760  15.851  0.9492  0.5668 -0.7804
  563MPD2    H1 8408   2.492   3.404  15.613 -0.7474 -0.3506  0.1281
  563MPD2    H2 8409   2.225   3.728  15.578  0.5999  0.6778  0.0427
  563MPD2    H3 8410   2.297   3.512  15.521  0.4845  2.1109 -1.6582
  563MPD2     N 8411   2.632   3.525  15.826  0.4776 -0.2324  0.4378
  563MPD2    H5 8412   2.662   3.589  15.899  1.4908 -2.1169  1.6540
  563MPD2    N1 8413   2.327   3.872  15.770  0.0798  0.6951  0.4707
  563MPD2    H7 8414   2.227   3.883  15.758  0.1564  1.5728  0.6268
  564TMC3    C1 8415   2.340   3.982  15.973  0.4077  0.6438 -0.0010
  564TMC3    C2 8416   2.209   3.965  16.001 -1.1103  0.3169 -0.2777
  564TMC3    C3 8417   2.171   3.942  16.130  0.7629  0.8279 -0.2002
  564TMC3    C4 8418   2.430   3.973  16.078  0.1397 -0.1743  0.5052
  564TMC3    C5 8419   2.390   3.948  16.209 -1.2744  0.1510 -0.6589
  564TMC3    C6 8420   2.258   3.954  16.229 -1.1037 -0.2182  0.4280
  564TMC3     C 8421   2.398   3.959  15.843  1.3467 -0.5375  0.3318
  564TMC3     O 8422   2.516   3.986  15.825 -0.2520 -0.4843 -0.1581
  564TMC3     H 8423   2.133   3.976  15.925  0.7588  0.0924 -2.1644
  564TMC3    H1 8424   2.534   3.980  16.047 -0.4099 -0.7642 -1.5296
  564TMC3    H2 8425   2.214   3.931  16.325  0.4826 -0.7155  1.0277
  564TMC3    C7 8426   2.444   3.820  16.257  0.0648  0.2847  0.4452
  564TMC3    C8 8427   2.096   3.818  16.150  0.3335 -0.2039  0.2233
  564TMC3    O1 8428   2.419   3.801  16.378  0.4048 -0.5067  0.5247
  564TMC3    O2 8429   2.067   3.780  16.264  0.0109 -0.1920  0.4967
  565TMC3    C1 8430   2.211   1.250  10.237  0.7247 -0.0510 -0.0877
  565TMC3    C2 8431   2.259   1.125  10.249  0.0022 -0.6372  0.6031
  565TMC3    C3 8432   2.163   1.032  10.276  0.2338  0.5256  0.0956
  565TMC3    C4 8433   2.080   1.289  10.233  0.1147  0.7256 -0.6658
  565TMC3    C5 8434   1.993   1.183  10.251  0.4557 -0.2634  0.1152
  565TMC3    C6 8435   2.032   1.055  10.274  0.1838  0.1324 -0.4845
  565TMC3     C 8436   2.308   1.354  10.266 -0.0505  0.3017  0.0700
  565TMC3     O 8437   2.279   1.439  10.350  0.1651 -0.4621 -0.0859
  565TMC3     H 8438   2.364   1.101  10.259  0.0377 -0.5938  0.3400
  565TMC3    H1 8439   2.050   1.389  10.205 -0.8859 -0.1168 -2.5723
  565TMC3    H2 8440   1.971   0.966  10.258  0.7718 -0.3149 -0.2219
  565TMC3    C7 8441   1.849   1.210  10.235  0.0480  1.1814 -0.4327
  565TMC3    C8 8442   2.199   0.895  10.267 -0.3027  0.1680 -0.0138
  565TMC3    O1 8443   1.762   1.145  10.293  0.0923 -0.0454  0.0336
  565TMC3    O2 8444   2.121   0.811  10.305 -0.4629 -0.2973  0.3663
  566MPD2     C 8445   4.060   1.607  14.584  0.1637  0.0015  0.9125
  566MPD2    C1 8446   4.068   1.629  14.450 -0.1131 -0.0922  0.9523
  566MPD2    C2 8447   3.966   1.594  14.364  0.4865 -0.2600 -0.2641
  566MPD2    C3 8448   3.848   1.541  14.420  0.2093  0.5352  0.8066
  566MPD2    C4 8449   3.847   1.510  14.556 -0.1975  0.3153  0.3334
  566MPD2    C5 8450   3.950   1.543  14.638  0.5320  0.2783 -0.3295
  566MPD2     H 8451   3.973   1.620  14.259 -1.5574  0.3847 -0.2470
  566MPD2    H1 8452   3.758   1.481  14.610  0.8650 -3.1163  0.2151
  566MPD2    H2 8453   4.145   1.644  14.639  0.1464 -1.6267  2.0416
  566MPD2    H3 8454   3.947   1.509  14.741  0.7343  1.9571  0.2206
  566MPD2     N 8455   3.728   1.504  14.346 -0.4865  0.0308  0.6170
  566MPD2    H5 8456   3.660   1.451  14.399 -1.2274  1.7692  1.4111
  566MPD2    N1 8457   4.187   1.710  14.411  0.3125 -0.7797 -0.1106
  566MPD2    H7 8458   4.248   1.746  14.483 -0.1306 -0.9220  0.3384
  567TMC3    C1 8459   4.346   1.823  14.295 -0.2177  0.0368  0.3186
  567TMC3    C2 8460   4.368   1.928  14.211 -0.3523 -0.4184  0.3584
  567TMC3    C3 8461   4.498   1.974  14.203 -0.1748  0.5594  0.7588
  567TMC3    C4 8462   4.445   1.762  14.368  0.5584  0.1747 -0.0022
  567TMC3    C5 8463   4.572   1.807  14.347 -0.4049  0.0809 -0.4508
  567TMC3    C6 8464   4.602   1.917  14.272 -0.5501 -0.7623 -0.9280
  567TMC3     C 8465   4.216   1.759  14.283 -0.1364 -0.3890 -0.3218
  567TMC3     O 8466   4.154   1.767  14.177  0.0183  1.1363 -0.3203
  567TMC3     H 8467   4.288   1.977  14.157  1.7513  0.1776 -2.2324
  567TMC3    H1 8468   4.422   1.675  14.429 -1.3401  0.5304 -0.1951
  567TMC3    H2 8469   4.703   1.956  14.269 -0.1019 -1.9065 -0.8752
  567TMC3    C7 8470   4.672   1.765  14.445 -0.0784 -0.1027  1.1389
  567TMC3    C8 8471   4.516   2.083  14.116 -0.3158 -0.1700  0.5548
  567TMC3    O1 8472   0.056   1.756  14.418 -0.4335  0.0103 -0.1094
  567TMC3    O2 8473   4.415   2.153  14.105  0.6264 -0.0992 -0.6165
  568MPD2     C 8474   2.163   2.291  16.636 -0.6847  0.2609 -0.4843
  568MPD2    C1 8475   2.231   2.384  16.707  0.2276 -0.6028  0.3371
  568MPD2    C2 8476   2.214   2.516  16.671  0.1211 -0.5779  0.1205
  568MPD2    C3 8477   2.124   2.553  16.570  0.7233 -1.1133 -0.3622
  568MPD2    C4 8478   2.041   2.459  16.508  0.2840 -0.1604 -0.0205
  568MPD2    C5 8479   2.068   2.327  16.537  0.3933 -0.1515  0.4067
  568MPD2     H 8480   2.275   2.600  16.702  0.8087 -1.2236  0.5056
  568MPD2    H1 8481   1.966   2.479  16.432  0.9372 -1.6169 -1.0397
  568MPD2    H2 8482   2.181   2.186  16.655  0.3140  0.6742  0.7693
  568MPD2    H3 8483   2.022   2.243  16.488  1.7321  0.1676 -1.3643
  568MPD2     N 8484   2.118   2.695  16.533 -0.1024  0.0599 -0.1149
  568MPD2    H5 8485   2.169   2.769  16.579 -0.2541  0.6831 -0.9437
  568MPD2    N1 8486   2.302   2.348  16.824  0.4065  0.2294  0.6031
  568MPD2    H7 8487   2.312   2.247  16.829  0.7675  0.1935 -0.8446
  569TMC3    C1 8488   2.060   2.888  16.427 -0.1926  0.0608  0.6421
  569TMC3    C2 8489   2.059   2.955  16.548  0.3258 -0.3180  0.2753
  569TMC3    C3 8490   2.045   3.092  16.555  0.0529 -0.7610  0.2625
  569TMC3    C4 8491   2.067   2.955  16.309  0.6592  0.3449 -0.2307
  569TMC3    C5 8492   2.051   3.092  16.317 -0.3189  0.1929  0.2839
  569TMC3    C6 8493   2.040   3.159  16.441  0.5639 -0.3564  0.4622
  569TMC3     C 8494   2.053   2.748  16.421 -0.4008  0.0366  0.5890
  569TMC3     O 8495   2.051   2.695  16.309  0.6650  0.5439 -0.4988
  569TMC3     H 8496   2.056   2.902  16.642  1.9366 -2.6311 -0.9738
  569TMC3    H1 8497   2.077   2.902  16.214 -1.6466  0.0844 -0.3111
  569TMC3    H2 8498   2.004   3.261  16.450 -0.7904 -0.8213  0.2395
  569TMC3    C7 8499   2.035   3.167  16.192  0.0674  0.9475  0.1360
  569TMC3    C8 8500   2.018   3.162  16.680  0.2984 -0.1568 -0.9556
  569TMC3    O1 8501   2.000   3.092  16.100 -0.9149  0.6676  0.0791
  569TMC3    O2 8502   1.975   3.090  16.770  0.5256  0.1955 -0.8350
  570TMC3    C1 8503   1.073   1.515  16.192  0.7576  0.6347  0.5489
  570TMC3    C2 8504   1.121   1.501  16.062  0.9949 -0.4559 -0.0521
  570TMC3    C3 8505   1.225   1.583  16.026 -0.0740 -0.5058 -0.2876
  570TMC3    C4 8506   1.126   1.610  16.278  0.3110  0.2926  0.6930
  570TMC3    C5 8507   1.234   1.687  16.239 -0.2937  0.3328 -0.1439
  570TMC3    C6 8508   1.289   1.666  16.111  0.7745  0.3806 -0.5249
  570TMC3     C 8509   0.974   1.417  16.232  0.1571  0.3469 -0.7706
  570TMC3     O 8510   0.887   1.394  16.151  0.3163 -0.1226 -0.4689
  570TMC3     H 8511   1.093   1.405  16.021  1.0576 -0.0851 -0.9646
  570TMC3    H1 8512   1.078   1.617  16.376 -3.0907 -0.8311 -0.8742
  570TMC3    H2 8513   1.394   1.691  16.094  0.7475  0.7977 -0.0891
  570TMC3    C7 8514   1.320   1.736  16.347  0.5142 -0.0630 -0.0695
  570TMC3    C8 8515   1.309   1.536  15.916 -0.0574  0.3349 -0.4890
  570TMC3    O1 8516   1.314   1.666  16.451  0.3238 -0.4996 -0.0739
  570TMC3    O2 8517   1.404   1.606  15.895  0.1698 -0.2061 -0.1587
  571MPD2     C 8518   3.696   3.303  17.656  0.1495 -0.1836 -0.0197
  571MPD2    C1 8519   3.700   3.238   0.045  0.0535  0.5528 -0.3166
  571MPD2    C2 8520   3.767   3.298   0.150  0.1945  0.5832  0.6227
  571MPD2    C3 8521   3.822   3.424   0.133  0.8639 -0.0480  0.1002
  571MPD2    C4 8522   3.820   3.475   0.005 -0.2644  0.2806  0.0167
  571MPD2    C5 8523   3.765   3.414  17.635 -0.2295  0.9033 -1.1827
  571MPD2     H 8524   3.778   3.250   0.247  0.6702  2.1028  1.3294
  571MPD2    H1 8525   3.866   3.569  17.713 -0.3863  0.5988  0.8734
  571MPD2    H2 8526   3.638   3.264  17.573 -0.2653  0.4337 -0.0234
  571MPD2    H3 8527   3.766   3.467  17.541  0.9195  4.0286  0.5961
  571MPD2     N 8528   3.895   3.496   0.229  0.4468 -0.0120 -0.4808
  571MPD2    H5 8529   3.918   3.590   0.199 -0.4432 -0.1536 -1.6255
  571MPD2    N1 8530   3.641   3.111   0.062 -0.1010 -0.1465 -0.1871
  571MPD2    H7 8531   3.604   3.064  17.717  1.5368 -1.7873  0.0131
  572TMC3    C1 8532   4.002   3.559   0.433 -0.3152  1.1183  0.0659
  572TMC3    C2 8533   3.992   3.543   0.567  0.3129  0.1801  0.2986
  572TMC3    C3 8534   4.006   3.653   0.653 -0.5272 -1.0934 -0.5881
  572TMC3    C4 8535   4.040   3.671   0.381  0.7902  0.1138 -0.0902
  572TMC3    C5 8536   4.059   3.777   0.463 -0.0052  0.2644  0.3272
  572TMC3    C6 8537   4.044   3.771   0.601  0.4157  0.4545 -0.5504
  572TMC3     C 8538   3.940   3.455   0.350 -0.1783 -0.2913 -0.2634
  572TMC3     O 8539   3.929   3.338   0.393 -0.4799 -0.7822  0.1961
  572TMC3     H 8540   3.939   3.456   0.604 -0.5638  0.3371 -0.5697
  572TMC3    H1 8541   4.064   3.677   0.275  1.8571 -0.1554  0.1272
  572TMC3    H2 8542   4.056   3.855   0.668  0.4541  0.4795 -0.5889
  572TMC3    C7 8543   4.083   3.910   0.396 -0.2025  0.0448 -0.0978
  572TMC3    C8 8544   3.987   3.633   0.799  0.3026  0.9348 -0.1439
  572TMC3    O1 8545   4.068   3.912   0.273  0.2535  0.1865  0.1187
  572TMC3    O2 8546   3.962   3.516   0.832 -0.1418  0.1523 -0.0643
  573MPD2     C 8547   0.488   4.666   1.156 -0.0254  0.5660  0.4490
  573MPD2    C1 8548   0.617   4.633   1.191 -0.1170 -1.1197 -0.0248
  573MPD2    C2 8549   0.703   4.582   1.087 -0.3175  0.2406 -0.2295
  573MPD2    C3 8550   0.654   4.570   0.957  0.4361  0.5211  0.4720
  573MPD2    C4 8551   0.522   4.598   0.931  0.5322 -0.3189  0.4514
  573MPD2    C5 8552   0.445   4.645   1.027  0.0970  0.2949  0.1560
  573MPD2     H 8553   0.807   4.554   1.096 -0.8178 -1.7314 -0.4198
  573MPD2    H1 8554   0.493   4.593   0.827  0.3431 -0.8561  0.5283
  573MPD2    H2 8555   0.424   4.717   1.228 -0.0891  1.4798 -0.2513
  573MPD2    H3 8556   0.352   4.694   1.000 -0.4412 -1.4666 -1.2039
  573MPD2     N 8557   0.733   4.526   0.852 -0.2153  0.0667 -0.4647
  573MPD2    H5 8558   0.692   4.524   0.759  0.5907 -0.1957 -0.8075
  573MPD2    N1 8559   0.655   4.648   1.322 -0.9451 -0.1319 -0.0113
  573MPD2    H7 8560   0.580   4.665   1.388 -2.7842 -0.4873 -2.0337
  574TMC3    C1 8561   0.906   4.453   0.718  0.4580  0.5141 -0.5085
  574TMC3    C2 8562   0.817   4.424   0.611 -0.3172  0.6494  0.4487
  574TMC3    C3 8563   0.874   4.417   0.487 -0.7473 -0.2521  0.2356
  574TMC3    C4 8564   1.038   4.445   0.700 -0.4342 -0.1498  0.2501
  574TMC3    C5 8565   1.083   4.429   0.577 -0.2140 -0.2648  0.3764
  574TMC3    C6 8566   1.007   4.417   0.468 -0.4966  0.1608  0.8337
  574TMC3     C 8567   0.866   4.486   0.851  0.1839  1.3917  0.4155
  574TMC3     O 8568   0.949   4.473   0.941  0.1077  0.0294  0.0176
  574TMC3     H 8569   0.712   4.420   0.639 -0.1995 -0.3521  0.7202
  574TMC3    H1 8570   1.102   4.451   0.787 -1.0960 -0.6318  0.7648
  574TMC3    H2 8571   1.045   4.400   0.368 -2.5424  1.6715 -0.1870
  574TMC3    C7 8572   1.223   4.440   0.534  0.1176  0.0321  0.3123
  574TMC3    C8 8573   0.806   4.325   0.397 -0.2436  0.0912 -0.1772
  574TMC3    O1 8574   1.259   4.395   0.427 -0.2440  0.4606 -0.1271
  574TMC3    O2 8575   0.873   4.235   0.352 -0.4653  0.7731  0.2921
  575TMC3    C1 8576   2.451   0.224  10.712  0.0478  0.0156  0.2126
  575TMC3    C2 8577   2.534   0.125  10.678  0.2716 -0.6682  0.2127
  575TMC3    C3 8578   2.573   0.131  10.546 -0.7629 -0.2509  0.2103
  575TMC3    C4 8579   2.417   0.331  10.628  0.4280  0.4090  0.9211
  575TMC3    C5 8580   2.459   0.330  10.499 -0.4063 -0.2204 -0.4441
  575TMC3    C6 8581   2.540   0.229  10.458 -0.1165  0.9076  0.2367
  575TMC3     C 8582   2.397   0.235  10.848 -0.3427  0.0009  0.9608
  575TMC3     O 8583   2.302   0.308  10.862  0.3637 -0.1531 -0.1297
  575TMC3     H 8584   2.538   0.039  10.744 -0.9673 -1.4365 -0.7185
  575TMC3    H1 8585   2.350   0.406  10.669  0.9096  1.3116  0.0436
  575TMC3    H2 8586   2.562   0.224  10.352 -0.8620 -0.4919  0.1541
  575TMC3    C7 8587   2.394   0.423  10.409  0.7040 -0.2590 -0.5143
  575TMC3    C8 8588   2.655   0.022  10.491  0.5583 -0.3641  0.0530
  575TMC3    O1 8589   2.317   0.504  10.461  0.2712  0.2630 -0.3394
  575TMC3    O2 8590   2.666   0.024  10.369 -0.2684  0.4551 -0.3716
  576MPD2     C 8591   2.394   1.353  12.624  0.2900  0.0000 -0.0299
  576MPD2    C1 8592   2.413   1.447  12.528 -0.4233  0.4338 -0.1637
  576MPD2    C2 8593   2.314   1.535  12.501  0.3160  0.1469  0.0161
  576MPD2    C3 8594   2.198   1.538  12.568 -0.3412 -0.4423  0.1098
  576MPD2    C4 8595   2.192   1.467  12.683  0.0577  0.1611  0.4324
  576MPD2    C5 8596   2.287   1.368  12.708 -0.4976 -0.1624  0.4767
  576MPD2     H 8597   2.320   1.611  12.424 -0.2161  1.4154  1.2263
  576MPD2    H1 8598   2.113   1.449  12.755  0.9696 -1.2801  1.0790
  576MPD2    H2 8599   2.479   1.292  12.653  0.4451  0.4232  0.4096
  576MPD2    H3 8600   2.274   1.296  12.788  0.7178  0.2471  1.0417
  576MPD2     N 8601   2.094   1.623  12.530 -0.3879  1.2235 -0.9451
  576MPD2    H5 8602   2.103   1.666  12.438  1.9289  0.8885 -0.8675
  576MPD2    N1 8603   2.509   1.446  12.431  0.5388 -0.4185 -0.3490
  576MPD2    H7 8604   2.514   1.530  12.374  2.8042  0.9375  1.8261
  577TMC3    C1 8605   2.698   1.392  12.316  0.0339 -0.0796  0.2777
  577TMC3    C2 8606   2.711   1.307  12.204 -0.1262 -0.7090  0.0142
  577TMC3    C3 8607   2.745   1.358  12.081 -0.1928 -0.2890 -0.0393
  577TMC3    C4 8608   2.720   1.527  12.303  0.1781 -0.5506 -0.0602
  577TMC3    C5 8609   2.750   1.575  12.179  0.0772 -0.4117  0.0753
  577TMC3    C6 8610   2.771   1.491  12.070  0.3530  0.6960 -0.0197
  577TMC3     C 8611   2.607   1.355  12.422  0.0915 -0.4983  0.1091
  577TMC3     O 8612   2.605   1.237  12.454  0.3240 -0.2688 -0.1106
  577TMC3     H 8613   2.698   1.200  12.210 -1.0697 -0.5930  0.0415
  577TMC3    H1 8614   2.698   1.596  12.384 -1.1322 -1.1733  0.1128
  577TMC3    H2 8615   2.806   1.540  11.980  0.8983 -0.8082 -0.6335
  577TMC3    C7 8616   2.783   1.718  12.163 -0.8669  0.2751  0.0467
  577TMC3    C8 8617   2.736   1.263  11.965  0.1965 -1.0347  0.1084
  577TMC3    O1 8618   2.810   1.787  12.261 -0.4145  0.3169  0.7154
  577TMC3    O2 8619   2.698   1.148  11.986  0.2185 -0.0499  0.3565
  578MPD2     C 8620   1.141   1.674   1.145  1.1857  0.1323  0.7034
  578MPD2    C1 8621   1.195   1.790   1.188 -0.0319 -0.2749  0.1688
  578MPD2    C2 8622   1.335   1.789   1.207 -0.1455 -0.3393 -0.1352
  578MPD2    C3 8623   1.408   1.665   1.213 -0.1287  0.7214  0.1792
  578MPD2    C4 8624   1.340   1.551   1.180 -0.4796  0.2928 -0.2701
  578MPD2    C5 8625   1.205   1.553   1.148 -0.2698  0.3024  0.2225
  578MPD2     H 8626   1.393   1.879   1.223  1.7501 -1.7502  0.9311
  578MPD2    H1 8627   1.388   1.455   1.170 -2.6065 -0.6116 -1.8506
  578MPD2    H2 8628   1.036   1.666   1.118  1.4200 -0.7292  0.0234
  578MPD2    H3 8629   1.144   1.471   1.111 -1.3953  0.9047  0.7466
  578MPD2     N 8630   1.547   1.655   1.244 -0.7332  0.0199 -0.7984
  578MPD2    H5 8631   1.591   1.565   1.232 -0.0754  0.0932  1.0108
  578MPD2    N1 8632   1.113   1.910   1.181  0.0786  0.1052  0.4251
  578MPD2    H7 8633   1.016   1.904   1.153  0.2942 -0.5726 -0.1706
  579TMC3    C1 8634   1.768   1.706   1.294 -0.0891  0.4711 -0.8442
  579TMC3    C2 8635   1.857   1.808   1.336  0.1404  0.4131  0.3292
  579TMC3    C3 8636   1.985   1.773   1.347  0.0492  0.4376 -0.4737
  579TMC3    C4 8637   1.804   1.577   1.269  0.7163 -0.0308 -0.2965
  579TMC3    C5 8638   1.935   1.551   1.284  0.1722 -0.5624 -0.3459
  579TMC3    C6 8639   2.022   1.645   1.326  0.4534  0.1003 -0.1602
  579TMC3     C 8640   1.634   1.753   1.284 -0.2118 -0.7770 -0.0259
  579TMC3     O 8641   1.606   1.867   1.319  0.7192 -0.4158  0.0059
  579TMC3     H 8642   1.816   1.906   1.357 -0.0868 -0.2705  3.0986
  579TMC3    H1 8643   1.728   1.501   1.250 -0.6834  1.2371  0.2275
  579TMC3    H2 8644   2.117   1.609   1.365 -1.6530 -2.2741  2.7464
  579TMC3    C7 8645   1.992   1.432   1.232 -0.1264  0.0936 -0.0706
  579TMC3    C8 8646   2.062   1.865   1.421 -0.2108  0.1936  0.0785
  579TMC3    O1 8647   2.109   1.413   1.251 -0.4335  0.2686 -0.3911
  579TMC3    O2 8648   2.008   1.960   1.480 -0.2228 -0.4979 -0.3271
  580TMC3    C1 8649   0.731   0.872  12.525 -0.2778 -0.1959  0.5888
  580TMC3    C2 8650   0.786   0.900  12.410  0.5094 -0.0346 -0.0967
  580TMC3    C3 8651   0.837   0.798  12.327 -0.4385 -0.1737 -0.0651
  580TMC3    C4 8652   0.727   0.738  12.576  0.1843  0.2295 -0.1544
  580TMC3    C5 8653   0.787   0.636  12.499 -0.8859 -0.3345  0.0162
  580TMC3    C6 8654   0.845   0.670  12.377 -0.3561 -0.4937 -0.1457
  580TMC3     C 8655   0.618   0.958  12.557  0.0209  0.0049  0.4737
  580TMC3     O 8656   0.643   1.077  12.544 -0.2096  0.1634 -0.4125
  580TMC3     H 8657   0.777   0.999  12.367 -0.5846 -0.4717 -0.8800
  580TMC3    H1 8658   0.669   0.706  12.661  0.0324 -0.5179 -0.5422
  580TMC3    H2 8659   0.886   0.599  12.305 -0.2716 -0.4642 -0.1265
  580TMC3    C7 8660   0.774   0.493  12.541 -0.1555  0.0013 -0.0932
  580TMC3    C8 8661   0.920   0.827  12.211 -0.4625  0.5888  0.0299
  580TMC3    O1 8662   0.688   0.475  12.626  0.5171 -1.2199  0.0738
  580TMC3    O2 8663   0.939   0.734  12.132 -0.0079 -0.4335 -0.6801
  581MPD2     C 8664   2.827   0.007  14.751  0.0899 -0.0803 -0.5270
  581MPD2    C1 8665   2.785   0.038  14.878 -0.6450  1.1627 -1.0234
  581MPD2    C2 8666   2.665   0.104  14.900  0.4195  0.8331  0.6492
  581MPD2    C3 8667   2.589   0.139  14.792  0.1036 -0.2736 -0.5106
  581MPD2    C4 8668   2.638   0.118  14.661  0.7437  0.5761  0.3528
  581MPD2    C5 8669   2.756   0.046  14.644  0.1733  0.5694 -0.1916
  581MPD2     H 8670   2.628   0.123  15.000 -0.3930  1.8254  0.1658
  581MPD2    H1 8671   2.572   0.147  14.580  1.8254  0.5255 -0.5446
  581MPD2    H2 8672   2.912   4.676  14.740  0.5252  0.5647 -0.9449
  581MPD2    H3 8673   2.793   0.025  14.545  0.7501  1.3235 -0.1350
  581MPD2     N 8674   2.466   0.202  14.813  0.2951  0.0650 -0.0685
  581MPD2    H5 8675   2.440   0.229  14.908 -0.9710 -2.3792  0.2749
  581MPD2    N1 8676   2.832   4.706  14.991 -0.4170  0.2681 -0.4061
  581MPD2    H7 8677   2.792   4.730  15.082  0.0950 -1.0700  0.1686
  582TMC3    C1 8678   2.974   4.574  15.123  0.2681 -0.0322 -0.1115
  582TMC3    C2 8679   3.098   4.519  15.154 -0.2214  0.2992  0.3711
  582TMC3    C3 8680   3.118   4.464  15.273  0.0418  1.0604  0.1990
  582TMC3    C4 8681   2.864   4.557  15.209  0.1771  0.1385  0.2652
  582TMC3    C5 8682   2.894   4.499  15.334 -0.0787  0.3516  0.1379
  582TMC3    C6 8683   3.019   4.437  15.360  0.3673 -0.6497  0.3850
  582TMC3     C 8684   2.947   4.629  14.992 -0.2791  0.2716 -0.3824
  582TMC3     O 8685   3.035   4.608  14.913 -0.2114 -0.2760 -0.4388
  582TMC3     H 8686   3.188   4.525  15.093 -0.7605  0.7260 -0.3926
  582TMC3    H1 8687   2.763   4.592  15.192 -0.3706 -1.7198 -0.3689
  582TMC3    H2 8688   3.035   4.375  15.448  2.7504 -2.0607 -1.0570
  582TMC3    C7 8689   2.827   4.575  15.444 -0.2021  0.2671 -0.1959
  582TMC3    C8 8690   3.242   4.494  15.336  0.7720 -0.2545  0.4413
  582TMC3    O1 8691   2.744   4.656  15.411  0.3681 -0.6831 -0.1422
  582TMC3    O2 8692   3.347   4.464  15.281  0.1063  0.0505 -0.1314
  583MPD2     C 8693   3.350   2.002  17.066 -0.2866 -0.3426 -0.0449
  583MPD2    C1 8694   3.301   2.101  16.987  0.2690 -0.0527 -0.0452
  583MPD2    C2 8695   3.225   2.203  17.043  0.6588 -0.1621 -0.0963
  583MPD2    C3 8696   3.202   2.209  17.178  0.0353 -0.5240 -0.2544
  583MPD2    C4 8697   3.256   2.108  17.259  0.4525  0.6847 -0.3508
  583MPD2    C5 8698   3.309   1.995  17.197  0.3013  0.0588 -0.8297
  583MPD2     H 8699   3.203   2.271  16.962  1.3867  1.2630  0.9207
  583MPD2    H1 8700   3.245   2.108  17.367 -0.9555  0.8503 -0.4864
  583MPD2    H2 8701   3.428   1.931  17.041 -1.9418 -2.4875  0.8517
  583MPD2    H3 8702   3.337   1.906  17.252 -1.8970 -0.2066 -0.1605
  583MPD2     N 8703   3.139   2.326  17.236 -0.3358  0.2254  0.0876
  583MPD2    H5 8704   3.113   2.404  17.177 -1.3773  0.2161  0.5255
  583MPD2    N1 8705   3.330   2.104  16.849  0.3951 -0.1656  0.2475
  583MPD2    H7 8706   3.288   2.176  16.791  0.6107 -0.6660 -0.5249
  584TMC3    C1 8707   3.052   2.462  17.410 -0.5396 -0.5653 -0.6999
  584TMC3    C2 8708   3.077   2.579  17.334  0.5160  0.5798  0.8615
  584TMC3    C3 8709   3.024   2.696  17.383  0.2112  0.3511 -0.2675
  584TMC3    C4 8710   2.986   2.475  17.531 -0.3637 -0.3059  0.7463
  584TMC3    C5 8711   2.938   2.594  17.564  0.1742 -0.2345 -0.2158
  584TMC3    C6 8712   2.951   2.711  17.493 -0.4206 -0.1431 -0.3921
  584TMC3     C 8713   3.104   2.333  17.373 -0.6233 -0.3533  0.5119
  584TMC3     O 8714   3.098   2.240  17.450  0.3781 -0.3932  0.1508
  584TMC3     H 8715   3.144   2.578  17.249 -1.2568 -1.7157 -0.5142
  584TMC3    H1 8716   2.973   2.388  17.595  1.5927 -1.3726 -0.2730
  584TMC3    H2 8717   2.887   2.797  17.506 -1.6098 -1.3109  1.4301
  584TMC3    C7 8718   2.867   2.595  17.684  0.4598 -0.0539 -0.8895
  584TMC3    C8 8719   3.036   2.803  17.286  0.0224  0.6946 -0.2335
  584TMC3    O1 8720   2.864   2.485   0.006 -0.1045 -0.0854 -0.4589
  584TMC3    O2 8721   3.024   2.772  17.166 -0.6580 -0.3025  0.0138
  585MPD2     C 8722   2.739   1.307   0.300 -0.2189  0.4037  0.2461
  585MPD2    C1 8723   2.832   1.208   0.255 -0.5131  0.3338 -0.3005
  585MPD2    C2 8724   2.816   1.154   0.131  0.0125  0.6705 -0.5536
  585MPD2    C3 8725   2.720   1.203   0.044  0.2132 -0.2257  0.1867
  585MPD2    C4 8726   2.638   1.311   0.081 -0.0571  0.1402  0.7474
  585MPD2    C5 8727   2.648   1.357   0.211  0.3175 -0.4345  0.1603
  585MPD2     H 8728   2.885   1.079   0.094 -3.2561 -2.3397 -0.5730
  585MPD2    H1 8729   2.565   1.357   0.016 -0.4472  0.6126  1.5331
  585MPD2    H2 8730   2.733   1.358   0.396 -1.0832  0.7838 -0.0111
  585MPD2    H3 8731   2.599   1.449   0.242  2.9651  1.4214 -1.0830
  585MPD2     N 8732   2.711   1.155  17.648  0.4726 -0.2900 -0.0017
  585MPD2    H5 8733   2.629   1.183  17.596 -0.0336 -0.6386  0.6005
  585MPD2    N1 8734   2.938   1.178   0.343  0.0920 -0.2908 -0.4669
  585MPD2    H7 8735   2.944   1.225   0.432 -1.1458 -1.0961  0.0306
  586TMC3    C1 8736   2.757   1.083  17.440  0.0755  0.4991  0.0277
  586TMC3    C2 8737   2.850   1.080  17.341 -0.2347 -0.0536  0.2062
  586TMC3    C3 8738   2.824   1.020  17.223 -0.9257  1.0494  0.0185
  586TMC3    C4 8739   2.641   1.022  17.428  0.1560  0.0662 -0.0140
  586TMC3    C5 8740   2.611   0.971  17.301 -0.5635 -0.2641  0.1273
  586TMC3    C6 8741   2.701   0.965  17.198  0.0926 -0.4113  0.0685
  586TMC3     C 8742   2.806   1.100  17.569 -0.0939 -0.1909  0.2783
  586TMC3     O 8743   2.919   1.067  17.597  0.3831  0.1588 -0.0288
  586TMC3     H 8744   2.949   1.120  17.359  0.1617 -1.2401  0.6798
  586TMC3    H1 8745   2.571   1.008  17.509 -0.9526  4.0744 -0.2762
  586TMC3    H2 8746   2.672   0.920  17.103 -1.4864 -0.0203  0.3656
  586TMC3    C7 8747   2.484   0.907  17.268  0.4251  1.3131  0.0120
  586TMC3    C8 8748   2.914   0.996  17.116  0.6495  0.2986 -0.2017
  586TMC3    O1 8749   2.495   0.803  17.213  0.0622  0.2688  0.1618
  586TMC3    O2 8750   2.885   0.922  17.025  0.1739  0.4876  0.4456
  587TMC3    C1 8751   4.404   4.541  16.545 -0.3885 -0.8453  0.8286
  587TMC3    C2 8752   4.494   4.641  16.538 -0.4028  0.6866  0.8032
  587TMC3    C3 8753   4.566   4.662  16.651 -0.2407 -0.3319  0.7390
  587TMC3    C4 8754   4.387   4.463  16.653 -1.1955  0.4881 -0.0693
  587TMC3    C5 8755   4.469   4.489  16.760 -0.1652 -0.2585 -0.4113
  587TMC3    C6 8756   4.561   4.591  16.768  0.5006  0.0436  0.1690
  587TMC3     C 8757   4.314   4.521  16.440  0.3442  0.6485  0.0215
  587TMC3     O 8758   4.356   4.543  16.328  0.3051 -0.2597 -0.3444
  587TMC3     H 8759   4.489   4.711  16.455  1.6921  0.4186  0.4351
  587TMC3    H1 8760   4.329   4.372  16.645  1.5512 -1.3239  0.5902
  587TMC3    H2 8761   4.634   4.604  16.848  0.1880  0.4969  0.3758
  587TMC3    C7 8762   4.503   4.360  16.821  0.1411 -1.5614  0.4641
  587TMC3    C8 8763   4.647   0.052  16.663 -1.6024  0.6091 -1.0134
  587TMC3    O1 8764   4.441   4.263  16.781  0.0238  0.4569  0.4537
  587TMC3    O2 8765   4.686   0.095  16.771  0.4793  0.1550  0.1025
  588TMC3    C1 8766   2.122   2.120   9.843 -0.7604  0.0070 -0.5596
  588TMC3    C2 8767   2.084   1.992   9.836  0.0463  0.4318 -0.3113
  588TMC3    C3 8768   2.148   1.901   9.923 -0.9318  0.7127 -0.1353
  588TMC3    C4 8769   2.223   2.162   9.923 -0.1170 -0.4875 -0.3910
  588TMC3    C5 8770   2.286   2.071   9.999  0.4376  0.0360  0.0439
  588TMC3    C6 8771   2.252   1.934  10.007 -0.3842 -0.7948  0.3236
  588TMC3     C 8772   2.012   2.217   9.805  0.5840 -0.3572 -0.4755
  588TMC3     O 8773   1.904   2.167   9.782  0.4353  0.5321 -0.1093
  588TMC3     H 8774   2.006   1.961   9.767 -0.3962  0.1002  0.3429
  588TMC3    H1 8775   2.265   2.262   9.917 -0.5850 -0.3007 -0.6003
  588TMC3    H2 8776   2.314   1.872  10.071  1.2607  1.8083  1.2892
  588TMC3    C7 8777   2.392   2.132  10.088  0.4640  0.0188  0.1593
  588TMC3    C8 8778   2.069   1.782   9.957  0.4472  0.5545 -0.1967
  588TMC3    O1 8779   2.506   2.097  10.067 -0.1437 -0.4276  0.0354
  588TMC3    O2 8780   1.984   1.753   9.871  0.3157  0.7790 -0.1663
  589TMC3    C1 8781   2.150   0.242   1.417  0.2518  0.6686 -0.3251
  589TMC3    C2 8782   2.267   0.312   1.444 -0.6741  0.8045  0.2428
  589TMC3    C3 8783   2.384   0.258   1.406  1.1644  0.6793 -0.6915
  589TMC3    C4 8784   2.152   0.121   1.353 -0.2259 -0.0893 -0.2941
  589TMC3    C5 8785   2.277   0.068   1.326  0.8268 -1.0557 -0.1308
  589TMC3    C6 8786   2.396   0.128   1.362  0.4546 -0.0894  0.4845
  589TMC3     C 8787   2.017   0.299   1.437 -0.2845  0.0792  0.3528
  589TMC3     O 8788   1.915   0.236   1.409  0.4225  0.1265 -0.2275
  589TMC3     H 8789   2.260   0.411   1.488 -1.1668 -0.2049  2.3969
  589TMC3    H1 8790   2.061   0.067   1.331 -0.7158  0.7894 -0.4178
  589TMC3    H2 8791   2.486   0.086   1.319 -0.4848  0.9372 -2.5173
  589TMC3    C7 8792   2.268   4.660   1.280 -0.3617 -0.1367  0.4790
  589TMC3    C8 8793   2.504   0.339   1.416  0.1500  0.2581 -0.0075
  589TMC3    O1 8794   2.157   4.612   1.277  0.4936 -0.3034  0.2517
  589TMC3    O2 8795   2.488   0.451   1.468 -0.2911 -0.3329 -0.2746
  590MPD2     C 8796   1.165   3.341  16.970  0.2393 -0.4786  0.4335
  590MPD2    C1 8797   1.157   3.406  16.846  0.0649  0.2689 -0.0777
  590MPD2    C2 8798   1.258   3.388  16.753  0.0425 -0.5190  0.2850
  590MPD2    C3 8799   1.367   3.309  16.787 -0.5376 -0.0066  0.0306
  590MPD2    C4 8800   1.370   3.244  16.910  0.3185  0.1564  0.4417
  590MPD2    C5 8801   1.274   3.256  17.002 -0.1305  0.1709 -0.3710
  590MPD2     H 8802   1.240   3.427  16.653  0.5638  1.3233  0.9067
  590MPD2    H1 8803   1.448   3.171  16.929  0.1320  0.0788  0.9028
  590MPD2    H2 8804   1.091   3.366  17.045  1.5891 -1.7061  2.1740
  590MPD2    H3 8805   1.262   3.199  17.094  1.3947  1.7495  0.8114
  590MPD2     N 8806   1.465   3.297  16.691  0.3177 -0.1443 -0.1237
  590MPD2    H5 8807   1.463   3.362  16.613 -0.1753 -1.0332 -0.8419
  590MPD2    N1 8808   1.035   3.479  16.816 -0.1639 -0.6142 -0.2319
  590MPD2    H7 8809   0.960   3.470  16.883 -0.4714 -2.3772 -0.8254
  591TMC3    C1 8810   1.647   3.216  16.577 -0.1894  0.0962  0.2628
  591TMC3    C2 8811   1.654   3.104  16.497  0.0323  0.1772  0.0748
  591TMC3    C3 8812   1.684   3.131  16.369  0.1655 -0.3873  0.3443
  591TMC3    C4 8813   1.667   3.346  16.527 -0.6798  0.5645 -0.2089
  591TMC3    C5 8814   1.691   3.361  16.395  0.0996 -0.0692 -0.1110
  591TMC3    C6 8815   1.698   3.252  16.307 -0.5362 -0.1505 -0.7692
  591TMC3     C 8816   1.568   3.197  16.693 -0.0067  0.1969  0.1059
  591TMC3     O 8817   1.561   3.091  16.748  0.0291  0.2078  0.2736
  591TMC3     H 8818   1.644   3.000  16.524  0.2476  0.4365  1.1657
  591TMC3    H1 8819   1.677   3.426  16.600 -1.5308 -0.2980  0.8615
  591TMC3    H2 8820   1.739   3.268  16.208  1.4911  1.5783  0.3425
  591TMC3    C7 8821   1.712   3.494  16.339 -0.2227  0.1366 -1.0150
  591TMC3    C8 8822   1.714   3.020  16.294 -0.8216 -0.5858 -0.6225
  591TMC3    O1 8823   1.692   3.589  16.418  0.4746  0.0482  0.2784
  591TMC3    O2 8824   1.760   2.923  16.356 -0.2274 -0.3564  0.7822
  592MPD2     C 8825   1.252   4.662  11.946  0.0375 -0.0152 -0.2107
  592MPD2    C1 8826   1.248   4.709  12.075  0.4545  0.2623 -0.7617
  592MPD2    C2 8827   1.239   4.623  12.188 -0.1661 -0.0553  0.2342
  592MPD2    C3 8828   1.213   4.489  12.170  0.3852 -0.4158 -0.2662
  592MPD2    C4 8829   1.224   4.446  12.033 -0.4270 -0.0388  0.5355
  592MPD2    C5 8830   1.253   4.523  11.925 -0.4218  0.2749 -0.4955
  592MPD2     H 8831   1.232   4.659  12.290 -2.2296 -0.3508  0.1951
  592MPD2    H1 8832   1.203   4.345  12.001  0.3547 -0.1405  0.3479
  592MPD2    H2 8833   1.262   4.722  11.856  0.0752 -2.3460 -1.7810
  592MPD2    H3 8834   1.247   4.480  11.826  0.9018  0.5696 -0.7057
  592MPD2     N 8835   1.163   4.413  12.283 -0.1495 -0.2361  0.1263
  592MPD2    H5 8836   1.144   4.470  12.365 -1.7358 -0.6960  0.0674
  592MPD2    N1 8837   1.251   0.118  12.084 -0.6496 -0.1476 -0.0586
  592MPD2    H7 8838   1.239   0.168  11.996 -3.0089 -1.6445 -0.5917
  593TMC3    C1 8839   1.248   0.336  12.162  0.6052  0.2926 -0.2456
  593TMC3    C2 8840   1.232   0.415  12.273 -0.2439  0.1271  1.1748
  593TMC3    C3 8841   1.235   0.553  12.242 -0.0441 -0.7063 -0.6771
  593TMC3    C4 8842   1.254   0.384  12.031 -0.6445 -0.2470 -0.2026
  593TMC3    C5 8843   1.247   0.517  12.011  0.7407 -0.5564 -0.4848
  593TMC3    C6 8844   1.250   0.606  12.118  0.1357 -0.5459 -0.6020
  593TMC3     C 8845   1.260   0.191  12.195  0.2664  0.2563 -0.1208
  593TMC3     O 8846   1.282   0.153  12.311  0.0667  0.3079  0.5122
  593TMC3     H 8847   1.246   0.375  12.373  0.6820  1.0752  1.4183
  593TMC3    H1 8848   1.286   0.321  11.949 -0.9027  1.3515 -1.5404
  593TMC3    H2 8849   1.243   0.712  12.095 -0.1306 -0.2159  1.0172
  593TMC3    C7 8850   1.263   0.565  11.869 -0.9397 -0.2244 -0.3104
  593TMC3    C8 8851   1.207   0.653  12.336  0.6120 -0.5197  0.1286
  593TMC3    O1 8852   1.304   0.678  11.854  0.0150 -0.2309 -0.0363
  593TMC3    O2 8853   1.141   0.620  12.433 -0.8058 -0.1844 -0.3667
  594MPD2     C 8854   4.616   3.869  13.990  0.5027  0.7808  0.0503
  594MPD2    C1 8855   4.630   3.846  14.123  0.3892  0.2985 -0.4675
  594MPD2    C2 8856   4.714   3.928  14.192 -0.4311  0.1156 -0.7450
  594MPD2    C3 8857   0.056   4.029  14.132 -0.4191  0.7319  0.2694
  594MPD2    C4 8858   0.036   4.049  14.002  0.4708 -0.9504 -0.2032
  594MPD2    C5 8859   4.682   3.967  13.928  0.3258 -0.7844  0.1441
  594MPD2     H 8860   4.728   3.926  14.300  1.4140  0.5247 -0.9672
  594MPD2    H1 8861   0.079   4.134  13.951 -0.9918  0.3569  0.7624
  594MPD2    H2 8862   4.539   3.812  13.940  1.8213 -0.8821 -0.1116
  594MPD2    H3 8863   4.667   3.976  13.821 -1.2233  2.9625  0.6721
  594MPD2     N 8864   0.138   4.109  14.209 -0.3906 -0.0638 -0.7241
  594MPD2    H5 8865   0.162   4.084  14.304  0.9971  0.7192 -0.8699
  594MPD2    N1 8866   4.535   3.763  14.178  0.1435  0.5440 -0.4612
  594MPD2    H7 8867   4.473   3.722  14.109  0.4173 -0.4499 -0.1142
  595TMC3    C1 8868   0.463   4.387  14.382 -0.0848 -0.7057  0.3570
  595TMC3    C2 8869   0.394   4.349  14.259  0.1609  0.3583  0.4920
  595TMC3    C3 8870   0.277   4.290  14.276  0.4046 -0.1849  0.3524
  595TMC3    C4 8871   0.408   4.376  14.507 -0.4182 -0.6994  0.3470
  595TMC3    C5 8872   0.281   4.327  14.518 -0.3023  0.0434  0.2647
  595TMC3    C6 8873   0.213   4.288  14.403  0.4295  0.1738 -0.4332
  595TMC3     C 8874   0.599   4.425  14.361 -0.4755 -0.1868 -0.2756
  595TMC3     O 8875   0.659   4.392  14.261 -0.1318  0.3137  0.2198
  595TMC3     H 8876   0.444   4.367  14.164  0.8678  0.9589  0.9692
  595TMC3    H1 8877   0.465   4.406  14.595 -1.8572 -0.6825  1.2731
  595TMC3    H2 8878   0.117   4.239  14.407 -0.6051  1.9881 -2.9399
  595TMC3    C7 8879   0.207   4.372  14.637  0.0346 -1.0922 -0.6673
  595TMC3    C8 8880   0.205   4.224  14.162  0.5372  0.4148  0.8317
  595TMC3    O1 8881   0.085   4.397  14.626 -0.1131  0.7033 -1.0896
  595TMC3    O2 8882   0.217   4.275  14.055 -0.0318  0.7517 -0.1199
  596MPD2     C 8883   4.144   2.051  17.108 -0.1493  0.0740  0.2451
  596MPD2    C1 8884   4.079   2.137  17.023  0.9380  0.0669 -0.3162
  596MPD2    C2 8885   4.090   2.117  16.885 -0.7386  0.6147 -1.3370
  596MPD2    C3 8886   4.153   2.007  16.838  0.5602 -0.0692 -0.3007
  596MPD2    C4 8887   4.213   1.914  16.926  0.3550 -0.2159  0.7047
  596MPD2    C5 8888   4.217   1.943  17.058  0.0610  0.0311 -0.0406
  596MPD2     H 8889   4.027   2.176  16.819 -1.4780  2.1295  0.7110
  596MPD2    H1 8890   4.276   1.831  16.893  0.3689  0.3461 -0.7039
  596MPD2    H2 8891   4.146   2.057  17.217 -0.3621  1.1213  0.1936
  596MPD2    H3 8892   4.265   1.870  17.122  0.8115 -0.2861 -0.9500
  596MPD2     N 8893   4.145   1.963  16.706 -0.4130 -0.2845 -0.0393
  596MPD2    H5 8894   4.175   1.868  16.686  3.8626  0.6482  2.1171
  596MPD2    N1 8895   4.008   2.246  17.069  0.2011  0.1242  0.0012
  596MPD2    H7 8896   3.984   2.319  17.004  1.1914  0.3782 -0.0802
  597TMC3    C1 8897   3.899   2.392  17.216  0.4300  0.3157 -0.3067
  597TMC3    C2 8898   3.925   2.491  17.128  0.2418  0.6029  0.1685
  597TMC3    C3 8899   3.834   2.596  17.120  0.3322 -0.2191 -0.2810
  597TMC3    C4 8900   3.799   2.395  17.305  0.1312 -0.6694 -0.3803
  597TMC3    C5 8901   3.714   2.507  17.306  0.6818 -0.5869 -0.0116
  597TMC3    C6 8902   3.733   2.607  17.217 -0.1144 -0.1813  0.1511
  597TMC3     C 8903   3.962   2.264  17.198  0.1487  0.0891  0.7918
  597TMC3     O 8904   3.932   2.171  17.275 -0.0174 -0.2800  0.2678
  597TMC3     H 8905   4.010   2.487  17.061  0.0459 -0.9625  0.0134
  597TMC3    H1 8906   3.782   2.318  17.380  1.0796 -0.2013  0.3229
  597TMC3    H2 8907   3.674   2.697  17.206 -0.6781 -0.2104  3.0682
  597TMC3    C7 8908   3.593   2.508  17.394 -0.4931 -0.1070  0.3661
  597TMC3    C8 8909   3.876   2.721  17.047  0.3244  0.7915 -0.2307
  597TMC3    O1 8910   3.554   2.401  17.441  0.5274 -0.1166 -0.7300
  597TMC3    O2 8911   3.825   2.825  17.089  0.0093 -0.2178 -0.5317
  598TMC3    C1 8912   1.927   3.258  15.179  0.1540 -0.9361  0.6337
  598TMC3    C2 8913   1.788   3.251  15.201 -0.0378  0.1817 -0.4874
  598TMC3    C3 8914   1.708   3.312  15.108 -0.0709 -0.4715  0.1503
  598TMC3    C4 8915   1.978   3.344  15.083 -0.0608 -0.3623 -0.4703
  598TMC3    C5 8916   1.891   3.400  14.989  0.4741 -0.1295  0.3315
  598TMC3    C6 8917   1.755   3.382  15.005 -0.7122 -0.3002 -0.0125
  598TMC3     C 8918   1.999   3.273  15.298  0.0498 -0.1949  0.0118
  598TMC3     O 8919   2.105   3.337  15.276 -0.2938  0.5009 -0.2655
  598TMC3     H 8920   1.747   3.202  15.289 -0.1377  0.3468 -0.4414
  598TMC3    H1 8921   2.084   3.351  15.063  0.6917 -0.2517  3.5499
  598TMC3    H2 8922   1.690   3.423  14.928 -2.7387  0.2809  2.0374
  598TMC3    C7 8923   1.943   3.499  14.895 -0.2382  0.2814 -0.2911
  598TMC3    C8 8924   1.568   3.335  15.121 -0.2590  0.4688 -0.2336
  598TMC3    O1 8925   1.862   3.546  14.818  0.2384  0.0779 -0.0167
  598TMC3    O2 8926   1.518   3.420  15.052 -0.9678 -0.1434  0.0348
  599MPD2     C 8927   2.430   0.777  15.730 -1.1788  0.3279  0.1461
  599MPD2    C1 8928   2.343   0.679  15.698 -0.5726  0.7380 -0.0246
  599MPD2    C2 8929   2.214   0.667  15.752 -0.3774  0.9476 -0.4916
  599MPD2    C3 8930   2.169   0.770  15.836  0.7566  0.3675  0.0658
  599MPD2    C4 8931   2.258   0.866  15.872  0.2249 -0.5482 -0.3540
  599MPD2    C5 8932   2.393   0.864  15.825  0.8368  0.0932 -0.0241
  599MPD2     H 8933   2.142   0.595  15.717 -0.8511  0.6734  1.0702
  599MPD2    H1 8934   2.237   0.946  15.943 -1.1024 -0.0954 -1.2621
  599MPD2    H2 8935   2.523   0.796  15.678 -0.8733 -0.2217  0.4962
  599MPD2    H3 8936   2.463   0.943  15.851  0.0752  0.0626  2.0809
  599MPD2     N 8937   2.038   0.784  15.884  0.0054 -0.4982  0.0469
  599MPD2    H5 8938   2.018   0.873  15.929 -0.5489 -0.4439 -0.3094
  599MPD2    N1 8939   2.393   0.601  15.589 -0.7232  0.2106  0.7897
  599MPD2    H7 8940   2.490   0.624  15.568 -0.3946 -1.1057  0.9070
  600TMC3    C1 8941   1.811   0.745  15.960  0.3088 -0.7904 -0.4634
  600TMC3    C2 8942   1.708   0.657  15.978  0.1428  0.1855 -0.8283
  600TMC3    C3 8943   1.605   0.686  16.065  0.2988  0.4895 -0.4691
  600TMC3    C4 8944   1.821   0.858  16.035  0.7139 -0.3807  0.3122
  600TMC3    C5 8945   1.713   0.889  16.125 -0.3357 -0.8586 -0.0455
  600TMC3    C6 8946   1.606   0.800  16.138 -0.0493 -0.0396 -0.2006
  600TMC3     C 8947   1.934   0.694  15.890 -0.1690 -0.5712  0.0646
  600TMC3     O 8948   1.933   0.578  15.855  0.8040  0.1989 -0.3353
  600TMC3     H 8949   1.711   0.568  15.916  0.7618 -2.1344  2.5576
  600TMC3    H1 8950   1.901   0.931  16.030  0.1293  0.1062 -2.0096
  600TMC3    H2 8951   1.523   0.816  16.207 -0.0118 -3.3323  0.5956
  600TMC3    C7 8952   1.720   1.012  16.205  0.2803  0.7486 -0.5273
  600TMC3    C8 8953   1.514   0.579  16.101 -0.0073 -0.0749 -0.3555
  600TMC3    O1 8954   1.641   1.023  16.300 -0.3413  0.5043  0.7153
  600TMC3    O2 8955   1.549   0.468  16.066 -0.1488  1.0263  0.7412
  601MPD2     C 8956   4.217   4.394   0.380 -0.6578  0.3085  0.8933
  601MPD2    C1 8957   4.173   4.317   0.277 -0.1996 -0.0753 -0.4374
  601MPD2    C2 8958   4.125   4.188   0.310 -0.1527  0.4512 -0.2107
  601MPD2    C3 8959   4.145   4.141   0.440 -0.9124 -0.7271  0.4383
  601MPD2    C4 8960   4.191   4.221   0.543  0.8651  0.5732  0.1175
  601MPD2    C5 8961   4.238   4.345   0.505 -0.7126 -0.5233  0.5042
  601MPD2     H 8962   4.097   4.119   0.231 -2.3268 -0.5140  1.3968
  601MPD2    H1 8963   4.196   4.199   0.649  1.2742  1.0295  0.1927
  601MPD2    H2 8964   4.243   4.499   0.369  2.2930 -0.6805 -1.8968
  601MPD2    H3 8965   4.279   4.418   0.575  0.6545 -2.0016  1.2424
  601MPD2     N 8966   4.103   4.015   0.482  0.3288  0.0370 -0.1979
  601MPD2    H5 8967   4.101   3.998   0.582  0.2734  0.2501 -0.1617
  601MPD2    N1 8968   4.182   4.358   0.141  0.5293 -0.0574 -0.1455
  601MPD2    H7 8969   4.141   4.317   0.058 -1.4115 -0.6932  1.1128
  602TMC3    C1 8970   4.162   4.501  17.702  0.1858  0.2129  0.8992
  602TMC3    C2 8971   4.205   4.614  17.637 -0.1232  0.2453 -0.1291
  602TMC3    C3 8972   4.133   4.651  17.524 -0.4156 -0.2260  0.6281
  602TMC3    C4 8973   4.037   4.444  17.674  0.3120  0.4185 -0.0264
  602TMC3    C5 8974   3.977   4.484  17.564  0.2825 -0.4624  0.0409
  602TMC3    C6 8975   4.022   4.575  17.481  0.2768 -0.7224 -0.7039
  602TMC3     C 8976   4.220   4.475   0.091 -0.9905  0.1653 -0.3024
  602TMC3     O 8977   4.311   4.550   0.129 -1.0256 -0.1030  0.1381
  602TMC3     H 8978   4.289   4.673  17.673  0.9995 -1.5279  0.1933
  602TMC3    H1 8979   3.995   4.365  17.735  1.9930  1.3667  2.3992
  602TMC3    H2 8980   3.963   4.608  17.396 -0.8440 -1.6338 -0.2798
  602TMC3    C7 8981   3.861   4.408  17.523 -0.1463 -0.3715 -0.4031
  602TMC3    C8 8982   4.169   0.034  17.449 -0.0929  0.1305  0.5505
  602TMC3    O1 8983   3.837   4.302  17.574 -0.5090  0.5843  0.7687
  602TMC3    O2 8984   4.258   0.098  17.496  0.2302 -0.1207  0.1816
  603TMC3    C1 8985   2.619   4.140  10.743 -0.6377  0.2302  0.3097
  603TMC3    C2 8986   2.606   4.174  10.877 -0.1621  0.1914 -0.5333
  603TMC3    C3 8987   2.540   4.286  10.924 -0.8184 -0.8822  0.1088
  603TMC3    C4 8988   2.564   4.224  10.651 -0.4185 -0.5789 -0.4763
  603TMC3    C5 8989   2.487   4.333  10.694 -0.2612  0.8416  0.3843
  603TMC3    C6 8990   2.468   4.358  10.828  0.5542 -0.3931  0.0997
  603TMC3     C 8991   2.698   4.028  10.698 -0.1661 -0.0434  0.2332
  603TMC3     O 8992   2.677   3.994  10.585  0.1653  0.5396  0.7940
  603TMC3     H 8993   2.649   4.117  10.959  0.5506  1.1047 -0.2751
  603TMC3    H1 8994   2.586   4.210  10.546  0.1894 -1.5055 -0.2268
  603TMC3    H2 8995   2.421   4.452  10.852  0.6984 -0.1982 -0.3862
  603TMC3    C7 8996   2.445   4.427  10.595  0.3890  1.1780 -0.8441
  603TMC3    C8 8997   2.487   4.265  11.052 -0.3596 -0.0241  0.1517
  603TMC3    O1 8998   2.479   4.400  10.475 -0.3065  0.3789  0.1866
  603TMC3    O2 8999   2.565   4.232  11.140 -0.4585  0.0433 -0.2645
  604MPD2     C 9000   3.038   2.689  16.512 -0.3238  1.2134 -0.2107
  604MPD2    C1 9001   2.983   2.796  16.441 -0.0090 -0.5567 -0.1406
  604MPD2    C2 9002   2.998   2.802  16.305 -0.1285 -0.6372  0.6154
  604MPD2    C3 9003   3.067   2.704  16.233 -0.0523 -0.0800  0.1037
  604MPD2    C4 9004   3.106   2.598  16.303  0.5402  0.0847 -0.3660
  604MPD2    C5 9005   3.095   2.591  16.438 -0.2914 -0.0107  1.2949
  604MPD2     H 9006   2.966   2.888  16.247  1.1391  0.8301  2.0826
  604MPD2    H1 9007   3.160   2.515  16.258 -0.9651 -0.1495 -1.7171
  604MPD2    H2 9008   3.024   2.669  16.618 -0.2427  0.6081 -0.3163
  604MPD2    H3 9009   3.143   2.508  16.488 -0.2280 -0.0151  1.2271
  604MPD2     N 9010   3.070   2.713  16.093 -0.1129 -0.4626 -0.4011
  604MPD2    H5 9011   3.027   2.796  16.053 -2.0677 -0.2659  2.0825
  604MPD2    N1 9012   2.909   2.897  16.515  0.0368 -0.4296  0.6771
  604MPD2    H7 9013   2.926   2.894  16.615  0.5045 -2.4003  0.5499
  605TMC3    C1 9014   2.741   3.064  16.560  0.7257  0.9024 -0.1798
  605TMC3    C2 9015   2.800   3.112  16.670  0.6613 -0.4639 -0.2852
  605TMC3    C3 9016   2.742   3.212  16.738 -0.0422  0.6570  0.3329
  605TMC3    C4 9017   2.633   3.127  16.504 -0.3757  0.3206 -0.0148
  605TMC3    C5 9018   2.583   3.227  16.581  0.3166  0.5069  0.2939
  605TMC3    C6 9019   2.624   3.270  16.699 -0.4505  0.4940  0.6635
  605TMC3     C 9020   2.811   2.981  16.465  0.2382 -0.6471  0.6560
  605TMC3     O 9021   2.787   2.999  16.347  0.0203 -0.2738  0.4334
  605TMC3     H 9022   2.886   3.055  16.706  0.2205 -1.5560 -0.9409
  605TMC3    H1 9023   2.598   3.093  16.407 -0.9639 -0.0542  0.3312
  605TMC3    H2 9024   2.583   3.355  16.752  1.2482  2.5975 -1.3845
  605TMC3    C7 9025   2.520   3.336  16.504  0.6709 -0.0826 -1.2704
  605TMC3    C8 9026   2.819   3.295  16.833  0.5849  0.4291 -0.4984
  605TMC3    O1 9027   2.512   3.451  16.546 -0.5453  0.0930 -0.5545
  605TMC3    O2 9028   2.759   3.361  16.917  0.4282 -0.3862  0.2104
  606TMC3    C1 9029   4.113   2.008   0.751  0.4798  0.0179 -0.7726
  606TMC3    C2 9030   4.231   1.976   0.821  0.5119 -0.4192  0.3457
  606TMC3    C3 9031   4.334   1.920   0.749 -0.2294 -0.4160 -0.5378
  606TMC3    C4 9032   4.104   2.002   0.618 -0.2989 -0.1376 -0.0176
  606TMC3    C5 9033   4.209   1.944   0.555  0.3393  0.6698 -0.5477
  606TMC3    C6 9034   4.324   1.891   0.610 -1.3690 -0.1988 -0.0234
  606TMC3     C 9035   4.002   2.079   0.808 -0.0354  0.2857  0.7966
  606TMC3     O 9036   3.904   2.115   0.741 -0.0882 -0.0003 -0.3833
  606TMC3     H 9037   4.247   2.003   0.925 -1.5716 -0.0334  0.5610
  606TMC3    H1 9038   4.033   2.063   0.563  0.8656  0.9523 -0.3326
  606TMC3    H2 9039   4.412   1.862   0.554 -0.2358  0.3136  1.4756
  606TMC3    C7 9040   4.198   1.946   0.412 -0.0988 -0.2589 -0.3192
  606TMC3    C8 9041   4.469   1.923   0.800  0.2813  0.1052  0.0920
  606TMC3    O1 9042   4.145   2.041   0.356 -0.1176 -0.5544 -0.2955
  606TMC3    O2 9043   4.475   1.994   0.901  0.0533  0.2103 -0.4508
  607MPD2     C 9044   1.770   3.954  11.723  0.1557 -0.7509  0.0991
  607MPD2    C1 9045   1.708   3.998  11.836  0.3766  0.3971 -0.2403
  607MPD2    C2 9046   1.637   3.899  11.903 -0.7378 -0.7878 -0.6979
  607MPD2    C3 9047   1.632   3.771  11.853  0.4176  0.3804  0.0594
  607MPD2    C4 9048   1.695   3.736  11.739  0.1004 -0.0285  0.7371
  607MPD2    C5 9049   1.778   3.827  11.684  1.0152 -0.2149 -0.2027
  607MPD2     H 9050   1.587   3.925  11.996 -1.8638  0.1088 -1.5559
  607MPD2    H1 9051   1.689   3.637  11.696 -0.4101  0.5893 -0.6024
  607MPD2    H2 9052   1.827   4.027  11.666 -1.2428 -0.7809 -1.3567
  607MPD2    H3 9053   1.843   3.795  11.603 -0.2907  2.2200 -2.1879
  607MPD2     N 9054   1.559   3.681  11.932  0.6433 -0.3399 -0.1709
  607MPD2    H5 9055   1.517   3.719  12.017  0.3650 -2.7877  0.7733
  607MPD2    N1 9056   1.707   4.133  11.888  0.0393 -0.0308  0.1319
  607MPD2    H7 9057   1.650   4.142  11.972  0.6039  0.4392  0.4612
  608TMC3    C1 9058   1.702   4.355  11.926 -0.4920  0.0080  0.2029
  608TMC3    C2 9059   1.650   4.320  12.050 -0.1794 -0.2712 -0.0486
  608TMC3    C3 9060   1.590   4.418  12.125  0.8557  0.1143  0.2431
  608TMC3    C4 9061   1.716   4.485  11.896  0.7356  0.6053 -0.0767
  608TMC3    C5 9062   1.672   4.582  11.984 -0.6444 -0.2657 -0.1726
  608TMC3    C6 9063   1.601   4.550  12.095 -0.2448  0.2342  0.9100
  608TMC3     C 9064   1.751   4.250  11.840 -0.0012 -0.3838 -0.0862
  608TMC3     O 9065   1.806   4.270  11.736  0.0846 -0.2111 -0.1306
  608TMC3     H 9066   1.654   4.221  12.094  1.0388 -0.2959 -0.2127
  608TMC3    H1 9067   1.773   4.513  11.808 -0.1481  0.1845 -0.7878
  608TMC3    H2 9068   1.559   4.625  12.161  0.5383 -0.5278  2.2821
  608TMC3    C7 9069   1.677   4.713  11.937 -0.1383  0.9366  0.0981
  608TMC3    C8 9070   1.520   4.384  12.247 -0.9290 -0.7780  0.1800
  608TMC3    O1 9071   1.714   4.724  11.822 -0.4655 -0.7741  0.3320
  608TMC3    O2 9072   1.508   4.472  12.335  0.3346 -0.3328  1.1345
  609TMC3    C1 9073   4.679   4.250   9.010 -0.4104  0.0857 -0.0125
  609TMC3    C2 9074   4.621   4.301   8.889 -0.9862  0.0479 -0.2401
  609TMC3    C3 9075   4.673   4.257   8.767  0.7483  0.5741 -0.1906
  609TMC3    C4 9076   0.062   4.182   9.012 -0.3676 -0.7787  0.7825
  609TMC3    C5 9077   0.116   4.149   8.895 -0.0357  0.0271  0.0500
  609TMC3    C6 9078   0.062   4.188   8.775  0.1843 -0.0157  0.0867
  609TMC3     C 9079   4.609   4.269   9.133 -0.3365  0.5499  0.3626
  609TMC3     O 9080   4.626   4.191   9.225  0.8009 -0.4771  0.0667
  609TMC3     H 9081   4.525   4.350   8.889 -0.9813  0.0489  0.9337
  609TMC3    H1 9082   0.099   4.138   9.104  1.2418  2.1115  1.5101
  609TMC3    H2 9083   0.124   4.164   8.689  1.5711  0.4302  0.9696
  609TMC3    C7 9084   0.238   4.078   8.897 -0.0380 -0.0128 -0.0000
  609TMC3    C8 9085   4.635   4.330   8.652  0.2953 -1.0644  0.1824
  609TMC3    O1 9086   0.305   4.098   8.998 -0.2147 -0.2492  0.3075
  609TMC3    O2 9087   4.611   4.448   8.656  0.4717 -0.0905  0.2902
  610TMC3    C1 9088   1.640   4.437  12.746 -0.3734  0.3690  0.2354
  610TMC3    C2 9089   1.666   4.473  12.619  0.1158 -0.0776 -0.4285
  610TMC3    C3 9090   1.735   4.391  12.547  0.0334  0.1964 -0.3250
  610TMC3    C4 9091   1.681   4.320  12.796 -0.1391  0.1201  0.7455
  610TMC3    C5 9092   1.747   4.229  12.721  1.1654 -0.1372  0.3783
  610TMC3    C6 9093   1.786   4.273  12.596  0.7184  0.9817  0.2151
  610TMC3     C 9094   1.514   4.487  12.799 -0.7517 -0.3089  0.7622
  610TMC3     O 9095   1.444   4.553  12.722  0.4995 -0.3932  0.3516
  610TMC3     H 9096   1.626   4.565  12.578  0.2969  0.4524  0.5728
  610TMC3    H1 9097   1.643   4.295  12.894  1.7959 -1.2535  1.1684
  610TMC3    H2 9098   1.826   4.197  12.529 -0.6372  1.0044 -0.6276
  610TMC3    C7 9099   1.820   4.123  12.780 -0.0098  0.7115  0.0127
  610TMC3    C8 9100   1.801   4.463  12.439 -0.4170 -0.2352  0.3067
  610TMC3    O1 9101   1.932   4.095  12.733 -0.4580 -0.6233 -0.2389
  610TMC3    O2 9102   1.799   4.583  12.432 -0.4271  0.1135  0.8956
  611MPD2     C 9103   1.198   0.223  10.333 -0.0137 -0.5584 -0.2018
  611MPD2    C1 9104   1.197   0.219  10.469 -0.6238 -0.1591 -0.3296
  611MPD2    C2 9105   1.314   0.258  10.536  0.4938 -0.3891  0.0669
  611MPD2    C3 9106   1.421   0.303  10.466  0.3375  0.0208 -0.7127
  611MPD2    C4 9107   1.422   0.309  10.329  0.3416 -0.7172 -0.3918
  611MPD2    C5 9108   1.318   0.259  10.261 -0.5790  0.3688 -0.2278
  611MPD2     H 9109   1.311   0.261  10.644  0.7200  0.5132  0.0468
  611MPD2    H1 9110   1.506   0.340  10.267 -1.4942  0.2709 -2.4191
  611MPD2    H2 9111   1.113   0.193  10.273  1.2513 -2.1539 -1.1784
  611MPD2    H3 9112   1.321   0.257  10.153 -1.7436  0.9976 -0.2711
  611MPD2     N 9113   1.537   0.347  10.537 -0.3765 -0.7602 -0.0606
  611MPD2    H5 9114   1.600   0.401  10.478 -0.2053 -0.1705  0.6523
  611MPD2    N1 9115   1.077   0.193  10.530  0.2318 -0.0784 -0.3130
  611MPD2    H7 9116   0.991   0.171  10.480 -0.3850  1.8936 -0.1183
  612TMC3    C1 9117   1.701   0.372  10.697  0.5192  0.6819  0.5025
  612TMC3    C2 9118   1.796   0.354  10.597 -0.4065 -0.2526 -0.2462
  612TMC3    C3 9119   1.923   0.337  10.645  0.2816  0.3080  0.2527
  612TMC3    C4 9120   1.741   0.379  10.834 -0.1791 -0.2398  0.8221
  612TMC3    C5 9121   1.871   0.388  10.867  0.4181 -0.6201  0.8228
  612TMC3    C6 9122   1.971   0.372  10.765 -0.7450  0.1001  0.0096
  612TMC3     C 9123   1.563   0.341  10.673 -0.1480 -0.2362 -0.5205
  612TMC3     O 9124   1.499   0.297  10.768  0.1534 -1.2859  0.3435
  612TMC3     H 9125   1.772   0.314  10.500  1.2888 -0.6291 -0.4929
  612TMC3    H1 9126   1.668   0.397  10.912 -0.7143 -0.6766  0.4191
  612TMC3    H2 9127   2.077   0.372  10.784 -0.7406 -0.8110 -0.0432
  612TMC3    C7 9128   1.917   0.389  10.999  0.4745 -0.4740  0.0438
  612TMC3    C8 9129   2.010   0.271  10.553 -0.3357  0.2879  0.5835
  612TMC3    O1 9130   1.879   0.308  11.080  0.5057  0.1604  0.2776
  612TMC3    O2 9131   2.008   0.311  10.437  0.3292 -0.1977  0.7822
  613MPD2     C 9132   0.492   2.000  16.669  0.5466  0.3164  1.1232
  613MPD2    C1 9133   0.418   2.070  16.575  0.0450 -1.2080  1.3139
  613MPD2    C2 9134   0.319   2.006  16.498 -0.3582  0.0179 -0.0529
  613MPD2    C3 9135   0.300   1.873  16.499  0.1461 -0.5748  0.5438
  613MPD2    C4 9136   0.384   1.803  16.579  0.5132 -0.0203 -0.3240
  613MPD2    C5 9137   0.478   1.863  16.661  0.4597 -0.1575 -0.2460
  613MPD2     H 9138   0.274   2.070  16.424 -4.3032 -2.1658  0.4838
  613MPD2    H1 9139   0.366   1.696  16.572 -1.4384  0.2996 -0.1855
  613MPD2    H2 9140   0.558   2.040  16.745  0.4187  0.2623  1.2627
  613MPD2    H3 9141   0.549   1.804  16.718  2.7936  3.2913  0.4127
  613MPD2     N 9142   0.219   1.799  16.414  0.0301 -0.1500  0.2181
  613MPD2    H5 9143   0.234   1.699  16.405  0.8803  0.0804 -0.9824
  613MPD2    N1 9144   0.443   2.204  16.563 -0.4304  0.0550 -0.5175
  613MPD2    H7 9145   0.521   2.242  16.615 -0.7000 -0.3280  0.1669
  614TMC3    C1 9146   0.474   2.392  16.416  0.5082 -0.5650  0.2899
  614TMC3    C2 9147   0.570   2.312  16.360  0.5383 -0.3249  0.4798
  614TMC3    C3 9148   0.589   2.311  16.225  0.5679  0.4222 -0.0751
  614TMC3    C4 9149   0.403   2.481  16.335 -0.2176  0.3820 -0.7570
  614TMC3    C5 9150   0.431   2.481  16.202 -0.4373 -0.2347  0.6559
  614TMC3    C6 9151   0.517   2.394  16.139 -0.2895 -0.3209  0.3989
  614TMC3     C 9152   0.383   2.295  16.483  0.2107  0.1786  0.1399
  614TMC3     O 9153   0.262   2.310  16.456 -0.1757 -0.3177 -0.5595
  614TMC3     H 9154   0.634   2.252  16.424 -0.8384 -1.7680  0.5027
  614TMC3    H1 9155   0.322   2.543  16.373 -0.4898  0.5639 -1.6437
  614TMC3    H2 9156   0.527   2.389  16.031 -3.2902  1.0216  0.0534
  614TMC3    C7 9157   0.340   2.573  16.121  0.5048 -0.1443 -0.6547
  614TMC3    C8 9158   0.626   2.188  16.176 -0.0667 -0.2896 -0.4509
  614TMC3    O1 9159   0.287   2.664  16.182  0.4356  0.2611 -0.0255
  614TMC3    O2 9160   0.603   2.092  16.246  0.4156  0.6601  0.0429
  615MPD2     C 9161   0.094   3.264  15.917 -0.2027  0.1422 -0.3979
  615MPD2    C1 9162   4.729   3.352  15.932  0.1630 -0.3575 -0.1535
  615MPD2    C2 9163   4.625   3.353  15.834  0.3029  0.9642 -0.1500
  615MPD2    C3 9164   4.625   3.268  15.721  0.1377  0.7115  0.2581
  615MPD2    C4 9165   4.733   3.186  15.707 -0.7219  0.7926  0.3424
  615MPD2    C5 9166   0.092   3.183  15.806  0.5254 -0.5822  0.3837
  615MPD2     H 9167   4.545   3.424  15.848 -3.4779 -2.9742 -1.9359
  615MPD2    H1 9168   0.028   3.139  15.614 -1.6159 -1.9101  1.4023
  615MPD2    H2 9169   0.177   3.242  15.982  0.1270 -0.6182 -1.0763
  615MPD2    H3 9170   0.172   3.111  15.794  1.1727  0.3686 -1.0213
  615MPD2     N 9171   4.533   3.272  15.617 -0.3441  0.2815  0.2539
  615MPD2    H5 9172   4.555   3.222  15.531 -0.0634  0.0152  0.4795
  615MPD2    N1 9173   4.721   3.450  16.039 -0.5874 -0.0591  0.7336
  615MPD2    H7 9174   4.637   3.506  16.047 -0.1743  0.5803  0.5862
  616TMC3    C1 9175   0.077   3.590  16.222 -0.2041  0.6453 -0.0908
  616TMC3    C2 9176   0.195   3.658  16.253  0.2574 -0.1538  0.0145
  616TMC3    C3 9177   0.181   3.750  16.349 -0.1187  0.0714  0.4146
  616TMC3    C4 9178   4.686   3.616  16.272  0.0082 -0.0255  0.1352
  616TMC3    C5 9179   4.682   3.720  16.362  0.5038  0.0670  0.7961
  616TMC3    C6 9180   0.063   3.782  16.403  0.3515 -0.1017  0.0638
  616TMC3     C 9181   0.096   3.479  16.124 -0.1280 -0.2298  0.0128
  616TMC3     O 9182   0.208   3.442  16.099  0.1635 -0.3381 -0.0544
  616TMC3     H 9183   0.291   3.636  16.207  0.3110  0.2750 -0.0762
  616TMC3    H1 9184   4.595   3.560  16.255 -0.5627  0.7023  0.7623
  616TMC3    H2 9185   0.054   3.856  16.482  1.8067  1.7717 -1.5313
  616TMC3    C7 9186   4.552   3.760  16.407  0.0418  0.2096 -0.5148
  616TMC3    C8 9187   0.294   3.825  16.383  0.2968  0.0030  0.2291
  616TMC3    O1 9188   4.552   3.816  16.514 -0.3261 -0.5119  0.4373
  616TMC3    O2 9189   0.296   3.868  16.498 -0.6621  0.4689 -0.4514
  617MPD2     C 9190   2.389   1.789  13.853  0.0527 -0.1026 -1.0524
  617MPD2    C1 9191   2.440   1.734  13.967 -0.0555  0.0124 -0.3133
  617MPD2    C2 9192   2.366   1.647  14.047 -0.3572 -0.3245 -0.2441
  617MPD2    C3 9193   2.233   1.619  14.023  0.0909  0.3045 -0.2615
  617MPD2    C4 9194   2.174   1.692  13.920  0.3514 -0.1140  0.3828
  617MPD2    C5 9195   2.254   1.768  13.831 -0.3285  0.4816 -0.7450
  617MPD2     H 9196   2.417   1.600  14.130  1.0720  1.6856  0.0303
  617MPD2    H1 9197   2.068   1.684  13.899  0.5168 -1.3167  0.0301
  617MPD2    H2 9198   2.448   1.849  13.785  1.9153 -0.3069  0.4012
  617MPD2    H3 9199   2.203   1.812  13.745 -1.1594  0.1670 -0.4140
  617MPD2     N 9200   2.152   1.537  14.097  0.6732 -0.6699  0.0357
  617MPD2    H5 9201   2.052   1.541  14.079  0.5406  0.1763  0.9733
  617MPD2    N1 9202   2.572   1.780  13.993  0.4361 -0.3572  0.0056
  617MPD2    H7 9203   2.626   1.823  13.919  1.3561  1.0592  1.5055
  618TMC3    C1 9204   2.769   1.819  14.125  0.4123 -0.0412 -0.4370
  618TMC3    C2 9205   2.829   1.799  14.245  0.1631 -0.1652  0.3434
  618TMC3    C3 9206   2.960   1.789  14.253  0.6073 -0.0041  0.6994
  618TMC3    C4 9207   2.839   1.818  14.008  0.2378 -0.9097 -1.3094
  618TMC3    C5 9208   2.974   1.809  14.023 -0.3475 -0.4608 -0.8150
  618TMC3    C6 9209   3.043   1.793  14.144 -0.1157  0.6433 -0.5748
  618TMC3     C 9210   2.632   1.776  14.122  0.0409 -0.9412  0.3333
  618TMC3     O 9211   2.572   1.750  14.225 -0.1494 -0.0805  0.1940
  618TMC3     H 9212   2.765   1.804  14.332 -0.2318 -0.0632  0.0497
  618TMC3    H1 9213   2.797   1.829  13.909  0.2088  4.9771 -0.6886
  618TMC3    H2 9214   3.150   1.812  14.152 -0.2022  0.9557 -0.1594
  618TMC3    C7 9215   3.035   1.751  13.908 -0.3254 -0.0639  0.3061
  618TMC3    C8 9216   3.017   1.715  14.352 -0.1552 -0.1447 -0.3859
  618TMC3    O1 9217   2.975   1.752  13.799  0.4204  1.0562  0.1551
  618TMC3    O2 9218   3.012   1.742  14.470 -0.2039 -0.2783  0.4539
  619MPD2     C 9219   3.983   2.786  13.992  1.1240  1.1215  0.8373
  619MPD2    C1 9220   3.886   2.844  13.913 -0.2154  0.2067 -0.8309
  619MPD2    C2 9221   3.754   2.814  13.939 -1.5179  0.3349  0.6335
  619MPD2    C3 9222   3.714   2.724  14.036  0.6818 -0.0374  0.7894
  619MPD2    C4 9223   3.812   2.649  14.103  0.1932  0.2938 -0.7634
  619MPD2    C5 9224   3.944   2.686  14.082 -0.4620 -0.3274  0.4097
  619MPD2     H 9225   3.682   2.869  13.880 -0.1055  0.8800 -0.5567
  619MPD2    H1 9226   3.788   2.577  14.181  1.7262  0.6986  0.0717
  619MPD2    H2 9227   4.087   2.795  13.963  1.0859  1.1401  0.7042
  619MPD2    H3 9228   4.023   2.626  14.125  0.0509  0.5532  0.7105
  619MPD2     N 9229   3.580   2.716  14.073  0.4004 -0.5159  0.0185
  619MPD2    H5 9230   3.555   2.651  14.147 -1.0390  0.4529  0.3849
  619MPD2    N1 9231   3.911   2.934  13.805 -0.4204  0.1125  0.0987
  619MPD2    H7 9232   3.824   2.947  13.754 -0.8948 -1.4391  0.5161
  620TMC3    C1 9233   4.037   3.054  13.652 -0.3929  0.4534 -0.5167
  620TMC3    C2 9234   3.981   2.974  13.548  0.2560  0.1359  0.1327
  620TMC3    C3 9235   3.965   3.042  13.428 -0.2912  0.6871 -0.4906
  620TMC3    C4 9236   4.072   3.188  13.642  0.4989 -0.0665  0.0624
  620TMC3    C5 9237   4.051   3.244  13.519  0.3649  0.7429  0.6741
  620TMC3    C6 9238   4.006   3.168  13.419 -1.1337 -0.1612 -0.2591
  620TMC3     C 9239   4.028   2.996  13.786 -0.7520  0.2360 -0.4702
  620TMC3     O 9240   4.123   3.000  13.856  0.1750  0.1875 -0.0964
  620TMC3     H 9241   3.952   2.871  13.564 -0.0702  0.2476  0.2697
  620TMC3    H1 9242   4.110   3.242  13.728  2.1319  2.1673 -2.0532
  620TMC3    H2 9243   3.999   3.214  13.320  0.6518  1.5512  0.4018
  620TMC3    C7 9244   3.974   3.370  13.506  0.5087  0.0039  0.4210
  620TMC3    C8 9245   3.838   3.017  13.365 -0.5432 -0.6649 -0.2094
  620TMC3    O1 9246   3.871   3.361  13.443 -0.4784 -0.3800 -0.0050
  620TMC3    O2 9247   3.808   2.898  13.362 -0.5265  0.3301 -0.2733
  621MPD2     C 9248   4.166   2.923  10.504 -0.2235 -0.4842  0.3233
  621MPD2    C1 9249   4.237   2.916  10.389  0.2616  1.0020 -0.1375
  621MPD2    C2 9250   4.300   3.024  10.345  0.1769  0.5824 -0.0479
  621MPD2    C3 9251   4.287   3.144  10.409  0.0349  0.5874  0.6018
  621MPD2    C4 9252   4.220   3.161  10.531  0.7924 -0.5956  0.1525
  621MPD2    C5 9253   4.167   3.041  10.576  0.3743 -0.3598  0.2683
  621MPD2     H 9254   4.346   3.026  10.247 -0.8887  2.6023 -0.5077
  621MPD2    H1 9255   4.221   3.257  10.581 -0.2025  0.9809 -2.9182
  621MPD2    H2 9256   4.100   2.842  10.533 -0.8339  0.1007  0.5685
  621MPD2    H3 9257   4.110   3.036  10.669  0.2981  1.9806  0.3472
  621MPD2     N 9258   4.354   3.253  10.346  0.1259 -0.4112  0.2079
  621MPD2    H5 9259   4.406   3.221  10.264 -0.6253 -1.1530  0.0223
  621MPD2    N1 9260   4.248   2.793  10.318 -0.4304  0.4290  0.3783
  621MPD2    H7 9261   4.306   2.799  10.234  1.4362 -0.7201  1.5843
  622TMC3    C1 9262   4.159   2.584  10.231  0.5725  0.3018 -0.3439
  622TMC3    C2 9263   4.090   2.469  10.261 -0.0504  0.6122 -0.3271
  622TMC3    C3 9264   4.006   2.420  10.166 -0.3638 -0.2842 -0.4329
  622TMC3    C4 9265   4.146   2.646  10.111  1.2849 -1.1994  0.5039
  622TMC3    C5 9266   4.068   2.585  10.015  0.6300 -0.0645  0.1240
  622TMC3    C6 9267   3.998   2.471  10.041 -0.3740 -0.7731 -0.8482
  622TMC3     C 9268   4.195   2.666  10.347  0.3058 -0.0271  0.6533
  622TMC3     O 9269   4.171   2.617  10.459  0.3114  0.0726  0.3070
  622TMC3     H 9270   4.101   2.421  10.357  0.4683 -0.2774 -0.8282
  622TMC3    H1 9271   4.186   2.744  10.089 -0.5725 -0.5149  0.2016
  622TMC3    H2 9272   3.919   2.431   9.978 -1.1335  0.3815 -0.6325
  622TMC3    C7 9273   4.037   2.638   9.887 -0.1548 -0.1040  0.0841
  622TMC3    C8 9274   3.898   2.333  10.195  0.1452 -0.0694 -0.2273
  622TMC3    O1 9275   3.959   2.578   9.814 -0.1934  0.1392 -0.1162
  622TMC3    O2 9276   3.910   2.237  10.125 -0.3554 -0.2849  0.1732
  623MPD2     C 9277   3.273   3.521  15.932  0.3605 -0.0135  0.1224
  623MPD2    C1 9278   3.250   3.395  15.990  0.2486  0.3595 -0.5327
  623MPD2    C2 9279   3.327   3.354  16.097  0.2147 -0.4220 -0.0811
  623MPD2    C3 9280   3.430   3.438  16.147 -0.0974  0.0441 -0.2040
  623MPD2    C4 9281   3.459   3.552  16.081 -0.0136 -0.1014 -0.1356
  623MPD2    C5 9282   3.382   3.594  15.977 -1.2462  0.3598  0.1302
  623MPD2     H 9283   3.314   3.266  16.159  0.1517  0.0520  0.5812
  623MPD2    H1 9284   3.544   3.618  16.096 -0.2237  0.0628  0.3335
  623MPD2    H2 9285   3.208   3.559  15.854  0.7524  1.6471  0.5970
  623MPD2    H3 9286   3.409   3.686  15.926 -0.3358  1.1574  2.0948
  623MPD2     N 9287   3.517   3.388  16.240  0.1360 -0.5723 -0.5331
  623MPD2    H5 9288   3.482   3.313  16.299  1.0158 -1.0411 -0.6068
  623MPD2    N1 9289   3.128   3.330  15.955 -0.3371 -0.0204 -0.4709
  623MPD2    H7 9290   3.073   3.359  15.875 -2.9286 -0.0366  1.2798
  624TMC3    C1 9291   3.777   3.425  16.623  0.1811  0.3078  0.0888
  624TMC3    C2 9292   3.687   3.362  16.697  0.6452  0.3503  0.2236
  624TMC3    C3 9293   3.579   3.313  16.629 -0.0446  0.2122  0.3277
  624TMC3    C4 9294   3.765   3.454  16.493  0.1793  0.6223  0.1367
  624TMC3    C5 9295   3.655   3.406  16.422 -0.0663  0.2824 -0.4975
  624TMC3    C6 9296   3.565   3.334  16.491  0.0716  0.0723 -0.4013
  624TMC3     C 9297   3.902   3.456  16.680 -0.5354 -0.1455 -0.6809
  624TMC3     O 9298   3.907   3.530  16.777  0.0546  0.3080 -0.6027
  624TMC3     H 9299   3.708   3.343  16.802 -0.5634  1.3381  0.6492
  624TMC3    H1 9300   3.840   3.517  16.447  0.0899  0.0137 -0.8485
  624TMC3    H2 9301   3.470   3.304  16.450  0.2188  1.1252 -1.5253
  624TMC3    C7 9302   3.630   3.450  16.293 -0.2776  0.0680  0.1188
  624TMC3    C8 9303   3.454   3.272  16.700 -0.7356 -0.0282 -0.0463
  624TMC3    O1 9304   3.688   3.552  16.250  0.2552  0.3142  0.6940
  624TMC3    O2 9305   3.394   3.178  16.652  0.0343  0.0631 -0.6493
  625MPD2     C 9306   0.008   0.191   1.064 -0.6098 -0.9911  0.5137
  625MPD2    C1 9307   0.011   0.326   1.084  0.2837 -0.2661  0.8033
  625MPD2    C2 9308   0.075   0.370   1.202 -0.6434 -0.8030 -0.0785
  625MPD2    C3 9309   0.119   0.279   1.301 -0.4138 -0.0199 -0.1869
  625MPD2    C4 9310   0.124   0.142   1.262  0.1212 -0.7684  0.1639
  625MPD2    C5 9311   0.063   0.101   1.150 -0.2777  0.5516  0.0536
  625MPD2     H 9312   0.072   0.477   1.221 -1.7055 -0.7961 -0.3009
  625MPD2    H1 9313   0.171   0.067   1.324 -2.2134 -0.7886  1.9019
  625MPD2    H2 9314   4.693   0.156   0.974  1.3471  0.1958 -1.0333
  625MPD2    H3 9315   0.063   4.730   1.126 -0.5870  0.2908  1.2063
  625MPD2     N 9316   0.159   0.332   1.425 -0.1907  0.0239  0.4644
  625MPD2    H5 9317   0.187   0.429   1.435 -1.1896  0.3667 -0.0199
  625MPD2    N1 9318   4.692   0.426   0.999  0.1834 -0.1828  0.0676
  625MPD2    H7 9319   4.708   0.523   1.022 -1.1953 -0.3016  1.5424
  626TMC3    C1 9320   4.593   0.528   0.815  0.2208 -0.7421 -0.1147
  626TMC3    C2 9321   4.469   0.523   0.748 -0.4539  0.3596 -0.0982
  626TMC3    C3 9322   4.435   0.636   0.680 -0.2348 -0.2864  0.1295
  626TMC3    C4 9323   4.681   0.637   0.818  0.3142 -0.3908 -0.3002
  626TMC3    C5 9324   4.639   0.746   0.745 -0.0185  0.1465  0.8217
  626TMC3    C6 9325   4.524   0.741   0.670 -0.0290 -0.5232  0.0594
  626TMC3     C 9326   4.617   0.403   0.886  0.8952 -0.0763  0.0854
  626TMC3     O 9327   4.565   0.297   0.847  0.4946  0.3022 -0.5097
  626TMC3     H 9328   4.406   0.439   0.775  1.1260 -1.5556 -2.4190
  626TMC3    H1 9329   0.039   0.631   0.875 -0.6031 -1.3874  1.1027
  626TMC3    H2 9330   4.499   0.832   0.616  1.0185  0.5961  1.4484
  626TMC3    C7 9331   4.679   0.870   0.802 -0.3304 -0.0812  0.6347
  626TMC3    C8 9332   4.321   0.632   0.591  0.0541 -0.5432 -0.2680
  626TMC3    O1 9333   0.062   0.877   0.827 -0.1433  0.2623 -0.1083
  626TMC3    O2 9334   4.299   0.724   0.514  0.0150  0.0319 -0.2066
  627MPD2     C 9335   1.690   0.308  14.533 -0.4119 -0.5745 -0.3045
  627MPD2    C1 9336   1.817   0.269  14.509  0.4282 -0.2890  0.4090
  627MPD2    C2 9337   1.844   0.184  14.398  0.5586 -0.1750  0.4605
  627MPD2    C3 9338   1.741   0.137  14.316  0.1998  0.5488 -0.1530
  627MPD2    C4 9339   1.611   0.181  14.344  0.2326 -0.9161  0.0787
  627MPD2    C5 9340   1.593   0.267  14.450  0.7753  0.1047  0.1632
  627MPD2     H 9341   1.946   0.155  14.375  1.8229  1.9123  3.3764
  627MPD2    H1 9342   1.526   0.154  14.283  1.0664 -0.0762 -1.4657
  627MPD2    H2 9343   1.661   0.382  14.607 -0.1158 -0.9837  0.2185
  627MPD2    H3 9344   1.490   0.283  14.480  0.7185 -0.5951  0.3498
  627MPD2     N 9345   1.776   0.049  14.215  0.0999  0.4509  0.0043
  627MPD2    H5 9346   1.873   0.023  14.204 -0.7067 -2.4811 -0.2422
  627MPD2    N1 9347   1.923   0.311  14.594  0.6361  1.0113 -0.6610
  627MPD2    H7 9348   2.018   0.288  14.566  0.6431 -0.1229  0.3069
  628TMC3    C1 9349   2.061   0.415  14.751 -0.0932  0.1386 -0.7576
  628TMC3    C2 9350   2.154   0.314  14.727  0.1250 -0.0487 -0.0002
  628TMC3    C3 9351   2.281   0.333  14.778  0.0902 -0.3982  1.0467
  628TMC3    C4 9352   2.101   0.521  14.826 -0.5992  0.1266  0.5135
  628TMC3    C5 9353   2.231   0.543  14.849  0.1628 -0.4779 -0.5629
  628TMC3    C6 9354   2.323   0.445  14.844  0.1076 -0.0831  0.1682
  628TMC3     C 9355   1.923   0.394  14.709  0.2751 -0.3198 -0.0108
  628TMC3     O 9356   1.828   0.460  14.752  0.0751  0.3943  0.2700
  628TMC3     H 9357   2.140   0.222  14.671  2.3949 -0.3023 -0.1717
  628TMC3    H1 9358   2.029   0.600  14.846  0.9605  1.9197 -0.9025
  628TMC3    H2 9359   2.427   0.465  14.869 -0.0791  0.3362  0.6164
  628TMC3    C7 9360   2.278   0.682  14.879 -0.1133  0.7372 -0.3300
  628TMC3    C8 9361   2.376   0.247  14.721  0.2759 -0.5381 -0.1335
  628TMC3    O1 9362   2.388   0.702  14.931 -0.2699 -0.4222 -0.6327
  628TMC3    O2 9363   2.354   0.215  14.605 -0.0178  0.1076 -0.0353
  629MPD2     C 9364   0.715   4.055  16.205  0.1789  0.0621 -0.5264
  629MPD2    C1 9365   0.671   4.050  16.338  0.1233  0.5236 -0.5029
  629MPD2    C2 9366   0.547   3.991  16.361 -1.1000  0.6054  0.1017
  629MPD2    C3 9367   0.471   3.950  16.254 -0.1377 -0.9372 -0.3093
  629MPD2    C4 9368   0.514   3.974  16.123 -0.3190  0.4612 -0.1657
  629MPD2    C5 9369   0.641   4.022  16.102 -0.2195  0.2229  0.0739
  629MPD2     H 9370   0.516   3.963  16.461  1.6402  1.5553  1.2285
  629MPD2    H1 9371   0.448   3.949  16.041  1.3623 -1.1649 -1.0328
  629MPD2    H2 9372   0.813   4.099  16.190  1.8058 -3.5939 -0.5602
  629MPD2    H3 9373   0.669   4.041  15.999 -3.7652 -2.3100 -1.3951
  629MPD2     N 9374   0.348   3.877  16.265 -0.9019  0.3579 -0.0189
  629MPD2    H5 9375   0.297   3.870  16.178 -0.9082 -0.6608  0.0653
  629MPD2    N1 9376   0.756   4.085  16.441  0.0119 -0.6205 -0.1123
  629MPD2    H7 9377   0.843   4.133  16.419  1.0220 -3.4265 -2.2208
  630TMC3    C1 9378   0.855   4.103  16.650 -0.4109  0.4357  0.2079
  630TMC3    C2 9379   0.929   4.207  16.609 -0.3697  0.4602 -0.2127
  630TMC3    C3 9380   1.051   4.211  16.670  0.5189 -0.1644  0.3138
  630TMC3    C4 9381   0.879   4.018  16.759  0.1789 -0.1851  0.5726
  630TMC3    C5 9382   1.013   4.022  16.803  0.0648  0.3642  0.2813
  630TMC3    C6 9383   1.096   4.121  16.762 -0.2080  1.3695 -0.0137
  630TMC3     C 9384   0.731   4.072  16.577 -0.4972 -0.0866 -0.8678
  630TMC3     O 9385   0.654   3.998  16.635 -0.4288 -0.0199  0.3404
  630TMC3     H 9386   0.886   4.287  16.550  0.6893  0.1042 -1.4613
  630TMC3    H1 9387   0.834   3.921  16.775 -0.5612  0.3477  1.7494
  630TMC3    H2 9388   1.196   4.123  16.803 -0.2636 -0.6626  0.2141
  630TMC3    C7 9389   1.080   3.918  16.869 -0.1996  0.9774 -0.3901
  630TMC3    C8 9390   1.146   4.318  16.647  0.1237 -1.0690  0.4807
  630TMC3    O1 9391   1.197   3.909  16.838  0.1743 -0.1745 -0.0221
  630TMC3    O2 9392   1.224   4.336  16.743 -0.0156 -0.2258 -0.2277
  631MPD2     C 9393   3.577   3.699  15.272  0.7949 -0.5184 -0.4261
  631MPD2    C1 9394   3.684   3.767  15.216 -0.2839  0.4947  0.1517
  631MPD2    C2 9395   3.805   3.711  15.223  0.0145  0.2268 -0.3219
  631MPD2    C3 9396   3.834   3.597  15.301  0.6229  0.3669  0.4571
  631MPD2    C4 9397   3.723   3.534  15.359 -0.1322  0.3817 -0.5386
  631MPD2    C5 9398   3.595   3.582  15.340 -0.0244  0.0629  0.0756
  631MPD2     H 9399   3.890   3.763  15.179 -0.3215  1.6731  0.7514
  631MPD2    H1 9400   3.731   3.447  15.423  2.8654  0.7855 -0.3546
  631MPD2    H2 9401   3.474   3.730  15.273  0.6446 -1.0459  0.1923
  631MPD2    H3 9402   3.506   3.525  15.367  0.0370  0.6970  1.5928
  631MPD2     N 9403   3.968   3.562  15.320 -0.2750 -0.0502 -0.1255
  631MPD2    H5 9404   4.026   3.626  15.266  1.8697  0.0937  2.3984
  631MPD2    N1 9405   3.652   3.879  15.133 -0.7170 -0.1325  0.2344
  631MPD2    H7 9406   3.553   3.902  15.126 -0.4111  0.9461 -0.6844
  632TMC3    C1 9407   3.688   4.084  15.013 -0.0698  0.0934  0.6226
  632TMC3    C2 9408   3.560   4.127  15.041 -0.1550  0.1556 -0.1910
  632TMC3    C3 9409   3.503   4.230  14.973  0.6564  0.1958 -0.1400
  632TMC3    C4 9410   3.766   4.143  14.915  0.7846  0.6348  0.0852
  632TMC3    C5 9411   3.712   4.260  14.865 -0.5308 -0.4393 -0.1462
  632TMC3    C6 9412   3.582   4.307  14.893  0.3822 -0.5048  0.2139
  632TMC3     C 9413   3.741   3.958  15.073  0.0933  1.0243 -0.1500
  632TMC3     O 9414   3.859   3.934  15.054 -0.2800  0.0631 -0.1294
  632TMC3     H 9415   3.509   4.084  15.126 -0.6174  1.5959  0.2536
  632TMC3    H1 9416   3.857   4.093  14.887  0.8154  0.2429  0.8934
  632TMC3    H2 9417   3.545   4.393  14.837  0.2227 -0.4518  0.3996
  632TMC3    C7 9418   3.773   4.320  14.751  0.1531  0.1412  0.1790
  632TMC3    C8 9419   3.368   4.267  14.974 -0.5067  0.3756 -0.2301
  632TMC3    O1 9420   3.712   4.400  14.681  0.0182  0.6154 -0.3852
  632TMC3    O2 9421   3.327   4.331  14.876  0.6883  0.1336  0.1457
  633MPD2     C 9422   3.699   1.903  17.616  0.3581 -0.1106 -0.1659
  633MPD2    C1 9423   3.700   1.817  17.507 -0.2788 -0.3448 -0.0613
  633MPD2    C2 9424   3.710   1.681  17.527  0.1848  0.4322  0.1656
  633MPD2    C3 9425   3.718   1.628  17.652 -1.0472  0.0435 -0.5249
  633MPD2    C4 9426   3.717   1.721   0.024 -0.2398  0.1532  0.3678
  633MPD2    C5 9427   3.706   1.852   0.004  0.0398 -0.1367 -0.1031
  633MPD2     H 9428   3.711   1.619  17.438  1.1972 -1.7273  1.6755
  633MPD2    H1 9429   3.724   1.684   0.126  0.0240 -1.2730 -0.1570
  633MPD2    H2 9430   3.669   2.007  17.606  3.0056  0.5911 -0.8571
  633MPD2    H3 9431   3.701   1.922   0.086 -3.1191 -2.2067  1.4279
  633MPD2     N 9432   3.747   1.489  17.686  0.2494  0.5627 -0.1574
  633MPD2    H5 9433   3.748   1.460   0.047  2.2307 -0.2263 -0.4192
  633MPD2    N1 9434   3.676   1.869  17.374  0.0835  0.1962 -0.8242
  633MPD2    H7 9435   3.682   1.808  17.293  0.5819 -1.3093  0.3467
  634TMC3    C1 9436   3.668   2.023  17.202  0.6447 -0.3589 -0.1288
  634TMC3    C2 9437   3.735   1.934  17.127  1.2199  0.2060  0.4725
  634TMC3    C3 9438   3.765   1.972  17.003 -0.2498 -0.6861 -0.1856
  634TMC3    C4 9439   3.619   2.145  17.152  0.0710  0.2354  0.2487
  634TMC3    C5 9440   3.647   2.181  17.028 -0.5565  0.2737 -0.0179
  634TMC3    C6 9441   3.720   2.091  16.946  0.2263  0.0743 -0.0132
  634TMC3     C 9442   3.628   1.987  17.337  0.5812  0.3319 -0.7178
  634TMC3     O 9443   3.578   2.067  17.409  0.0708  0.4241 -0.1472
  634TMC3     H 9444   3.763   1.837  17.168 -0.5446  0.0303  1.2880
  634TMC3    H1 9445   3.553   2.206  17.214 -1.1923 -0.9375  0.0546
  634TMC3    H2 9446   3.750   2.128  16.848  0.9969  0.9353  0.5460
  634TMC3    C7 9447   3.598   2.299  16.964  0.1613 -0.4852 -0.0303
  634TMC3    C8 9448   3.819   1.873  16.915 -0.3999 -0.4590 -0.7484
  634TMC3    O1 9449   3.629   2.309  16.848  0.4124  0.2655 -0.1473
  634TMC3    O2 9450   3.866   1.776  16.970 -0.3108 -0.5791 -0.5389
  635TMC3    C1 9451   3.607   2.892   0.149  0.4747 -0.0209 -0.6560
  635TMC3    C2 9452   3.675   2.842   0.040  0.1558  0.4043  0.0981
  635TMC3    C3 9453   3.679   2.711   0.024  0.7164  0.2047 -0.2221
  635TMC3    C4 9454   3.533   2.811   0.238 -0.8073  0.3150  0.0892
  635TMC3    C5 9455   3.541   2.675   0.214  0.0143 -0.2308 -0.6670
  635TMC3    C6 9456   3.611   2.622   0.107 -0.8166 -0.0451 -0.4331
  635TMC3     C 9457   3.625   3.035   0.174  0.1353  0.2653  0.3589
  635TMC3     O 9458   3.645   3.054   0.297  0.2944 -0.3430  0.6868
  635TMC3     H 9459   3.722   2.908  17.704  0.5681  1.7919  1.6350
  635TMC3    H1 9460   3.483   2.865   0.318  1.2354  0.3394  1.3620
  635TMC3    H2 9461   3.600   2.515   0.096  0.5855  0.1101 -3.4507
  635TMC3    C7 9462   3.519   2.570   0.315  0.1764  0.0778 -0.3583
  635TMC3    C8 9463   3.775   2.663  17.669 -0.7862  0.1537 -0.1030
  635TMC3    O1 9464   3.563   2.453   0.311  0.1608 -0.3348  0.1487
  635TMC3    O2 9465   3.827   2.744  17.594  0.0180 -0.1987  0.0404
  636MPD2     C 9466   4.547   2.345  15.777  0.5250  0.6848 -0.0641
  636MPD2    C1 9467   4.593   2.350  15.903  0.6476  0.1106 -0.7168
  636MPD2    C2 9468   4.668   2.249  15.957  0.5165  0.1005  0.1439
  636MPD2    C3 9469   4.692   2.138  15.877  0.3872  0.4784 -0.7467
  636MPD2    C4 9470   4.646   2.131  15.748 -0.4919 -0.7760  0.3762
  636MPD2    C5 9471   4.571   2.237  15.694 -0.0281 -0.2492  0.2636
  636MPD2     H 9472   4.710   2.254  16.056  0.2596  1.6448  0.1809
  636MPD2    H1 9473   4.656   2.038  15.693 -0.2082 -1.4828  1.6239
  636MPD2    H2 9474   4.469   2.413  15.743 -1.2737 -0.7819  1.1372
  636MPD2    H3 9475   4.524   2.234  15.597 -1.8779  2.2030  1.0784
  636MPD2     N 9476   0.019   2.024  15.946 -0.6754 -0.0114  0.2689
  636MPD2    H5 9477   0.032   2.022  16.046  0.2395 -2.0289  0.1009
  636MPD2    N1 9478   4.556   2.446  15.998  0.1346 -0.0447 -0.5053
  636MPD2    H7 9479   4.598   2.436  16.090 -0.8320 -0.2305 -0.0857
  637TMC3    C1 9480   0.103   1.810  15.969  0.6622 -0.1009  0.6148
  637TMC3    C2 9481   0.058   1.824  16.101  0.1780 -0.5827 -0.3659
  637TMC3    C3 9482   0.131   1.759  16.200  0.1617  0.0136  0.7887
  637TMC3    C4 9483   0.223   1.749  15.930  0.1747  0.0110 -0.4405
  637TMC3    C5 9484   0.298   1.701  16.030 -0.1543  0.2076  0.0096
  637TMC3    C6 9485   0.248   1.701  16.160  0.6629 -0.2279 -0.1741
  637TMC3     C 9486   0.064   1.913  15.875  0.1312 -0.2917  0.3555
  637TMC3     O 9487   0.092   1.887  15.759 -0.2660  0.2677  0.3384
  637TMC3     H 9488   4.697   1.866  16.131 -0.7579 -2.3778 -0.8739
  637TMC3    H1 9489   0.271   1.773  15.835  1.1123  0.8150  0.2370
  637TMC3    H2 9490   0.309   1.651  16.234 -0.3749 -0.7697  0.3079
  637TMC3    C7 9491   0.440   1.742  16.025  0.7012  0.1539  0.5806
  637TMC3    C8 9492   0.153   1.849  16.309  0.0020 -0.1428  0.2779
  637TMC3    O1 9493   0.492   1.746  16.138 -0.2540  0.4639  0.0139
  637TMC3    O2 9494   0.123   1.962  16.282 -0.1880 -0.6940  0.1845
  638MPD2     C 9495   4.280   0.993  14.873  1.0132  0.2547  0.1391
  638MPD2    C1 9496   4.397   0.924  14.898  0.2964 -1.0852 -0.3775
  638MPD2    C2 9497   4.402   0.829  15.003  0.0963 -0.5218 -0.4922
  638MPD2    C3 9498   4.287   0.802  15.069 -0.6186 -0.9427 -0.0938
  638MPD2    C4 9499   4.169   0.867  15.033  0.2542  0.4626 -0.1502
  638MPD2    C5 9500   4.161   0.951  14.929 -0.1778 -0.6734 -0.4869
  638MPD2     H 9501   4.498   0.802  15.045 -0.5588 -2.2598 -0.1124
  638MPD2    H1 9502   4.079   0.848  15.090 -1.2650 -1.2350 -3.1238
  638MPD2    H2 9503   4.279   1.079  14.808  0.9691 -0.3322 -0.6431
  638MPD2    H3 9504   4.074   1.015  14.919  0.7528  0.3973 -1.6866
  638MPD2     N 9505   4.285   0.715  15.177 -0.0323  0.7153 -1.0520
  638MPD2    H5 9506   4.204   0.712  15.239  1.5411  0.2098  0.9918
  638MPD2    N1 9507   4.527   0.960  14.848  0.4205 -0.9090 -0.1543
  638MPD2    H7 9508   4.603   0.903  14.884  1.8544  1.5809  0.7648
  639TMC3    C1 9509   4.335   0.527  15.295  0.1649  0.7401 -1.0505
  639TMC3    C2 9510   4.197   0.504  15.306 -0.2230  0.1624 -0.0720
  639TMC3    C3 9511   4.166   0.411  15.406  0.4778 -0.0532  0.2789
  639TMC3    C4 9512   4.429   0.445  15.354 -0.8569 -1.1300 -0.6517
  639TMC3    C5 9513   4.394   0.358  15.445  0.8406  0.3649  0.2612
  639TMC3    C6 9514   4.256   0.338  15.480  0.0302  0.4234 -0.0715
  639TMC3     C 9515   4.385   0.627  15.206  0.2496 -0.2083  0.7792
  639TMC3     O 9516   4.489   0.598  15.145 -0.3526 -0.1583 -0.3539
  639TMC3     H 9517   4.113   0.552  15.256  1.4797  5.1908  1.8062
  639TMC3    H1 9518   4.533   0.475  15.343 -1.3176  0.4693 -0.7079
  639TMC3    H2 9519   4.222   0.268  15.555 -0.5736 -0.7498 -1.4423
  639TMC3    C7 9520   4.478   0.241  15.479 -0.0720  0.2975  0.2352
  639TMC3    C8 9521   4.042   0.335  15.390 -0.5215 -0.2198 -0.4394
  639TMC3    O1 9522   4.448   0.174  15.574 -0.5972 -0.0250 -0.1856
  639TMC3    O2 9523   3.971   0.325  15.489  0.2921  0.0323 -0.2520
  640MPD2     C 9524   0.279   4.473  10.488 -0.4829  0.4475  0.0340
  640MPD2    C1 9525   0.209   4.544  10.394  0.1413  0.6172  0.1849
  640MPD2    C2 9526   0.138   4.659  10.432  0.3117  0.2130  0.7932
  640MPD2    C3 9527   0.143   4.695  10.563  0.1295  0.4125 -0.0603
  640MPD2    C4 9528   0.211   4.625  10.652 -0.4523 -0.1959  0.0538
  640MPD2    C5 9529   0.285   4.510  10.615 -0.0403  0.2338  0.0186
  640MPD2     H 9530   0.088   4.721  10.360 -1.0642 -0.3824  1.2364
  640MPD2    H1 9531   0.214   4.645  10.759  0.5068 -1.9337  0.3531
  640MPD2    H2 9532   0.331   4.382  10.463 -0.9359  0.1518  0.1751
  640MPD2    H3 9533   0.336   4.445  10.685  1.3325 -0.5990 -1.7528
  640MPD2     N 9534   0.090   0.079  10.617 -0.2409  0.4360 -0.3574
  640MPD2    H5 9535   0.074   0.082  10.717 -0.3707 -0.5181 -0.3410
  640MPD2    N1 9536   0.222   4.492  10.266  0.2795 -0.7752  0.1381
  640MPD2    H7 9537   0.262   4.399  10.257  0.5050 -0.6601 -0.0390
  641TMC3    C1 9538   0.154   4.485  10.047  0.1606  0.9278  0.2156
  641TMC3    C2 9539   0.254   4.416   9.996 -0.2184  0.3259 -0.1078
  641TMC3    C3 9540   0.234   4.355   9.872  0.5567 -0.6521  0.3495
  641TMC3    C4 9541   0.050   4.527   9.973  0.2039  0.1831  0.2943
  641TMC3    C5 9542   0.039   4.482   9.845 -0.1765 -0.1958 -0.5624
  641TMC3    C6 9543   0.126   4.387   9.795  0.0630 -0.2973 -0.3433
  641TMC3     C 9544   0.189   4.569  10.158 -0.3143 -0.6686 -0.0134
  641TMC3     O 9545   0.165   4.688  10.144 -0.2148 -0.2603 -0.8680
  641TMC3     H 9546   0.335   4.389  10.062 -1.3808  1.4709  1.8128
  641TMC3    H1 9547   4.704   4.570  10.032 -0.3556  0.5482 -0.7356
  641TMC3    H2 9548   0.111   4.352   9.693  0.3280  1.2004 -0.9031
  641TMC3    C7 9549   4.679   4.548   9.775 -0.2876 -0.2665  1.1075
  641TMC3    C8 9550   0.318   4.252   9.820 -0.1022 -0.9733  0.3112
  641TMC3    O1 9551   4.592   4.597   9.842  0.0913  0.0474 -0.1235
  641TMC3    O2 9552   0.312   4.236   9.702  0.3438  0.3341 -0.1523
  642TMC3    C1 9553   1.211   0.597  12.778 -0.1322 -0.7558 -0.4622
  642TMC3    C2 9554   1.316   0.620  12.685 -0.3378  0.3440  0.1340
  642TMC3    C3 9555   1.380   0.518  12.617  0.1055  0.2008 -0.0840
  642TMC3    C4 9556   1.172   0.470  12.800  0.1217 -0.1523  0.3022
  642TMC3    C5 9557   1.236   0.369  12.726 -0.9194 -0.3872 -0.2946
  642TMC3    C6 9558   1.339   0.392  12.635 -0.6741 -0.1667  0.5103
  642TMC3     C 9559   1.150   0.714  12.834  0.6057 -0.0535  0.7822
  642TMC3     O 9560   1.224   0.811  12.847  0.4757 -0.3465 -0.2223
  642TMC3     H 9561   1.341   0.721  12.653  2.2785 -0.5184 -0.5134
  642TMC3    H1 9562   1.099   0.442  12.875 -1.8605  1.6168 -0.9559
  642TMC3    H2 9563   1.410   0.313  12.609 -1.4024 -0.9070  0.7622
  642TMC3    C7 9564   1.195   0.231  12.736 -0.6595  0.4933 -0.1408
  642TMC3    C8 9565   1.501   0.537  12.531  0.1252  0.0433 -0.1208
  642TMC3    O1 9566   1.270   0.153  12.677 -0.2684 -0.4804 -0.0035
  642TMC3    O2 9567   1.573   0.444  12.504  0.0107 -0.1343 -0.2084
  643TMC3    C1 9568   1.156   0.151   0.312 -0.0539  0.2954 -0.2431
  643TMC3    C2 9569   1.043   0.212   0.265 -0.6779 -0.2941 -0.4135
  643TMC3    C3 9570   0.973   0.140   0.169  0.7201  0.8753  0.2173
  643TMC3    C4 9571   1.198   0.027   0.285 -0.1187 -0.1311  0.1522
  643TMC3    C5 9572   1.132   4.692   0.188  0.1468 -0.5895 -0.9018
  643TMC3    C6 9573   1.015   0.011   0.139 -0.1166 -0.0252 -0.4221
  643TMC3     C 9574   1.217   0.228   0.412 -0.3558  0.7033 -0.1541
  643TMC3     O 9575   1.140   0.299   0.476  0.1912  0.2394  0.0979
  643TMC3     H 9576   0.999   0.305   0.300  0.8317  0.7993 -1.4096
  643TMC3    H1 9577   1.282   4.718   0.338 -1.0459 -1.2507  0.6830
  643TMC3    H2 9578   0.961   4.702   0.056  0.9657 -0.7449 -0.7594
  643TMC3    C7 9579   1.223   4.635   0.086 -0.4635  0.6568  0.5250
  643TMC3    C8 9580   0.879   0.202   0.080  0.3098  0.0399 -0.0983
  643TMC3    O1 9581   1.340   4.672   0.085  0.4000 -0.3181  0.2599
  643TMC3    O2 9582   0.799   0.130   0.021 -0.1513  0.0854  0.3474
  644MPD2     C 9583   4.511   0.139  10.135  0.0279  0.0201  0.5473
  644MPD2    C1 9584   4.526   0.216  10.013 -0.6763  0.4274  0.3241
  644MPD2    C2 9585   4.448   0.332   9.999 -0.0406  0.7462 -0.1657
  644MPD2    C3 9586   4.356   0.365  10.094  0.1506 -0.1703  0.1605
  644MPD2    C4 9587   4.342   0.286  10.205  0.0575 -0.3713  0.1776
  644MPD2    C5 9588   4.421   0.177  10.229  0.1275  0.3178 -0.4860
  644MPD2     H 9589   4.468   0.403   9.920 -0.9757  1.7000  0.4456
  644MPD2    H1 9590   4.274   0.314  10.285  0.4858 -0.5386  0.5971
  644MPD2    H2 9591   4.566   0.048  10.156 -0.2306 -0.3393 -0.3384
  644MPD2    H3 9592   4.404   0.117  10.318 -1.1622  0.5548 -0.5825
  644MPD2     N 9593   4.290   0.486  10.073  0.1378 -0.2765  0.2919
  644MPD2    H5 9594   4.297   0.527   9.980 -1.8145  0.7344  0.5761
  644MPD2    N1 9595   4.617   0.166   9.923 -0.3374 -0.4927 -0.2323
  644MPD2    H7 9596   4.675   0.087   9.949  0.6685  0.8199  1.5979
  645TMC3    C1 9597   4.154   0.678  10.100 -0.6873 -0.1690  0.1766
  645TMC3    C2 9598   4.023   0.716  10.138 -0.4931  0.4711 -0.2826
  645TMC3    C3 9599   3.982   0.844  10.109 -0.4143 -0.8279  0.5851
  645TMC3    C4 9600   4.248   0.766  10.052 -0.4679  0.1704 -0.5509
  645TMC3    C5 9601   4.200   0.891  10.020 -0.0880  0.2797 -0.0456
  645TMC3    C6 9602   4.065   0.932  10.044 -0.6516 -0.6696 -0.7427
  645TMC3     C 9603   4.200   0.551  10.152  0.0050  0.3413  0.2114
  645TMC3     O 9604   4.132   0.514  10.245 -0.0250  0.2620 -0.1705
  645TMC3     H 9605   3.957   0.632  10.157 -0.2431  0.5625  1.0090
  645TMC3    H1 9606   4.349   0.740  10.025 -0.7820 -0.5947 -1.0051
  645TMC3    H2 9607   4.029   1.030  10.016 -0.7580 -0.0568  1.5247
  645TMC3    C7 9608   4.295   0.973   9.957  0.8653  0.6470 -0.2936
  645TMC3    C8 9609   3.843   0.865  10.111 -0.6106  0.0156  0.0559
  645TMC3    O1 9610   4.411   0.957  10.003  0.2139  0.2318 -0.2528
  645TMC3    O2 9611   3.805   0.937  10.022 -0.4126 -0.2943 -0.3760
  646MPD2     C 9612   4.542   4.564  14.535  0.2197 -0.1733 -0.2318
  646MPD2    C1 9613   4.470   4.487  14.626 -0.6787  0.0290  0.3493
  646MPD2    C2 9614   4.333   4.509  14.628 -0.8972  0.0525 -0.4577
  646MPD2    C3 9615   4.261   4.591  14.541 -0.9596  0.1374  0.2272
  646MPD2    C4 9616   4.336   4.663  14.450  0.0797 -0.2866  0.2860
  646MPD2    C5 9617   4.473   4.656  14.453  0.1832  0.3619  0.1254
  646MPD2     H 9618   4.273   4.449  14.695 -0.9023  0.7339  0.1480
  646MPD2    H1 9619   4.294   0.002  14.381 -0.7424 -0.6073  0.4452
  646MPD2    H2 9620   4.650   4.565  14.537  0.1683  2.7801  2.9426
  646MPD2    H3 9621   4.527   4.725  14.388  2.6460 -0.0728  1.6887
  646MPD2     N 9622   4.122   4.604  14.554 -0.4571 -0.6840  0.7529
  646MPD2    H5 9623   4.084   4.555  14.634 -1.4086 -3.6741 -1.5440
  646MPD2    N1 9624   4.540   4.393  14.708  0.3847  0.0136  0.3595
  646MPD2    H7 9625   4.637   4.382  14.677  0.5704  2.2741  0.1527
  647TMC3    C1 9626   4.582   4.268  14.900  0.1120 -0.2377  0.0385
  647TMC3    C2 9627   4.563   4.253  15.033  0.0553 -0.9848 -0.3575
  647TMC3    C3 9628   4.635   4.165  15.114  0.0555  0.0743 -0.3481
  647TMC3    C4 9629   4.678   4.190  14.839 -0.1399  0.6157  0.1653
  647TMC3    C5 9630   0.020   4.108  14.921  0.9299  0.1202  0.2306
  647TMC3    C6 9631   0.011   4.106  15.062  0.0947 -0.3630  0.0272
  647TMC3     C 9632   4.491   4.347  14.827 -0.4355 -0.2838  0.6554
  647TMC3     O 9633   4.387   4.383  14.882  0.0301  0.0242 -0.1521
  647TMC3     H 9634   4.490   4.319  15.078 -1.2806 -1.2371 -2.1324
  647TMC3    H1 9635   4.702   4.193  14.733 -1.8057 -2.4584 -0.2729
  647TMC3    H2 9636   0.073   4.034  15.114 -0.8854 -1.3367 -0.1652
  647TMC3    C7 9637   0.109   4.009  14.867 -0.3966 -0.0610 -0.4360
  647TMC3    C8 9638   4.589   4.138  15.244 -0.7600  0.0541 -0.2143
  647TMC3    O1 9639   0.222   4.004  14.919 -0.3361  0.5585  0.3198
  647TMC3    O2 9640   4.533   4.222  15.307 -0.2351  0.1303 -0.3760
  648TMC3    C1 9641   4.127   1.988  16.475 -0.4599  0.4264 -0.2123
  648TMC3    C2 9642   4.214   1.888  16.455  0.4377 -0.4562  0.0422
  648TMC3    C3 9643   4.240   1.836  16.323 -0.5963  0.2347  0.1882
  648TMC3    C4 9644   4.043   2.022  16.371  0.1486  0.0097  0.1200
  648TMC3    C5 9645   4.058   1.966  16.253 -0.1985  0.4815  0.8611
  648TMC3    C6 9646   4.161   1.878  16.222  1.3899 -0.2920  0.6706
  648TMC3     C 9647   4.106   2.044  16.603  0.1315 -0.1019  0.7509
  648TMC3     O 9648   4.045   2.150  16.603  0.3788  0.0653  0.1026
  648TMC3     H 9649   4.287   1.862  16.531  1.8957  1.0129 -0.8700
  648TMC3    H1 9650   3.958   2.083  16.398 -0.7240 -0.9560 -0.4625
  648TMC3    H2 9651   4.180   1.856  16.118 -3.5550 -0.9489 -0.1071
  648TMC3    C7 9652   3.987   2.026  16.137  0.1553  0.7002 -0.2530
  648TMC3    C8 9653   4.355   1.756  16.305  0.2913 -0.6430 -0.2263
  648TMC3    O1 9654   4.014   1.992  16.022  0.9922 -0.2960  0.4410
  648TMC3    O2 9655   4.448   1.770  16.384 -0.1247  0.6456  0.3790
  649TMC3    C1 9656   2.806   2.887  13.581 -0.2654  0.4649 -0.3482
  649TMC3    C2 9657   2.934   2.833  13.597 -0.8378 -0.2696  0.5469
  649TMC3    C3 9658   2.947   2.759  13.710  1.1428 -0.3939 -0.3298
  649TMC3    C4 9659   2.701   2.852  13.663 -0.0443 -0.0538  0.5358
  649TMC3    C5 9660   2.723   2.762  13.763  0.3811 -0.2811 -0.5688
  649TMC3    C6 9661   2.844   2.720  13.792 -0.2086 -0.5792 -0.3909
  649TMC3     C 9662   2.763   2.948  13.453  0.2975 -0.2087  0.1321
  649TMC3     O 9663   2.645   2.983  13.436 -0.1461  0.7791  0.7621
  649TMC3     H 9664   3.023   2.861  13.542 -0.6331 -0.3468  0.8376
  649TMC3    H1 9665   2.608   2.905  13.652 -0.8400 -1.7413 -0.8877
  649TMC3    H2 9666   2.872   2.675  13.886 -0.0822 -0.5362 -0.4077
  649TMC3    C7 9667   2.621   2.765  13.863 -0.5142 -0.3481  0.1258
  649TMC3    C8 9668   3.076   2.699  13.740 -0.4496  0.4421 -0.5414
  649TMC3    O1 9669   2.531   2.846  13.863  0.0315  0.4973  0.4010
  649TMC3    O2 9670   3.073   2.587  13.783  0.1048 -0.2174 -0.5830
  650TMC3    C1 9671   0.396   4.321  12.663 -0.4119 -0.1390 -0.0498
  650TMC3    C2 9672   0.286   4.400  12.673  0.2663  0.4664  0.1965
  650TMC3    C3 9673   0.282   4.531  12.629 -0.3422  1.0598 -0.1333
  650TMC3    C4 9674   0.518   4.380  12.626 -0.2872  0.0906  0.2604
  650TMC3    C5 9675   0.517   4.518  12.611 -0.8252 -0.7737 -0.0490
  650TMC3    C6 9676   0.403   4.590  12.599 -0.1441  0.5214 -0.3229
  650TMC3     C 9677   0.404   4.220  12.771 -0.1751 -0.2111  0.4212
  650TMC3     O 9678   0.316   4.205  12.855  0.1948  0.3036  0.5869
  650TMC3     H 9679   0.192   4.353  12.702  0.9450 -1.0158 -0.0042
  650TMC3    H1 9680   0.615   4.332  12.626 -0.6009 -0.5326 -2.1560
  650TMC3    H2 9681   0.399   4.692  12.560 -0.5941 -0.1677 -2.0806
  650TMC3    C7 9682   0.637   4.581  12.556  0.7064 -0.1524 -0.9380
  650TMC3    C8 9683   0.163   4.608  12.660  0.5298 -0.0425 -0.5416
  650TMC3    O1 9684   0.701   4.510  12.479  0.4237  0.0415  0.1895
  650TMC3    O2 9685   0.054   4.545  12.666  0.5217 -0.7067  0.0226
  651MPD2     C 9686   4.081   2.116  10.517  0.0261 -0.0557 -0.0613
  651MPD2    C1 9687   4.112   2.224  10.597  0.2383  0.3263  0.0654
  651MPD2    C2 9688   4.240   2.276  10.593 -0.3526 -0.2338  0.3571
  651MPD2    C3 9689   4.341   2.209  10.535  0.3917 -0.6425  1.4317
  651MPD2    C4 9690   4.309   2.096  10.459 -0.2592  0.1306  0.1393
  651MPD2    C5 9691   4.180   2.062  10.434  0.2537  0.1037 -0.2470
  651MPD2     H 9692   4.257   2.366  10.651 -0.3886  1.2941 -2.0137
  651MPD2    H1 9693   4.386   2.028  10.424 -1.5199  0.0053 -2.3195
  651MPD2    H2 9694   3.979   2.078  10.509  0.1177 -0.2463 -0.3245
  651MPD2    H3 9695   4.181   1.970  10.376 -0.2884  0.2261 -0.4553
  651MPD2     N 9696   4.465   2.256  10.567 -0.0847  0.5121  0.1857
  651MPD2    H5 9697   4.461   2.330  10.636  0.3838  0.8220 -0.1183
  651MPD2    N1 9698   4.015   2.277  10.686 -0.6585 -0.5375 -0.6303
  651MPD2    H7 9699   4.037   2.366  10.731 -2.8679 -0.7597  0.8822
  652TMC3    C1 9700   0.091   2.163  10.756 -0.1814 -0.2483 -0.0205
  652TMC3    C2 9701   0.050   2.173  10.623 -0.2920 -0.1174 -0.3837
  652TMC3    C3 9702   4.694   2.270  10.590  0.0674 -0.3916 -0.6619
  652TMC3    C4 9703   0.051   2.250  10.846  0.0736 -0.0366  0.4537
  652TMC3    C5 9704   4.705   2.354  10.804 -0.0927 -0.0806 -0.2449
  652TMC3    C6 9705   4.652   2.366  10.677 -0.1261  0.5822  0.2150
  652TMC3     C 9706   0.235   2.128  10.773  0.3113 -0.8681 -0.6976
  652TMC3     O 9707   0.272   2.086  10.883 -0.1015 -0.5409 -0.2815
  652TMC3     H 9708   0.067   2.087  10.560  0.4747 -0.9369  0.9488
  652TMC3    H1 9709   0.100   2.237  10.942  0.5954 -0.6042  0.1083
  652TMC3    H2 9710   4.599   2.458  10.654 -2.8527 -0.5724  1.9186
  652TMC3    C7 9711   0.021   2.483  10.846  0.1026  0.8384 -0.7812
  652TMC3    C8 9712   4.584   2.217  10.513 -0.1978 -0.5619 -0.1114
  652TMC3    O1 9713   0.015   2.576  10.765  0.4148 -0.1110  0.0448
  652TMC3    O2 9714   4.601   2.120  10.441 -0.5374  0.2950  0.4682
  653MPD2     C 9715   3.402   1.921   0.376 -0.2944 -0.4060 -0.2251
  653MPD2    C1 9716   3.346   2.000   0.277  0.1939 -0.3574  0.1577
  653MPD2    C2 9717   3.335   1.939   0.157  0.3987 -0.4834 -0.3750
  653MPD2    C3 9718   3.371   1.811   0.139 -1.3469 -0.1998 -0.4385
  653MPD2    C4 9719   3.420   1.730   0.235  0.1099 -0.4201 -0.4099
  653MPD2    C5 9720   3.432   1.791   0.357 -0.3581  0.1904 -0.5655
  653MPD2     H 9721   3.292   2.002   0.080  0.8407  0.8668  0.4861
  653MPD2    H1 9722   3.444   1.626   0.215 -1.1524 -0.6119 -0.9075
  653MPD2    H2 9723   3.400   1.958   0.478  1.0706  0.3105 -0.4631
  653MPD2    H3 9724   3.454   1.738   0.450 -0.0929  1.5616  0.1547
  653MPD2     N 9725   3.358   1.767   0.008  0.0273 -0.4969 -0.6520
  653MPD2    H5 9726   3.343   1.837  17.673 -1.3909  3.0311  3.1379
  653MPD2    N1 9727   3.299   2.130   0.289 -0.4887 -0.2298  0.4827
  653MPD2    H7 9728   3.249   2.173   0.212  1.7495 -1.4817 -1.6978
  654TMC3    C1 9729   3.344   1.615  17.562 -0.1407 -0.3117  1.1704
  654TMC3    C2 9730   3.246   1.689  17.504  0.6482 -0.0109  0.3640
  654TMC3    C3 9731   3.197   1.659  17.381  0.3761  0.6905  0.3445
  654TMC3    C4 9732   3.406   1.510  17.503 -0.1642  0.3064  0.1892
  654TMC3    C5 9733   3.355   1.482  17.376 -0.0955 -0.3055 -0.0968
  654TMC3    C6 9734   3.256   1.555  17.311  0.2579 -0.0110  0.0550
  654TMC3     C 9735   3.375   1.637  17.702 -0.3508  0.4632 -0.1237
  654TMC3     O 9736   3.409   1.532   0.022  0.1017 -0.5667 -0.1931
  654TMC3     H 9737   3.190   1.764  17.560 -0.8528 -0.1008 -1.0239
  654TMC3    H1 9738   3.490   1.465  17.555 -1.4529 -0.1082  1.8683
  654TMC3    H2 9739   3.217   1.516  17.218  0.9438  1.1108 -0.7052
  654TMC3    C7 9740   3.378   1.353  17.312  0.6038  0.4541 -0.0299
  654TMC3    C8 9741   3.106   1.754  17.311 -0.1416  0.3236  0.0684
  654TMC3    O1 9742   3.386   1.364  17.191  0.2991  0.1772  0.1240
  654TMC3    O2 9743   3.027   1.824  17.370 -0.0671  0.3764  0.3035
  655MPD2     C 9744   4.466   1.861  15.909  0.0975  1.2300 -0.0317
  655MPD2    C1 9745   4.372   1.942  15.842 -0.5358  0.9206  0.0165
  655MPD2    C2 9746   4.344   1.911  15.708  0.7918  0.6632  0.8685
  655MPD2    C3 9747   4.406   1.804  15.648  0.0055  0.3597  0.6862
  655MPD2    C4 9748   4.496   1.725  15.713  0.3414  0.3170 -0.5134
  655MPD2    C5 9749   4.521   1.752  15.846  0.5195  0.1461 -0.3022
  655MPD2     H 9750   4.272   1.976  15.659 -1.1389 -1.7521  0.4944
  655MPD2    H1 9751   4.549   1.636  15.681 -1.2306 -0.1155 -1.9442
  655MPD2    H2 9752   4.483   1.866  16.016 -0.2122 -1.2264  0.1412
  655MPD2    H3 9753   4.593   1.682  15.887  0.2689  0.0158 -0.0832
  655MPD2     N 9754   4.370   1.757  15.523  0.5344  0.2709  0.1150
  655MPD2    H5 9755   4.402   1.666  15.493 -0.2456 -0.0566  0.2644
  655MPD2    N1 9756   4.310   2.064  15.887 -0.4256 -0.4672  0.1347
  655MPD2    H7 9757   4.246   2.106  15.821  0.0673 -1.3735 -0.9126
  656TMC3    C1 9758   4.258   2.245  16.014  0.1044  0.5677 -0.3406
  656TMC3    C2 9759   4.237   2.288  16.143 -0.4537  0.1063 -0.3168
  656TMC3    C3 9760   4.176   2.405  16.165  0.0014 -0.2647  1.1565
  656TMC3    C4 9761   4.230   2.327  15.908 -0.5966  0.1862 -0.3567
  656TMC3    C5 9762   4.158   2.441  15.931  0.1732 -0.2235 -0.0161
  656TMC3    C6 9763   4.124   2.477  16.057  0.4333  0.2819 -0.2832
  656TMC3     C 9764   4.330   2.117  16.011 -0.1205  0.5890  0.2223
  656TMC3     O 9765   4.395   2.080  16.110  0.4420 -0.0718  0.1056
  656TMC3     H 9766   4.272   2.223  16.223 -4.2751 -1.4665  0.0418
  656TMC3    H1 9767   4.250   2.294  15.807 -1.2647  2.0550 -1.1120
  656TMC3    H2 9768   4.053   2.558  16.068 -0.5735 -0.3153 -2.3242
  656TMC3    C7 9769   4.100   2.493  15.811  0.3076 -0.9890 -0.6760
  656TMC3    C8 9770   4.126   2.424  16.306 -0.4810  0.8966 -0.5949
  656TMC3    O1 9771   4.169   2.480  15.706  0.0563  0.1146 -0.3382
  656TMC3    O2 9772   4.136   2.333  16.389 -0.5462  0.2555 -0.0619
  657TMC3    C1 9773   3.107   1.358  15.292  0.1314  0.4879 -0.0758
  657TMC3    C2 9774   3.191   1.446  15.356 -0.4082 -0.5014  0.3690
  657TMC3    C3 9775   3.159   1.579  15.353 -0.2413  0.2347 -0.1486
  657TMC3    C4 9776   3.001   1.404  15.223  0.6070 -0.5238 -0.0977
  657TMC3    C5 9777   2.985   1.536  15.201 -0.3122 -0.5330 -1.0266
  657TMC3    C6 9778   3.067   1.626  15.260 -0.2668 -0.0173  0.3722
  657TMC3     C 9779   3.132   1.215  15.296 -0.0431 -1.5502 -0.6226
  657TMC3     O 9780   3.060   1.138  15.234 -0.2620  0.1090 -0.0200
  657TMC3     H 9781   3.282   1.415  15.405 -0.8136 -0.7876  0.9409
  657TMC3    H1 9782   2.938   1.332  15.171  0.0697 -0.0106 -0.1608
  657TMC3    H2 9783   3.034   1.729  15.252  1.9148  0.7803  1.6412
  657TMC3    C7 9784   2.873   1.574  15.116  0.3545 -0.4346 -0.1366
  657TMC3    C8 9785   3.226   1.671  15.438  0.2752 -0.6326 -0.3992
  657TMC3    O1 9786   2.818   1.479  15.063 -0.1187 -0.1465 -0.3719
  657TMC3    O2 9787   3.224   1.786  15.410 -0.2387 -0.2247  0.3587
  658MPD2     C 9788   0.012   1.749  14.960 -0.2469 -0.4791  0.4046
  658MPD2    C1 9789   4.619   1.704  14.926 -0.1079  0.9182  0.1983
  658MPD2    C2 9790   4.594   1.685  14.789 -0.1673  0.6584  0.9684
  658MPD2    C3 9791   4.677   1.727  14.694  0.2403 -0.6818 -0.6066
  658MPD2    C4 9792   0.067   1.772  14.727 -0.3885  0.2619 -0.0137
  658MPD2    C5 9793   0.095   1.796  14.860 -0.2537  0.7226 -0.1006
  658MPD2     H 9794   4.502   1.639  14.756 -0.7990  0.8867  2.4029
  658MPD2    H1 9795   0.139   1.801  14.651  1.6653 -1.9291  1.1050
  658MPD2    H2 9796   0.039   1.767  15.064  1.3776 -0.8316  0.0420
  658MPD2    H3 9797   0.187   1.847  14.886  0.4184 -1.0756  1.1159
  658MPD2     N 9798   4.612   1.733  14.563 -0.3897  0.0791  0.4297
  658MPD2    H5 9799   4.511   1.723  14.563 -0.6510  2.7633 -0.1734
  658MPD2    N1 9800   4.524   1.686  15.032  0.3924 -0.1884  0.0413
  658MPD2    H7 9801   4.558   1.714  15.123  0.7081  2.0679 -0.7861
  659TMC3    C1 9802   4.306   1.647  15.123 -0.5024  0.4308  0.1380
  659TMC3    C2 9803   4.341   1.685  15.243 -0.0227  0.9770 -0.4081
  659TMC3    C3 9804   4.250   1.731  15.328  0.1569 -0.4377 -0.6841
  659TMC3    C4 9805   4.173   1.618  15.097  0.9725 -0.5472  0.0726
  659TMC3    C5 9806   4.078   1.668  15.180  0.4486  0.2530  0.7605
  659TMC3    C6 9807   4.113   1.727  15.300  0.2417 -0.3801 -0.0330
  659TMC3     C 9808   4.394   1.656  15.006 -1.0834 -0.5675  0.8171
  659TMC3     O 9809   4.337   1.657  14.896 -0.5675  0.1134 -0.2882
  659TMC3     H 9810   4.445   1.702  15.269 -0.4876 -1.6954  3.1469
  659TMC3    H1 9811   4.138   1.579  15.002  0.1797  0.3155  0.0067
  659TMC3    H2 9812   4.039   1.773  15.364  0.2775  1.3087 -1.1769
  659TMC3    C7 9813   3.947   1.689  15.132 -0.3535 -0.8836  0.8114
  659TMC3    C8 9814   4.282   1.817  15.439 -0.2180  0.2328 -0.7021
  659TMC3    O1 9815   3.888   1.777  15.194  0.0500  0.0500  0.2212
  659TMC3    O2 9816   4.211   1.917  15.459 -0.7655 -0.4562  0.2994
  660MPD2     C 9817   2.284   0.995  12.509  0.8736  0.1005  0.1100
  660MPD2    C1 9818   2.154   1.018  12.553 -0.3063  0.0685  0.0630
  660MPD2    C2 9819   2.095   0.915  12.622 -0.0355 -0.0287  0.1904
  660MPD2    C3 9820   2.148   0.793  12.638 -0.4158  1.0724  0.7027
  660MPD2    C4 9821   2.272   0.771  12.590  0.2905 -0.5368 -0.4536
  660MPD2    C5 9822   2.345   0.875  12.531 -0.4564 -0.2651  0.6631
  660MPD2     H 9823   1.995   0.937  12.659  0.3295 -0.3848  1.4129
  660MPD2    H1 9824   2.325   0.680  12.612  0.2894 -0.3655  0.2768
  660MPD2    H2 9825   2.350   1.068  12.463  2.2176 -0.8072  0.5970
  660MPD2    H3 9826   2.444   0.856  12.493 -2.0119 -0.8711 -3.1330
  660MPD2     N 9827   2.085   0.678  12.693 -0.7901 -0.2789 -0.3810
  660MPD2    H5 9828   2.140   0.593  12.695 -1.4621 -0.7714 -3.3143
  660MPD2    N1 9829   2.097   1.147  12.521  0.1044  0.4397  0.8609
  660MPD2    H7 9830   2.132   1.198  12.441 -0.9169  0.7411  0.6037
  661TMC3    C1 9831   1.897   1.272  12.501 -0.8936  0.3419 -0.3164
  661TMC3    C2 9832   1.929   1.304  12.370 -0.1627 -0.5642  0.5035
  661TMC3    C3 9833   1.820   1.333  12.290  0.1500  0.4113  0.9100
  661TMC3    C4 9834   1.771   1.288  12.551  0.0247  0.8583  0.7726
  661TMC3    C5 9835   1.669   1.309  12.455  0.0402 -0.7315  0.4375
  661TMC3    C6 9836   1.691   1.336  12.324 -0.8195 -0.0576  0.4653
  661TMC3     C 9837   1.987   1.199  12.587 -0.3008 -0.1508 -0.2316
  661TMC3     O 9838   1.941   1.161  12.692  0.1368  0.5013 -0.2294
  661TMC3     H 9839   2.029   1.303  12.328  0.2369 -1.8898  1.5002
  661TMC3    H1 9840   1.754   1.290  12.658  0.6329 -1.7088  0.9141
  661TMC3    H2 9841   1.613   1.350  12.251 -1.0501  2.2187  1.1328
  661TMC3    C7 9842   1.536   1.270  12.505  1.1064  0.4601  0.3920
  661TMC3    C8 9843   1.863   1.387  12.163  0.5391 -0.0729 -0.2962
  661TMC3    O1 9844   1.511   1.300  12.621 -0.0764 -0.0131 -0.7327
  661TMC3    O2 9845   1.971   1.350  12.119  0.3339  0.6093 -0.1573
  662MPD2     C 9846   3.331   1.086  16.850  0.0735 -0.1409  0.2817
  662MPD2    C1 9847   3.262   0.968  16.867  0.1018 -0.1462  0.2346
  662MPD2    C2 9848   3.157   0.969  16.961 -0.0160  0.0594 -0.7749
  662MPD2    C3 9849   3.120   1.090  17.020  0.2580  0.0100 -0.5594
  662MPD2    C4 9850   3.192   1.207  17.010  0.5420 -0.6795 -0.3292
  662MPD2    C5 9851   3.297   1.201  16.922 -0.0461  0.5570  0.1786
  662MPD2     H 9852   3.097   0.880  16.973  0.9176 -0.6236 -1.2014
  662MPD2    H1 9853   3.163   1.295  17.067 -1.0887 -0.6476 -1.2083
  662MPD2    H2 9854   3.417   1.094  16.784  0.6841 -1.1360  0.9538
  662MPD2    H3 9855   3.354   1.292  16.906 -0.9650  1.0029 -0.4958
  662MPD2     N 9856   3.013   1.090  17.111 -0.4950  0.1973 -0.3624
  662MPD2    H5 9857   2.999   1.169  17.174 -0.8734  1.5300 -2.1357
  662MPD2    N1 9858   3.292   0.839  16.808  0.8897 -0.0588  0.0373
  662MPD2    H7 9859   3.242   0.756  16.838 -0.0090  1.0000  1.4217
  663TMC3    C1 9860   3.415   0.668  16.723  0.6204 -0.9129  0.0244
  663TMC3    C2 9861   3.535   0.619  16.756 -0.8697  0.1500  0.3917
  663TMC3    C3 9862   3.539   0.492  16.805 -0.9026 -0.0351 -0.1861
  663TMC3    C4 9863   3.306   0.588  16.718 -0.4907  0.0395  0.3905
  663TMC3    C5 9864   3.310   0.463  16.769 -0.4001 -0.4808  0.2151
  663TMC3    C6 9865   3.424   0.419  16.827  0.2784 -0.2555  0.6311
  663TMC3     C 9866   3.400   0.810  16.720  0.0067  0.0346  0.2134
  663TMC3     O 9867   3.485   0.881  16.667  0.3966  0.1957  0.1939
  663TMC3     H 9868   3.614   0.688  16.781 -1.1210  0.4124  0.4705
  663TMC3    H1 9869   3.216   0.619  16.667 -0.4487 -1.7270 -0.7379
  663TMC3    H2 9870   3.432   0.317  16.864 -0.5526 -0.0681  1.3245
  663TMC3    C7 9871   3.206   0.378  16.739 -0.3134  0.1108  0.3445
  663TMC3    C8 9872   3.612   0.489  16.931  0.1947  0.0878 -0.5560
  663TMC3    O1 9873   3.131   0.410  16.652  0.1243 -0.0135 -0.4437
  663TMC3    O2 9874   3.729   0.511  16.928 -0.1051 -0.2736 -0.6641
  664MPD2     C 9875   1.442   3.556   0.081 -0.5026 -0.1566  0.3157
  664MPD2    C1 9876   1.486   3.682   0.037 -0.3792  0.3036 -0.5798
  664MPD2    C2 9877   1.491   3.788   0.121 -0.3636  0.5762  0.7117
  664MPD2    C3 9878   1.422   3.781   0.247 -0.4094 -0.2715  0.3290
  664MPD2    C4 9879   1.372   3.656   0.287 -0.4514 -0.1060 -0.1956
  664MPD2    C5 9880   1.381   3.553   0.206  0.7132  0.0569  0.7175
  664MPD2     H 9881   1.531   3.883   0.087  0.7752  0.0590  0.5902
  664MPD2    H1 9882   1.315   3.640   0.378 -1.0080  0.5252 -0.4297
  664MPD2    H2 9883   1.449   3.459   0.033 -0.4078 -0.9052  1.8404
  664MPD2    H3 9884   1.333   3.458   0.228  2.6386 -1.4143 -1.5732
  664MPD2     N 9885   1.399   3.884   0.343 -0.3282 -0.4477  0.5093
  664MPD2    H5 9886   1.338   3.873   0.423 -1.4439  0.8645 -0.1465
  664MPD2    N1 9887   1.538   3.709  17.649 -0.0899 -0.2361 -0.0341
  664MPD2    H7 9888   1.580   3.799  17.628 -1.7210  0.8198  1.2461
  665TMC3    C1 9889   1.451   4.072   0.465 -0.4663  0.1750  0.4622
  665TMC3    C2 9890   1.331   4.077   0.529 -0.2776  0.1823  0.0469
  665TMC3    C3 9891   1.337   4.107   0.663 -0.7217 -0.3355 -0.8776
  665TMC3    C4 9892   1.570   4.104   0.527  0.1904 -0.0911 -0.4446
  665TMC3    C5 9893   1.571   4.141   0.656 -0.2439  0.4911 -0.6126
  665TMC3    C6 9894   1.458   4.131   0.732 -0.3725 -0.7189 -0.3619
  665TMC3     C 9895   1.469   4.001   0.344 -0.1717 -0.0257  0.8142
  665TMC3     O 9896   1.567   4.029   0.276 -0.3227 -0.5726  0.2563
  665TMC3     H 9897   1.236   4.057   0.480 -1.0653  1.2894  1.1101
  665TMC3    H1 9898   1.659   4.114   0.465 -0.3136  1.4637 -0.9148
  665TMC3    H2 9899   1.459   4.139   0.840  0.2515 -0.9509 -0.3529
  665TMC3    C7 9900   1.704   4.170   0.712 -0.4742 -0.1661  0.3462
  665TMC3    C8 9901   1.211   4.122   0.741 -0.3620 -0.5044 -0.0841
  665TMC3    O1 9902   1.796   4.149   0.636 -0.3083 -0.0770  0.9022
  665TMC3    O2 9903   1.221   4.159   0.856 -0.2337  0.1059 -0.0632
  666TMC3    C1 9904   4.442   3.459  10.312  0.4188 -0.0897 -0.1059
  666TMC3    C2 9905   4.562   3.401  10.288 -0.0688 -0.2739  0.2614
  666TMC3    C3 9906   4.663   3.481  10.244 -0.3231 -0.5263  0.4126
  666TMC3    C4 9907   4.416   3.591  10.300  0.2614  0.0203 -0.6362
  666TMC3    C5 9908   4.525   3.670  10.270 -0.0795  0.7757 -0.2100
  666TMC3    C6 9909   4.650   3.614  10.247  0.9424  0.3000 -0.4874
  666TMC3     C 9910   4.343   3.382  10.377  0.2637  0.3053  0.4827
  666TMC3     O 9911   4.246   3.435  10.424  0.1755 -0.1509 -0.2619
  666TMC3     H 9912   4.575   3.295  10.302 -0.7877 -0.0305  2.7722
  666TMC3    H1 9913   4.324   3.640  10.329 -0.2589 -0.9763 -0.6232
  666TMC3    H2 9914   4.733   3.677  10.218  1.8817 -0.3656  0.7662
  666TMC3    C7 9915   4.510   3.816  10.284  0.0063  0.1179 -0.0838
  666TMC3    C8 9916   0.059   3.410  10.250 -0.0977 -0.4517 -0.3349
  666TMC3    O1 9917   4.425   3.855  10.366 -0.6604 -0.1317 -0.5236
  666TMC3    O2 9918   0.065   3.293  10.287 -0.2547 -1.0182  0.1487
  667MPD2     C 9919   1.585   3.717  14.478  0.7435  0.5416  0.1829
  667MPD2    C1 9920   1.629   3.671  14.600 -0.0054  0.1983 -0.1525
  667MPD2    C2 9921   1.569   3.558  14.663  0.0572 -0.4256  0.3984
  667MPD2    C3 9922   1.460   3.495  14.599  0.2024  0.3293  1.1303
  667MPD2    C4 9923   1.403   3.552  14.482 -1.0371 -0.0291 -1.1033
  667MPD2    C5 9924   1.476   3.654  14.419 -0.4895 -0.3101 -0.4203
  667MPD2     H 9925   1.599   3.535  14.765  2.0874 -1.6527 -0.4721
  667MPD2    H1 9926   1.317   3.511  14.431 -2.4279 -0.7546  1.8082
  667MPD2    H2 9927   1.628   3.807  14.435 -0.9923  1.1256 -0.3300
  667MPD2    H3 9928   1.441   3.692  14.324 -1.9532 -0.7097 -0.0356
  667MPD2     N 9929   1.391   3.382  14.647 -0.6295  0.1610 -0.4685
  667MPD2    H5 9930   1.309   3.353  14.595 -0.1972 -0.3593 -0.8671
  667MPD2    N1 9931   1.724   3.745  14.682  0.0001  0.0473  0.4012
  667MPD2    H7 9932   1.757   3.699  14.766  2.5332  1.6828  0.3004
  668TMC3    C1 9933   1.861   3.911  14.762 -0.2756 -0.0820  0.4183
  668TMC3    C2 9934   1.930   4.028  14.735  0.0915 -0.2674  0.0932
  668TMC3    C3 9935   1.988   4.091  14.844  0.7936 -0.0298  0.0680
  668TMC3    C4 9936   1.856   3.858  14.883 -0.0364  0.5232 -0.2976
  668TMC3    C5 9937   1.922   3.924  14.988  0.1391 -0.0979  0.1027
  668TMC3    C6 9938   1.987   4.039  14.969  0.4836  0.4346 -0.3003
  668TMC3     C 9939   1.789   3.859  14.650  0.3686 -0.5305 -0.3559
  668TMC3     O 9940   1.775   3.927  14.548 -0.2561 -0.4483 -0.1489
  668TMC3     H 9941   1.930   4.079  14.640  2.2605 -1.9920 -0.8550
  668TMC3    H1 9942   1.793   3.771  14.896  0.8311 -0.2734 -1.4967
  668TMC3    H2 9943   2.046   4.091  15.044  0.3932  1.6430 -1.0556
  668TMC3    C7 9944   1.936   3.863  15.119 -0.2330  0.2463  0.1613
  668TMC3    C8 9945   2.066   4.212  14.829  0.1888 -0.3288 -0.4891
  668TMC3    O1 9946   2.022   3.910  15.191 -0.3251 -1.1265 -0.1946
  668TMC3    O2 9947   2.103   4.263  14.934  0.3028 -0.3590 -0.1265
  669TMC3    C1 9948   4.280   3.500  14.484  0.6262 -0.1789 -0.1335
  669TMC3    C2 9949   4.178   3.500  14.397 -0.0730 -0.5652 -0.2169
  669TMC3    C3 9950   4.189   3.561  14.277  0.1944 -0.5577 -0.4752
  669TMC3    C4 9951   4.393   3.568  14.455 -0.0071  0.1652 -0.1848
  669TMC3    C5 9952   4.403   3.634  14.333  1.0413  0.6879  0.2564
  669TMC3    C6 9953   4.309   3.614  14.235 -0.5302 -0.3049 -0.4345
  669TMC3     C 9954   4.256   3.432  14.609 -0.1736  1.2622 -0.1705
  669TMC3     O 9955   4.170   3.351  14.622 -0.6854 -0.0411 -0.5786
  669TMC3     H 9956   4.088   3.448  14.428 -0.2845 -0.6046 -0.8861
  669TMC3    H1 9957   4.480   3.589  14.515  0.6193 -0.1524 -0.9915
  669TMC3    H2 9958   4.323   3.648  14.133 -3.0153  2.7689  0.2453
  669TMC3    C7 9959   4.519   3.724  14.308 -0.7443  0.5976 -0.2262
  669TMC3    C8 9960   4.061   3.588  14.204  0.5084  0.5478  0.5099
  669TMC3    O1 9961   4.577   3.767  14.408  0.7246 -0.3091  0.0901
  669TMC3    O2 9962   3.969   3.517  14.248  0.1000 -0.8894 -0.1239
  670MPD2     C 9963   2.453   0.881  13.475  0.4098 -0.1651 -0.0340
  670MPD2    C1 9964   2.515   0.968  13.559 -0.2577  0.9938  0.3044
  670MPD2    C2 9965   2.454   0.998  13.681  0.1398  0.0761 -0.0117
  670MPD2    C3 9966   2.335   0.935  13.710  0.2367 -0.0636  0.0160
  670MPD2    C4 9967   2.274   0.856  13.622 -0.8301  0.0994 -0.0873
  670MPD2    C5 9968   2.336   0.831  13.504  0.1550 -0.5407  0.4032
  670MPD2     H 9969   2.513   1.038  13.762 -1.1726  1.4227  0.2831
  670MPD2    H1 9970   2.181   0.802  13.637 -1.2841  0.6045 -1.1112
  670MPD2    H2 9971   2.496   0.851  13.380  1.0166 -0.0975  0.2187
  670MPD2    H3 9972   2.287   0.767  13.432 -0.1235  0.7151 -0.5156
  670MPD2     N 9973   2.259   0.950  13.831 -0.0441 -0.3506  0.0934
  670MPD2    H5 9974   2.179   0.890  13.848  1.1501 -2.4624 -1.7112
  670MPD2    N1 9975   2.645   1.022  13.535  0.2617 -0.1179 -0.1326
  670MPD2    H7 9976   2.694   1.063  13.614  3.1835 -2.4722 -0.7273
  671TMC3    C1 9977   2.201   0.996  14.048 -0.0042 -0.2142  0.2264
  671TMC3    C2 9978   2.243   0.985  14.178 -0.0935  0.0238  0.4636
  671TMC3    C3 9979   2.174   0.914  14.269  0.9150  0.3723 -0.1270
  671TMC3    C4 9980   2.080   0.941  14.015  0.7088 -0.4879  0.3569
  671TMC3    C5 9981   2.002   0.878  14.109 -0.6473 -0.1828  0.4875
  671TMC3    C6 9982   2.058   0.858  14.232 -0.4937 -0.7016 -0.5185
  671TMC3     C 9983   2.286   1.040  13.933 -0.1082 -0.3930  0.2165
  671TMC3     O 9984   2.371   1.130  13.949 -0.3365  0.1579 -0.1655
  671TMC3     H 9985   2.346   1.014  14.192 -0.5335  2.3064 -0.9873
  671TMC3    H1 9986   2.030   0.966  13.923  0.9664 -0.5426  0.2026
  671TMC3    H2 9987   2.011   0.800  14.310  0.8854  0.6966  1.3502
  671TMC3    C7 9988   1.916   0.766  14.054  0.1165  0.1466 -0.7615
  671TMC3    C8 9989   2.253   0.853  14.372  0.3133 -0.3260 -0.0242
  671TMC3    O1 9990   1.911   0.753  13.930  0.2272 -0.1350 -0.1412
  671TMC3    O2 9991   2.185   0.825  14.473  0.5540 -0.4463  0.3458
  672MPD2     C 9992   3.865   2.451   0.375 -0.4486  0.3120  0.4901
  672MPD2    C1 9993   3.886   2.368   0.487  0.0376 -0.4817 -0.5058
  672MPD2    C2 9994   3.919   2.423   0.605 -0.4621 -0.0455 -0.0468
  672MPD2    C3 9995   3.926   2.561   0.620 -0.2044  0.3210 -0.2752
  672MPD2    C4 9996   3.899   2.646   0.512  0.3102 -0.0555 -0.1321
  672MPD2    C5 9997   3.872   2.587   0.391  0.5274 -0.2646 -0.3141
  672MPD2     H 9998   3.923   2.364   0.695 -0.9652  0.1005  0.0698
  672MPD2    H1 9999   3.907   2.753   0.519  3.3374 -0.4558  2.8119
  672MPD2    H210000   3.826   2.414   0.281  0.8967  0.6356 -0.1909
  672MPD2    H310001   3.859   2.650   0.304  1.3715  0.9326  0.4275
  672MPD2     N10002   3.949   2.627   0.744 -0.0357  0.2592 -0.1390
  672MPD2    H510003   3.916   2.723   0.747 -0.0939  0.2425 -0.2530
  672MPD2    N110004   3.864   2.230   0.493  0.3726  0.3116 -0.7318
  672MPD2    H710005   3.877   2.183   0.582 -1.1329 -0.9783 -1.1940
  673TMC3    C110006   3.737   2.044   0.445 -0.1712  0.5616  0.2479
  673TMC3    C210007   3.797   1.921   0.429  0.6659 -0.2963 -0.0312
  673TMC3    C310008   3.781   1.833   0.525  0.5038  0.1242  0.1785
  673TMC3    C410009   3.668   2.071   0.559 -0.2313  0.0164 -0.1375
  673TMC3    C510010   3.652   1.975   0.647 -0.1043  0.6235 -0.3612
  673TMC3    C610011   3.713   1.855   0.644 -0.1860  0.3050  0.2137
  673TMC3     C10012   3.811   2.152   0.393  0.0567 -0.4349  0.6884
  673TMC3     O10013   3.798   2.175   0.271  0.2351  0.2240  0.4351
  673TMC3     H10014   3.860   1.905   0.342 -1.0826 -0.1649 -1.3212
  673TMC3    H110015   3.625   2.169   0.571  1.3148  0.9113 -1.9512
  673TMC3    H210016   3.705   1.775   0.717 -0.7661 -3.1180 -3.5928
  673TMC3    C710017   3.570   1.993   0.766  0.7222 -0.4873 -0.0818
  673TMC3    C810018   3.877   1.720   0.529  0.3416 -0.3951 -0.3777
  673TMC3    O110019   3.605   1.929   0.864  0.1756 -0.2444 -0.3417
  673TMC3    O210020   3.909   1.679   0.420 -0.1638 -0.1279 -0.6349
  674MPD2     C10021   3.685   0.435   0.642  0.2163  0.4673  0.0483
  674MPD2    C110022   3.620   0.482   0.756 -0.4481  0.3330 -0.0526
  674MPD2    C210023   3.536   0.596   0.740 -0.2419  0.3963 -0.0485
  674MPD2    C310024   3.501   0.644   0.615 -0.2826 -0.0283  0.4929
  674MPD2    C410025   3.571   0.596   0.509 -0.2569  0.9537  0.3084
  674MPD2    C510026   3.660   0.494   0.521 -0.2806  0.7307  0.4243
  674MPD2     H10027   3.486   0.649   0.819  0.7306  2.3761 -0.7595
  674MPD2    H110028   3.546   0.633   0.410  0.4951  1.8095  0.4431
  674MPD2    H210029   3.767   0.364   0.650 -1.6920 -1.6862  0.6010
  674MPD2    H310030   3.720   0.453   0.441 -0.8388 -3.0472  1.9098
  674MPD2     N10031   3.405   0.745   0.605 -0.2888 -0.3358  0.0137
  674MPD2    H510032   3.370   0.783   0.692 -0.5855 -1.4386  0.3796
  674MPD2    N110033   3.634   0.409   0.879 -0.4775 -0.2958  0.3917
  674MPD2    H710034   3.711   0.343   0.875 -1.5418 -1.5233  0.2518
  675TMC3    C110035   3.611   0.363   1.110  0.3292 -0.2094 -0.2722
  675TMC3    C210036   3.627   0.432   1.231 -0.7238  0.1332  0.5754
  675TMC3    C310037   3.706   0.369   1.320 -0.0123  0.0147 -0.2600
  675TMC3    C410038   3.661   0.240   1.092  0.1413  0.2759 -0.2371
  675TMC3    C510039   3.721   0.173   1.192 -0.0206  0.4192  0.8564
  675TMC3    C610040   3.749   0.238   1.311 -0.0571 -0.1903  0.0678
  675TMC3     C10041   3.576   0.444   1.001 -0.5571 -0.3922 -0.0645
  675TMC3     O10042   3.514   0.549   1.021 -0.1300 -0.4661 -0.1665
  675TMC3     H10043   3.588   0.531   1.252 -1.6829  0.0278 -0.6693
  675TMC3    H110044   3.645   0.197   0.994  0.6412  0.2392 -0.3009
  675TMC3    H210045   3.801   0.184   1.390  0.4875  1.8883  1.1328
  675TMC3    C710046   3.740   0.033   1.164 -0.4501  0.2384  0.4785
  675TMC3    C810047   3.752   0.445   1.432 -0.2504  0.0951  0.2634
  675TMC3    O110048   3.744   0.005   1.045 -0.3539 -0.0756  0.5823
  675TMC3    O210049   3.725   0.403   1.542 -0.5723  0.3730  0.0816
  676MPD2     C10050   0.771   4.523  11.145 -0.2127  0.5321 -0.3314
  676MPD2    C110051   0.723   4.430  11.241 -0.5020  1.1265  0.7836
  676MPD2    C210052   0.711   4.296  11.206 -0.3487  0.3418  0.0847
  676MPD2    C310053   0.757   4.250  11.080  0.4965  0.3560  0.2147
  676MPD2    C410054   0.815   4.346  10.984 -0.5182  0.2770 -0.0601
  676MPD2    C510055   0.816   4.483  11.018  0.3552  1.0623 -0.0001
  676MPD2     H10056   0.680   4.219  11.276 -1.9795 -0.1655 -1.1848
  676MPD2    H110057   0.852   4.326  10.884 -0.7320  4.9251 -1.0458
  676MPD2    H210058   0.765   4.630  11.159  1.0706  0.3544  1.4935
  676MPD2    H310059   0.858   4.561  10.955 -1.9554  1.0058 -1.6204
  676MPD2     N10060   0.749   4.115  11.033 -0.2426  0.1544  0.2812
  676MPD2    H510061   0.783   4.097  10.939  0.7962  0.2808  0.6342
  676MPD2    N110062   0.669   4.478  11.363 -0.5713 -0.2720 -0.0586
  676MPD2    H710063   0.613   4.414  11.417  0.0681 -1.8860 -1.3217
  677TMC3    C110064   0.646   4.619  11.557 -0.1986 -0.4939 -0.8528
  677TMC3    C210065   0.619   4.509  11.630 -0.1403 -0.3746  0.9459
  677TMC3    C310066   0.571   4.521  11.756 -0.4165 -0.8019  0.4113
  677TMC3    C410067   0.650   0.008  11.608 -0.0954  0.2173 -0.9030
  677TMC3    C510068   0.642   0.012  11.746  0.1405  0.0130 -0.1435
  677TMC3    C610069   0.579   4.643  11.818  0.4690  0.6654 -0.0885
  677TMC3     C10070   0.700   4.603  11.417  0.1729  0.4263 -0.3151
  677TMC3     O10071   0.763   4.702  11.368  0.4599 -0.2639 -0.3594
  677TMC3     H10072   0.651   4.412  11.595 -3.5418 -1.2261  0.1460
  677TMC3    H110073   0.664   0.092  11.541  1.4033  2.6077  2.3758
  677TMC3    H210074   0.596   4.631  11.924 -2.3406 -2.6554 -0.0361
  677TMC3    C710075   0.677   0.128  11.817 -0.6246 -0.1649 -0.5593
  677TMC3    C810076   0.598   4.417  11.846 -0.1626 -0.2983  0.3894
  677TMC3    O110077   0.640   0.138  11.934  0.2768 -0.1361 -0.0018
  677TMC3    O210078   0.710   4.366  11.853 -0.1033 -0.5991  0.6965
  678MPD2     C10079   3.000   0.435   1.341  0.1450 -1.0222  0.4963
  678MPD2    C110080   2.973   0.308   1.292  0.3136 -0.0532 -0.5462
  678MPD2    C210081   2.851   0.250   1.317 -0.4892  0.7438  0.3335
  678MPD2    C310082   2.750   0.321   1.378  0.2021  0.1721 -0.7091
  678MPD2    C410083   2.782   0.432   1.445  0.3901 -0.0545 -0.3884
  678MPD2    C510084   2.903   0.490   1.422  0.1009  0.3207 -0.6182
  678MPD2     H10085   2.819   0.157   1.271  2.9095  0.3715 -1.3117
  678MPD2    H110086   2.712   0.481   1.511 -0.3408 -0.9768 -0.4826
  678MPD2    H210087   3.076   0.504   1.306  0.0631 -1.1355  0.0988
  678MPD2    H310088   2.921   0.589   1.462  0.9620 -0.0606 -0.0819
  678MPD2     N10089   2.621   0.273   1.370  0.5983 -0.1530  0.3823
  678MPD2    H510090   2.618   0.183   1.322 -0.6228 -0.8812  1.8253
  678MPD2    N110091   3.073   0.235   1.220 -0.1816  0.1853  0.2736
  678MPD2    H710092   3.051   0.140   1.193  2.2169 -0.3002  0.0383
  679TMC3    C110093   3.311   4.717   1.034 -0.4166 -0.5563 -0.3080
  679TMC3    C210094   3.266   0.078   1.124  0.3610 -0.3316  0.1644
  679TMC3    C310095   3.270   0.211   1.091  0.0510  0.2714 -0.5747
  679TMC3    C410096   3.375   0.019   0.920 -0.6911  0.3373 -0.3372
  679TMC3    C510097   3.361   0.152   0.884  0.2230 -0.2782  0.0321
  679TMC3    C610098   3.313   0.247   0.965  0.7504 -0.3425  0.3716
  679TMC3     C10099   3.330   4.579   1.076 -0.2780 -0.2756 -0.4242
  679TMC3     O10100   3.382   4.501   0.996 -0.3057 -0.5105 -0.4944
  679TMC3     H10101   3.223   0.047   1.218  1.5312  3.0380  1.8311
  679TMC3    H110102   3.388   4.682   0.839  2.5479  2.1384 -1.3819
  679TMC3    H210103   3.291   0.349   0.935 -0.3900 -0.7256 -0.0763
  679TMC3    C710104   3.361   0.191   0.741  0.4800  0.2884 -0.3981
  679TMC3    C810105   3.179   0.302   1.158 -0.4174  0.1831 -0.4926
  679TMC3    O110106   3.289   0.286   0.721 -0.6381 -0.4838 -0.0325
  679TMC3    O210107   3.196   0.421   1.137 -0.1946 -0.1424 -0.4915
  680MPD2     C10108   1.946   3.299  14.024 -0.2848  0.4857  0.0333
  680MPD2    C110109   2.016   3.241  14.125  0.2063 -0.4378  0.1693
  680MPD2    C210110   2.143   3.278  14.144  0.4544 -0.7844 -0.3775
  680MPD2    C310111   2.201   3.381  14.064  0.7436  0.1688 -0.0438
  680MPD2    C410112   2.125   3.447  13.970  0.0506 -0.4264  0.6159
  680MPD2    C510113   1.994   3.407  13.955 -0.3911  0.0806  0.0707
  680MPD2     H10114   2.186   3.227  14.229  1.0892 -0.3498 -0.4421
  680MPD2    H110115   2.170   3.512  13.896  0.2130  0.2367  1.3038
  680MPD2    H210116   1.842   3.271  14.008  0.7508 -3.4583  0.1097
  680MPD2    H310117   1.929   3.453  13.881 -0.0712  1.3905  0.6137
  680MPD2     N10118   2.340   3.424  14.086  0.0494  0.0901 -0.7526
  680MPD2    H510119   2.379   3.508  14.045  0.2211 -0.1602 -1.1062
  680MPD2    N110120   1.972   3.128  14.199 -0.1166  0.0186  0.3890
  680MPD2    H710121   2.040   3.087  14.262 -0.9813  0.1247  1.4026
  681TMC3    C110122   1.867   2.933  14.246  0.1592  0.6532  0.4342
  681TMC3    C210123   1.752   2.872  14.294 -0.5105 -0.1161  0.1303
  681TMC3    C310124   1.768   2.749  14.354 -0.2844  0.3267 -0.8194
  681TMC3    C410125   1.997   2.872  14.253 -0.0688  0.2403  0.0118
  681TMC3    C510126   2.009   2.743  14.310  0.1709 -0.2946  0.0060
  681TMC3    C610127   1.895   2.683  14.365  0.1114 -0.1741  0.2456
  681TMC3     C10128   1.849   3.067  14.195 -0.2591  0.0319 -0.8194
  681TMC3     O10129   1.743   3.091  14.137 -0.1690 -0.3243  0.1991
  681TMC3     H10130   1.658   2.925  14.306  0.1191  0.6140  1.8934
  681TMC3    H110131   2.078   2.921  14.201  0.2760  0.7524  1.0429
  681TMC3    H210132   1.889   2.577  14.387 -1.3176 -0.1720 -0.1316
  681TMC3    C710133   2.136   2.672  14.316 -0.7098 -0.2950 -0.2518
  681TMC3    C810134   1.686   2.728  14.478  0.3014  0.0587  0.7761
  681TMC3    O110135   2.140   2.599  14.414  0.4118  0.4751 -0.1893
  681TMC3    O210136   1.581   2.783  14.490  0.2462  0.1050  0.0446
  682MPD2     C10137   4.417   0.227  10.888  0.0988 -0.0184  0.1997
  682MPD2    C110138   4.407   0.096  10.926  0.0312 -0.4827  0.2900
  682MPD2    C210139   4.381   0.072  11.062 -0.0577 -0.3000 -0.3488
  682MPD2    C310140   4.370   0.169  11.157 -0.1767 -0.1937  0.1941
  682MPD2    C410141   4.370   0.303  11.109  0.2899 -0.1879  0.2591
  682MPD2    C510142   4.387   0.325  10.977  0.0749 -0.0890  0.3538
  682MPD2     H10143   4.381   4.699  11.081 -0.2817 -0.2711 -0.1865
  682MPD2    H110144   4.369   0.393  11.169 -0.2991  0.4013 -0.6277
  682MPD2    H210145   4.434   0.262  10.787 -1.4937 -2.8152 -1.0335
  682MPD2    H310146   4.385   0.421  10.928  0.7421  0.3579  1.1979
  682MPD2     N10147   4.352   0.154  11.296 -0.1853 -0.1182 -0.1326
  682MPD2    H510148   4.338   0.238  11.351 -0.5841 -0.6419  0.5621
  682MPD2    N110149   4.397   4.724  10.832 -0.0626 -0.3262 -0.5021
  682MPD2    H710150   4.374   4.631  10.866  0.4470 -1.1606 -2.4002
  683TMC3    C110151   4.302   0.097  11.714 -0.2354 -0.0269 -0.7652
  683TMC3    C210152   4.251   4.711  11.746  0.2228  0.0880  0.1941
  683TMC3    C310153   4.197   4.636  11.650 -0.0000 -0.0875  0.2970
  683TMC3    C410154   4.331   0.131  11.583 -0.1189  0.3268  0.0794
  683TMC3    C510155   4.286   0.041  11.483 -0.4187  0.2614 -0.0919
  683TMC3    C610156   4.220   4.658  11.517  0.6494 -0.8683 -0.1535
  683TMC3     C10157   4.374   0.174  11.817  0.7637  0.5920 -0.0478
  683TMC3     O10158   4.422   0.282  11.789  0.9494 -0.2738 -0.2826
  683TMC3     H10159   4.226   4.678  11.846 -0.4101 -1.7539 -0.5682
  683TMC3    H110160   4.387   0.221  11.561  0.2105  0.1404  0.1507
  683TMC3    H210161   4.163   4.602  11.444 -1.4438  1.2780 -0.1536
  683TMC3    C710162   4.350   0.032  11.355 -0.4697  0.0978  0.3710
  683TMC3    C810163   4.101   4.527  11.691 -0.1441 -0.3366  0.0679
  683TMC3    O110164   4.369   4.653  11.313  0.1354 -0.6849 -0.3485
  683TMC3    O210165   4.065   4.526  11.811  0.0088 -0.3723  0.5137
  684MPD2     C10166   2.807   3.538  16.499  0.7180 -0.5148  0.4490
  684MPD2    C110167   2.796   3.581  16.370  0.5711 -0.2121  0.0165
  684MPD2    C210168   2.803   3.716  16.340  0.1228  0.1645  0.3496
  684MPD2    C310169   2.799   3.812  16.436  0.5620  0.8818 -0.2608
  684MPD2    C410170   2.807   3.766  16.564  0.4819  0.3566 -0.6799
  684MPD2    C510171   2.815   3.638  16.597  0.7148 -0.6195  0.5045
  684MPD2     H10172   2.807   3.749  16.237 -3.9767  0.0964  0.1732
  684MPD2    H110173   2.809   3.836  16.647 -0.0201 -0.7822  0.2909
  684MPD2    H210174   2.804   3.433  16.527  0.4916 -0.3729  0.9547
  684MPD2    H310175   2.809   3.607  16.700  0.6475 -0.5461  0.5226
  684MPD2     N10176   2.782   3.951  16.414 -0.2348 -0.3125  0.0329
  684MPD2    H510177   2.785   4.016  16.492  0.5550 -0.6723  0.3069
  684MPD2    N110178   2.792   3.500  16.254 -0.1641  0.6705  0.3875
  684MPD2    H710179   2.753   3.533  16.167  2.3103  1.7513 -0.3252
  685TMC3    C110180   2.792   3.301  16.136 -0.4577 -0.2482 -0.6281
  685TMC3    C210181   2.741   3.382  16.037 -0.7457 -0.3611  0.3915
  685TMC3    C310182   2.793   3.368  15.908  0.1818 -0.3115 -0.5987
  685TMC3    C410183   2.879   3.207  16.106 -0.0602  0.4738  0.5073
  685TMC3    C510184   2.938   3.205  15.984 -0.2629 -0.3814 -0.1998
  685TMC3    C610185   2.896   3.282  15.879  0.1377 -0.4657 -0.2885
  685TMC3     C10186   2.821   3.365  16.259 -0.0615  0.2053  0.4469
  685TMC3     O10187   2.881   3.303  16.346  0.1468  0.2374 -0.0406
  685TMC3     H10188   2.649   3.436  16.057 -1.1914 -1.1441  0.4484
  685TMC3    H110189   2.904   3.132  16.180  2.3981  0.5490 -0.2327
  685TMC3    H210190   2.919   3.260  15.776  2.6939  1.2728 -0.1208
  685TMC3    C710191   3.084   3.209  16.006 -0.1013  0.0001 -0.0126
  685TMC3    C810192   2.711   3.415  15.796 -0.4810 -0.3154 -0.0322
  685TMC3    O110193   3.130   3.143  16.101 -0.3942  0.4235 -0.8614
  685TMC3    O210194   2.710   3.348  15.691 -0.5244 -0.0496  0.4213
  686MPD2     C10195   4.047   3.926  15.392  0.6621  0.5749 -0.2226
  686MPD2    C110196   4.112   3.842  15.475 -0.6864 -0.0813  0.6354
  686MPD2    C210197   4.233   3.785  15.429  0.0527 -0.3052  0.2331
  686MPD2    C310198   4.283   3.814  15.299  0.1045 -0.2948  0.6278
  686MPD2    C410199   4.216   3.917  15.226  0.2826 -0.1979  0.7497
  686MPD2    C510200   4.101   3.972  15.271 -0.6440  0.1290  0.2136
  686MPD2     H10201   4.298   3.721  15.488  0.9453 -0.6988 -1.1615
  686MPD2    H110202   4.259   3.946  15.131 -2.8795  1.1095 -0.2824
  686MPD2    H210203   3.947   3.965  15.407  0.3499  0.7632 -2.6889
  686MPD2    H310204   4.040   4.045  15.219  0.7895  0.9265 -0.3424
  686MPD2     N10205   4.387   3.744  15.231  0.0256  0.2078 -0.4780
  686MPD2    H510206   4.429   3.802  15.159  0.8698 -1.3926 -1.2743
  686MPD2    N110207   4.042   3.806  15.592 -0.1845 -0.1168 -0.3927
  686MPD2    H710208   3.953   3.852  15.611  1.2407  1.7447  1.7675
  687TMC3    C110209   4.370   3.526  15.335 -0.0278  0.6467  0.9737
  687TMC3    C210210   4.235   3.519  15.305  0.3367  0.4467 -0.7739
  687TMC3    C310211   4.155   3.452  15.404  0.3523  0.1731 -0.3904
  687TMC3    C410212   4.432   3.462  15.436 -0.9516  0.1243  0.0406
  687TMC3    C510213   4.355   3.396  15.524 -0.7378 -0.5106  0.1666
  687TMC3    C610214   4.212   3.398  15.513 -0.1805  0.9351 -0.1615
  687TMC3     C10215   4.455   3.636  15.274  0.9346 -0.1933 -1.1614
  687TMC3     O10216   4.576   3.619  15.258 -0.4702  0.8345  0.4254
  687TMC3     H10217   4.192   3.577  15.224 -1.2069  0.1248 -0.1812
  687TMC3    H110218   4.539   3.479  15.442 -0.7822  0.0222 -2.4921
  687TMC3    H210219   4.163   3.331  15.582  1.4250 -1.7509 -1.6443
  687TMC3    C710220   4.412   3.335  15.640 -0.6790 -0.3915 -0.0897
  687TMC3    C810221   4.008   3.451  15.391  1.0449 -0.0830  0.2557
  687TMC3    O110222   4.355   3.345  15.743 -0.6520  0.2248  0.2437
  687TMC3    O210223   3.950   3.376  15.467 -0.1655  0.2901  0.6060
  688MPD2     C10224   3.277   2.774  17.691 -0.0530 -0.5261  0.2586
  688MPD2    C110225   3.306   2.642  17.696 -0.3091  0.3610 -0.0237
  688MPD2    C210226   3.387   2.583  17.601 -0.4742 -0.7634  0.1093
  688MPD2    C310227   3.435   2.666  17.501  0.4571  0.5490 -0.6437
  688MPD2    C410228   3.386   2.796  17.487 -0.4436 -0.2763 -0.4918
  688MPD2    C510229   3.311   2.852  17.590 -0.8988 -0.3216 -0.5052
  688MPD2     H10230   3.412   2.478  17.607 -0.3795 -0.8896 -2.3912
  688MPD2    H110231   3.410   2.863  17.405  3.1674 -1.1380 -0.1422
  688MPD2    H210232   3.225   2.825   0.035  0.4582  0.1241  0.1793
  688MPD2    H310233   3.293   2.958  17.595 -0.3184 -0.2326 -0.2582
  688MPD2     N10234   3.534   2.635  17.407  0.0799 -0.0863 -0.0088
  688MPD2    H510235   3.578   2.713  17.359 -0.9930 -1.2359 -2.8615
  688MPD2    N110236   3.248   2.555   0.059  0.0614 -0.0315  0.2564
  688MPD2    H710237   3.276   2.458   0.069 -4.4882 -1.3130  0.3302
  689TMC3    C110238   3.163   2.510   0.275  0.5447 -0.4742 -0.3794
  689TMC3    C210239   3.116   2.574   0.385 -0.6092 -0.1117 -0.3661
  689TMC3    C310240   3.144   2.509   0.507 -0.2792  0.1563 -0.1451
  689TMC3    C410241   3.226   2.389   0.277 -0.2858  0.7909  0.0928
  689TMC3    C510242   3.252   2.335   0.397 -0.1485 -0.7412 -0.4571
  689TMC3    C610243   3.211   2.389   0.513  0.5717 -0.4598  0.7068
  689TMC3     C10244   3.153   2.593   0.156  0.7858 -0.7443  0.6645
  689TMC3     O10245   3.090   2.697   0.167 -0.5711  0.2695  0.3774
  689TMC3     H10246   3.079   2.676   0.376  0.4729  0.4044  0.9692
  689TMC3    H110247   3.253   2.336   0.186 -2.9399 -1.1369  0.4324
  689TMC3    H210248   3.229   2.340   0.608 -0.2083  0.8568  1.5381
  689TMC3    C710249   3.316   2.201   0.400 -0.0610  0.5424  0.0078
  689TMC3    C810250   3.092   2.564   0.633 -0.6203  0.3880 -0.0135
  689TMC3    O110251   3.383   2.175   0.501  0.3061 -0.5635  0.1573
  689TMC3    O210252   3.115   2.511   0.739  0.4398 -0.3404 -0.3527
  690MPD2     C10253   1.322   4.201  15.678  0.3447 -0.4268 -0.9189
  690MPD2    C110254   1.254   4.261  15.574 -0.2789 -0.2555 -1.0125
  690MPD2    C210255   1.329   4.322  15.477  0.5942  0.1848  0.2765
  690MPD2    C310256   1.466   4.343  15.486  0.0688  0.6580 -0.0958
  690MPD2    C410257   1.533   4.279  15.589 -0.8790 -0.4537  0.0060
  690MPD2    C510258   1.455   4.217  15.691 -0.2755 -0.1380 -0.0331
  690MPD2     H10259   1.281   4.364  15.389  0.4701  1.6000  1.0102
  690MPD2    H110260   1.641   4.282  15.599 -0.6789  0.6424 -2.4805
  690MPD2    H210261   1.273   4.141  15.753  1.3038  1.2847  1.0599
  690MPD2    H310262   1.511   4.164  15.767  0.5512  0.2268 -0.3797
  690MPD2     N10263   1.522   4.422  15.387 -0.1158  1.0151 -0.4966
  690MPD2    H510264   1.451   4.458  15.324 -0.4280  1.2236 -0.0295
  690MPD2    N110265   1.113   4.267  15.566  0.3785  0.4790 -0.2765
  690MPD2    H710266   1.085   4.288  15.471 -0.4678  0.5240 -0.0178
  691TMC3    C110267   0.885   4.259  15.639  0.4552 -0.1250 -0.1885
  691TMC3    C210268   0.808   4.286  15.745 -0.2887 -0.7454  0.5453
  691TMC3    C310269   0.677   4.321  15.723  0.1435 -0.2136 -0.2311
  691TMC3    C410270   0.835   4.232  15.515 -0.0365 -0.5351  0.1378
  691TMC3    C510271   0.700   4.251  15.507  0.6283 -0.1824 -0.1921
  691TMC3    C610272   0.621   4.302  15.602 -0.3872 -0.3609 -0.3122
  691TMC3     C10273   1.029   4.246  15.669 -0.4296  0.1224  0.0637
  691TMC3     O10274   1.067   4.230  15.788 -0.3354  0.1258 -0.3601
  691TMC3     H10275   0.859   4.300  15.840  2.2137 -1.2280 -0.7383
  691TMC3    H110276   0.889   4.185  15.434  0.4904 -0.4362  0.4301
  691TMC3    H210277   0.514   4.305  15.584 -0.5886 -1.0039  0.7593
  691TMC3    C710278   0.625   4.198  15.393 -0.1705  0.8120 -0.8596
  691TMC3    C810279   0.602   4.339  15.846  0.2190 -0.5069 -0.4196
  691TMC3    O110280   0.560   4.278  15.327 -0.2609 -0.3116 -0.3225
  691TMC3    O210281   0.662   4.307  15.946 -0.2478  0.3497 -0.3887
  692TMC3    C110282   2.424   0.398  15.477 -0.4500 -0.3082 -0.2757
  692TMC3    C210283   2.555   0.437  15.473  0.0633 -0.6980 -0.0276
  692TMC3    C310284   2.649   0.374  15.552  0.1932 -0.0018  0.0016
  692TMC3    C410285   2.395   0.272  15.516 -0.3971 -0.5119 -0.9128
  692TMC3    C510286   2.491   0.203  15.575  0.2304  0.0374 -0.5190
  692TMC3    C610287   2.614   0.257  15.606 -0.0296  0.2368  0.5562
  692TMC3     C10288   2.332   0.489  15.540  0.0811  0.3720  0.4582
  692TMC3     O10289   2.217   0.455  15.545  0.0391 -0.0367 -0.4222
  692TMC3     H10290   2.576   0.533  15.429  1.1099 -1.3282 -0.8983
  692TMC3    H110291   2.293   0.236  15.513 -0.5876 -0.0473 -0.0437
  692TMC3    H210292   2.698   0.194  15.634 -1.4469 -1.6059  0.5984
  692TMC3    C710293   2.469   0.065  15.564  0.6310 -0.5632  0.2632
  692TMC3    C810294   2.688   0.465  15.659 -0.1548  0.6832 -0.3042
  692TMC3    O110295   2.387   0.024  15.485  0.0712  0.2603 -0.3690
  692TMC3    O210296   2.699   0.585  15.633 -0.1775 -0.5364 -0.5607
  693MPD2     C10297   1.716   3.644  10.263 -0.4070  0.2197 -0.0105
  693MPD2    C110298   1.672   3.654  10.398 -0.4872  0.0452 -0.2731
  693MPD2    C210299   1.760   3.617  10.495 -0.1579  0.2867  0.7364
  693MPD2    C310300   1.884   3.571  10.465  0.7428  0.3609  0.2851
  693MPD2    C410301   1.930   3.553  10.335 -0.2614 -0.3026  0.2419
  693MPD2    C510302   1.839   3.586  10.233 -0.0041 -0.2942 -0.0873
  693MPD2     H10303   1.733   3.633  10.599 -2.1864 -1.4904  0.4962
  693MPD2    H110304   2.028   3.519  10.304  1.0427  2.0640  1.7129
  693MPD2    H210305   1.659   3.670  10.175 -2.5811 -1.6331  0.8560
  693MPD2    H310306   1.870   3.589  10.130  0.6503 -0.1403  0.1116
  693MPD2     N10307   1.981   3.540  10.562  0.2556 -0.2248  0.3045
  693MPD2    H510308   2.070   3.503  10.530 -0.7630 -0.7035 -1.9655
  693MPD2    N110309   1.540   3.671  10.434  0.6191 -0.3666 -0.1605
  693MPD2    H710310   1.511   3.644  10.528  1.7991  1.7889  0.8154
  694TMC3    C110311   1.309   3.683  10.404  0.3540  0.0592  0.0747
  694TMC3    C210312   1.211   3.621  10.329  0.2342 -0.0335  0.1111
  694TMC3    C310313   1.119   3.548  10.399  0.8877  0.5816  0.6396
  694TMC3    C410314   1.311   3.681  10.541 -0.1641  1.2904 -0.6923
  694TMC3    C510315   1.226   3.595  10.599  0.4819 -0.1517  0.6596
  694TMC3    C610316   1.134   3.517  10.533 -0.2547  0.2673 -0.2661
  694TMC3     C10317   1.439   3.708  10.345 -0.2652 -0.6006 -0.2138
  694TMC3     O10318   1.439   3.732  10.226 -0.1313 -0.3268 -0.3833
  694TMC3     H10319   1.218   3.649  10.225  1.3841 -0.4952  0.0622
  694TMC3    H110320   1.362   3.756  10.599  2.2056 -1.4443  0.7758
  694TMC3    H210321   1.058   3.461  10.586  0.9166 -1.4862 -0.4319
  694TMC3    C710322   1.225   3.591  10.746 -0.1896 -0.3247 -0.0972
  694TMC3    C810323   1.009   3.474  10.334 -0.0921  0.0950 -0.2077
  694TMC3    O110324   1.264   3.694  10.802 -0.3841 -0.2845 -0.2323
  694TMC3    O210325   0.915   3.419  10.390  0.1896 -0.0983  0.1162
  695MPD2     C10326   2.576   0.419  13.590 -0.2315 -0.2613  0.5783
  695MPD2    C110327   2.511   0.348  13.690 -0.0029 -0.7910  0.1334
  695MPD2    C210328   2.374   0.338  13.677 -0.0874  0.4871 -0.0857
  695MPD2    C310329   2.298   0.389  13.568 -0.2854  0.6470  0.3047
  695MPD2    C410330   2.368   0.458  13.469 -0.3831 -0.3301 -0.6330
  695MPD2    C510331   2.505   0.464  13.474 -0.1387  0.1910 -0.2761
  695MPD2     H10332   2.318   0.296  13.760 -1.0669  0.7984 -0.5872
  695MPD2    H110333   2.319   0.513  13.389  0.9988  0.6016 -0.8312
  695MPD2    H210334   2.681   0.442  13.606 -0.6878  1.5353  1.0031
  695MPD2    H310335   2.554   0.520  13.395  1.3955 -1.9457 -0.8303
  695MPD2     N10336   2.156   0.380  13.565  0.4921  0.5133  0.3838
  695MPD2    H510337   2.107   0.347  13.648 -0.8688  0.0141 -0.6188
  695MPD2    N110338   2.568   0.300  13.809 -0.2486 -0.1840  0.1824
  695MPD2    H710339   2.512   0.224  13.846  1.3004 -0.8503  1.1423
  696TMC3    C110340   1.934   0.464  13.533 -0.1953  0.0651 -0.2541
  696TMC3    C210341   1.892   0.384  13.636  0.5559  0.0464  0.5348
  696TMC3    C310342   1.790   0.423  13.720  0.4291 -0.0158 -0.8191
  696TMC3    C410343   1.884   0.587  13.518  0.3389 -0.0301 -0.0420
  696TMC3    C510344   1.776   0.625  13.596 -0.3133  0.1353 -0.1696
  696TMC3    C610345   1.729   0.546  13.699 -0.2656  0.1615 -0.0711
  696TMC3     C10346   2.074   0.444  13.475  0.3358  0.0239 -0.4310
  696TMC3     O10347   2.101   0.505  13.373 -0.3319 -0.8280 -0.1196
  696TMC3     H10348   1.929   0.282  13.630 -0.4723 -0.3985  1.7826
  696TMC3    H110349   1.923   0.643  13.434 -2.1202  0.8966 -0.5856
  696TMC3    H210350   1.635   0.568  13.747 -0.0634  1.5220 -0.3029
  696TMC3    C710351   1.734   0.762  13.587  0.3799  0.1361  0.7494
  696TMC3    C810352   1.704   0.324  13.769 -0.5668  0.5096  0.4835
  696TMC3    O110353   1.760   0.811  13.477  0.0192  0.5431 -0.5598
  696TMC3    O210354   1.713   0.214  13.713  0.3803 -0.4528 -0.3278
  697MPD2     C10355   2.237   1.874  15.898 -0.0182  0.4705  0.4120
  697MPD2    C110356   2.159   1.877  15.783  0.4933  1.1163  0.0551
  697MPD2    C210357   2.123   1.996  15.721 -0.7726 -0.4736 -0.4357
  697MPD2    C310358   2.178   2.114  15.764 -1.0062  0.2877  0.6812
  697MPD2    C410359   2.248   2.109  15.877 -0.2235 -0.4126  0.2202
  697MPD2    C510360   2.285   1.993  15.939  0.2587 -0.8802 -0.2367
  697MPD2     H10361   2.058   1.994  15.634  0.2114 -3.5440 -1.1127
  697MPD2    H110362   2.268   2.205  15.923 -0.0598 -1.3868  2.2012
  697MPD2    H210363   2.270   1.784  15.949  0.9055  0.3156 -0.4488
  697MPD2    H310364   2.329   1.986  16.038 -2.7658 -1.3393  1.0687
  697MPD2     N10365   2.142   2.232  15.689 -0.6773  0.0049 -0.0172
  697MPD2    H510366   2.083   2.215  15.609  0.9208  1.5734 -1.5317
  697MPD2    N110367   2.112   1.760  15.715  0.2388  0.0801 -0.1429
  697MPD2    H710368   2.068   1.774  15.625 -0.1730  1.8914  0.3303
  698TMC3    C110369   2.094   2.449  15.634 -0.2960  0.2643  0.0845
  698TMC3    C210370   2.137   2.566  15.577 -0.6438  0.0015 -0.6223
  698TMC3    C310371   2.052   2.644  15.501  0.4433 -0.8962  0.9488
  698TMC3    C410372   1.968   2.411  15.613 -0.1564 -0.3810 -0.1540
  698TMC3    C510373   1.889   2.469  15.521  0.6289  0.0778  0.3910
  698TMC3    C610374   1.921   2.602  15.473 -0.0258  0.3867  0.1518
  698TMC3     C10375   2.177   2.365  15.717  0.1577 -0.5249  0.1492
  698TMC3     O10376   2.252   2.421  15.797  0.6173  0.3208  0.3241
  698TMC3     H10377   2.232   2.607  15.608 -1.0155  1.1233 -0.9691
  698TMC3    H110378   1.921   2.337  15.677 -0.0233 -0.3212  0.0123
  698TMC3    H210379   1.861   2.666  15.409  0.3219  1.1016  0.5404
  698TMC3    C710380   1.748   2.423  15.496  0.1580 -0.3271 -0.6967
  698TMC3    C810381   2.108   2.764  15.451  0.0815  0.5726  0.0661
  698TMC3    O110382   1.702   2.338  15.569  0.5851 -0.0522  0.1732
  698TMC3    O210383   2.026   2.831  15.387 -0.0992  0.0208 -0.2357
  699TMC3    C110384   1.900   0.548  12.779  0.1640  0.7379  0.1951
  699TMC3    C210385   1.979   0.450  12.840 -0.2109 -0.4102 -0.4206
  699TMC3    C310386   1.913   0.332  12.882  0.1250 -0.0534 -0.2597
  699TMC3    C410387   1.765   0.534  12.784 -0.3140 -0.0075 -0.7967
  699TMC3    C510388   1.704   0.430  12.849  0.1042 -0.2635  0.1425
  699TMC3    C610389   1.781   0.327  12.900 -0.4417  0.0404 -1.0275
  699TMC3     C10390   1.955   0.681  12.742 -1.1253 -0.1368  0.0347
  699TMC3     O10391   1.876   0.774  12.744  0.2495  0.1665  0.4686
  699TMC3     H10392   2.086   0.465  12.838 -0.0943 -1.2918 -1.1836
  699TMC3    H110393   1.702   0.609  12.738 -0.9870  0.0224  0.1677
  699TMC3    H210394   1.737   0.238  12.943  0.4363  0.1471  0.0893
  699TMC3    C710395   1.576   0.459  12.914  0.4096 -0.2041 -0.3004
  699TMC3    C810396   1.996   0.232  12.956 -0.1921  0.6360  0.3097
  699TMC3    O110397   1.539   0.573  12.917 -0.1038 -0.5599  0.2760
  699TMC3    O210398   1.938   0.169  13.045 -0.2253 -0.3221 -0.2187
  700TMC3    C110399   1.918   3.107  17.554  0.2816  0.2399  0.2014
  700TMC3    C210400   2.002   2.992  17.559  0.4160  0.3747  0.3202
  700TMC3    C310401   2.123   3.008  17.620  0.0071  0.0798  0.6486
  700TMC3    C410402   1.950   3.224  17.623 -0.1696  0.1435  0.0343
  700TMC3    C510403   2.073   3.222  17.689 -0.0328  1.1141  0.2362
  700TMC3    C610404   2.160   3.121  17.687  0.9105 -0.0591 -0.3674
  700TMC3     C10405   1.849   3.119  17.426  0.5025 -0.0395  0.2596
  700TMC3     O10406   1.801   3.016  17.381  0.2651 -0.2847  0.0967
  700TMC3     H10407   1.979   2.901  17.505 -0.6844  0.3746  0.8058
  700TMC3    H110408   1.886   3.310  17.611 -1.8731 -1.1442 -0.0270
  700TMC3    H210409   2.236   3.113   0.027 -0.8347 -1.3413  1.2194
  700TMC3    C710410   2.104   3.343   0.023  0.0442 -0.1767 -0.2679
  700TMC3    C810411   2.216   2.902  17.602  0.3100  0.2858 -0.1734
  700TMC3    O110412   2.218   3.344   0.057  0.4878 -0.3742  0.1275
  700TMC3    O210413   2.185   2.791  17.560 -0.5614  0.5361  0.1712
  701TMC3    C110414   1.350   1.737  15.572 -0.2296 -0.1700 -0.5685
  701TMC3    C210415   1.384   1.678  15.446  0.4879  0.0330 -0.2563
  701TMC3    C310416   1.516   1.669  15.415  0.2879 -0.4112  0.4451
  701TMC3    C410417   1.447   1.781  15.657  0.0932  0.0116 -0.2077
  701TMC3    C510418   1.574   1.768  15.622 -0.1899  0.1592 -0.0564
  701TMC3    C610419   1.611   1.707  15.504 -0.0121  0.0661 -0.0349
  701TMC3     C10420   1.218   1.734  15.627  0.0226 -0.1216 -0.4538
  701TMC3     O10421   1.208   1.800  15.729  0.5623 -0.1774  0.0874
  701TMC3     H10422   1.306   1.653  15.375 -0.4819 -3.7526  2.1389
  701TMC3    H110423   1.416   1.826  15.751  0.8315 -0.1379  0.1096
  701TMC3    H210424   1.717   1.696  15.488 -0.5467 -4.1982 -0.7379
  701TMC3    C710425   1.670   1.777  15.723 -0.2492  0.1253  0.2398
  701TMC3    C810426   1.570   1.594  15.301  0.2224 -0.3818  0.4336
  701TMC3    O110427   1.775   1.822  15.680  0.4011 -0.0307  0.5174
  701TMC3    O210428   1.689   1.600  15.294 -0.0714  0.1417  0.4471
  702MPD2     C10429   0.698   4.157  10.447  0.1405 -0.3722 -0.4073
  702MPD2    C110430   0.686   4.186  10.580 -0.0866 -0.3539  0.1884
  702MPD2    C210431   0.696   4.319  10.618  0.0652 -0.0128  0.3939
  702MPD2    C310432   0.727   4.416  10.527  0.5693 -0.3148 -0.0655
  702MPD2    C410433   0.732   4.387  10.394  0.4606 -0.3188  0.1185
  702MPD2    C510434   0.712   4.261  10.359  0.2670 -0.0639 -0.1960
  702MPD2     H10435   0.691   4.335  10.726  0.9865 -0.4543  0.4971
  702MPD2    H110436   0.748   4.469  10.324 -2.2888  0.0117 -0.1479
  702MPD2    H210437   0.712   4.057  10.407  1.7627 -0.6942  0.9280
  702MPD2    H310438   0.716   4.239  10.253 -2.4159 -2.0587  0.1198
  702MPD2     N10439   0.746   4.553  10.569 -0.0419  0.0582 -0.3694
  702MPD2    H510440   0.765   4.617  10.493 -0.6915  2.4373  1.4725
  702MPD2    N110441   0.661   4.087  10.676  0.6379 -0.1911 -0.3666
  702MPD2    H710442   0.639   4.117  10.771 -0.2110 -1.1728 -0.2561
  703TMC3    C110443   0.742   0.010  10.708  0.2929  0.3100  0.5056
  703TMC3    C210444   0.689   0.072  10.820  0.1687 -0.0668  0.1965
  703TMC3    C310445   0.766   0.157  10.891  0.1421 -0.1186 -0.1208
  703TMC3    C410446   0.860   0.055  10.652  0.4512 -0.1861  0.6934
  703TMC3    C510447   0.927   0.158  10.712  0.9250 -0.5195  0.3068
  703TMC3    C610448   0.883   0.205  10.842  0.1567  0.1449  0.3411
  703TMC3     C10449   0.711   4.602  10.690  0.2989  0.2268 -0.2730
  703TMC3     O10450   0.642   4.548  10.777 -0.1576  0.3572 -0.3257
  703TMC3     H10451   0.588   0.042  10.847  0.8315 -1.5527  1.0288
  703TMC3    H110452   0.909   0.018  10.563 -1.8012  1.9650 -1.4209
  703TMC3    H210453   0.951   0.271  10.895 -1.2598 -0.2130  2.6071
  703TMC3    C710454   1.062   0.200  10.668 -0.3548  0.2184  0.5506
  703TMC3    C810455   0.727   0.216  11.016 -0.3900  0.5253  0.0223
  703TMC3    O110456   1.133   0.246  10.759 -0.3584 -0.1957 -0.1453
  703TMC3    O210457   0.806   0.286  11.075  0.1548 -0.1754  0.3841
  704TMC3    C110458   3.684   2.461  12.523  0.2727  0.3824 -0.5436
  704TMC3    C210459   3.734   2.457  12.398 -0.1683 -0.2464  0.5784
  704TMC3    C310460   3.778   2.337  12.355 -0.8989 -0.9292  0.0365
  704TMC3    C410461   3.723   2.381  12.621  0.3351  1.1317  0.7768
  704TMC3    C510462   3.792   2.264  12.586 -1.0038  0.4146 -0.4794
  704TMC3    C610463   3.810   2.242  12.444 -0.0329  0.6618  1.0776
  704TMC3     C10464   3.535   2.466  12.527 -0.2889  0.0722 -1.1997
  704TMC3     O10465   3.478   2.402  12.613 -0.0335 -0.7651  0.1698
  704TMC3     H10466   3.724   2.537  12.325 -0.9511  0.3988  1.3903
  704TMC3    H110467   3.701   2.409  12.723  2.1959  0.0267  1.4761
  704TMC3    H210468   3.831   2.140  12.414  1.0483  1.0133  0.6313
  704TMC3    C710469   3.760   2.143  12.664  0.2775 -0.5225 -0.1960
  704TMC3    C810470   3.694   2.282  12.253  0.4490  0.3099  0.1980
  704TMC3    O110471   3.768   2.038  12.601 -0.1183 -0.7288 -0.3170
  704TMC3    O210472   3.634   2.180  12.282 -0.0513 -0.2146  0.4517
  705MPD2     C10473   2.778   0.063  16.425 -0.0449  0.5356  0.2921
  705MPD2    C110474   2.843   0.186  16.434 -0.1273  0.1420  0.2519
  705MPD2    C210475   2.777   0.283  16.509 -0.1843 -0.5451  0.1463
  705MPD2    C310476   2.656   0.267  16.572 -0.1904  0.0984  0.7387
  705MPD2    C410477   2.593   0.143  16.561  0.0554  0.5278  0.0368
  705MPD2    C510478   2.659   0.044  16.497 -0.3848 -0.2154  0.0300
  705MPD2     H10479   2.831   0.376  16.520  1.2494 -1.3901  0.2243
  705MPD2    H110480   2.496   0.142  16.611 -0.0469  0.8947 -0.1504
  705MPD2    H210481   2.814   4.727  16.351 -0.7856  1.3183 -0.8409
  705MPD2    H310482   2.604   4.687  16.481 -2.1870  0.5335  2.0135
  705MPD2     N10483   2.589   0.368  16.645  0.4433  0.2542 -0.3878
  705MPD2    H510484   2.498   0.346  16.683  0.8469 -1.1686 -0.2440
  705MPD2    N110485   2.962   0.215  16.358  0.1416  0.3993 -0.4315
  705MPD2    H710486   3.012   0.302  16.377 -1.0967  0.8927  0.5802
  706TMC3    C110487   3.284   0.226  16.037 -0.5978  0.3393  0.1329
  706TMC3    C210488   3.338   0.341  16.089  0.1826 -0.8425 -0.1568
  706TMC3    C310489   3.285   0.380  16.206  0.1334  0.4187  0.3222
  706TMC3    C410490   3.179   0.158  16.096 -0.3826 -0.4393  0.2157
  706TMC3    C510491   3.138   0.203  16.216  0.4017 -0.7834  0.3577
  706TMC3    C610492   3.194   0.309  16.279  0.1974 -0.0351  0.1267
  706TMC3     C10493   3.362   0.159  15.931  0.7514  0.1533  0.1774
  706TMC3     O10494   3.477   0.197  15.922 -0.3701  0.0130  0.2832
  706TMC3     H10495   3.416   0.398  16.039  0.7733  0.6031  2.4117
  706TMC3    H110496   3.137   0.068  16.053  1.4455 -0.7282 -0.9583
  706TMC3    H210497   3.176   0.337  16.383 -0.9159  0.8304 -0.2925
  706TMC3    C710498   3.019   0.132  16.264 -0.7952 -0.1093  0.2190
  706TMC3    C810499   3.339   0.502  16.261 -0.3285  0.3543 -0.2261
  706TMC3    O110500   2.977   0.033  16.213  0.2051 -0.1177 -0.7507
  706TMC3    O210501   3.413   0.490  16.360  0.1542  0.1602 -0.0135
  707TMC3    C110502   4.603   0.023   1.639  0.4566 -0.6160  0.6494
  707TMC3    C210503   4.575   4.679   1.536  1.0224 -0.2218  0.5740
  707TMC3    C310504   4.512   4.727   1.418 -0.7288  0.1013  0.4967
  707TMC3    C410505   4.579   0.159   1.625  0.5220  0.1881 -0.5308
  707TMC3    C510506   4.527   0.211   1.511 -0.4756 -0.2785 -0.3526
  707TMC3    C610507   4.495   0.130   1.404 -0.3015  0.4196  0.0785
  707TMC3     C10508   4.724   4.707   1.708  0.5357 -0.0792 -0.0518
  707TMC3     O10509   0.058   4.630   1.644 -0.5184 -0.2290 -0.0806
  707TMC3     H10510   4.567   4.572   1.547 -1.2507 -0.2430 -1.3672
  707TMC3    H110511   4.602   0.216   1.714 -0.2464  0.7286 -0.6827
  707TMC3    H210512   4.469   0.163   1.305 -3.8210 -0.4994  0.6827
  707TMC3    C710513   4.543   0.354   1.488 -0.6268  0.4224 -0.4289
  707TMC3    C810514   4.535   4.646   1.306 -0.6240  0.3358  0.2510
  707TMC3    O110515   4.614   0.413   1.580 -0.5980  0.3838  0.0976
  707TMC3    O210516   4.462   4.663   1.209 -0.0222  0.0992 -0.4353
  708MPD2     C10517   0.995   3.747  14.206 -0.5585  0.5087  0.7578
  708MPD2    C110518   0.863   3.716  14.197 -0.5818 -0.4417 -0.0802
  708MPD2    C210519   0.801   3.634  14.291  0.6303  0.3656  0.0873
  708MPD2    C310520   0.882   3.584  14.397 -0.2695  0.5219 -0.2555
  708MPD2    C410521   1.013   3.624  14.408 -0.4329  0.2620  0.1962
  708MPD2    C510522   1.061   3.711  14.318  0.3912  0.2828 -0.1104
  708MPD2     H10523   0.696   3.608  14.289  0.4723  1.0088  0.0651
  708MPD2    H110524   1.074   3.606  14.496 -0.2519  0.1182  0.0409
  708MPD2    H210525   1.051   3.803  14.133 -1.4824 -0.8197 -0.9726
  708MPD2    H310526   1.156   3.759  14.339  1.9847 -2.4366 -0.9937
  708MPD2     N10527   0.827   3.493  14.483  0.0235 -0.7958  0.4156
  708MPD2    H510528   0.873   3.484  14.573 -0.6561  0.1855  0.8600
  708MPD2    N110529   0.779   3.767  14.094 -0.3088 -0.1721 -0.3232
  708MPD2    H710530   0.678   3.763  14.105 -0.2630 -1.6230 -0.4008
  709TMC3    C110531   0.712   3.848  13.884  0.7756  0.2602 -0.6233
  709TMC3    C210532   0.709   3.764  13.774 -0.0618  0.6452  0.3775
  709TMC3    C310533   0.590   3.702  13.747  0.0171  0.2352 -0.4894
  709TMC3    C410534   0.595   3.875  13.952 -0.5444 -0.4611 -0.1173
  709TMC3    C510535   0.475   3.812  13.913  0.4042  0.3340  0.5470
  709TMC3    C610536   0.471   3.727  13.807  0.1091  0.5350 -0.9188
  709TMC3     C10537   0.820   3.820  13.973 -0.5591  0.0042  0.5238
  709TMC3     O10538   0.938   3.811  13.937 -0.1550 -0.4776 -0.8753
  709TMC3     H10539   0.804   3.732  13.733 -1.1371 -2.6982  0.5583
  709TMC3    H110540   0.582   3.935  14.041  1.0051  1.0001 -0.8944
  709TMC3    H210541   0.377   3.683  13.775  0.6792 -0.9108 -0.5698
  709TMC3    C710542   0.417   3.749  14.035  0.5979 -0.0793 -0.0474
  709TMC3    C810543   0.601   3.584  13.670 -0.2853  0.3636  0.3734
  709TMC3    O110544   0.499   3.745  14.129 -0.3807 -0.8108 -0.2071
  709TMC3    O210545   0.522   3.502  13.706 -0.5308 -0.0203 -0.1960
  710TMC3    C110546   3.042   0.597   0.001 -0.3670  0.7370  0.7824
  710TMC3    C210547   3.102   0.568  17.615 -0.0530  0.2594 -0.2180
  710TMC3    C310548   3.211   0.494  17.616 -0.4370  0.2133  0.3524
  710TMC3    C410549   3.108   0.564   0.117 -0.2603  0.2335 -0.3532
  710TMC3    C510550   3.217   0.489   0.114  0.0271  0.5867  0.8087
  710TMC3    C610551   3.271   0.445  17.731 -0.6365 -0.2079 -0.0094
  710TMC3     C10552   2.913   0.671  17.735 -0.0525 -0.2756 -0.2092
  710TMC3     O10553   2.854   0.673  17.627  0.1193 -0.0747 -0.3573
  710TMC3     H10554   3.061   0.611  17.525 -1.7887  0.7189  0.7855
  710TMC3    H110555   3.043   0.561   0.204 -1.2317  1.8952 -1.0204
  710TMC3    H210556   3.360   0.383  17.722 -0.0292  0.8462 -1.2798
  710TMC3    C710557   3.254   0.415   0.239  0.6883  0.0273 -0.1554
  710TMC3    C810558   3.281   0.475  17.489  0.0193 -0.1581  0.7852
  710TMC3    O110559   3.165   0.373   0.313  0.6258  0.1303  0.0173
  710TMC3    O210560   3.208   0.475  17.392 -0.3174  0.4358 -0.0451
  711TMC3    C110561   2.148   0.902  15.250 -0.0054  0.3352  0.0762
  711TMC3    C210562   2.117   0.979  15.361  0.6239  0.1056 -0.2381
  711TMC3    C310563   2.217   0.987  15.452  0.3332  0.2188 -0.6171
  711TMC3    C410564   2.265   0.850  15.218  0.0985  0.5049 -0.7124
  711TMC3    C510565   2.365   0.878  15.311 -0.0045 -0.4551  0.3164
  711TMC3    C610566   2.344   0.940  15.431  0.6049 -0.9687  0.4716
  711TMC3     C10567   2.059   0.906  15.139 -0.0645 -0.4939  0.4754
  711TMC3     O10568   2.019   0.797  15.096  0.0613  0.5358  0.2408
  711TMC3     H10569   2.019   1.026  15.354  0.7978  0.5001  0.0244
  711TMC3    H110570   2.282   0.797  15.125 -0.2118  0.3684 -0.6917
  711TMC3    H210571   2.427   0.951  15.501  0.0727 -0.8043  1.0755
  711TMC3    C710572   2.492   0.814  15.298 -0.7825  0.7398  0.2084
  711TMC3    C810573   2.176   1.048  15.575 -0.5225  0.6400  0.2168
  711TMC3    O110574   2.547   0.783  15.402 -0.1078 -0.0165  0.5372
  711TMC3    O210575   2.061   1.061  15.608  0.0965 -0.1951  0.0386
  712MPD2     C10576   3.279   1.989  13.849  0.0367 -0.2659  0.0096
  712MPD2    C110577   3.192   2.093  13.813 -0.1281  0.6821  0.7118
  712MPD2    C210578   3.174   2.201  13.898 -0.3371  0.3755 -1.2423
  712MPD2    C310579   3.258   2.217  14.008  0.9365 -0.5073  0.1750
  712MPD2    C410580   3.356   2.121  14.029 -0.0196 -0.1580  0.3656
  712MPD2    C510581   3.357   2.012  13.957 -0.6184 -0.3714 -0.2558
  712MPD2     H10582   3.110   2.277  13.856 -0.1021  1.9542  1.2893
  712MPD2    H110583   3.423   2.137  14.113  2.2043 -0.5890 -1.3218
  712MPD2    H210584   3.273   1.890  13.805  1.1181  0.3613 -1.5419
  712MPD2    H310585   3.433   1.938  13.981  0.3979  0.1371 -1.9341
  712MPD2     N10586   3.263   2.339  14.084  0.0617 -0.1551  0.1121
  712MPD2    H510587   3.351   2.362  14.128 -0.2645  2.5514 -0.6408
  712MPD2    N110588   3.094   2.069  13.710 -0.6074 -0.0100 -0.3850
  712MPD2    H710589   3.010   2.126  13.714 -0.5157  0.1166 -0.2681
  713TMC3    C110590   3.196   2.577  14.098 -0.6588  0.4041 -0.4470
  713TMC3    C210591   3.322   2.616  14.061 -0.1190  0.0224 -0.4174
  713TMC3    C310592   3.349   2.754  14.064 -0.2627  0.4186  0.5332
  713TMC3    C410593   3.093   2.671  14.116  0.0961 -0.7858 -0.3291
  713TMC3    C510594   3.119   2.803  14.104 -0.2424  0.1800  0.7051
  713TMC3    C610595   3.245   2.845  14.080 -0.2944 -0.1107 -0.4413
  713TMC3     C10596   3.158   2.434  14.079 -0.1287 -0.5348  0.4277
  713TMC3     O10597   3.041   2.404  14.080 -0.1098 -0.2926  0.1952
  713TMC3     H10598   3.398   2.544  14.034 -0.7763 -1.2158  1.0339
  713TMC3    H110599   2.995   2.633  14.143 -1.1075  1.1197 -2.0241
  713TMC3    H210600   3.273   2.948  14.096 -0.5852  0.2672 -2.3661
  713TMC3    C710601   3.010   2.894  14.087 -0.0722  0.3670  0.2789
  713TMC3    C810602   3.481   2.803  14.026 -0.0965  0.3430 -0.7526
  713TMC3    O110603   2.898   2.850  14.110 -0.1564 -0.5179  0.4484
  713TMC3    O210604   3.482   2.920  13.995 -0.3411  0.3502 -0.2356
  714MPD2     C10605   1.452   1.249   1.030  0.6516  0.6933 -1.0412
  714MPD2    C110606   1.444   1.118   1.073  0.0703 -0.2052  0.0691
  714MPD2    C210607   1.337   1.041   1.037  0.6387 -0.1327 -0.2152
  714MPD2    C310608   1.240   1.094   0.956 -0.6354  0.4647  0.4997
  714MPD2    C410609   1.256   1.220   0.900  0.8975  0.5065 -0.8469
  714MPD2    C510610   1.359   1.296   0.943  0.5125 -0.3539  0.3393
  714MPD2     H10611   1.322   0.943   1.081 -0.9509 -0.8531 -2.3724
  714MPD2    H110612   1.188   1.263   0.827 -1.8834  1.3670  2.2289
  714MPD2    H210613   1.543   1.304   1.050  0.3089  0.7317  0.3870
  714MPD2    H310614   1.364   1.396   0.902  2.3075  0.1592  1.8400
  714MPD2     N10615   1.134   1.008   0.925  0.3009 -0.3196  0.8532
  714MPD2    H510616   1.126   0.919   0.972 -0.4023 -0.9047 -0.3744
  714MPD2    N110617   1.543   1.073   1.157 -0.1083 -0.5502  0.1575
  714MPD2    H710618   1.608   1.146   1.183 -0.1931 -0.7445  0.9202
  715TMC3    C110619   1.697   0.927   1.254 -0.3201 -0.4713 -0.2012
  715TMC3    C210620   1.759   0.804   1.238 -0.0133  0.6693  0.1593
  715TMC3    C310621   1.891   0.789   1.283 -0.5350  0.1942  0.9035
  715TMC3    C410622   1.757   1.033   1.318  0.1124 -0.8265  0.3646
  715TMC3    C510623   1.889   1.018   1.360  0.6683 -0.1391  0.5363
  715TMC3    C610624   1.960   0.896   1.335 -0.0849  0.2460  0.0595
  715TMC3     C10625   1.576   0.941   1.186  0.0069 -0.1005  0.1918
  715TMC3     O10626   1.526   0.836   1.148  0.0474  0.1375 -0.4039
  715TMC3     H10627   1.706   0.712   1.214 -0.7439  1.2805 -0.5826
  715TMC3    H110628   1.702   1.121   1.349  0.6499  0.1252 -1.4133
  715TMC3    H210629   2.065   0.891   1.363 -0.2106 -1.9745  0.1579
  715TMC3    C710630   1.955   1.118   1.437  0.3317 -0.3014  0.4584
  715TMC3    C810631   1.975   0.694   1.208  0.3430  0.6407 -0.1894
  715TMC3    O110632   2.077   1.122   1.434 -0.5304  0.1932  0.1873
  715TMC3    O210633   1.904   0.656   1.114 -0.0199 -0.7064 -0.3418
  716MPD2     C10634   0.562   4.060  10.010  0.3941  0.2228  0.5230
  716MPD2    C110635   0.488   4.092   9.906  0.0934 -0.4229  0.2040
  716MPD2    C210636   0.500   4.015   9.790 -0.3418  0.4973  0.7438
  716MPD2    C310637   0.579   3.904   9.792 -0.1649 -0.1579 -0.1005
  716MPD2    C410638   0.651   3.866   9.900  1.0412  0.6202 -0.4852
  716MPD2    C510639   0.637   3.944  10.016  0.2144  0.6166  0.0178
  716MPD2     H10640   0.439   4.030   9.701  2.3705  0.7171 -1.0814
  716MPD2    H110641   0.716   3.779   9.901 -0.2885 -0.3614 -0.8676
  716MPD2    H210642   0.558   4.122  10.099  2.6021 -0.0079  0.7967
  716MPD2    H310643   0.697   3.914  10.101 -0.4381 -0.9782 -0.0729
  716MPD2     N10644   0.598   3.828   9.672 -0.1339 -0.2230  0.7295
  716MPD2    H510645   0.534   3.869   9.605  0.2976 -0.5226  0.1255
  716MPD2    N110646   0.395   4.196   9.921 -0.2211 -0.5253 -0.4706
  716MPD2    H710647   0.369   4.217  10.017  0.0564 -1.6423 -0.1468
  717TMC3    C110648   0.650   3.651   9.529 -0.5716  0.0795 -0.6596
  717TMC3    C210649   0.590   3.719   9.422  0.2208 -0.5542  0.7772
  717TMC3    C310650   0.575   3.656   9.304  0.8177  0.2913  0.1551
  717TMC3    C410651   0.677   3.519   9.523  0.8971  0.4406  0.2931
  717TMC3    C510652   0.655   3.458   9.404  0.1306  0.1379 -0.5795
  717TMC3    C610653   0.612   3.521   9.292  0.1247  0.5859  0.2371
  717TMC3     C10654   0.670   3.710   9.654  1.5014  0.3350 -0.7167
  717TMC3     O10655   0.726   3.638   9.737  0.0700 -0.8129  0.4106
  717TMC3     H10656   0.571   3.825   9.414 -0.2645 -0.6796  0.2970
  717TMC3    H110657   0.688   3.460   9.613  2.1101  1.6834  0.9399
  717TMC3    H210658   0.603   3.467   9.198  2.6926 -0.8239  0.8049
  717TMC3    C710659   0.666   3.321   9.401  0.2650 -0.3043  0.0235
  717TMC3    C810660   0.518   3.740   9.195  0.0123  0.3446 -0.3397
  717TMC3    O110661   0.568   3.270   9.348 -0.0600 -0.0567  0.2798
  717TMC3    O210662   0.472   3.849   9.218 -0.3858  0.3022 -0.0760
  718MPD2     C10663   0.088   3.060  13.204  1.1353 -0.1658 -0.6289
  718MPD2    C110664   0.082   3.021  13.073  0.8892 -0.7523  0.2392
  718MPD2    C210665   0.055   2.888  13.043  0.3129 -0.0323 -0.3231
  718MPD2    C310666   0.038   2.793  13.137  0.0346 -0.8190 -0.0245
  718MPD2    C410667   0.036   2.832  13.271  0.0433 -0.7638 -0.9137
  718MPD2    C510668   0.068   2.964  13.302 -0.0469  0.3159  0.0654
  718MPD2     H10669   0.058   2.855  12.940 -2.2136 -1.7799  0.1775
  718MPD2    H110670   0.017   2.758  13.348  0.2627 -0.4085 -0.5190
  718MPD2    H210671   0.103   3.164  13.230 -2.7688  0.6593 -1.6859
  718MPD2    H310672   0.079   2.988  13.407  0.1767 -1.4216  0.4382
  718MPD2     N10673   4.734   2.656  13.112  0.3391 -0.2105  0.4587
  718MPD2    H510674   4.723   2.596  13.193 -1.7380 -1.2667 -0.6136
  718MPD2    N110675   0.072   3.121  12.972 -0.1496  0.4956 -0.0254
  718MPD2    H710676   0.086   3.218  12.998  1.5885 -0.0330  1.0166
  719TMC3    C110677   0.002   3.210  12.756 -0.2843 -0.8742 -0.4058
  719TMC3    C210678   4.640   3.182  12.659  0.3059  0.1472 -0.9599
  719TMC3    C310679   4.653   3.220  12.527  0.0156  0.0715  0.3844
  719TMC3    C410680   0.115   3.267  12.718  0.5338  0.5446 -0.4155
  719TMC3    C510681   0.133   3.301  12.577 -0.5601  0.2992  0.5088
  719TMC3    C610682   0.035   3.279  12.489 -0.1028 -0.7313  0.1651
  719TMC3     C10683   0.014   3.097  12.846  1.2633 -0.5210 -0.0744
  719TMC3     O10684   4.701   2.993  12.803  0.8048 -0.8340 -0.0520
  719TMC3     H10685   4.539   3.150  12.686 -0.3351  2.7483 -0.3168
  719TMC3    H110686   0.187   3.290  12.796 -0.0100 -0.2575  0.3334
  719TMC3    H210687   0.040   3.316  12.387 -0.9253 -0.7315  0.1205
  719TMC3    C710688   0.265   3.351  12.524  0.3919 -0.0120 -0.2218
  719TMC3    C810689   4.639   3.098  12.448  0.1249  0.2982 -0.1978
  719TMC3    O110690   0.258   3.426  12.427  0.0427  0.3655  0.2195
  719TMC3    O210691   4.672   3.107  12.334 -0.7470 -0.3353 -0.5505
  720MPD2     C10692   3.085   4.396  13.847  0.3772  0.2410 -1.0021
  720MPD2    C110693   3.172   4.443  13.754 -0.1648  0.5074 -0.9533
  720MPD2    C210694   3.306   4.415  13.767  0.0772 -0.2951 -1.0568
  720MPD2    C310695   3.349   4.327  13.863  0.2951  0.1125  0.1618
  720MPD2    C410696   3.263   4.275  13.954 -0.5191  0.1768  0.1187
  720MPD2    C510697   3.134   4.319  13.951  0.2144  0.4048  0.6864
  720MPD2     H10698   3.380   4.440  13.692 -0.5986  1.7324 -1.0295
  720MPD2    H110699   3.294   4.199  14.025  0.0588 -0.2530 -0.5898
  720MPD2    H210700   2.980   4.416  13.830 -0.4876 -1.7918  1.9218
  720MPD2    H310701   3.062   4.282  14.024 -0.3212 -1.3057 -0.6976
  720MPD2     N10702   3.487   4.279  13.850 -0.4867  0.3728  0.1497
  720MPD2    H510703   3.547   4.320  13.779 -0.3920  1.7276  1.0219
  720MPD2    N110704   3.130   4.516  13.643  0.0887 -0.3906 -0.0178
  720MPD2    H710705   3.198   4.530  13.569  0.5377  2.7359  0.9657
  721TMC3    C110706   3.699   4.212  13.916  0.2127  0.1680  0.6835
  721TMC3    C210707   3.770   4.247  14.026 -0.0623  0.0661 -0.5149
  721TMC3    C310708   3.901   4.289  14.009 -0.0384  0.3293 -0.3964
  721TMC3    C410709   3.744   4.238  13.792 -0.1603  0.0785 -0.9767
  721TMC3    C510710   3.878   4.285  13.779  0.5096  0.7079 -0.1330
  721TMC3    C610711   3.955   4.313  13.885  0.4993 -0.4913  1.1730
  721TMC3     C10712   3.549   4.193  13.932  0.0739  0.0617 -0.5388
  721TMC3     O10713   3.508   4.143  14.032  0.2512 -0.1098  0.0858
  721TMC3     H10714   3.738   4.222  14.127  2.1468 -1.9191 -0.3010
  721TMC3    H110715   3.692   4.212  13.701  0.1961  1.0770 -1.4694
  721TMC3    H210716   4.045   4.372  13.877 -0.5401  0.9079 -0.2142
  721TMC3    C710717   3.946   4.269  13.648 -0.1649 -0.7337  0.4548
  721TMC3    C810718   3.982   4.337  14.125  0.1638  0.0733  0.0598
  721TMC3    O110719   3.870   4.254  13.553 -0.3778  0.1700 -0.3360
  721TMC3    O210720   4.093   4.369  14.090 -0.3384  0.2013  0.0643
  722MPD2     C10721   1.961   2.688  13.980 -0.7849  0.3123 -0.3164
  722MPD2    C110722   1.908   2.808  13.940 -0.1620 -0.5103 -0.2580
  722MPD2    C210723   1.771   2.837  13.959 -0.4164 -0.4199 -1.0041
  722MPD2    C310724   1.697   2.735  14.019  0.4009  0.5379 -0.2740
  722MPD2    C410725   1.748   2.611  14.053 -0.3079 -0.2214  0.2337
  722MPD2    C510726   1.880   2.589  14.028  0.9320 -0.1895  0.4357
  722MPD2     H10727   1.736   2.937  13.938  0.8650  0.0894 -0.7160
  722MPD2    H110728   1.693   2.530  14.100  1.1156 -1.2322  0.1782
  722MPD2    H210729   2.064   2.667  13.956 -0.7989  2.0023 -1.9004
  722MPD2    H310730   1.928   2.495  14.051 -0.3646 -0.6188  1.3745
  722MPD2     N10731   1.562   2.766  14.066 -0.6277 -0.2386 -0.4273
  722MPD2    H510732   1.526   2.854  14.031  1.0311 -0.1000 -1.7756
  722MPD2    N110733   1.983   2.924  13.891  0.0770  0.2135 -0.4469
  722MPD2    H710734   1.935   3.001  13.845  1.7909  1.8827  0.5667
  723TMC3    C110735   1.364   2.771  14.189 -0.1983  0.1950  0.0947
  723TMC3    C210736   1.247   2.702  14.226 -0.6969 -0.2586 -0.3121
  723TMC3    C310737   1.124   2.753  14.191  0.5007  0.1441  0.1341
  723TMC3    C410738   1.366   2.903  14.156 -0.0122 -0.1134  0.1685
  723TMC3    C510739   1.242   2.955  14.121 -0.2547 -0.3603 -0.0716
  723TMC3    C610740   1.126   2.881  14.130  0.2116  0.5192  0.2234
  723TMC3     C10741   1.485   2.693  14.152 -0.7652  0.4418  0.3195
  723TMC3     O10742   1.504   2.585  14.209 -0.2970  0.0728  0.1273
  723TMC3     H10743   1.248   2.597  14.253 -1.1635 -0.4650 -1.1005
  723TMC3    H110744   1.449   2.972  14.150  0.7505 -0.6926  3.9059
  723TMC3    H210745   1.030   2.892  14.079  0.7841  2.4873 -0.4291
  723TMC3    C710746   1.236   3.076  14.050  0.4297 -0.2612 -0.4646
  723TMC3    C810747   1.052   2.641  14.124  0.3245  0.3089  0.2898
  723TMC3    O110748   1.339   3.110  13.994 -0.3373 -0.0171 -0.6640
  723TMC3    O210749   0.986   2.570  14.194 -0.1162 -0.8134  0.2135
  724TMC3    C110750   2.777   1.393  10.417 -0.2993  0.3297 -0.2333
  724TMC3    C210751   2.693   1.482  10.476 -0.2748 -0.0430 -0.0913
  724TMC3    C310752   2.743   1.602  10.518 -0.7383 -0.9015  0.4455
  724TMC3    C410753   2.905   1.432  10.379  0.3771 -0.9565  0.4219
  724TMC3    C510754   2.958   1.547  10.424 -0.3501  0.4232 -0.0355
  724TMC3    C610755   2.875   1.633  10.497  0.0446  0.0178 -0.0673
  724TMC3     C10756   2.721   1.266  10.372  0.2744 -0.5999  0.8759
  724TMC3     O10757   2.800   1.196  10.311 -0.3608 -0.2151  0.3923
  724TMC3     H10758   2.586   1.476  10.464  0.0927 -3.1141 -1.8774
  724TMC3    H110759   2.968   1.361  10.329  1.6205 -0.1529  0.8471
  724TMC3    H210760   2.918   1.724  10.539  0.9800  0.6875 -2.4587
  724TMC3    C710761   3.078   1.616  10.370  0.7569 -0.1573  0.2752
  724TMC3    C810762   2.665   1.694  10.604  0.6325  0.3535  0.4010
  724TMC3    O110763   3.102   1.719  10.431 -0.9998  0.1338  0.2929
  724TMC3    O210764   2.561   1.647  10.646 -0.2328 -0.3673  0.2689
  725TMC3    C110765   3.948   4.711  12.849 -0.5769 -0.7132  0.3986
  725TMC3    C210766   3.851   0.045  12.774  0.4363  0.0663 -0.9960
  725TMC3    C310767   3.746   4.712  12.719  0.4990  0.4845  0.0204
  725TMC3    C410768   3.927   4.582  12.885  0.1697  0.2654  0.1066
  725TMC3    C510769   3.820   4.515  12.829  0.4360  0.2081 -0.3145
  725TMC3    C610770   3.732   4.582  12.746 -0.3657 -0.8194  0.0136
  725TMC3     C10771   4.058   0.055  12.904 -0.4753 -0.1557 -0.1413
  725TMC3     O10772   4.055   0.176  12.882 -0.2996 -0.2436 -0.4826
  725TMC3     H10773   3.875   0.147  12.747  0.5336  0.3356  0.1288
  725TMC3    H110774   4.001   4.532  12.946 -2.7068  0.9499  4.2022
  725TMC3    H210775   3.649   4.536  12.695 -0.1684 -0.7740 -0.3491
  725TMC3    C710776   3.836   4.372  12.814 -0.8126  0.3795  0.3588
  725TMC3    C810777   3.624   0.045  12.673 -0.1373 -0.1655  0.4228
  725TMC3    O110778   3.953   4.336  12.826 -0.0658  0.1642  0.2061
  725TMC3    O210779   3.517   4.725  12.709  0.0705 -0.7517 -0.0174
  726MPD2     C10780   1.732   1.791  10.612 -0.7447  0.4227  0.4994
  726MPD2    C110781   1.658   1.825  10.508  0.5579 -0.7134  0.4606
  726MPD2    C210782   1.524   1.786  10.515 -0.0629 -0.4766  0.4352
  726MPD2    C310783   1.468   1.717  10.619 -0.1822  0.6673  0.4657
  726MPD2    C410784   1.555   1.680  10.718  0.0353  0.0076  0.6720
  726MPD2    C510785   1.687   1.715  10.717 -0.5732 -0.4462 -0.4377
  726MPD2     H10786   1.467   1.810  10.426  0.8186  2.4740  0.6669
  726MPD2    H110787   1.532   1.614  10.801  0.4725 -0.1746  0.6459
  726MPD2    H210788   1.832   1.831  10.609 -0.6798  0.1445 -1.4776
  726MPD2    H310789   1.745   1.673  10.798 -1.7351  0.0127  0.6377
  726MPD2     N10790   1.345   1.648  10.612  0.2968 -0.5700 -0.3426
  726MPD2    H510791   1.344   1.565  10.670 -0.8511 -1.3265 -1.4340
  726MPD2    N110792   1.703   1.878  10.389 -0.4950 -0.1839  0.1925
  726MPD2    H710793   1.638   1.888  10.312  1.3744 -1.6818 -1.6004
  727TMC3    C110794   1.832   1.968  10.229 -0.0316 -0.1791 -0.5309
  727TMC3    C210795   1.922   2.074  10.216  0.0508  0.5972 -0.1638
  727TMC3    C310796   1.896   2.185  10.136 -0.0007 -0.0142 -0.2152
  727TMC3    C410797   1.717   1.971  10.148 -0.5571  0.2847  0.7480
  727TMC3    C510798   1.690   2.089  10.080 -0.7449 -0.0087  0.8504
  727TMC3    C610799   1.772   2.199  10.079  0.1494  0.2209 -0.4090
  727TMC3     C10800   1.835   1.900  10.351  0.0572  0.0982 -0.4830
  727TMC3     O10801   1.936   1.906  10.420  0.4803 -0.0325 -0.5272
  727TMC3     H10802   2.009   2.072  10.279 -1.4633  1.0345  1.9162
  727TMC3    H110803   1.650   1.887  10.135  3.0702 -2.9418  2.9642
  727TMC3    H210804   1.754   2.277  10.006 -3.4098  1.8302  2.1500
  727TMC3    C710805   1.583   2.071   9.986  0.6511  0.0790 -0.7054
  727TMC3    C810806   1.973   2.302  10.183  0.8503  0.1680 -1.1695
  727TMC3    O110807   1.490   1.996  10.008 -0.6641 -0.4469 -0.1758
  727TMC3    O210808   2.090   2.276  10.203 -0.1763  0.2412 -0.0971
  728TMC3    C110809   1.670   4.570  15.273  0.8350  0.3656 -0.0832
  728TMC3    C210810   1.779   4.653  15.293 -0.6999 -0.9459  0.0661
  728TMC3    C310811   1.785   0.030  15.205  0.1253  0.9450 -0.2427
  728TMC3    C410812   1.574   4.584  15.173 -0.3894  0.2095 -0.0668
  728TMC3    C510813   1.582   4.697  15.097 -0.9137  0.5143 -0.6793
  728TMC3    C610814   1.692   0.045  15.105 -0.4910 -0.2940  0.0632
  728TMC3     C10815   1.641   4.481  15.387  0.1274  0.9735  0.0704
  728TMC3     O10816   1.734   4.466  15.467 -0.4530 -0.2748 -0.5929
  728TMC3     H10817   1.852   4.629  15.369  0.3844  0.5833 -0.4846
  728TMC3    H110818   1.491   4.516  15.156 -0.8869 -0.3869  4.7462
  728TMC3    H210819   1.706   0.122  15.031  0.7486  0.1603  0.7687
  728TMC3    C710820   1.486   4.717  14.989  0.9941  0.6868  0.0715
  728TMC3    C810821   1.917   0.063  15.180 -0.3676 -0.0653 -0.4300
  728TMC3    O110822   1.426   4.620  14.940 -0.0198 -0.2483  0.4328
  728TMC3    O210823   2.005   4.714  15.190  0.2838 -0.2130 -0.3164
  729MPD2     C10824   3.954   0.997  16.873  0.7241  0.0446  0.6498
  729MPD2    C110825   4.064   1.051  16.935 -0.6219 -0.2462 -1.1857
  729MPD2    C210826   4.055   1.074  17.069 -0.0700  0.8565  0.1118
  729MPD2    C310827   3.944   1.034  17.150  0.3796 -0.7582 -0.1564
  729MPD2    C410828   3.835   0.975  17.089  0.3651  0.5580  0.1288
  729MPD2    C510829   3.844   0.955  16.950 -0.0648 -0.3283 -0.0832
  729MPD2     H10830   4.149   1.110  17.111  1.0781 -1.0872 -0.7745
  729MPD2    H110831   3.740   0.954  17.137 -0.1141 -1.8135 -1.9064
  729MPD2    H210832   3.950   0.987  16.765  0.8469 -0.8626  0.7272
  729MPD2    H310833   3.759   0.923  16.892 -1.0991  1.0424  0.6651
  729MPD2     N10834   3.937   1.063  17.290  0.1839  0.5803 -0.0386
  729MPD2    H510835   3.849   1.034  17.331  1.3161 -1.2649  1.0941
  729MPD2    N110836   4.158   1.105  16.845  0.3002 -0.0925 -0.2685
  729MPD2    H710837   4.143   1.088  16.746 -0.8965 -1.3529  0.1132
  730TMC3    C110838   3.997   1.158  17.504  0.2880  0.1442 -0.1368
  730TMC3    C210839   4.103   1.186  17.582 -0.0693 -0.5553 -0.5067
  730TMC3    C310840   4.091   1.278  17.685 -0.0549 -0.1040 -0.2601
  730TMC3    C410841   3.867   1.197  17.526 -0.0322  0.1224 -0.2241
  730TMC3    C510842   3.856   1.284  17.637 -0.3922  0.2623  0.1517
  730TMC3    C610843   3.962   1.318  17.718  0.4798 -0.9137  0.1844
  730TMC3     C10844   4.038   1.114  17.366  0.4866 -0.2265  0.5965
  730TMC3     O10845   4.154   1.128  17.332  0.4417  0.4531 -0.2347
  730TMC3     H10846   4.202   1.151  17.555  0.1926  0.8692 -1.3613
  730TMC3    H110847   3.774   1.172  17.476  0.6570  0.2238 -1.5599
  730TMC3    H210848   3.943   1.389   0.061  0.1296 -0.6334 -0.1503
  730TMC3    C710849   3.779   1.398  17.591  0.4421  0.2411 -0.4830
  730TMC3    C810850   4.163   1.407  17.674  0.2055 -0.2385  0.2661
  730TMC3    O110851   3.759   1.399  17.470 -0.4084  0.2684 -0.2359
  730TMC3    O210852   4.214   1.438  17.565  0.1464  0.3116  0.6761
  731MPD2     C10853   3.246   4.686  12.436 -0.3057 -0.9882  0.5911
  731MPD2    C110854   3.219   4.592  12.334  0.1808  0.4120 -0.4145
  731MPD2    C210855   3.129   4.488  12.359 -0.4514  0.2851  0.3551
  731MPD2    C310856   3.071   4.470  12.481 -0.7154 -0.7366  0.0585
  731MPD2    C410857   3.101   4.559  12.583  0.2825  0.1003 -0.3298
  731MPD2    C510858   3.184   4.663  12.558  0.0549 -0.0469  0.2041
  731MPD2     H10859   3.122   4.406  12.289 -0.6619 -1.3899  2.3284
  731MPD2    H110860   3.053   4.557  12.680 -0.7610 -2.2464 -0.8770
  731MPD2    H210861   3.322   0.029  12.431 -1.0494 -0.2602  0.4502
  731MPD2    H310862   3.200   4.727  12.645  2.2632  0.2715 -0.4457
  731MPD2     N10863   2.993   4.352  12.496  0.5668 -0.2398 -0.0321
  731MPD2    H510864   2.977   4.296  12.413 -2.7315 -0.9417  1.0369
  731MPD2    N110865   3.296   4.606  12.213 -0.0589 -0.0776 -0.1670
  731MPD2    H710866   3.356   4.688  12.206  0.1390 -0.1814  0.2787
  732TMC3    C110867   3.398   4.542  12.014  0.6199  0.2664  0.6741
  732TMC3    C210868   3.379   4.462  11.908 -0.4735 -1.0908  0.4270
  732TMC3    C310869   3.489   4.416  11.839 -0.3610  0.0234  0.1661
  732TMC3    C410870   3.528   4.562  12.065 -0.7248  0.7792  0.2958
  732TMC3    C510871   3.632   4.499  12.001  0.2087  0.4770  0.1461
  732TMC3    C610872   3.615   4.426  11.891  1.0006 -0.1730  0.5703
  732TMC3     C10873   3.286   4.528  12.106  0.4897  0.3856 -0.7195
  732TMC3     O10874   3.200   4.451  12.079  0.3633 -0.2359 -0.0167
  732TMC3     H10875   3.276   4.455  11.874 -0.5663  1.0181  0.2207
  732TMC3    H110876   3.553   4.601  12.163  1.9941 -1.9826  0.6896
  732TMC3    H210877   3.700   4.399  11.830  0.3327 -1.7323  0.3410
  732TMC3    C710878   3.758   4.548  12.043  0.4506  0.2577  0.1534
  732TMC3    C810879   3.476   4.294  11.765 -0.3108 -0.1082 -0.4985
  732TMC3    O110880   3.775   4.666  12.069 -0.1088 -0.0709 -0.4126
  732TMC3    O210881   3.575   4.257  11.700  0.3168  0.0310  0.2362
  733TMC3    C110882   4.462   2.341  12.985  0.6393  0.0672 -0.2385
  733TMC3    C210883   4.564   2.405  13.048  0.7409 -0.3377 -0.4045
  733TMC3    C310884   4.662   2.456  12.971  0.4115 -0.1205 -0.8131
  733TMC3    C410885   4.457   2.325  12.850  0.1900  0.4982 -0.1137
  733TMC3    C510886   4.569   2.361  12.783 -0.4986  0.1708 -0.2852
  733TMC3    C610887   4.665   2.429  12.841  0.2320 -0.1442 -0.5510
  733TMC3     C10888   4.337   2.329  13.059 -0.6784  0.8451  0.3450
  733TMC3     O10889   4.227   2.360  13.010 -0.5582  0.1196 -0.5709
  733TMC3     H10890   4.566   2.432  13.153 -0.4173 -2.0158  0.0405
  733TMC3    H110891   4.367   2.280  12.809 -0.4556  3.4056 -1.8817
  733TMC3    H210892   0.027   2.445  12.793 -0.0430 -1.2451 -1.4820
  733TMC3    C710893   4.547   2.415  12.651 -0.1572 -0.5539 -0.2899
  733TMC3    C810894   4.702   2.601  12.983 -0.3603 -0.2561 -0.7120
  733TMC3    O110895   4.505   2.340  12.563 -0.0691 -0.1114 -0.5638
  733TMC3    O210896   4.718   2.652  12.878  0.0830 -0.3282  0.5536
  734MPD2     C10897   1.447   3.987  12.552  0.3994 -0.6434 -0.2155
  734MPD2    C110898   1.446   3.942  12.424  0.5734 -0.1270 -0.6189
  734MPD2    C210899   1.458   4.037  12.324  0.4321 -0.5532  0.4661
  734MPD2    C310900   1.456   4.176  12.349 -0.1354 -0.0112  0.8194
  734MPD2    C410901   1.436   4.217  12.478 -0.7162 -0.1087 -0.4002
  734MPD2    C510902   1.436   4.119  12.577  0.1262  0.4177  0.5281
  734MPD2     H10903   1.455   4.009  12.220 -0.7686 -2.1423  0.9242
  734MPD2    H110904   1.434   4.320  12.510  2.0487  0.4256 -1.9432
  734MPD2    H210905   1.438   3.912  12.629 -1.6046  2.7347  2.8540
  734MPD2    H310906   1.428   4.162  12.677 -0.9392 -0.1100  0.6655
  734MPD2     N10907   1.481   4.253  12.240 -0.1260 -0.4321  0.4357
  734MPD2    H510908   1.465   4.214  12.148  0.6165 -2.0197  0.9778
  734MPD2    N110909   1.449   3.801  12.391  0.4839  0.3770 -0.5030
  734MPD2    H710910   1.443   3.730  12.463 -0.5477  1.9498  0.9632
  735TMC3    C110911   1.474   3.612  12.252  0.2718  0.2666 -0.8636
  735TMC3    C210912   1.440   3.559  12.126  0.5735  0.1328 -0.0785
  735TMC3    C310913   1.521   3.484  12.051 -0.6605  0.1245 -0.5432
  735TMC3    C410914   1.587   3.577  12.310  0.3361 -0.8774  0.1840
  735TMC3    C510915   1.671   3.494  12.239  0.9648 -0.9585 -0.6574
  735TMC3    C610916   1.635   3.444  12.112  0.5904  0.2068 -0.3558
  735TMC3     C10917   1.447   3.757  12.260  0.0743 -0.6929 -0.1414
  735TMC3     O10918   1.411   3.812  12.160  0.4902  0.4136  0.6022
  735TMC3     H10919   1.343   3.587  12.087  0.0365 -0.2740  0.9515
  735TMC3    H110920   1.620   3.623  12.402 -0.7652  1.0012 -0.3418
  735TMC3    H210921   1.707   3.390  12.052  1.3385 -0.9674  1.5910
  735TMC3    C710922   1.807   3.525  12.265 -0.9073 -0.0550 -0.3948
  735TMC3    C810923   1.560   3.544  11.923 -0.6918  0.1001  0.5113
  735TMC3    O110924   1.830   3.644  12.274 -0.1167  0.7852  0.2159
  735TMC3    O210925   1.625   3.475  11.844 -0.4623  0.1278  0.3926
  736MPD2     C10926   2.108   3.324  12.204 -0.5302 -0.1300  0.2684
  736MPD2    C110927   2.021   3.432  12.187 -0.2874  0.5604 -1.2386
  736MPD2    C210928   2.057   3.537  12.114  1.0647  0.3742  0.1370
  736MPD2    C310929   2.180   3.544  12.058  0.3918 -0.5655  0.0293
  736MPD2    C410930   2.263   3.432  12.069 -0.3929  0.4402  0.9290
  736MPD2    C510931   2.231   3.324  12.144  0.3169  0.4950  0.5850
  736MPD2     H10932   1.988   3.619  12.096  0.9776 -0.4881 -3.5801
  736MPD2    H110933   2.365   3.437  12.033 -0.6975  3.7046  0.5093
  736MPD2    H210934   2.078   3.229  12.247 -1.8241 -0.8543 -2.2698
  736MPD2    H310935   2.295   3.238  12.158  1.4457  1.3767  0.7750
  736MPD2     N10936   2.218   3.660  11.981 -0.5369  0.0165 -0.4418
  736MPD2    H510937   2.311   3.658  11.940  0.3945  2.3908  1.5486
  736MPD2    N110938   1.894   3.418  12.243  0.2269  0.2018 -0.6766
  736MPD2    H710939   1.859   3.323  12.254 -0.9047  0.4231 -2.3823
  737TMC3    C110940   2.226   3.874  11.883 -0.0041  0.7034 -1.1390
  737TMC3    C210941   2.165   3.911  11.764  0.1884  0.7000 -0.5401
  737TMC3    C310942   2.238   3.941  11.658 -0.0314  0.0213  1.0908
  737TMC3    C410943   2.359   3.861  11.884 -0.2298 -0.2981  0.3741
  737TMC3    C510944   2.429   3.877  11.771  0.1602 -0.0795  0.1666
  737TMC3    C610945   2.369   3.919  11.652  0.6148 -0.2351  0.0800
  737TMC3     C10946   2.146   3.781  11.959  0.4863  0.0624  0.0925
  737TMC3     O10947   2.028   3.803  11.975 -0.2414  0.0291 -0.5027
  737TMC3     H10948   2.059   3.931  11.767 -0.3848 -2.4301 -0.3920
  737TMC3    H110949   2.408   3.813  11.969 -1.9401 -0.0649  1.4908
  737TMC3    H210950   2.419   3.922  11.555 -0.9879 -1.1462 -0.7864
  737TMC3    C710951   2.541   3.788  11.765  0.2842  0.4922 -1.0684
  737TMC3    C810952   2.163   3.984  11.545 -0.3501  0.2942  0.0708
  737TMC3    O110953   2.539   3.679  11.809 -0.1332  0.0891  0.4400
  737TMC3    O210954   2.041   3.988  11.558  0.1086 -0.5497  0.5421
  738MPD2     C10955   2.280   2.982  15.338 -0.3039  0.7107 -0.4118
  738MPD2    C110956   2.323   2.855  15.367 -0.1935  0.1729  0.7974
  738MPD2    C210957   2.457   2.820  15.331 -0.1161 -0.0459 -0.6087
  738MPD2    C310958   2.536   2.915  15.270 -0.0751 -0.6661 -0.4231
  738MPD2    C410959   2.490   3.042  15.251 -0.0781 -0.1993 -0.2539
  738MPD2    C510960   2.366   3.078  15.288  0.5900 -0.2611 -0.0940
  738MPD2     H10961   2.507   2.730  15.362  1.7704  1.2780  0.2088
  738MPD2    H110962   2.551   3.120  15.206 -0.4154 -0.3197 -0.9273
  738MPD2    H210963   2.188   3.018  15.382  1.5295  0.2316  3.8532
  738MPD2    H310964   2.333   3.180  15.274  2.2775  0.2746 -0.2347
  738MPD2     N10965   2.657   2.886  15.204 -0.4664  0.0863 -0.0725
  738MPD2    H510966   2.708   2.968  15.175 -0.2555 -0.4459 -1.2043
  738MPD2    N110967   2.246   2.762  15.437 -0.0431  0.0123  0.4653
  738MPD2    H710968   2.293   2.674  15.457  0.5001  0.3047  0.4582
  739TMC3    C110969   2.819   2.758  15.094  1.0595  0.3337 -0.3813
  739TMC3    C210970   2.833   2.852  14.998  0.0824  0.2666 -1.0517
  739TMC3    C310971   2.893   2.817  14.881 -0.0260  0.5325  0.0252
  739TMC3    C410972   2.869   2.629  15.077 -0.6045 -0.1843 -0.0775
  739TMC3    C510973   2.927   2.604  14.956  0.1148  0.7981  0.8425
  739TMC3    C610974   2.946   2.692  14.857 -0.0533 -0.4365  0.0650
  739TMC3     C10975   2.703   2.758  15.181 -0.0292  0.7348  0.2333
  739TMC3     O10976   2.672   2.651  15.235  0.1320  0.3095  0.6745
  739TMC3     H10977   2.803   2.956  15.012  3.4735  1.3412 -1.8037
  739TMC3    H110978   2.872   2.557  15.158 -0.3660 -0.2833 -0.1749
  739TMC3    H210979   2.969   2.666  14.754  2.4336 -1.3350  0.8432
  739TMC3    C710980   2.970   2.471  14.927  0.4236  0.6406 -0.3329
  739TMC3    C810981   2.876   2.914  14.771  0.6627 -0.3073 -0.6142
  739TMC3    O110982   2.932   2.380  15.002  0.0322 -0.9625 -0.2483
  739TMC3    O210983   2.795   3.005  14.787 -0.6212  0.5212  0.5600
  740TMC3    C110984   3.286   4.570  14.247  0.3682 -0.5212  0.3700
  740TMC3    C210985   3.344   4.466  14.318 -0.6845 -0.4748  0.4225
  740TMC3    C310986   3.471   4.425  14.279 -0.2916  0.0585 -0.4860
  740TMC3    C410987   3.342   4.612  14.128  0.3499  0.4303  0.7094
  740TMC3    C510988   3.469   4.561  14.088 -1.0880 -0.3476 -0.0933
  740TMC3    C610989   3.529   4.469  14.163 -0.2231 -0.5607 -0.7507
  740TMC3     C10990   3.137   4.580  14.252 -0.8907  0.8045 -0.5292
  740TMC3     O10991   3.090   4.626  14.148  0.3086  0.1437 -0.2889
  740TMC3     H10992   3.300   4.425  14.408 -0.3263  0.7528  1.1534
  740TMC3    H110993   3.283   4.685  14.074  0.2551 -1.0187 -1.1363
  740TMC3    H210994   3.629   4.438  14.136 -0.0756  0.9717 -1.9908
  740TMC3    C710995   3.524   4.602  13.954  0.0597 -0.2762  0.3636
  740TMC3    C810996   3.523   4.304  14.337  0.0068  0.4284  0.5236
  740TMC3    O110997   3.626   4.545  13.923  0.1529 -0.4088  0.4751
  740TMC3    O210998   3.646   4.291  14.318  0.1269 -0.2641 -0.1871
  741TMC3    C110999   2.671   3.984  14.235 -0.6701 -0.1137 -0.8799
  741TMC3    C211000   2.575   3.885  14.213 -0.2244 -0.2692 -0.1404
  741TMC3    C311001   2.522   3.821  14.328 -0.3168  0.0979 -0.0739
  741TMC3    C411002   2.713   4.018  14.357 -0.3091  1.1067  0.3488
  741TMC3    C511003   2.660   3.951  14.463 -0.1854 -0.1585 -0.0163
  741TMC3    C611004   2.570   3.843  14.456 -0.0857  0.3495 -0.2092
  741TMC3     C11005   2.736   4.063  14.126 -0.6449  0.6693 -0.1201
  741TMC3     O11006   2.854   4.093  14.149 -0.0112 -0.0896 -0.0068
  741TMC3     H11007   2.521   3.872  14.120  0.5301  2.4323 -0.9599
  741TMC3    H111008   2.787   4.096  14.373  2.6462 -1.2022 -2.0423
  741TMC3    H211009   2.533   3.789  14.542  1.0373  0.0616  0.0909
  741TMC3    C711010   2.749   3.935  14.584 -0.5216  0.1287  0.0939
  741TMC3    C811011   2.409   3.730  14.322 -0.1145 -0.3777  0.4467
  741TMC3    O111012   2.721   3.858  14.676  0.2215 -0.3002  0.3439
  741TMC3    O211013   2.342   3.748  14.219  0.3123  0.0091 -0.7400
  742TMC3    C111014   2.637   1.916  15.793 -0.4095  0.8876 -0.1664
  742TMC3    C211015   2.575   1.912  15.670 -1.0336  0.2064  0.9809
  742TMC3    C311016   2.616   2.007  15.577 -1.0518 -1.5218  0.4659
  742TMC3    C411017   2.736   2.004  15.827 -0.5555  0.8783 -0.3781
  742TMC3    C511018   2.776   2.087  15.729  0.9563  1.2073 -0.5098
  742TMC3    C611019   2.733   2.091  15.604 -0.1560  0.0403 -0.0167
  742TMC3     C11020   2.595   1.808  15.886  0.3942  0.3908  0.2168
  742TMC3     O11021   2.491   1.743  15.866  0.2812  0.0886 -0.2882
  742TMC3     H11022   2.472   1.880  15.662 -1.4008  1.1623  1.8997
  742TMC3    H111023   2.762   2.030  15.928 -1.0287  0.4200 -0.1344
  742TMC3    H211024   2.774   2.160  15.531 -0.4013 -2.2793 -2.3751
  742TMC3    C711025   2.898   2.163  15.761  0.1359  0.0097 -0.2265
  742TMC3    C811026   2.547   2.005  15.450 -0.6664  0.0261  0.1126
  742TMC3    O111027   2.914   2.191  15.878 -0.1089  0.1400 -0.3267
  742TMC3    O211028   2.478   1.910  15.427 -0.3376 -0.4383  0.3672
  743MPD2     C11029   0.629   4.326   1.903  0.3705  0.1775  0.5125
  743MPD2    C111030   0.728   4.299   1.817 -0.8809  0.8739 -1.0323
  743MPD2    C211031   0.856   4.323   1.857  0.4279  0.1617 -0.4577
  743MPD2    C311032   0.889   4.374   1.985 -0.6192  0.2360 -0.2602
  743MPD2    C411033   0.783   4.393   2.067  0.7578  0.4127  0.1630
  743MPD2    C511034   0.652   4.365   2.030  0.0398 -1.1182 -0.4775
  743MPD2     H11035   0.935   4.313   1.783 -0.4388 -0.0012 -1.3561
  743MPD2    H111036   0.785   4.435   2.166  0.7930 -1.2642  0.8733
  743MPD2    H211037   0.525   4.329   1.875  0.5253  1.1060  0.0487
  743MPD2    H311038   0.574   4.378   2.104 -0.2560  2.0947 -1.3550
  743MPD2     N11039   1.029   4.404   2.010 -0.6298 -1.0652  0.2113
  743MPD2    H511040   1.090   4.390   1.929  0.0129 -0.5521  0.6087
  743MPD2    N111041   0.691   4.251   1.693  0.3816  0.2144  0.0481
  743MPD2    H711042   0.592   4.234   1.678  0.2864  1.0552 -0.2706
  744TMC3    C111043   0.693   4.230   1.451  0.0391  0.3686  0.2156
  744TMC3    C211044   0.568   4.272   1.435  0.0018 -0.2008 -0.1527
  744TMC3    C311045   0.509   4.284   1.311 -0.0014  0.1638  0.5023
  744TMC3    C411046   0.773   4.216   1.342  0.1669 -0.0862  0.6012
  744TMC3    C511047   0.720   4.236   1.219  0.5265  1.1268 -0.5409
  744TMC3    C611048   0.586   4.269   1.197 -0.3042  0.0319  0.4465
  744TMC3     C11049   0.766   4.238   1.578  0.7703 -0.5645 -0.2700
  744TMC3     O11050   0.889   4.246   1.566  0.4748 -0.2019  0.1796
  744TMC3     H11051   0.518   4.300   1.528  0.4138 -1.8224  0.5613
  744TMC3    H111052   0.875   4.180   1.341 -0.3672 -1.5439 -0.5163
  744TMC3    H211053   0.549   4.303   1.102 -0.1827  1.3271  0.8555
  744TMC3    C711054   0.807   4.212   1.110 -0.1937 -0.2785 -0.1373
  744TMC3    C811055   0.373   4.330   1.314  0.3299 -0.4501 -0.1209
  744TMC3    O111056   0.925   4.186   1.130 -0.0030 -0.6831  0.1896
  744TMC3    O211057   0.334   4.384   1.419  0.1219  0.5106  0.1931
  745TMC3    C111058   2.960   1.986  13.542 -0.0955  0.3875 -0.3055
  745TMC3    C211059   2.845   2.024  13.602 -0.6021 -0.6647  0.0043
  745TMC3    C311060   2.733   2.040  13.529 -0.6690 -0.8560 -0.3110
  745TMC3    C411061   2.954   1.954  13.411  0.0937  0.4736 -0.0885
  745TMC3    C511062   2.839   1.979  13.337  0.2081 -0.2099  0.0934
  745TMC3    C611063   2.721   2.029  13.394  0.1714  0.4220  0.3003
  745TMC3     C11064   3.091   1.974  13.611 -0.8208 -1.0542 -0.0924
  745TMC3     O11065   3.174   1.896  13.578 -0.4464  0.2078 -0.6441
  745TMC3     H11066   2.846   2.015  13.710 -0.5772 -1.6023 -0.0754
  745TMC3    H111067   3.048   1.915  13.375 -0.5229 -0.2051 -0.9492
  745TMC3    H211068   2.626   2.041  13.344 -1.4944 -0.7971  3.1590
  745TMC3    C711069   2.860   2.028  13.203 -0.5074 -0.2685  0.4111
  745TMC3    C811070   2.622   2.050  13.614  0.0684 -0.1696  0.1520
  745TMC3    O111071   2.767   2.030  13.123  0.2009 -0.0181  0.7662
  745TMC3    O211072   2.528   1.977  13.595  0.4975 -0.0985  0.6460
  746TMC3    C111073   0.662   3.899  11.002  0.2618  0.1552 -0.4354
  746TMC3    C211074   0.701   3.927  10.878  0.4403  0.2237  0.4335
  746TMC3    C311075   0.631   3.878  10.774 -0.3442  0.5500 -0.0357
  746TMC3    C411076   0.557   3.815  11.026  0.2570 -0.0384  1.1102
  746TMC3    C511077   0.483   3.768  10.920  0.0272 -0.5556  0.1040
  746TMC3    C611078   0.522   3.797  10.790 -0.2503 -0.4846  0.6298
  746TMC3     C11079   0.684   4.007  11.094  0.2448  0.7673  0.8322
  746TMC3     O11080   0.631   4.006  11.205 -0.8876 -0.4253 -0.4207
  746TMC3     H11081   0.789   3.986  10.854  0.0566  1.2356  1.5080
  746TMC3    H111082   0.518   3.809  11.127  0.6889 -1.5711  1.1782
  746TMC3    H211083   0.453   3.784  10.708  0.8430 -0.1544 -0.3545
  746TMC3    C711084   0.353   3.713  10.940  0.2810 -0.1759  0.0874
  746TMC3    C811085   0.627   3.959  10.655  0.5224 -0.4812  0.4321
  746TMC3    O111086   0.262   3.744  10.861  0.0457 -0.2272 -0.5466
  746TMC3    O211087   0.609   3.896  10.555  0.4418 -0.5693  0.0785
  747TMC3    C111088   3.229   4.028  11.017 -0.2294 -0.5935 -0.1209
  747TMC3    C211089   3.166   3.929  11.080 -0.4559  0.3870 -0.5639
  747TMC3    C311090   3.144   3.944  11.216 -0.0398 -0.0538  0.4098
  747TMC3    C411091   3.274   4.135  11.086 -0.1071  0.0386 -0.3820
  747TMC3    C511092   3.243   4.151  11.213  0.0811  0.0172 -0.2376
  747TMC3    C611093   3.183   4.055  11.288  0.4868  0.2678  1.0553
  747TMC3     C11094   3.236   4.033  10.873  0.2595  0.0948 -0.3418
  747TMC3     O11095   3.265   4.138  10.814  0.5596 -0.1812 -0.5821
  747TMC3     H11096   3.143   3.834  11.034  2.2939  1.3647 -3.9468
  747TMC3    H111097   3.327   4.215  11.034 -0.0593 -0.5092 -1.1804
  747TMC3    H211098   3.164   4.062  11.394 -0.8722  2.7047  0.6634
  747TMC3    C711099   3.328   4.244  11.289  0.9610  0.2002  0.2034
  747TMC3    C811100   3.083   3.831  11.288  0.5198 -0.1052  0.5438
  747TMC3    O111101   3.295   4.290  11.397 -0.0895  0.0498  0.5803
  747TMC3    O211102   3.078   3.725  11.227  0.4685  0.8106  0.5582
  748MPD2     C11103   0.699   1.259   2.050 -0.1067 -0.3696  0.8590
  748MPD2    C111104   0.677   1.125   2.081 -0.0786 -0.9840  0.9927
  748MPD2    C211105   0.739   1.029   2.003  0.4162 -0.0719 -1.6485
  748MPD2    C311106   0.805   1.067   1.889 -0.4378  0.3882  0.3957
  748MPD2    C411107   0.821   1.201   1.857 -0.0754  0.4476 -0.1172
  748MPD2    C511108   0.774   1.301   1.945 -0.6234 -0.8732 -0.5806
  748MPD2     H11109   0.712   0.926   2.019  0.6485 -0.1610 -1.8334
  748MPD2    H111110   0.866   1.234   1.765 -2.2194 -0.4164 -1.4821
  748MPD2    H211111   0.656   1.332   2.117  1.9774  0.4958  1.2627
  748MPD2    H311112   0.777   1.408   1.928 -0.7295 -0.6635  0.6617
  748MPD2     N11113   0.867   0.971   1.811  0.6987 -0.3345 -0.5635
  748MPD2    H511114   0.874   0.875   1.842  1.8888 -0.1758 -0.3474
  748MPD2    N111115   0.583   1.090   2.184  0.3089  0.3030 -0.5216
  748MPD2    H711116   0.534   1.169   2.224  0.6787  0.4841 -0.4235
  749TMC3    C111117   0.989   0.865   1.642 -0.4683  0.0220 -0.3633
  749TMC3    C211118   1.065   0.791   1.735  0.5142 -0.1253  0.1519
  749TMC3    C311119   1.164   0.716   1.681  0.1750  0.3113 -0.3543
  749TMC3    C411120   1.000   0.846   1.506 -0.5487 -0.2302 -0.2311
  749TMC3    C511121   1.092   0.755   1.467  0.1959  0.5149  0.3802
  749TMC3    C611122   1.178   0.692   1.549  0.7784  0.8860 -0.0894
  749TMC3     C11123   0.921   0.986   1.680  1.3344 -1.0105  0.2037
  749TMC3     O11124   0.913   1.076   1.598  0.0308 -0.1267  0.7604
  749TMC3     H11125   1.052   0.809   1.841  1.0010  1.4144 -0.0561
  749TMC3    H111126   0.944   0.906   1.435 -0.5594 -0.1543 -0.1583
  749TMC3    H211127   1.256   0.635   1.501 -1.6029 -0.1314 -2.7594
  749TMC3    C711128   1.119   0.744   1.327 -0.0219  0.6434  0.2255
  749TMC3    C811129   1.256   0.654   1.775  0.2952  0.2115 -0.6819
  749TMC3    O111130   1.145   0.847   1.265 -0.2535  0.9687  0.8541
  749TMC3    O211131   1.286   0.736   1.863 -0.5108  0.7907  0.3456
  750MPD2     C11132   0.314   1.533  11.645 -0.1772  0.0342 -0.1452
  750MPD2    C111133   0.312   1.439  11.748  0.0063  0.5832  0.1556
  750MPD2    C211134   0.370   1.319  11.737 -0.0038 -0.2374 -0.3438
  750MPD2    C311135   0.429   1.285  11.622  0.3073  0.4981 -0.0772
  750MPD2    C411136   0.420   1.370  11.516 -0.0771 -0.9915 -0.3328
  750MPD2    C511137   0.369   1.493  11.527 -0.5218  0.4129 -0.1552
  750MPD2     H11138   0.360   1.247  11.818  0.1723  0.1135 -0.0117
  750MPD2    H111139   0.449   1.330  11.420 -0.6006 -0.4490 -0.7234
  750MPD2    H211140   0.266   1.628  11.666  0.0722 -0.2999  1.8737
  750MPD2    H311141   0.379   1.565  11.446 -0.9171  0.6211 -0.0167
  750MPD2     N11142   0.497   1.163  11.601 -0.5158 -0.7085  0.2950
  750MPD2    H511143   0.524   1.144  11.505  0.1074 -0.7959  0.4893
  750MPD2    N111144   0.252   1.484  11.865 -0.0010 -0.0576 -0.5621
  750MPD2    H711145   0.218   1.579  11.873  0.7687  0.4088 -2.7818
  751TMC3    C111146   0.533   0.921  11.641  0.2627 -0.4901  0.8733
  751TMC3    C211147   0.493   0.822  11.720  1.3141 -0.2269  0.5867
  751TMC3    C311148   0.499   0.691  11.668  0.3195 -0.1637  0.3109
  751TMC3    C411149   0.583   0.899  11.520  0.7889  0.0668 -0.2337
  751TMC3    C511150   0.604   0.764  11.476  0.6861 -0.0698 -0.0797
  751TMC3    C611151   0.559   0.663  11.552 -0.2035 -0.5643 -0.4867
  751TMC3     C11152   0.521   1.060  11.692 -0.9912  0.1134  0.6412
  751TMC3     O11153   0.530   1.074  11.815  0.0678  0.5064 -0.0811
  751TMC3     H11154   0.442   0.856  11.810  0.4932 -1.5780  0.6298
  751TMC3    H111155   0.624   0.982  11.463  1.7031  0.1040  0.4907
  751TMC3    H211156   0.554   0.559  11.522 -1.8142 -0.5451 -0.2621
  751TMC3    C711157   0.635   0.738  11.338 -0.1083 -0.7340 -0.4850
  751TMC3    C811158   0.417   0.592  11.733 -0.5337  0.3837  0.6230
  751TMC3    O111159   0.708   0.818  11.279  0.3493  0.0765 -0.2885
  751TMC3    O211160   0.416   0.478  11.690  0.3966  0.5523  0.5045
  752TMC3    C111161   4.591   1.758  17.599 -0.7966  0.5420 -0.1734
  752TMC3    C211162   4.581   1.618  17.605  0.3760  0.4759 -0.0129
  752TMC3    C311163   4.546   1.571  17.729  0.3455  0.0870  0.3154
  752TMC3    C411164   4.578   1.839  17.699 -0.7346  0.5267  0.3984
  752TMC3    C511165   4.541   1.792   0.088 -1.1934 -0.2745 -0.5695
  752TMC3    C611166   4.517   1.651   0.099  0.1803 -0.1307  0.3251
  752TMC3     C11167   4.625   1.810  17.470 -0.4443 -0.7262  0.0194
  752TMC3     O11168   4.657   1.929  17.473  0.1282  0.1383  0.3281
  752TMC3     H11169   4.614   1.557  17.522  0.1721 -0.1713  0.3878
  752TMC3    H111170   4.574   1.946  17.684 -0.1925  0.5966  0.7524
  752TMC3    H211171   4.480   1.612   0.193 -0.4679 -0.5283 -0.0948
  752TMC3    C711172   4.567   1.865   0.209  0.5958 -0.0035 -0.5762
  752TMC3    C811173   4.523   1.420   0.016  0.4851 -0.1588 -0.7555
  752TMC3    O111174   4.612   1.811   0.308 -0.4978  0.0668 -0.2233
  752TMC3    O211175   4.513   1.379   0.133  0.3594 -0.2751 -0.0810
  753TMC3    C111176   1.117   1.776  13.922  0.1018  0.2025 -0.3536
  753TMC3    C211177   1.228   1.810  13.989 -0.1422 -0.7585  0.2604
  753TMC3    C311178   1.348   1.772  13.932 -0.0277  0.5190 -0.1779
  753TMC3    C411179   1.126   1.725  13.796 -0.2814  0.2102 -0.2583
  753TMC3    C511180   1.244   1.689  13.741 -0.4116 -0.7184 -0.3720
  753TMC3    C611181   1.353   1.706  13.812 -0.7352 -0.2488  0.1422
  753TMC3     C11182   0.984   1.817  13.973 -0.5926  0.3107 -0.1097
  753TMC3     O11183   0.899   1.845  13.884  0.2231 -0.6734 -0.1933
  753TMC3     H11184   1.205   1.852  14.086 -0.9239 -0.7045  0.0541
  753TMC3    H111185   1.038   1.693  13.740 -0.8806  3.4944 -1.1580
  753TMC3    H211186   1.449   1.674  13.775 -0.8688  1.7224 -1.9167
  753TMC3    C711187   1.260   1.615  13.619  0.4918  0.4344  0.3660
  753TMC3    C811188   1.472   1.801  13.997  0.2910  0.5042  0.6952
  753TMC3    O111189   1.358   1.549  13.616 -0.0768 -0.4086  0.3350
  753TMC3    O211190   1.572   1.742  13.961 -0.3852  0.2760 -0.4826
  754MPD2     C11191   0.279   1.047  13.410 -0.0633  0.2999  0.1257
  754MPD2    C111192   0.286   0.923  13.361  0.3541 -0.0966 -0.2690
  754MPD2    C211193   0.166   0.858  13.351  0.1430  0.1202  0.0319
  754MPD2    C311194   0.052   0.904  13.403 -0.3746 -0.2866  0.1893
  754MPD2    C411195   0.052   1.035  13.455 -0.0410  0.8655 -0.9154
  754MPD2    C511196   0.167   1.104  13.457 -0.3231  1.0035 -0.2823
  754MPD2     H11197   0.164   0.772  13.286 -3.3029  0.6629 -0.5765
  754MPD2    H111198   4.694   1.074  13.498  0.0212  2.2591 -2.0861
  754MPD2    H211199   0.369   1.107  13.415  0.8300 -1.0913  0.7893
  754MPD2    H311200   0.171   1.210  13.481  2.0825  1.0551 -0.9569
  754MPD2     N11201   4.666   0.829  13.403 -0.2199  0.2417 -0.5942
  754MPD2    H511202   4.586   0.870  13.450 -0.7435 -0.9071 -0.4889
  754MPD2    N111203   0.418   0.863  13.336 -0.3066  0.3322  0.0296
  754MPD2    H711204   0.497   0.927  13.326 -1.0945  1.2982 -0.0252
  755MPD2     C11205   4.035   1.170  13.807  0.0665  0.2119 -0.2203
  755MPD2    C111206   3.952   1.069  13.748 -0.0556 -0.1376  0.3641
  755MPD2    C211207   4.014   0.977  13.665 -0.5437 -0.2935 -0.3993
  755MPD2    C311208   4.149   0.988  13.635 -0.2712  0.0837  0.0376
  755MPD2    C411209   4.219   1.100  13.680  0.0822  0.3946 -0.7642
  755MPD2    C511210   4.163   1.195  13.757 -0.1301  0.2359  0.2720
  755MPD2     H11211   3.947   0.901  13.625  0.0907 -0.9118 -0.2897
  755MPD2    H111212   4.325   1.097  13.657  0.0897  1.3720 -0.8634
  755MPD2    H211213   3.989   1.244  13.871  0.7769  0.4494  0.0238
  755MPD2    H311214   4.212   1.286  13.793  0.9207 -0.2299  0.0210
  755MPD2     N11215   4.224   0.896  13.557 -0.5239  0.6761  0.2888
  755MPD2    H511216   4.310   0.937  13.523  0.5495  0.1866  2.3672
  755MPD2    N111217   3.816   1.045  13.783  0.0493 -0.3333 -0.0515
  755MPD2    H711218   3.763   0.968  13.743  0.9012  0.0185 -1.8624
  756MPD2     C11219   0.467   2.029  10.250  0.1145 -0.2127 -0.4703
  756MPD2    C111220   0.354   1.975  10.194 -0.7889  0.4817 -0.2741
  756MPD2    C211221   0.319   2.026  10.070 -0.1566  1.0704 -0.8176
  756MPD2    C311222   0.396   2.118  10.004 -0.1973  0.6515  0.1238
  756MPD2    C411223   0.515   2.162  10.058  0.4369  0.3153  0.2239
  756MPD2    C511224   0.546   2.124  10.186 -0.8655 -0.0516  0.0599
  756MPD2     H11225   0.230   1.994  10.017 -2.5302  1.3390  3.0076
  756MPD2    H111226   0.580   2.233  10.008  1.1003  0.0897  0.7719
  756MPD2    H211227   0.501   1.999  10.348 -0.2878  1.3769  0.1636
  756MPD2    H311228   0.641   2.162  10.223 -0.5053 -2.1085  1.2449
  756MPD2     N11229   0.365   2.136   9.862  0.1450 -0.2632  0.1410
  756MPD2    H511230   0.279   2.099   9.823 -0.6213  0.3342  1.2579
  756MPD2    N111231   0.266   1.880  10.256 -0.1925  0.1492 -0.1014
  756MPD2    H711232   0.183   1.856  10.204 -1.1895  0.9544  1.0989
  757MPD2     C11233   4.548   1.748   9.425  0.3914 -0.1528 -0.5980
  757MPD2    C111234   4.584   1.769   9.552  0.5184  0.8942  0.4236
  757MPD2    C211235   4.670   1.874   9.577  0.6391  1.0054  0.2321
  757MPD2    C311236   0.007   1.938   9.472  0.1362  0.6541 -0.4100
  757MPD2    C411237   4.704   1.915   9.342 -0.0383 -0.1952 -0.3896
  757MPD2    C511238   4.610   1.817   9.318 -0.3742 -0.9665  0.1147
  757MPD2     H11239   4.685   1.907   9.679  0.6304 -0.6462  0.7576
  757MPD2    H111240   0.010   1.962   9.253  0.7876  0.9429  0.5879
  757MPD2    H211241   4.487   1.663   9.399  0.5845 -0.4867  0.0709
  757MPD2    H311242   4.592   1.773   9.221  2.8570  1.0921 -1.3759
  757MPD2     N11243   0.084   2.050   9.508 -0.4088 -0.1328 -0.4616
  757MPD2    H511244   0.097   2.067   9.607  3.2043  0.9229 -1.1378
  757MPD2    N111245   4.529   1.688   9.653  0.2086 -0.2938 -1.1192
  757MPD2    H711246   4.452   1.625   9.631 -0.7965  0.8162 -0.8252
  758MPD2     C11247   0.226   0.506  15.917 -0.2383 -0.5721  0.1725
  758MPD2    C111248   0.315   0.434  15.993  0.4824  0.0318  0.1395
  758MPD2    C211249   0.365   0.495  16.106  0.6434  0.1521  0.7094
  758MPD2    C311250   0.330   0.626  16.146  0.1250  0.1398 -0.0650
  758MPD2    C411251   0.240   0.697  16.072 -0.7636 -0.1806  0.5122
  758MPD2    C511252   0.190   0.635  15.954  0.3019  0.4034 -0.4557
  758MPD2     H11253   0.433   0.442  16.173  2.0505  1.3243  0.1995
  758MPD2    H111254   0.214   0.801  16.081  1.1856  0.1128  2.5816
  758MPD2    H211255   0.172   0.475  15.828 -1.6241  2.0006  0.1234
  758MPD2    H311256   0.129   0.694  15.886  0.1580 -1.2166 -1.7134
  758MPD2     N11257   0.387   0.693  16.259  0.2143  0.3968 -0.0947
  758MPD2    H511258   0.345   0.781  16.290 -1.5555  0.2095 -1.9763
  758MPD2    N111259   0.340   0.297  15.961 -0.5895 -0.1565  0.3718
  758MPD2    H711260   0.308   0.258  15.872  0.0082  2.6807 -1.0914
  759MPD2     C11261   4.352   3.400   9.933 -0.4133  0.1301 -0.0904
  759MPD2    C111262   4.247   3.459   9.999  0.0929 -0.4113  0.3083
  759MPD2    C211263   4.243   3.598  10.000  0.3766  0.0478 -0.3050
  759MPD2    C311264   4.326   3.674   9.927  0.1477 -0.1892  0.1444
  759MPD2    C411265   4.433   3.615   9.862  0.5090 -0.0617  0.5111
  759MPD2    C511266   4.447   3.477   9.869 -0.3863 -0.0057  0.4278
  759MPD2     H11267   4.168   3.647  10.061 -0.2116 -0.4676 -0.6154
  759MPD2    H111268   4.502   3.680   9.808  1.0701  0.8225  2.2929
  759MPD2    H211269   4.352   3.292   9.927  0.8460  0.1464 -0.2150
  759MPD2    H311270   4.526   3.436   9.807 -0.4840  0.3859  0.0435
  759MPD2     N11271   4.301   3.814   9.927  0.2088 -0.2276 -0.0055
  759MPD2    H511272   4.220   3.837   9.984 -1.4965 -2.8535 -1.3305
  759MPD2    N111273   4.150   3.387  10.065 -0.2145  0.4557  0.5235
  759MPD2    H711274   4.085   3.450  10.111 -1.6485 -0.6825  0.0655
  760MPD2     C11275   3.415   1.433  11.838  0.0480 -0.1886 -0.9647
  760MPD2    C111276   3.536   1.451  11.883 -0.7573 -0.5232  0.1484
  760MPD2    C211277   3.597   1.341  11.954  0.6240  0.5168  0.3843
  760MPD2    C311278   3.543   1.217  11.959 -0.5494 -0.4925 -0.5695
  760MPD2    C411279   3.417   1.198  11.921  0.0008 -0.1895  0.2727
  760MPD2    C511280   3.354   1.310  11.861  0.5605 -0.1470  0.6527
  760MPD2     H11281   3.699   1.349  11.991  1.2004 -0.2644 -1.0498
  760MPD2    H111282   3.368   1.102  11.935  1.0560 -1.0606 -1.9421
  760MPD2    H211283   3.351   1.513  11.803 -1.1334  0.0022  1.6827
  760MPD2    H311284   3.253   1.291  11.826  0.2534  0.2588  1.3232
  760MPD2     N11285   3.615   1.114  12.022 -0.1419  0.1017  0.1369
  760MPD2    H511286   3.707   1.136  12.059  0.0670 -0.0653 -0.2806
  760MPD2    N111287   3.592   1.578  11.897  0.5372 -0.2294  0.2521
  760MPD2    H711288   3.680   1.578  11.949  1.7964 -2.4479 -1.8988
  761MPD2     C11289   4.649   0.513  11.872 -0.4448  0.0529 -0.7385
  761MPD2    C111290   0.002   0.437  11.791  0.1085 -0.5921  0.7085
  761MPD2    C211291   0.136   0.479  11.772 -0.0956 -0.5136  0.5954
  761MPD2    C311292   0.188   0.592  11.840 -0.2454  0.0007 -0.4686
  761MPD2    C411293   0.096   0.665  11.916 -0.0695 -0.2014  0.2614
  761MPD2    C511294   4.699   0.623  11.928 -0.5650  0.2593  0.1126
  761MPD2     H11295   0.197   0.419  11.705 -0.0279 -1.6614  1.6869
  761MPD2    H111296   0.116   0.761  11.961  1.7040  0.8019 -2.6689
  761MPD2    H211297   4.546   0.485  11.888 -0.0192 -0.2805  1.3350
  761MPD2    H311298   4.628   0.691  11.974 -0.8471 -1.1196  1.7023
  761MPD2     N11299   0.315   0.650  11.809 -0.5181  0.4753  0.5084
  761MPD2    H511300   0.330   0.742  11.848  1.7451  0.0200  0.7287
  761MPD2    N111301   4.681   0.330  11.723 -0.3650 -0.1771 -0.1070
  761MPD2    H711302   4.584   0.306  11.743 -0.9908  1.5753 -0.9472
  762MPD2     C11303   0.426   0.229  11.421 -0.3635 -0.1175  0.3784
  762MPD2    C111304   0.348   0.170  11.317 -0.8963  0.0168  0.2845
  762MPD2    C211305   0.411   0.170  11.195  0.0631  0.7710 -0.5023
  762MPD2    C311306   0.540   0.207  11.177 -0.3132  0.2016  1.0837
  762MPD2    C411307   0.606   0.276  11.273  0.3649  0.1831 -0.3268
  762MPD2    C511308   0.551   0.274  11.398  0.6259 -0.1918  0.0627
  762MPD2     H11309   0.351   0.144  11.109  0.0544 -2.5135  0.4974
  762MPD2    H111310   0.702   0.327  11.265  0.4775 -0.0665 -0.5396
  762MPD2    H211311   0.380   0.232  11.519 -0.9982  0.9240  0.0538
  762MPD2    H311312   0.603   0.330  11.474 -2.0205 -1.0934  2.5331
  762MPD2     N11313   0.598   0.182  11.051 -0.1387  0.0643  0.1724
  762MPD2    H511314   0.540   0.150  10.974 -0.3946 -0.5832  0.6362
  762MPD2    N111315   0.218   0.132  11.355  0.3486  0.3361  0.5594
  762MPD2    H711316   0.191   0.146  11.452  1.1197  0.7740  0.7167
  763MPD2     C11317   2.361   0.331  16.194 -0.0894 -0.8874  0.8691
  763MPD2    C111318   2.272   0.411  16.116  0.2773 -0.3445  0.7162
  763MPD2    C211319   2.267   0.542  16.163  0.2298  0.5439 -0.0229
  763MPD2    C311320   2.358   0.595  16.260  0.2948 -0.1335 -0.5905
  763MPD2    C411321   2.451   0.513  16.319 -0.2322  0.4888 -0.2223
  763MPD2    C511322   2.444   0.377  16.297  0.4109 -0.1310  0.3441
  763MPD2     H11323   2.200   0.608  16.108 -2.4177  0.3280  2.9227
  763MPD2    H111324   2.524   0.553  16.388  0.1876 -1.7881  0.6604
  763MPD2    H211325   2.380   0.229  16.162  2.3904 -0.7747  1.9446
  763MPD2    H311326   2.516   0.312  16.345 -0.6512 -0.9835  0.8007
  763MPD2     N11327   2.376   0.726  16.287 -0.3778  0.0957 -0.1647
  763MPD2    H511328   2.453   0.758  16.345 -0.8932  0.7174  0.1788
  763MPD2    N111329   2.192   0.368  16.008 -0.2934  0.5537 -0.0097
  763MPD2    H711330   2.110   0.421  15.981  0.1944  0.7615 -1.0769
  764MPD2     C11331   0.684   2.193   0.049  0.8227  0.1321  0.5426
  764MPD2    C111332   0.629   2.095  17.701  0.6365  0.0343  0.0776
  764MPD2    C211333   0.600   1.970   0.015  0.1425  0.0389 -0.2981
  764MPD2    C311334   0.612   1.937   0.149 -0.0720  0.2288 -0.4708
  764MPD2    C411335   0.682   2.031   0.219  0.1155 -0.1098 -0.2873
  764MPD2    C511336   0.700   2.158   0.178  0.1507  0.0629 -0.2231
  764MPD2     H11337   0.563   1.900  17.678 -1.2711 -1.3305  1.7318
  764MPD2    H111338   0.703   2.021   0.325 -1.6240  0.5391  0.1099
  764MPD2    H211339   0.714   2.294   0.024 -0.5639  0.5011  0.3873
  764MPD2    H311340   0.741   2.229   0.250 -2.0552  0.4338  0.6796
  764MPD2     N11341   0.561   1.818   0.207 -0.1965  0.2638  0.0532
  764MPD2    H511342   0.541   1.816   0.307  1.2033  0.6282  0.3338
  764MPD2    N111343   0.594   2.124  17.563 -0.3120 -0.2677 -0.7510
  764MPD2    H711344   0.559   2.045  17.510 -1.4529 -0.5504  0.4212
  765MPD2     C11345   0.178   4.435  16.116  0.3120  0.1575 -0.5650
  765MPD2    C111346   0.186   4.519  16.007 -0.1137  0.4278  0.3253
  765MPD2    C211347   0.280   4.499  15.907 -0.2025  0.0407  0.3072
  765MPD2    C311348   0.380   4.408  15.931 -0.6316 -0.3940 -0.2539
  765MPD2    C411349   0.379   4.335  16.050 -0.0733 -0.6113  0.6886
  765MPD2    C511350   0.265   4.336  16.132  0.2949 -0.2573 -0.6198
  765MPD2     H11351   0.279   4.569  15.824 -0.1097  0.2715  0.5005
  765MPD2    H111352   0.455   4.259  16.070 -1.9520 -1.9409  2.7253
  765MPD2    H211353   0.085   4.428  16.172  0.1677  3.5219 -0.3692
  765MPD2    H311354   0.264   4.266  16.215 -0.7277  1.2078  0.5946
  765MPD2     N11355   0.475   4.391  15.829  0.5180  0.2346  0.4347
  765MPD2    H511356   0.439   4.437  15.746 -1.9073  0.1416  1.4220
  765MPD2    N111357   0.094   4.628  16.014  0.2581  1.1057  0.2483
  765MPD2    H711358   0.017   4.628  16.080 -0.5397  0.4290 -0.6864
  766MPD2     C11359   4.043   4.717  15.744  0.0608 -0.6151 -0.3121
  766MPD2    C111360   4.176   4.710  15.734  0.4019 -0.8888  0.2159
  766MPD2    C211361   4.226   4.697  15.604  0.2073 -0.8046  0.2582
  766MPD2    C311362   4.147   4.669  15.499 -0.5521  0.5401  0.9130
  766MPD2    C411363   4.009   4.665  15.507 -0.0958  0.6462  0.4298
  766MPD2    C511364   3.963   4.703  15.630 -0.4190  0.6615  0.5579
  766MPD2     H11365   4.334   4.705  15.596 -0.1344  4.4394  0.9306
  766MPD2    H111366   3.939   4.662  15.424  1.2088  1.2129 -0.6913
  766MPD2    H211367   3.983   4.732  15.833  0.9890 -1.4618  0.4661
  766MPD2    H311368   3.857   4.725  15.635 -0.1936  1.3298  2.2798
  766MPD2     N11369   4.196   4.653  15.368 -0.1083  0.0742  0.0915
  766MPD2    H511370   4.130   4.652  15.291  0.1721 -0.9049 -0.1427
  766MPD2    N111371   4.260   0.008  15.840 -0.0363  0.4575  0.5777
  766MPD2    H711372   4.213   0.049  15.920  0.7438 -0.4249  1.4944
  767MPD2     C11373   3.807   0.198  15.289  0.0013 -0.9426  0.3955
  767MPD2    C111374   3.913   0.223  15.209 -0.0316  0.2048 -0.0060
  767MPD2    C211375   3.920   0.182  15.080 -0.0117 -0.0537 -0.0935
  767MPD2    C311376   3.808   0.114  15.033  0.3440 -0.2057  0.6099
  767MPD2    C411377   3.707   0.075  15.120  0.1705  0.5832 -0.4635
  767MPD2    C511378   3.705   0.124  15.244 -0.1260  0.4186  0.5287
  767MPD2     H11379   4.003   0.210  15.016  0.1127 -0.0097  0.0867
  767MPD2    H111380   3.623   0.010  15.098  1.8633 -1.8843  0.3201
  767MPD2    H211381   3.803   0.244  15.388 -1.7324  0.9764 -0.5770
  767MPD2    H311382   3.624   0.101  15.313 -2.1355  0.9604 -1.6206
  767MPD2     N11383   3.809   0.079  14.897  0.0335  0.0314  0.8016
  767MPD2    H511384   3.896   0.094  14.846 -1.5472  0.9668 -1.6215
  767MPD2    N111385   4.022   0.294  15.259 -0.2819  0.4904 -0.4524
  767MPD2    H711386   4.098   0.321  15.197  1.4905 -3.0589  0.2115
  768MPD2     C11387   0.096   3.587  10.542 -0.2179 -0.1427  0.0848
  768MPD2    C111388   0.067   3.501  10.649  0.1443  0.1263  0.6114
  768MPD2    C211389   0.169   3.433  10.717  0.8126 -0.1334  0.1701
  768MPD2    C311390   0.301   3.448  10.684 -0.0136  1.0071  0.4722
  768MPD2    C411391   0.333   3.535  10.582  0.1358 -0.2435 -1.0957
  768MPD2    C511392   0.232   3.609  10.513 -0.4863 -0.4349  0.3638
  768MPD2     H11393   0.139   3.380  10.807  0.4646  0.8350  0.6200
  768MPD2    H111394   0.437   3.541  10.552  0.0507  1.9255 -0.9632
  768MPD2    H211395   0.019   3.636  10.484 -2.4641 -0.4421  2.7650
  768MPD2    H311396   0.244   3.667  10.423 -0.1713  0.7617  1.1678
  768MPD2     N11397   0.410   3.410  10.759  0.1736  0.2447 -0.6089
  768MPD2    H511398   0.494   3.460  10.732  1.4083 -0.0817  2.6113
  768MPD2    N111399   4.667   3.470  10.681  1.1102  0.8440  0.1422
  768MPD2    H711400   4.651   3.386  10.736  0.4158  0.2418 -0.9739
  769MPD2     C11401   1.551   1.110  15.091  0.0795  0.1858  0.6369
  769MPD2    C111402   1.423   1.150  15.116 -0.0513 -0.0742  0.0222
  769MPD2    C211403   1.411   1.279  15.176 -0.0892 -0.5804 -0.0334
  769MPD2    C311404   1.522   1.364  15.204  0.3588 -0.0313  0.5731
  769MPD2    C411405   1.645   1.309  15.186  0.5577 -0.8705  0.3965
  769MPD2    C511406   1.657   1.179  15.143 -0.5750 -0.3084  0.4254
  769MPD2     H11407   1.310   1.314  15.195  1.2804  2.0060  2.3640
  769MPD2    H111408   1.735   1.362  15.217  0.3608 -0.3556  0.0995
  769MPD2    H211409   1.567   1.012  15.046 -0.1811  0.8287 -0.8841
  769MPD2    H311410   1.758   1.144  15.156 -0.5774 -0.5415 -0.1539
  769MPD2     N11411   1.487   1.488  15.265  0.1879 -0.1023 -0.0037
  769MPD2    H511412   1.389   1.501  15.288 -0.0664  0.1740 -1.2547
  769MPD2    N111413   1.306   1.065  15.094  0.5670  0.0627 -0.4469
  769MPD2    H711414   1.335   0.973  15.064 -1.5522 -1.1152  1.1642
  770MPD2     C11415   0.844   0.296  14.617 -0.1514 -1.1621 -0.2732
  770MPD2    C111416   0.793   0.302  14.749  0.4569 -0.0790 -0.3519
  770MPD2    C211417   0.831   0.401  14.834  0.6119 -1.1356 -0.7728
  770MPD2    C311418   0.912   0.498  14.794  0.1590 -0.9210  0.1083
  770MPD2    C411419   0.967   0.494  14.667  0.8510 -0.5231  1.0784
  770MPD2    C511420   0.933   0.393  14.576  0.3562 -0.4862  0.3850
  770MPD2     H11421   0.796   0.396  14.937  1.4193  0.0986 -0.4393
  770MPD2    H111422   1.033   0.573  14.633 -1.7216  0.0377 -2.7286
  770MPD2    H211423   0.813   0.221  14.545  3.4739 -1.1852 -1.7761
  770MPD2    H311424   0.971   0.399  14.474  0.7166 -0.4015  0.5243
  770MPD2     N11425   0.951   0.589  14.898  0.5412  0.1094  0.2158
  770MPD2    H511426   0.916   0.558  14.988  1.7947 -2.3572 -0.1524
  770MPD2    N111427   0.701   0.202  14.795  0.2237 -0.8945 -0.2798
  770MPD2    H711428   0.703   0.117  14.739  0.5507 -1.2327  0.2508
  771MPD2     C11429   2.090   3.815  13.510 -0.1073 -0.3767  0.0198
  771MPD2    C111430   1.999   3.908  13.469 -0.5096  0.8508  0.1875
  771MPD2    C211431   1.863   3.868  13.474 -0.0510  0.2015  0.3499
  771MPD2    C311432   1.821   3.740  13.507  0.0234 -0.0331  0.3109
  771MPD2    C411433   1.917   3.645  13.542 -0.9725 -0.2046 -0.2107
  771MPD2    C511434   2.049   3.687  13.533  0.7631  0.5736 -0.6603
  771MPD2     H11435   1.780   3.934  13.454  0.6772  1.6949  2.3327
  771MPD2    H111436   1.895   3.539  13.550  3.7114 -1.1140  1.0152
  771MPD2    H211437   2.197   3.833  13.509 -0.4102  1.2917 -1.8802
  771MPD2    H311438   2.131   3.617  13.545  0.9632  0.6935 -1.3485
  771MPD2     N11439   1.681   3.706  13.485 -0.8963  0.4260  0.5583
  771MPD2    H511440   1.624   3.776  13.440  0.5217  0.5596 -1.0209
  771MPD2    N111441   2.027   4.045  13.445  0.0575 -0.2296 -0.2486
  771MPD2    H711442   1.946   4.102  13.425  0.1197 -0.3045 -0.7176
  772MPD2     C11443   1.697   4.596  13.683  0.2762  0.3848  0.2224
  772MPD2    C111444   1.713   4.477  13.619  0.1332 -0.6677  0.1896
  772MPD2    C211445   1.616   4.381  13.619 -0.4526  0.2374  0.9023
  772MPD2    C311446   1.500   4.411  13.685 -0.5988 -0.4736  0.5836
  772MPD2    C411447   1.483   4.531  13.753  0.2124  0.2811  0.3641
  772MPD2    C511448   1.575   4.632  13.748 -0.4321  0.3652 -0.4918
  772MPD2     H11449   1.636   4.286  13.571 -2.1715  1.5593 -2.4292
  772MPD2    H111450   1.395   4.551  13.813  0.2161  1.2594  0.0573
  772MPD2    H211451   1.772   4.674  13.681  0.8010 -0.1457 -0.7221
  772MPD2    H311452   1.552   0.001  13.773  1.3876  0.7720 -0.4884
  772MPD2     N11453   1.395   4.321  13.697 -0.1688 -0.2974  0.0334
  772MPD2    H511454   1.320   4.343  13.762  0.0811  2.1373 -0.5059
  772MPD2    N111455   1.832   4.442  13.561  0.2533 -0.5111 -0.2914
  772MPD2    H711456   1.830   4.346  13.526 -0.0652 -0.5807 -0.0831
  773MPD2     C11457   1.450   1.182   0.075 -0.6493  0.3010  0.6571
  773MPD2    C111458   1.390   1.059   0.053 -0.0913  0.3007 -0.1377
  773MPD2    C211459   1.440   0.947   0.114  0.3770  0.2469 -0.9490
  773MPD2    C311460   1.542   0.956   0.204  0.0049  0.4182  0.3113
  773MPD2    C411461   1.611   1.078   0.217 -0.7078 -0.2032 -0.0474
  773MPD2    C511462   1.560   1.186   0.156  0.1203  0.6095  0.4892
  773MPD2     H11463   1.392   0.852   0.096 -0.3924  0.3960  0.2690
  773MPD2    H111464   1.700   1.098   0.276 -1.4756  0.8615  0.7571
  773MPD2    H211465   1.398   1.271   0.043 -1.2844 -0.2176  0.2305
  773MPD2    H311466   1.608   1.280   0.179  1.5735  0.3043 -1.2609
  773MPD2     N11467   1.556   0.844   0.284 -0.2051  0.1901 -0.1270
  773MPD2    H511468   1.488   0.769   0.274  0.4548 -0.2786 -1.0163
  773MPD2    N111469   1.277   1.038  17.712  0.1795  0.8569  0.1854
  773MPD2    H711470   1.261   0.940  17.690  1.3509  0.6989  0.0075
  774MPD2     C11471   0.168   4.533  13.125  1.1965  0.5079 -0.3228
  774MPD2    C111472   0.173   4.564  13.265 -0.0010  0.4460 -0.1704
  774MPD2    C211473   0.199   4.691  13.305 -0.6517  0.5111  0.2067
  774MPD2    C311474   0.223   0.058  13.216 -0.0661 -0.4870 -0.9063
  774MPD2    C411475   0.218   0.032  13.083 -0.4989 -0.2301 -0.0666
  774MPD2    C511476   0.201   4.634  13.040  0.9589  0.4786 -0.6526
  774MPD2     H11477   0.189   4.713  13.411  0.6842 -0.1562  0.4668
  774MPD2    H111478   0.227   0.113  13.012 -0.3174  0.7383  1.0610
  774MPD2    H211479   0.151   4.436  13.081 -0.1327  1.8281 -2.7584
  774MPD2    H311480   0.195   4.622  12.932  3.1573  0.4403 -0.7673
  774MPD2     N11481   0.249   0.188  13.275  0.5877 -0.2692  0.2418
  774MPD2    H511482   0.227   0.194  13.374  0.0602  0.1568  0.0976
  774MPD2    N111483   0.154   4.454  13.353 -0.4125  0.1277 -0.0375
  774MPD2    H711484   0.124   4.367  13.308  0.3123 -0.4086  0.5174
  775MPD2     C11485   1.239   1.282  15.664  0.3262  0.0780  0.4168
  775MPD2    C111486   1.307   1.368  15.743 -0.6440  0.3686  0.6060
  775MPD2    C211487   1.441   1.381  15.708 -0.3350  0.4020  0.5237
  775MPD2    C311488   1.508   1.304  15.611 -0.3523  0.6448 -0.4375
  775MPD2    C411489   1.430   1.220  15.536  0.3214  0.1534 -0.0270
  775MPD2    C511490   1.302   1.209  15.563  0.7188 -0.9870 -0.4464
  775MPD2     H11491   1.502   1.457  15.757  0.2754  0.1333  0.1767
  775MPD2    H111492   1.467   1.156  15.456 -0.1585 -1.1155  0.7672
  775MPD2    H211493   1.131   1.275  15.674  0.1183  0.1410 -1.7941
  775MPD2    H311494   1.241   1.138  15.508 -0.6103 -1.3096  1.4236
  775MPD2     N11495   1.646   1.314  15.583  0.4899 -0.0378 -0.7252
  775MPD2    H511496   1.681   1.271  15.498  0.0985  2.5141 -2.1472
  775MPD2    N111497   1.246   1.438  15.842  0.1805  0.5561 -0.2440
  775MPD2    H711498   1.145   1.429  15.854  0.3337  1.1346  1.4718
  776MPD2     C11499   4.248   1.642  12.171 -0.1682 -0.1888 -0.1990
  776MPD2    C111500   4.373   1.695  12.141  0.4700  0.0800 -0.1127
  776MPD2    C211501   4.381   1.817  12.074 -0.0649 -0.0622 -0.1866
  776MPD2    C311502   4.274   1.894  12.040  0.2428  0.6768  0.5951
  776MPD2    C411503   4.153   1.848  12.082  0.1882 -0.0765 -0.1671
  776MPD2    C511504   4.141   1.721  12.132 -0.2910 -0.7788  0.2561
  776MPD2     H11505   4.472   1.869  12.049  0.1912  0.4991  1.8721
  776MPD2    H111506   4.067   1.910  12.061 -0.1400 -0.6755 -0.5959
  776MPD2    H211507   4.238   1.548  12.224  2.3005 -0.8363 -0.8451
  776MPD2    H311508   4.039   1.690  12.152  0.3019 -2.7829  0.2258
  776MPD2     N11509   4.275   2.007  11.955 -0.3427  0.0951 -0.2577
  776MPD2    H511510   4.185   2.042  11.926 -0.6477  0.5666  1.2436
  776MPD2    N111511   4.488   1.622  12.170 -0.0035  0.4856 -0.2597
  776MPD2    H711512   4.473   1.530  12.211 -1.7333  1.3138  0.9356
  777MPD2     C11513   2.041   4.358   1.054  0.4640  0.2477 -0.8635
  777MPD2    C111514   1.912   4.405   1.085 -0.0632 -0.0866 -0.4668
  777MPD2    C211515   1.806   4.344   1.012  0.4428 -0.1842 -0.5290
  777MPD2    C311516   1.823   4.261   0.904  0.0727  0.3634 -0.5377
  777MPD2    C411517   1.950   4.225   0.882  0.2032  0.0318 -0.6289
  777MPD2    C511518   2.057   4.266   0.951 -0.0372 -0.3373 -1.0801
  777MPD2     H11519   1.706   4.376   1.037 -0.0076 -0.6833 -1.7010
  777MPD2    H111520   1.972   4.153   0.803 -3.7137 -1.7342 -0.0809
  777MPD2    H211521   2.127   4.403   1.103 -2.0250  2.6964  1.2807
  777MPD2    H311522   2.160   4.239   0.931  1.0626  2.4756  0.7277
  777MPD2     N11523   1.701   4.228   0.836 -0.3174 -0.5091  0.1876
  777MPD2    H511524   1.609   4.261   0.861  0.2156  0.9728  0.2246
  777MPD2    N111525   1.903   4.497   1.188  0.3323  0.1785 -0.1493
  777MPD2    H711526   1.981   4.544   1.233  0.5219 -1.7815  1.5479
  778MPD2     C11527   2.248   4.452  14.749 -0.5073 -0.2390 -0.5332
  778MPD2    C111528   2.186   4.355  14.665 -0.3808  0.2696  0.1387
  778MPD2    C211529   2.207   4.372  14.531  0.5734  0.6357  0.8668
  778MPD2    C311530   2.283   4.475  14.476  0.0927 -0.6117 -0.2639
  778MPD2    C411531   2.337   4.571  14.563 -0.4163  0.3152  0.2593
  778MPD2    C511532   2.327   4.554  14.697  0.8754  0.4715 -0.2984
  778MPD2     H11533   2.165   4.301  14.461  0.8313  0.8824  0.4598
  778MPD2    H111534   2.392   4.660  14.535 -0.8261  1.2490  2.3870
  778MPD2    H211535   2.233   4.446  14.856  2.9170 -2.9803 -0.1907
  778MPD2    H311536   2.372   4.625  14.766  1.5924 -0.5324  0.2658
  778MPD2     N11537   2.298   4.480  14.337  0.5078 -0.2194 -0.3023
  778MPD2    H511538   2.249   4.405  14.290  0.0485  2.3747 -3.9205
  778MPD2    N111539   2.103   4.247  14.699  0.0956 -0.1164  0.6498
  778MPD2    H711540   2.053   4.200  14.625  2.5290 -0.5930 -0.6780
  779MPD2     C11541   1.119   2.929  14.527 -0.1112  0.1929 -0.1813
  779MPD2    C111542   1.248   2.901  14.505  0.2254 -0.6378  0.5507
  779MPD2    C211543   1.333   2.999  14.447 -0.1505 -0.2543  0.2231
  779MPD2    C311544   1.285   3.123  14.412 -0.3327 -0.4333 -0.0890
  779MPD2    C411545   1.152   3.142  14.421  0.1017 -0.2882 -0.4171
  779MPD2    C511546   1.076   3.053  14.487 -0.3840 -0.3567  0.5925
  779MPD2     H11547   1.435   2.966  14.432  0.4413  2.1446 -0.9721
  779MPD2    H111548   1.106   3.234  14.386 -0.9636 -0.7271 -0.1755
  779MPD2    H211549   1.045   2.871  14.580 -0.1585  0.3093 -0.1210
  779MPD2    H311550   0.971   3.070  14.505 -0.1240 -1.0538  2.7791
  779MPD2     N11551   1.360   3.221  14.341  0.0913 -0.0083 -0.6909
  779MPD2    H511552   1.312   3.304  14.309 -1.5730 -0.4835  0.6184
  779MPD2    N111553   1.301   2.779  14.561 -0.5697 -0.0314 -0.6725
  779MPD2    H711554   1.395   2.759  14.526 -0.9595 -0.5007 -1.4644
  780MPD2     C11555   2.326   2.974   1.109  0.0992  0.0154 -0.3374
  780MPD2    C111556   2.213   3.028   1.072 -0.4010 -0.0005 -0.3295
  780MPD2    C211557   2.194   3.070   0.942 -0.5767  0.6365 -0.5606
  780MPD2    C311558   2.287   3.046   0.844  0.6837 -0.6271  0.0799
  780MPD2    C411559   2.404   2.992   0.883 -0.6293 -0.8475 -0.4467
  780MPD2    C511560   2.415   2.944   1.012 -0.9016 -0.1499 -0.1826
  780MPD2     H11561   2.104   3.126   0.919 -2.5074 -2.2848 -0.0503
  780MPD2    H111562   2.482   2.974   0.809  1.0646 -0.5376  1.2509
  780MPD2    H211563   2.334   2.934   1.210  0.4695  0.5425 -0.1554
  780MPD2    H311564   2.510   2.896   1.034 -0.8372 -0.4180 -1.0493
  780MPD2     N11565   2.269   3.095   0.716  0.7514  0.5539 -0.4018
  780MPD2    H511566   2.188   3.155   0.705 -0.3556 -0.6124  1.5439
  780MPD2    N111567   2.120   3.044   1.181 -0.7693  0.4470  0.6163
  780MPD2    H711568   2.157   3.022   1.273  0.3746 -0.8141 -0.1301
  781MPD2     C11569   2.986   0.049  11.851 -0.4920 -0.2862  0.1889
  781MPD2    C111570   3.052   0.084  11.962 -0.2671  0.4916  0.8532
  781MPD2    C211571   3.188   0.121  11.944 -0.1927 -0.4500 -0.1332
  781MPD2    C311572   3.248   0.102  11.820 -0.6952  0.4764  0.6286
  781MPD2    C411573   3.168   0.060  11.714  0.3182 -0.2924  0.0784
  781MPD2    C511574   3.035   0.036  11.725 -0.2913 -0.9246 -0.2568
  781MPD2     H11575   3.246   0.152  12.030  0.2114  2.8837 -1.6068
  781MPD2    H111576   3.206   0.060  11.612 -0.9837 -1.7691 -0.4094
  781MPD2    H211577   2.880   0.029  11.855 -0.1160 -2.2882  0.0618
  781MPD2    H311578   2.982   0.018  11.632 -1.9448 -2.5777  0.9942
  781MPD2     N11579   3.388   0.114  11.795  0.3972  0.6973  0.3213
  781MPD2    H511580   3.421   0.085  11.704  2.0643  0.3929  1.0272
  781MPD2    N111581   2.998   0.081  12.088  0.0134 -1.0736  0.5690
  781MPD2    H711582   3.048   0.134  12.159  1.6081  0.5814 -1.7749
  782MPD2     C11583   1.079   0.828  10.148  0.1948 -0.4139 -0.7823
  782MPD2    C111584   1.089   0.844  10.286  0.6633  0.6136  0.5274
  782MPD2    C211585   1.085   0.965  10.342 -0.3976 -0.3764 -0.0497
  782MPD2    C311586   1.072   1.076  10.267  0.5596 -0.0544 -0.0484
  782MPD2    C411587   1.067   1.064  10.130 -0.9090  0.6691  0.5409
  782MPD2    C511588   1.084   0.941  10.075 -0.1561 -0.4185 -0.2297
  782MPD2     H11589   1.099   0.974  10.449  0.1285  0.1274 -0.1579
  782MPD2    H111590   1.056   1.145  10.060  1.6177  0.3761 -0.2153
  782MPD2    H211591   1.070   0.731  10.100  1.0708 -0.6819 -0.4119
  782MPD2    H311592   1.078   0.933   9.967  1.7991 -0.5966 -0.3284
  782MPD2     N11593   1.063   1.196  10.336 -0.2196 -0.0665  0.4906
  782MPD2    H511594   1.075   1.189  10.437  0.8503 -1.2991  0.2932
  782MPD2    N111595   1.088   0.735  10.373  0.0489 -0.9130  0.0347
  782MPD2    H711596   1.120   0.745  10.469 -0.3150  0.0741  0.0513
  783MPD2     C11597   0.463   0.516  11.122  0.1068  0.4406  0.1480
  783MPD2    C111598   0.568   0.590  11.157 -0.1370  0.7788 -0.2138
  783MPD2    C211599   0.667   0.623  11.069  0.4620  0.4209  0.4909
  783MPD2    C311600   0.665   0.568  10.943  0.1423  0.2974 -0.0443
  783MPD2    C411601   0.550   0.504  10.906 -0.6430  0.2129 -0.0442
  783MPD2    C511602   0.452   0.472  10.995  0.1002  0.0216  0.8196
  783MPD2     H11603   0.752   0.682  11.103  0.6084  0.3914  0.1749
  783MPD2    H111604   0.534   0.471  10.804 -0.0061  0.1300 -0.1177
  783MPD2    H211605   0.388   0.477  11.189  1.8297 -0.9216  1.2819
  783MPD2    H311606   0.362   0.421  10.964  1.2251 -1.5667  0.1633
  783MPD2     N11607   0.780   0.582  10.860 -0.0813 -0.5252 -0.5956
  783MPD2    H511608   0.864   0.623  10.900  0.5722 -2.5913  0.1341
  783MPD2    N111609   0.567   0.626  11.291 -0.0431  0.4552 -0.1546
  783MPD2    H711610   0.489   0.600  11.351 -0.7712 -1.7339 -2.0456
  784MPD2     C11611   4.288   1.521   0.712 -0.6092  0.2523  0.4226
  784MPD2    C111612   4.236   1.590   0.817 -0.0041 -0.0391 -0.0496
  784MPD2    C211613   4.118   1.651   0.791  0.2170 -0.0443  0.0861
  784MPD2    C311614   4.049   1.629   0.676 -0.1932 -0.1346 -0.1631
  784MPD2    C411615   4.100   1.534   0.592 -0.4625 -0.2616  0.3052
  784MPD2    C511616   4.219   1.484   0.603  0.0089  0.5013 -0.6894
  784MPD2     H11617   4.068   1.690   0.879 -0.8049  0.9236 -0.9271
  784MPD2    H111618   4.041   1.505   0.505  0.1587 -1.0881  0.1569
  784MPD2    H211619   4.393   1.494   0.711 -0.3698  1.0560  4.0215
  784MPD2    H311620   4.266   1.410   0.539 -1.9476 -2.0181  0.7882
  784MPD2     N11621   3.932   1.703   0.653 -0.2123 -0.6716  0.1120
  784MPD2    H511622   3.912   1.769   0.728 -0.1425 -0.1186 -0.3573
  784MPD2    N111623   4.304   1.616   0.938 -0.2774  0.1544 -0.3328
  784MPD2    H711624   4.249   1.670   1.004  1.4868  1.9823 -0.3509
  785MPD2     C11625   3.705   4.443  10.888 -0.1985  0.0438  0.5816
  785MPD2    C111626   3.709   4.528  10.991 -0.5132 -0.6980 -0.2629
  785MPD2    C211627   3.590   4.555  11.049 -0.0851  0.5770  0.5273
  785MPD2    C311628   3.469   4.509  10.994  0.2711 -0.0010 -0.5802
  785MPD2    C411629   3.467   4.419  10.894 -0.6835  0.2464 -0.3167
  785MPD2    C511630   3.589   4.388  10.844  0.5507  0.0928  0.2735
  785MPD2     H11631   3.585   4.625  11.132 -0.6301 -0.9839  1.7990
  785MPD2    H111632   3.381   4.366  10.857 -0.9423  2.8664 -3.4681
  785MPD2    H211633   3.789   4.407  10.829 -2.0463 -1.4640 -1.1182
  785MPD2    H311634   3.594   4.316  10.764 -0.4175  1.1435 -0.7352
  785MPD2     N11635   3.348   4.557  11.056  0.2418 -0.5109 -0.9203
  785MPD2    H511636   3.353   4.611  11.142  1.0828  2.2175 -2.6772
  785MPD2    N111637   3.828   4.596  11.035 -0.0348  0.5292 -0.1319
  785MPD2    H711638   3.816   4.657  11.116 -0.7198 -0.0851  0.2352
  786MPD2     C11639   2.570   2.170  14.964 -0.2924  0.3882 -0.3064
  786MPD2    C111640   2.507   2.058  15.017  0.0678  0.1295 -0.5632
  786MPD2    C211641   2.513   2.041  15.151 -0.3202 -0.1980  0.0961
  786MPD2    C311642   2.577   2.128  15.236 -0.1823 -1.1091 -0.4561
  786MPD2    C411643   2.627   2.245  15.181 -0.3385  0.8475 -0.2401
  786MPD2    C511644   2.633   2.257  15.045  0.1294 -0.4962  0.0656
  786MPD2     H11645   2.494   1.937  15.172  1.1371 -0.6612 -0.8992
  786MPD2    H111646   2.688   2.316  15.236 -1.0748  1.3090 -0.0134
  786MPD2    H211647   2.572   2.187  14.857 -0.7512 -1.6855 -0.6540
  786MPD2    H311648   2.684   2.334  14.988 -0.1124  1.4714  2.5022
  786MPD2     N11649   2.594   2.110  15.373 -0.0180  0.0087  0.0660
  786MPD2    H511650   2.650   2.185  15.414  2.2992 -2.1481  0.8393
  786MPD2    N111651   2.437   1.965  14.934 -0.0801 -0.1174  0.0042
  786MPD2    H711652   2.423   1.872  14.972  0.6996 -0.2951 -0.1483
  787MPD2     C11653   2.603   1.343  14.873 -0.2966  0.7230 -0.8088
  787MPD2    C111654   2.548   1.370  14.758 -0.1577  0.3509  0.2456
  787MPD2    C211655   2.555   1.284  14.652  0.7262  0.8139 -0.1154
  787MPD2    C311656   2.615   1.162  14.672  0.0541  0.3623  0.3657
  787MPD2    C411657   2.675   1.134  14.794 -0.5448  0.4921  0.6209
  787MPD2    C511658   2.663   1.224  14.896  0.6151 -0.7140  0.3983
  787MPD2     H11659   2.521   1.318  14.554  0.4983 -1.1033 -0.7027
  787MPD2    H111660   2.720   1.036  14.808  0.2371  0.9249  1.1467
  787MPD2    H211661   2.599   1.405  14.961  2.0065 -1.6221  0.9663
  787MPD2    H311662   2.720   1.207  14.987 -2.0013 -0.3200  2.1171
  787MPD2     N11663   2.620   1.070  14.562  0.0139 -0.4171 -0.1396
  787MPD2    H511664   2.574   1.102  14.477 -0.9779  1.9090  1.2631
  787MPD2    N111665   2.482   1.496  14.748 -0.0023  0.0619  0.1317
  787MPD2    H711666   2.515   1.563  14.817  1.6944 -0.8882  0.2519
  788MPD2     C11667   0.224   0.917   1.465 -0.1676 -0.0526  0.4118
  788MPD2    C111668   0.275   0.793   1.444  0.3229  0.4464  0.7079
  788MPD2    C211669   0.327   0.757   1.321  0.1502  0.1748 -0.7036
  788MPD2    C311670   0.319   0.840   1.212 -0.3306 -0.3199 -0.1068
  788MPD2    C411671   0.271   0.969   1.238 -0.2687 -0.6840 -0.9712
  788MPD2    C511672   0.229   1.004   1.363  0.2377 -0.3911 -0.9652
  788MPD2     H11673   0.351   0.653   1.303  0.4889  0.6022 -2.6792
  788MPD2    H111674   0.269   1.038   1.155  1.0902  1.6572  0.9427
  788MPD2    H211675   0.189   0.945   1.564  1.0561  1.3038  0.4673
  788MPD2    H311676   0.193   1.104   1.383  2.4365  0.0377  0.8883
  788MPD2     N11677   0.364   0.803   1.082 -0.0929 -0.0121 -0.3398
  788MPD2    H511678   0.377   0.873   1.010 -0.1433 -1.3618 -1.6651
  788MPD2    N111679   0.263   0.693   1.541 -0.1542  0.4034 -0.0453
  788MPD2    H711680   0.295   0.601   1.511 -1.0974  0.9116 -2.5378
  789MPD2     C11681   0.077   0.220  16.383  0.0053 -0.3748 -0.6972
  789MPD2    C111682   0.023   0.214  16.506  0.3441 -0.1922  0.4868
  789MPD2    C211683   0.039   0.314  16.596  0.5376 -0.3239  0.0963
  789MPD2    C311684   0.106   0.428  16.558 -0.2746 -0.1864 -0.0110
  789MPD2    C411685   0.146   0.439  16.431  0.4256 -0.3784  1.1199
  789MPD2    C511686   0.132   0.337  16.345 -0.0831 -0.1591  0.5543
  789MPD2     H11687   0.011   0.310  16.700  1.4679 -1.7105  0.2981
  789MPD2    H111688   0.196   0.528  16.394 -0.9484 -0.2287 -0.4158
  789MPD2    H211689   0.087   0.132  16.320 -0.6282 -0.8306 -0.1675
  789MPD2    H311690   0.175   0.345  16.247 -0.7308 -3.8308 -0.0226
  789MPD2     N11691   0.105   0.531  16.650  0.0249 -0.2071 -0.2882
  789MPD2    H511692   0.050   0.512  16.733 -0.7111  0.8479 -0.5330
  789MPD2    N111693   4.689   0.092  16.537  0.6951  0.9765 -0.2780
  789MPD2    H711694   4.681   0.028  16.458 -0.2738 -0.2717  0.8420
  790MPD2     C11695   0.410   1.955  13.921  0.1737  0.0590 -0.2033
  790MPD2    C111696   0.448   1.848  13.849  0.2055  0.2820  0.4461
  790MPD2    C211697   0.432   1.847  13.713 -0.5376 -0.4388 -0.9476
  790MPD2    C311698   0.375   1.957  13.653 -0.6809  0.0481  0.1883
  790MPD2    C411699   0.336   2.058  13.735 -0.6799 -0.0966 -0.1544
  790MPD2    C511700   0.349   2.063  13.865  1.0563  0.3491  0.2748
  790MPD2     H11701   0.472   1.765  13.655  2.4759  1.4057 -1.4860
  790MPD2    H111702   0.289   2.150  13.702 -0.6396 -0.0988 -0.2175
  790MPD2    H211703   0.429   1.963  14.027 -1.8898 -1.1574  0.2584
  790MPD2    H311704   0.321   2.152  13.921  1.1196  0.7566 -0.3387
  790MPD2     N11705   0.375   1.950  13.512 -0.1957  0.0819 -0.8513
  790MPD2    H511706   0.394   1.863  13.463 -1.8728 -0.9314  0.3205
  790MPD2    N111707   0.520   1.750  13.928 -0.2960  0.2206 -0.1868
  790MPD2    H711708   0.518   1.768  14.028  1.3803  1.5343 -0.4023
  791MPD2     C11709   4.653   2.026  12.790  0.2751 -0.4488  0.1836
  791MPD2    C111710   4.709   1.951  12.888  1.0498  0.1784  0.5304
  791MPD2    C211711   4.632   1.849  12.939 -0.6915 -0.6956 -0.4153
  791MPD2    C311712   4.499   1.839  12.901  0.6555  0.0956  0.0494
  791MPD2    C411713   4.445   1.920  12.804 -0.0411 -0.1092  0.4386
  791MPD2    C511714   4.524   2.012  12.748  0.4851  0.1961  0.0720
  791MPD2     H11715   4.674   1.778  13.009 -2.2528 -0.6930  0.5253
  791MPD2    H111716   4.342   1.909  12.771  0.6949 -2.3337 -1.1014
  791MPD2    H211717   4.716   2.097  12.738 -1.3917  0.1332 -1.0437
  791MPD2    H311718   4.472   2.079  12.681 -0.6178  0.1823  0.9096
  791MPD2     N11719   4.434   1.722  12.950 -0.1752  0.1110 -0.5771
  791MPD2    H511720   4.481   1.656  13.011 -0.7566  1.1590  1.0017
  791MPD2    N111721   0.105   1.973  12.938  0.4170  0.1349  0.2945
  791MPD2    H711722   0.157   2.049  12.896 -0.1335  1.3462  1.8078
  792MPD2     C11723   0.726   1.864  11.614  0.7956  0.8781  0.4773
  792MPD2    C111724   0.681   1.938  11.512 -0.3664  0.1406 -0.8789
  792MPD2    C211725   0.541   1.953  11.498  0.6649 -0.5276 -0.0191
  792MPD2    C311726   0.452   1.897  11.583 -0.9133  0.5542 -0.5422
  792MPD2    C411727   0.506   1.817  11.683  0.0615 -0.6136 -0.0240
  792MPD2    C511728   0.642   1.807  11.703  0.2459  0.6067  0.1742
  792MPD2     H11729   0.500   2.007  11.414 -2.3202 -1.0155  1.1206
  792MPD2    H111730   0.434   1.775  11.752 -0.3652 -0.7485 -0.5576
  792MPD2    H211731   0.830   1.847  11.636  1.3666  1.6766 -1.5919
  792MPD2    H311732   0.686   1.747  11.781  0.7332  1.4663  0.5529
  792MPD2     N11733   0.311   1.911  11.587 -0.2627 -0.3274 -0.3969
  792MPD2    H511734   0.258   1.872  11.664 -1.8292  1.5641 -0.5033
  792MPD2    N111735   0.776   1.992  11.420  0.0015  0.0870  0.0837
  792MPD2    H711736   0.868   1.951  11.430  0.6983  1.1653 -1.7383
  793MPD2     C11737   4.480   1.993  10.793 -0.0216 -0.1350  0.1583
  793MPD2    C111738   4.599   1.931  10.827 -0.5840  0.1418  0.1345
  793MPD2    C211739   4.644   1.942  10.954 -0.0021  0.2954  0.2822
  793MPD2    C311740   4.572   2.019  11.047 -0.5097  0.3119 -0.4744
  793MPD2    C411741   4.461   2.094  11.004  0.2182 -0.6372  0.5885
  793MPD2    C511742   4.412   2.076  10.878  0.1221 -0.3671  0.2320
  793MPD2     H11743   0.007   1.904  10.985  0.2838  0.4085 -0.4716
  793MPD2    H111744   4.398   2.151  11.072  0.2368  0.6506 -0.4575
  793MPD2    H211745   4.428   1.974  10.699  1.3206 -0.9478 -0.4254
  793MPD2    H311746   4.322   2.125  10.843  1.3670  0.4268 -1.8859
  793MPD2     N11747   4.619   2.016  11.177 -0.2873 -0.9059 -0.4742
  793MPD2    H511748   4.705   1.966  11.199 -0.3243  0.4020  2.6805
  793MPD2    N111749   4.677   1.857  10.734 -0.1205 -0.2261 -0.3545
  793MPD2    H711750   0.032   1.823  10.769 -0.4190 -0.9394 -0.2770
  794MPD2     C11751   0.957   1.452  17.040  0.9722  0.2527 -0.0327
  794MPD2    C111752   0.868   1.348  17.066 -0.0404  0.4526 -0.3056
  794MPD2    C211753   0.754   1.332  16.993  0.1833 -0.1054  0.2885
  794MPD2    C311754   0.729   1.422  16.893  0.2084  0.1810  0.1793
  794MPD2    C411755   0.828   1.509  16.855 -0.5497 -0.3249 -1.0803
  794MPD2    C511756   0.938   1.538  16.928 -0.1371 -0.1348  0.2623
  794MPD2     H11757   0.692   1.245  17.014  0.8364 -0.6290  0.0101
  794MPD2    H111758   0.820   1.575  16.769 -0.3078  0.0144 -0.8440
  794MPD2    H211759   1.046   1.475  17.097  1.2342  0.2040 -0.4262
  794MPD2    H311760   1.012   1.614  16.905 -0.4444  0.1125  0.0962
  794MPD2     N11761   0.614   1.408  16.823 -0.2353  0.3854 -0.6687
  794MPD2    H511762   0.596   1.461  16.739 -0.4447 -0.5087 -1.1851
  794MPD2    N111763   0.873   1.261  17.175  0.5709  0.3329  0.0096
  794MPD2    H711764   0.789   1.209  17.197  1.6470 -1.2777  0.3422
  795MPD2     C11765   2.788   3.295  13.847  0.5187  0.1236  0.0427
  795MPD2    C111766   2.737   3.183  13.900 -0.0897 -0.0802 -0.4039
  795MPD2    C211767   2.816   3.089  13.961 -0.2134 -0.1863  0.4172
  795MPD2    C311768   2.953   3.110  13.972 -0.0188 -0.7417 -0.1062
  795MPD2    C411769   3.003   3.232  13.923  0.1725  0.6572  0.1147
  795MPD2    C511770   2.924   3.325  13.861  0.1990  0.2658  0.7143
  795MPD2     H11771   2.775   2.991  13.983 -0.0806 -0.2142  0.5363
  795MPD2    H111772   3.106   3.258  13.942  0.2526 -0.3580  1.0835
  795MPD2    H211773   2.735   3.362  13.780  0.0638  0.4692  0.7461
  795MPD2    H311774   2.959   3.418  13.818 -0.2373  0.2760  0.3825
  795MPD2     N11775   3.044   3.018  14.022  0.3379  0.2997  0.1301
  795MPD2    H511776   3.141   3.028  13.994  0.4089 -0.8192 -0.0498
  795MPD2    N111777   2.595   3.155  13.887  0.2894 -0.7059  0.4657
  795MPD2    H711778   2.557   3.065  13.915 -2.4554  0.4586  0.4961
  796MPD2     C11779   2.526   4.322  15.753  0.4460  0.0641 -0.2029
  796MPD2    C111780   2.580   4.413  15.842  0.2191 -0.3305  0.4667
  796MPD2    C211781   2.571   4.549  15.812 -0.2662  0.3518 -0.1476
  796MPD2    C311782   2.522   4.593  15.693 -0.2078  0.0560 -0.4046
  796MPD2    C411783   2.483   4.502  15.596 -0.3332 -0.4073 -0.0488
  796MPD2    C511784   2.478   4.368  15.634 -0.2252 -0.9750  0.6848
  796MPD2     H11785   2.615   4.621  15.879  0.9199 -0.5133 -0.0140
  796MPD2    H111786   2.458   4.529  15.495  1.3291  0.5493 -0.2065
  796MPD2    H211787   2.537   4.217  15.779  2.2428  0.5905  1.1688
  796MPD2    H311788   2.442   4.301  15.557 -1.0541  0.4398 -0.1642
  796MPD2     N11789   2.521   4.733  15.671  0.4801  0.1916 -0.8879
  796MPD2    H511790   2.553   0.058  15.747 -1.2145  0.3524 -0.2860
  796MPD2    N111791   2.643   4.359  15.956  0.4465 -0.4190  0.4743
  796MPD2    H711792   2.660   4.259  15.961  1.5285 -0.1910  1.4459
  797MPD2     C11793   3.672   4.300  17.327 -0.2041 -0.3377 -0.0068
  797MPD2    C111794   3.687   4.432  17.347  0.0459  0.4709 -0.1171
  797MPD2    C211795   3.624   4.525  17.271  0.1230 -0.0629 -0.4755
  797MPD2    C311796   3.560   4.480  17.154 -0.4121  0.4726  0.0794
  797MPD2    C411797   3.553   4.349  17.129 -0.7034 -0.2783  0.4635
  797MPD2    C511798   3.599   4.251  17.220  0.9503 -0.3396  0.1979
  797MPD2     H11799   3.632   4.630  17.300 -0.1602  0.0291 -0.7320
  797MPD2    H111800   3.504   4.309  17.041  1.9162 -0.9181 -0.6778
  797MPD2    H211801   3.716   4.222  17.389 -0.1772  0.9295  1.5747
  797MPD2    H311802   3.572   4.146  17.214  0.3494 -0.1019 -1.3070
  797MPD2     N11803   3.507   4.561  17.053  1.1527 -0.2478  0.0546
  797MPD2    H511804   3.480   4.519  16.965 -2.1977  2.3169 -0.1530
  797MPD2    N111805   3.773   4.485  17.448 -0.1784 -0.3101 -0.3639
  797MPD2    H711806   3.780   4.587  17.445 -1.0320 -0.2480 -0.1231
  798MPD2     C11807   4.091   0.381  17.074  0.9389 -0.6218  0.6256
  798MPD2    C111808   4.013   0.267  17.051 -0.0940 -0.7898  0.5967
  798MPD2    C211809   4.018   0.156  17.135 -0.0062 -0.2556 -0.1424
  798MPD2    C311810   4.107   0.153  17.236 -0.2560  0.1015  0.6683
  798MPD2    C411811   4.197   0.262  17.250  0.1682  0.4073 -0.7280
  798MPD2    C511812   4.192   0.370  17.166 -0.8061  0.2557 -0.1774
  798MPD2     H11813   3.953   0.070  17.121 -0.6599  0.2843 -0.4037
  798MPD2    H111814   4.263   0.269  17.336  0.3875  1.7056 -1.0018
  798MPD2    H211815   4.109   0.463  17.006 -3.9589  0.8479  1.0827
  798MPD2    H311816   4.265   0.449  17.178 -1.5745  1.2281 -1.9975
  798MPD2     N11817   4.099   0.044  17.331  0.2672  0.4574 -0.1867
  798MPD2    H511818   4.037   4.703  17.303  0.3909  0.5761 -0.7650
  798MPD2    N111819   3.910   0.278  16.960  0.6948  0.6198  0.0473
  798MPD2    H711820   3.879   0.368  16.922  0.5014  1.3524  1.9750
  799MPD2     C11821   2.319   0.975  14.871 -0.6333 -0.4225  0.3502
  799MPD2    C111822   2.217   0.911  14.803 -0.7090 -0.7239  0.2188
  799MPD2    C211823   2.130   0.983  14.717  0.2237  0.7333  0.0488
  799MPD2    C311824   2.161   1.114  14.685 -0.0865 -0.5376 -0.6479
  799MPD2    C411825   2.257   1.178  14.758  0.0897 -0.3715 -0.0706
  799MPD2    C511826   2.327   1.108  14.848  0.3209 -0.3701  0.6358
  799MPD2     H11827   2.044   0.937  14.668  0.6576  0.9596 -0.9144
  799MPD2    H111828   2.274   1.283  14.737  1.6561  0.2099  4.1000
  799MPD2    H211829   2.366   0.920  14.952 -0.1490  0.2292  0.5150
  799MPD2    H311830   2.402   1.162  14.905  0.8262 -0.7390  0.3221
  799MPD2     N11831   2.091   1.200  14.591 -0.2571  0.1527 -0.1342
  799MPD2    H511832   2.119   1.298  14.586  2.0379 -0.5923 -2.0265
  799MPD2    N111833   2.192   0.765  14.809 -0.1472 -0.2042  0.0675
  799MPD2    H711834   2.106   0.735  14.763  0.0306  1.1792 -1.2136
  800MPD2     C11835   2.512   2.144  14.099  0.6607  0.1329  0.1739
  800MPD2    C111836   2.645   2.168  14.074  0.2663  0.0634  0.0608
  800MPD2    C211837   2.684   2.176  13.945  1.3369  0.5870  0.3987
  800MPD2    C311838   2.591   2.145  13.842  0.0367 -0.2016  0.2779
  800MPD2    C411839   2.460   2.101  13.871  0.1550  0.0081  0.1370
  800MPD2    C511840   2.423   2.116  14.000  0.0711  0.3988  0.7566
  800MPD2     H11841   2.785   2.212  13.927  0.3775  1.6293 -2.8187
  800MPD2    H111842   2.382   2.062  13.806  1.4895 -2.1863 -0.1432
  800MPD2    H211843   2.473   2.130  14.200  2.2333 -1.8992  0.5135
  800MPD2    H311844   2.328   2.078  14.035  0.2759  0.3479  1.2623
  800MPD2     N11845   2.652   2.138  13.715 -0.1127  0.4645 -0.3437
  800MPD2    H511846   2.739   2.190  13.707  0.4374 -0.1713  1.4952
  800MPD2    N111847   2.728   2.183  14.179 -0.1260 -0.1604 -0.2441
  800MPD2    H711848   2.699   2.187  14.276  0.3048 -0.8473 -0.0819
  801MPD2     C11849   2.725   2.713  14.557 -0.3534 -0.2037  0.1625
  801MPD2    C111850   2.750   2.595  14.617 -0.1424 -0.7352  0.0890
  801MPD2    C211851   2.667   2.560  14.727  0.2110 -0.1457 -0.3242
  801MPD2    C311852   2.579   2.650  14.786 -0.5378 -0.3099 -0.1641
  801MPD2    C411853   2.568   2.772  14.718 -0.7386 -0.2260 -0.0291
  801MPD2    C511854   2.632   2.807  14.607  0.3705  0.3929  0.3408
  801MPD2     H11855   2.662   2.457  14.760 -0.7034  0.0342  0.1101
  801MPD2    H111856   2.510   2.856  14.754  1.8902  0.9689  1.4878
  801MPD2    H211857   2.782   2.740  14.469 -0.6512 -0.6294 -0.1583
  801MPD2    H311858   2.625   2.909  14.571 -1.4870 -0.6682 -2.2969
  801MPD2     N11859   2.500   2.618  14.894  0.3860  0.0113 -0.4843
  801MPD2    H511860   2.498   2.520  14.921 -1.4725  0.0239 -0.6290
  801MPD2    N111861   2.840   2.499  14.560 -0.5174 -0.2718  0.5461
  801MPD2    H711862   2.832   2.401  14.588 -1.0085 -0.3839  0.0129
  802MPD2     C11863   2.859   4.416   0.404  0.0763 -0.1799  0.4040
  802MPD2    C111864   2.811   4.287   0.439  0.8751 -0.0569 -0.0161
  802MPD2    C211865   2.888   4.177   0.414  0.0264 -0.0515  1.0842
  802MPD2    C311866   3.013   4.190   0.352  0.1361 -0.1402 -0.2260
  802MPD2    C411867   3.055   4.317   0.317  0.5303 -1.4429 -0.6421
  802MPD2    C511868   2.986   4.432   0.354 -0.3538  0.3243  0.0013
  802MPD2     H11869   2.846   4.080   0.441  0.6188 -0.7568 -0.5391
  802MPD2    H111870   3.147   4.332   0.262  0.2099 -1.4252 -1.1811
  802MPD2    H211871   2.810   4.508   0.434  2.2051  1.3480 -0.8239
  802MPD2    H311872   3.030   4.526   0.324  1.2634 -0.4957 -0.2158
  802MPD2     N11873   3.075   4.076   0.308  0.2571  0.2743  1.5992
  802MPD2    H511874   3.026   3.987   0.313  0.8296 -0.1720 -0.9222
  802MPD2    N111875   2.679   4.265   0.488  0.3277  0.3027  0.2112
  802MPD2    H711876   2.658   4.169   0.514  2.5946 -0.4054 -0.5371
  803MPD2     C11877   3.081   1.456  11.982 -1.1041  0.1344 -0.6540
  803MPD2    C111878   3.123   1.576  12.024  0.1294  0.4660 -0.3610
  803MPD2    C211879   3.148   1.587  12.163 -0.7404  0.2513 -0.3285
  803MPD2    C311880   3.136   1.477  12.252  0.0241 -0.2285 -0.6129
  803MPD2    C411881   3.097   1.356  12.202  0.0293  0.9440 -0.2405
  803MPD2    C511882   3.076   1.347  12.068 -0.9599  0.4027  0.1325
  803MPD2     H11883   3.192   1.681  12.194 -0.2782 -0.1819  0.3265
  803MPD2    H111884   3.070   1.278  12.272  1.5600  2.4914  2.0615
  803MPD2    H211885   3.047   1.436  11.882  1.1034 -0.7721 -1.2283
  803MPD2    H311886   3.050   1.251  12.024 -1.4231 -0.3956  2.1369
  803MPD2     N11887   3.138   1.487  12.393  0.0876  0.3004 -0.4606
  803MPD2    H511888   3.090   1.414  12.444  1.1839 -0.4539 -0.5315
  803MPD2    N111889   3.144   1.689  11.944 -0.7050  0.1352  0.1037
  803MPD2    H711890   3.199   1.757  11.997 -1.9895  1.9403 -0.8840
  804MPD2     C11891   3.194   3.005  17.151  0.5629  0.6266 -0.5349
  804MPD2    C111892   3.172   3.010  17.288 -0.3164 -0.0159  0.4822
  804MPD2    C211893   3.215   3.117  17.368 -0.4762  0.2125 -0.0463
  804MPD2    C311894   3.317   3.196  17.315 -0.4724  0.1286  0.5476
  804MPD2    C411895   3.356   3.169  17.183 -0.2544 -1.0617  0.4669
  804MPD2    C511896   3.288   3.091  17.097  0.5021 -0.0069  0.8456
  804MPD2     H11897   3.184   3.130  17.471  1.0744 -0.3276  0.4934
  804MPD2    H111898   3.431   3.224  17.128 -0.8320 -1.9664 -1.1984
  804MPD2    H211899   3.155   2.934  17.080 -1.5632  1.3567 -0.1027
  804MPD2    H311900   3.310   3.094  16.991  0.3555  0.7543  0.8341
  804MPD2     N11901   3.376   3.301  17.389  0.2044 -0.6001 -0.2378
  804MPD2    H511902   3.343   3.316  17.484 -1.0399  1.2796 -0.9744
  804MPD2    N111903   3.094   2.907  17.351 -0.0242  0.3445  0.3304
  804MPD2    H711904   3.083   2.918  17.452  0.0941  0.6243  0.3118
  805MPD2     C11905   2.192   1.233  15.806  0.4163 -0.3439 -0.2537
  805MPD2    C111906   2.302   1.175  15.743 -0.5038 -0.5592 -1.2139
  805MPD2    C211907   2.427   1.184  15.808  0.4272  0.6795  0.5132
  805MPD2    C311908   2.440   1.259  15.925  0.4160  0.6130 -0.5362
  805MPD2    C411909   2.328   1.319  15.976 -0.3742  0.2329  0.0886
  805MPD2    C511910   2.210   1.312  15.918  0.1770  0.1527  0.1690
  805MPD2     H11911   2.512   1.134  15.763 -0.4603 -1.5625  1.3506
  805MPD2    H111912   2.344   1.368  16.071 -1.9583  2.0981 -0.6171
  805MPD2    H211913   2.094   1.250  15.762 -0.7756 -2.1325  1.7228
  805MPD2    H311914   2.124   1.348  15.975 -2.6823 -0.4979 -3.6931
  805MPD2     N11915   2.565   1.268  15.996 -0.1993 -0.0211  0.5809
  805MPD2    H511916   2.579   1.346  16.059 -1.4381  0.4744  0.2516
  805MPD2    N111917   2.289   1.102  15.626  0.3116 -0.1413  0.2538
  805MPD2    H711918   2.376   1.073  15.583  0.0784  2.0403 -1.7039
  806MPD2     C11919   3.891   0.885   1.661 -0.4786  0.0899 -0.4583
  806MPD2    C111920   3.872   0.901   1.526  0.4165 -0.2791  0.2882
  806MPD2    C211921   3.841   0.799   1.442 -0.4471  0.5939 -0.4331
  806MPD2    C311922   3.828   0.673   1.494  0.0786  0.4936 -0.2000
  806MPD2    C411923   3.842   0.652   1.633 -0.2495  0.7699 -0.3416
  806MPD2    C511924   3.865   0.763   1.715 -0.1094  1.6362 -0.2175
  806MPD2     H11925   3.825   0.810   1.335  0.5348 -0.5491 -0.6943
  806MPD2    H111926   3.845   0.555   1.682 -0.8014 -1.2503 -4.2902
  806MPD2    H211927   3.912   0.967   1.728 -0.9776 -1.3526  1.4995
  806MPD2    H311928   3.892   0.753   1.820  0.5753  1.7178 -0.3833
  806MPD2     N11929   3.793   0.568   1.401  0.1880 -0.0863  0.4895
  806MPD2    H511930   3.814   0.588   1.304  0.1022  0.9188  0.6711
  806MPD2    N111931   3.883   1.027   1.473  0.2396  0.8608  0.0870
  806MPD2    H711932   3.880   1.101   1.542 -1.2397  1.9725 -1.1778
  807MPD2     C11933   3.767   1.702   1.639  0.4890 -0.1765 -0.2752
  807MPD2    C111934   3.759   1.566   1.644 -0.1676  0.0932 -0.5582
  807MPD2    C211935   3.670   1.503   1.735 -0.9547  0.4300 -1.5853
  807MPD2    C311936   3.582   1.575   1.810  0.0685  0.2779 -0.0928
  807MPD2    C411937   3.588   1.714   1.792  0.2013  0.9033  0.1736
  807MPD2    C511938   3.684   1.775   1.712  0.6149 -0.1573  0.2283
  807MPD2     H11939   3.657   1.395   1.727 -1.6427  0.2736  1.6269
  807MPD2    H111940   3.519   1.785   1.835 -0.9893  1.3531 -2.4728
  807MPD2    H211941   3.839   1.752   1.575  1.0692  0.6209  1.0092
  807MPD2    H311942   3.683   1.883   1.704 -0.3023  0.1020  3.6587
  807MPD2     N11943   3.483   1.501   1.877 -0.3078  0.6849  0.5406
  807MPD2    H511944   3.510   1.406   1.900  2.6569  1.6227  0.9416
  807MPD2    N111945   3.836   1.476   1.568 -0.3410 -0.4762  0.6191
  807MPD2    H711946   3.823   1.378   1.594  0.7525 -0.9713 -0.7098
  808MPD2     C11947   3.440   2.693  10.415  0.6298  0.6216  0.6541
  808MPD2    C111948   3.378   2.757  10.515 -0.1177 -0.7320 -0.7535
  808MPD2    C211949   3.387   2.894  10.538  0.0798 -0.9775 -0.1213
  808MPD2    C311950   3.453   2.964  10.445 -0.0777 -0.8612 -0.4477
  808MPD2    C411951   3.514   2.902  10.341 -1.0322  0.7716 -0.1562
  808MPD2    C511952   3.509   2.767  10.322 -0.0496  0.4770  0.4718
  808MPD2     H11953   3.339   2.941  10.623 -2.2376 -3.7671  0.1285
  808MPD2    H111954   3.575   2.954  10.268  1.1618  0.6468  1.6100
  808MPD2    H211955   3.449   2.585  10.411  0.4626  0.7494 -3.0063
  808MPD2    H311956   3.552   2.709  10.241  0.4528  1.8576 -0.2323
  808MPD2     N11957   3.470   3.106  10.445 -0.0986  0.9240  0.2968
  808MPD2    H511958   3.512   3.159  10.369 -0.0700  2.9494  1.7359
  808MPD2    N111959   3.298   2.693  10.607 -0.0800 -0.3543 -0.0395
  808MPD2    H711960   3.250   2.753  10.674 -0.8048 -1.4608  0.4360
  809MPD2     C11961   3.912   3.892  10.048  0.4884  0.7402 -0.0813
  809MPD2    C111962   3.870   3.764  10.018 -0.1010  0.4547  0.0700
  809MPD2    C211963   3.790   3.693  10.103 -0.6846 -0.2549  0.3938
  809MPD2    C311964   3.750   3.742  10.220 -0.3263 -0.8075 -0.4729
  809MPD2    C411965   3.794   3.869  10.258  0.2024 -0.5758 -0.1230
  809MPD2    C511966   3.870   3.949  10.170  0.0013  0.6211 -0.9207
  809MPD2     H11967   3.755   3.600  10.058 -0.5715 -0.0079 -0.2070
  809MPD2    H111968   3.769   3.920  10.351  1.0231  0.2467 -0.3548
  809MPD2    H211969   3.979   3.949   9.985  0.7295  1.5384  0.9061
  809MPD2    H311970   3.910   4.044  10.201  1.5957 -0.3758  0.0690
  809MPD2     N11971   3.665   3.680  10.309 -0.2914 -0.3322 -0.6636
  809MPD2    H511972   3.633   3.749  10.377 -0.2604 -1.6853  0.7239
  809MPD2    N111973   3.909   3.702   9.897  0.6452 -0.2049 -0.3926
  809MPD2    H711974   3.867   3.610   9.891  1.0225 -0.5248  1.8712
  810MPD2     C11975   2.302   1.904  11.231 -0.8788  0.1523  0.5171
  810MPD2    C111976   2.242   1.914  11.104  0.2409  0.0094 -0.9633
  810MPD2    C211977   2.236   2.043  11.040 -0.2571  0.1596 -0.1612
  810MPD2    C311978   2.301   2.154  11.099  0.3503 -0.6024 -0.1458
  810MPD2    C411979   2.359   2.139  11.218  0.6450  0.0207  0.3514
  810MPD2    C511980   2.367   2.018  11.280 -0.4683 -0.0045  0.5819
  810MPD2     H11981   2.175   2.051  10.951  1.6272 -0.4754 -1.4983
  810MPD2    H111982   2.390   2.237  11.253  0.3753 -0.2440  1.3175
  810MPD2    H211983   2.308   1.815  11.293 -0.5043 -1.7701 -2.2571
  810MPD2    H311984   2.407   2.023  11.381 -0.9402 -1.0730  0.8226
  810MPD2     N11985   2.325   2.277  11.039  0.3372  0.5255  0.2115
  810MPD2    H511986   2.389   2.332  11.094  1.4396  0.9956 -1.5288
  810MPD2    N111987   2.181   1.795  11.049  0.1518  0.0075 -0.2747
  810MPD2    H711988   2.205   1.709  11.096 -3.2062 -0.2043  1.0104
  811MPD2     C11989   1.825   1.557  10.348  0.7103 -1.1896  0.0315
  811MPD2    C111990   1.958   1.575  10.380  0.4865 -0.4469  0.1099
  811MPD2    C211991   2.050   1.639  10.299 -0.1885  0.7280  0.3173
  811MPD2    C311992   2.008   1.669  10.167 -0.6869 -0.5915 -0.1975
  811MPD2    C411993   1.875   1.641  10.127  0.5188 -0.0544 -0.1036
  811MPD2    C511994   1.783   1.596  10.219  0.1772  0.7321  0.5980
  811MPD2     H11995   2.149   1.659  10.339  0.2717  1.7934 -1.3497
  811MPD2    H111996   1.837   1.652  10.026  1.2874 -0.2959 -0.4154
  811MPD2    H211997   1.750   1.525  10.419 -0.8767 -1.8645 -1.9727
  811MPD2    H311998   1.677   1.585  10.203  0.4528  1.1201 -1.4937
  811MPD2     N11999   2.094   1.741  10.086  0.0342 -0.1517  0.5295
  811MPD2    H512000   2.179   1.772  10.132 -0.5642  0.0240  1.5066
  811MPD2    N112001   2.006   1.548  10.515  0.6354 -0.4121 -0.2681
  811MPD2    H712002   2.091   1.593  10.546 -0.8602  0.7960  2.1329
  812MPD2     C12003   0.431   1.929  12.442  0.2584  0.1328 -0.0111
  812MPD2    C112004   0.556   1.946  12.384 -0.8127  0.1037 -0.4301
  812MPD2    C212005   0.657   1.900  12.466 -0.0774  0.0696  0.2485
  812MPD2    C312006   0.635   1.862  12.598 -0.5931  0.4785  0.2553
  812MPD2    C412007   0.510   1.871  12.655 -0.7351  0.6165 -0.2441
  812MPD2    C512008   0.410   1.903  12.577 -0.5034 -0.2104  0.6162
  812MPD2     H12009   0.758   1.915  12.431 -0.2704  0.3675 -0.1785
  812MPD2    H112010   0.503   1.838  12.758 -1.8147  2.3946  0.2449
  812MPD2    H212011   0.341   1.957  12.388 -0.3412  1.4536  1.6542
  812MPD2    H312012   0.312   1.891  12.623  0.1203  1.4119  2.3729
  812MPD2     N12013   0.749   1.835  12.676 -0.0382 -0.7121  0.1604
  812MPD2    H512014   0.838   1.839  12.627  0.6940 -0.0103  1.5526
  812MPD2    N112015   0.572   1.993  12.251 -0.0490 -0.2599 -0.1277
  812MPD2    H712016   0.486   2.011  12.201  0.5860  0.6467 -0.8848
  813MPD2     C12017   0.715   2.974  13.051 -0.2959  0.2001  0.5963
  813MPD2    C112018   0.681   3.104  13.022  0.3517  0.6157 -0.6497
  813MPD2    C212019   0.582   3.167  13.094  0.3369 -0.1795 -0.4860
  813MPD2    C312020   0.522   3.099  13.200  0.1688 -0.6227 -0.2716
  813MPD2    C412021   0.552   2.966  13.220  0.2751  0.3445 -0.4190
  813MPD2    C512022   0.647   2.905  13.145  0.2345 -0.1115 -0.7170
  813MPD2     H12023   0.556   3.271  13.084 -1.8377 -0.5265  1.5602
  813MPD2    H112024   0.498   2.905  13.291 -1.1184 -1.5446 -3.1082
  813MPD2    H212025   0.791   2.924  12.994 -1.6349  0.3373 -1.2996
  813MPD2    H312026   0.680   2.807  13.176  0.1980 -0.3258 -1.3549
  813MPD2     N12027   0.440   3.179  13.285 -0.1261 -0.0372 -0.2253
  813MPD2    H512028   0.435   3.279  13.267  1.6111  0.2726  1.0019
  813MPD2    N112029   0.778   3.174  12.940  0.1922 -0.7928  0.3730
  813MPD2    H712030   0.865   3.127  12.916  1.6135  0.2205  3.5258
  814MPD2     C12031   0.862   4.599  12.873 -0.3717 -0.4015  0.5106
  814MPD2    C112032   0.969   4.599  12.789 -1.1613 -0.0587  0.0385
  814MPD2    C212033   1.039   4.714  12.766 -0.4817  0.1648  0.1633
  814MPD2    C312034   1.000   0.099  12.827  0.3079  0.1667 -0.2046
  814MPD2    C412035   0.885   0.098  12.906 -0.0365 -0.3208 -0.6721
  814MPD2    C512036   0.822   4.717  12.941  0.2562 -0.0424  0.1413
  814MPD2     H12037   1.128   4.708  12.704 -1.3906  0.9304 -1.2327
  814MPD2    H112038   0.857   0.190  12.956  0.6164 -1.0520  1.0318
  814MPD2    H212039   0.799   4.521  12.914  0.5017 -1.2352  0.2771
  814MPD2    H312040   0.738   4.724  13.009  0.7778  1.1826  0.6515
  814MPD2     N12041   1.069   0.220  12.795 -0.3342 -0.4225  0.3712
  814MPD2    H512042   1.035   0.306  12.837 -2.0888 -0.2735 -1.3512
  814MPD2    N112043   0.986   4.486  12.710  0.1579  0.0680 -0.8232
  814MPD2    H712044   1.056   4.494  12.636 -0.8287  1.9856 -1.5623
  815MPD2     C12045   1.467   3.577  11.464 -0.6493 -0.8624 -0.0686
  815MPD2    C112046   1.442   3.443  11.504  0.6025 -0.2204  0.5063
  815MPD2    C212047   1.352   3.424  11.606  0.0159  0.0543 -0.2402
  815MPD2    C312048   1.296   3.528  11.679 -0.0622 -0.1776  0.6338
  815MPD2    C412049   1.340   3.657  11.647 -0.2916  0.2801  0.5928
  815MPD2    C512050   1.422   3.680  11.536 -0.3842 -0.4222 -0.1460
  815MPD2     H12051   1.303   3.328  11.605  0.0680  0.0281 -0.2635
  815MPD2    H112052   1.295   3.748  11.685  1.9899  0.3060  3.1852
  815MPD2    H212053   1.533   3.594  11.379 -1.4668 -0.9062 -0.7137
  815MPD2    H312054   1.457   3.780  11.512  0.3576 -0.3269  1.3492
  815MPD2     N12055   1.182   3.500  11.763  0.8011  0.5968  0.3967
  815MPD2    H512056   1.145   3.405  11.764  3.0390 -0.2963 -0.6590
  815MPD2    N112057   1.503   3.344  11.435  0.5833 -0.6178 -0.2034
  815MPD2    H712058   1.567   3.357  11.357  0.2802  0.6407 -0.2366
  816MPD2     C12059   2.574   2.981  17.521 -0.3229  0.3325  0.1793
  816MPD2    C112060   2.463   2.900  17.536  0.5039  0.2022  0.0101
  816MPD2    C212061   2.469   2.772  17.482 -0.3076  0.1629  0.4578
  816MPD2    C312062   2.566   2.739  17.390  0.2591  0.1358  0.2953
  816MPD2    C412063   2.663   2.827  17.372  0.1442 -0.0801  0.3752
  816MPD2    C512064   2.673   2.948  17.439  0.1575  0.1029 -0.0895
  816MPD2     H12065   2.388   2.701  17.495  0.5113 -0.9636 -0.7451
  816MPD2    H112066   2.742   2.822  17.298 -0.8242 -0.0301 -0.6685
  816MPD2    H212067   2.590   3.074  17.575 -1.4025  1.4117 -1.3265
  816MPD2    H312068   2.761   3.008  17.422 -1.3182  2.2142 -0.1786
  816MPD2     N12069   2.558   2.610  17.326  0.4542 -0.3370  0.4459
  816MPD2    H512070   2.477   2.550  17.335 -0.8941  1.5328  0.9538
  816MPD2    N112071   2.349   2.954  17.607 -0.3639  0.0828 -0.2634
  816MPD2    H712072   2.359   3.053  17.628  0.9743 -0.6206  2.4436
  817MPD2     C12073   0.701   4.445   9.976 -0.5080  0.6272  0.0446
  817MPD2    C112074   0.679   4.424   9.841  0.2458  0.5670  0.3890
  817MPD2    C212075   0.577   4.499   9.774 -0.1883 -0.7727 -0.2213
  817MPD2    C312076   0.516   4.601   9.841  0.0617 -0.2055  0.2743
  817MPD2    C412077   0.552   4.628   9.974 -0.9156  0.4094  0.4547
  817MPD2    C512078   0.639   4.548  10.043  0.4081 -0.2309 -0.0089
  817MPD2     H12079   0.560   4.468   9.671  0.2843 -0.7291 -0.3136
  817MPD2    H112080   0.513   4.713  10.029 -0.2968  0.1821  1.2475
  817MPD2    H212081   0.774   4.389  10.032 -0.5041  1.6715  1.0813
  817MPD2    H312082   0.644   4.560  10.150 -0.8242  0.0966  0.0137
  817MPD2     N12083   0.415   4.672   9.774 -0.4340 -1.1630 -0.1491
  817MPD2    H512084   0.388   4.642   9.681 -1.7739 -1.2496  0.2703
  817MPD2    N112085   0.735   4.307   9.771  0.4920 -0.8496 -0.1005
  817MPD2    H712086   0.714   4.295   9.672 -1.9899 -2.1188  0.5794
  818MPD2     C12087   4.540   4.284  10.099 -0.0470 -0.6638 -0.6034
  818MPD2    C112088   4.471   4.243  10.210 -0.1964  0.6944 -0.4770
  818MPD2    C212089   4.492   4.106  10.238 -0.7679  0.1090  0.8635
  818MPD2    C312090   4.557   4.017  10.153 -0.1532 -1.1978  0.1818
  818MPD2    C412091   4.616   4.064  10.040  0.2922  0.4674  0.7696
  818MPD2    C512092   4.607   4.200  10.017  0.5295  0.1094 -0.1250
  818MPD2     H12093   4.451   4.072  10.332  0.4321 -0.0236  1.3417
  818MPD2    H112094   4.666   4.008   9.962  0.5666  1.4578  0.2218
  818MPD2    H212095   4.538   4.388  10.067 -2.2704 -0.4228  0.3531
  818MPD2    H312096   4.665   4.235   9.932  1.9808 -0.3480  0.6808
  818MPD2     N12097   4.574   3.879  10.181  0.3808 -0.1766  0.0877
  818MPD2    H512098   4.632   3.829  10.113  0.0375 -0.2597 -0.1414
  818MPD2    N112099   4.397   4.323  10.298 -0.1439  0.3058 -0.0268
  818MPD2    H712100   4.341   4.288  10.375  0.5418 -0.8979 -0.0832
  819MPD2     C12101   3.401   1.085  15.771  0.6699  0.4874  0.1339
  819MPD2    C112102   3.411   0.958  15.815  0.2991 -0.2298 -0.0601
  819MPD2    C212103   3.491   0.928  15.922 -0.0415  0.4284  0.0839
  819MPD2    C312104   3.573   1.023  15.974  0.1917 -0.6078  0.6760
  819MPD2    C412105   3.570   1.153  15.931  0.5329 -0.6123 -0.3563
  819MPD2    C512106   3.483   1.182  15.827  0.0100  0.2437  0.0822
  819MPD2     H12107   3.497   0.828  15.963  0.2299  1.2693  2.1363
  819MPD2    H112108   3.638   1.224  15.976 -2.1703  1.4316  0.4302
  819MPD2    H212109   3.342   1.112  15.684 -0.1001 -0.8942  0.2183
  819MPD2    H312110   3.483   1.286  15.797  2.3812 -0.0609 -0.9513
  819MPD2     N12111   3.652   0.993  16.091  0.1084  0.4033 -0.3208
  819MPD2    H512112   3.631   0.907  16.140  1.0480  0.4901  0.2486
  819MPD2    N112113   3.326   0.858  15.753  0.1988  0.7786 -0.1144
  819MPD2    H712114   3.276   0.892  15.671 -1.4457 -0.1082  0.5195
  820MPD2     C12115   2.680   0.639  15.032  0.2486 -0.2937 -0.1710
  820MPD2    C112116   2.663   0.710  15.149 -0.2122 -0.5022  0.1451
  820MPD2    C212117   2.766   0.723  15.234  0.5669  0.4054 -0.3578
  820MPD2    C312118   2.880   0.637  15.226  0.3655 -0.3434  0.3708
  820MPD2    C412119   2.897   0.563  15.109  0.3646  0.1350 -0.0005
  820MPD2    C512120   2.799   0.572  15.012 -0.2068  0.2021 -0.3940
  820MPD2     H12121   2.759   0.784  15.323  1.5023  0.3701 -0.2617
  820MPD2    H112122   2.978   0.493  15.091  0.6375  0.4942 -0.1902
  820MPD2    H212123   2.604   0.632  14.955  0.5682  0.1173 -0.5201
  820MPD2    H312124   2.803   0.514  14.920  0.4191 -1.3296  0.5876
  820MPD2     N12125   2.966   0.621  15.338 -0.1400 -0.2605 -1.1287
  820MPD2    H512126   3.045   0.558  15.331  0.0506 -0.0431 -0.9732
  820MPD2    N112127   2.534   0.774  15.172  0.1571  0.3242  1.0321
  820MPD2    H712128   2.458   0.774  15.104  0.1070 -1.7098  1.0882
  821MPD2     C12129   2.991   2.179  12.985 -0.7006 -0.6968 -0.5206
  821MPD2    C112130   3.041   2.166  13.118  0.5662 -0.1386 -0.2215
  821MPD2    C212131   3.162   2.219  13.145 -0.2619  0.2082  0.3215
  821MPD2    C312132   3.234   2.282  13.054 -0.0444 -0.2802 -0.6209
  821MPD2    C412133   3.191   2.294  12.924 -0.4357 -0.5355  0.8137
  821MPD2    C512134   3.072   2.239  12.889  0.5294  0.5116  0.2863
  821MPD2     H12135   3.198   2.199  13.245  1.5865  0.7402 -0.2349
  821MPD2    H112136   3.253   2.334  12.845  0.4261 -2.4457  0.5463
  821MPD2    H212137   2.896   2.141  12.949 -1.0585 -0.0493 -0.2507
  821MPD2    H312138   3.032   2.253  12.789 -0.2868 -1.4550  0.3374
  821MPD2     N12139   3.360   2.340  13.086 -0.4389  0.1249  0.1797
  821MPD2    H512140   3.404   2.390  13.009  0.5014 -0.6513  0.2198
  821MPD2    N112141   2.979   2.096  13.217  0.2039  0.3587 -0.5061
  821MPD2    H712142   3.010   2.065  13.309  0.7581  0.7998 -0.5500
  822MPD2     C12143   3.783   2.169  15.970  0.0555  0.8799  0.0912
  822MPD2    C112144   3.809   2.195  16.100 -0.5210  0.6152 -0.0025
  822MPD2    C212145   3.752   2.303  16.164  0.7042 -0.3725  0.0583
  822MPD2    C312146   3.676   2.390  16.097  0.3269 -0.3823 -0.1276
  822MPD2    C412147   3.640   2.366  15.969 -0.0439 -0.3830  0.0480
  822MPD2    C512148   3.703   2.261  15.910 -0.3856  0.1235 -0.3221
  822MPD2     H12149   3.767   2.319  16.271  3.3422  0.7258 -0.4861
  822MPD2    H112150   3.556   2.418  15.924 -0.3146 -1.3142 -0.5225
  822MPD2    H212151   3.823   2.098  15.898 -0.0140  0.1099  0.8231
  822MPD2    H312152   3.675   2.245  15.806 -0.5522  0.4787 -0.3304
  822MPD2     N12153   3.610   2.482  16.179 -0.5812  0.0604  0.0089
  822MPD2    H512154   3.621   2.470  16.279 -1.7473  1.2088  0.2776
  822MPD2    N112155   3.905   2.128  16.179  0.0182  0.9350 -0.3891
  822MPD2    H712156   3.919   2.158  16.275  3.0493 -1.0988 -0.2059
  823MPD2     C12157   3.318   2.721  16.927  0.3594 -0.6885  0.2911
  823MPD2    C112158   3.372   2.646  16.832  0.1502  0.3668 -0.8094
  823MPD2    C212159   3.449   2.539  16.866 -0.1705  0.3685  0.0820
  823MPD2    C312160   3.457   2.500  16.994 -0.1701 -0.2097 -0.1763
  823MPD2    C412161   3.397   2.575  17.094  0.3268  0.8653  0.0190
  823MPD2    C512162   3.335   2.691  17.063  0.3493 -0.2408  0.3079
  823MPD2     H12163   3.503   2.487  16.787 -1.7678  1.1123 -1.5069
  823MPD2    H112164   3.414   2.548  17.197 -1.9392 -0.9723 -0.0817
  823MPD2    H212165   3.257   2.810  16.913  1.5246  0.0240 -0.1601
  823MPD2    H312166   3.304   2.750  17.148 -0.7394 -3.0455  1.8505
  823MPD2     N12167   3.522   2.387  17.042  0.7128 -0.2797 -0.4006
  823MPD2    H512168   3.512   2.363  17.140 -2.6334  0.9663 -0.4299
  823MPD2    N112169   3.351   2.689  16.698  0.3591  0.6442 -0.5733
  823MPD2    H712170   3.306   2.779  16.690 -0.4156  0.3745  0.7547
  824MPD2     C12171   4.564   1.584  16.177  0.3747 -0.0467 -0.1165
  824MPD2    C112172   4.433   1.586  16.138 -0.9062 -0.0579 -0.3736
  824MPD2    C212173   4.396   1.497  16.038  0.3762 -0.1525 -0.2580
  824MPD2    C312174   4.485   1.406  15.988  0.4314  1.0735 -0.1602
  824MPD2    C412175   4.621   1.411  16.021  0.1049  0.8031  0.2065
  824MPD2    C512176   4.658   1.499  16.124 -0.1202  0.0574 -0.5808
  824MPD2     H12177   4.295   1.491  15.999 -0.2143  0.0830  1.2487
  824MPD2    H112178   4.692   1.336  15.987  1.6867  2.6658 -0.6112
  824MPD2    H212179   4.596   1.654  16.254 -0.3148  1.4449 -1.1733
  824MPD2    H312180   0.028   1.492  16.152 -0.5749 -0.7905  0.9222
  824MPD2     N12181   4.435   1.322  15.887  0.2250 -0.2363 -0.3085
  824MPD2    H512182   4.343   1.334  15.845 -0.2791  0.2794  0.9333
  824MPD2    N112183   4.342   1.681  16.189  0.2838  0.2583  0.0452
  824MPD2    H712184   4.246   1.675  16.156 -0.3677  2.7661  1.4884
  825MPD2     C12185   0.181   1.458  15.326 -0.1537 -0.0921 -0.3272
  825MPD2    C112186   0.049   1.494  15.355 -0.3349 -0.9061  0.6223
  825MPD2    C212187   0.021   1.628  15.352 -0.2136  0.2259 -0.5469
  825MPD2    C312188   0.119   1.724  15.336  0.1782  0.2480  0.2281
  825MPD2    C412189   0.253   1.683  15.318 -0.4914  0.0867 -0.2501
  825MPD2    C512190   0.282   1.551  15.300  0.2776  0.5383 -0.0643
  825MPD2     H12191   4.654   1.663  15.369  0.3567  1.0576  1.1834
  825MPD2    H112192   0.335   1.754  15.312  1.2785 -1.8829  0.9347
  825MPD2    H212193   0.210   1.354  15.329  0.0510 -0.0038  0.8268
  825MPD2    H312194   0.384   1.518  15.290 -0.6542 -1.3860 -3.1226
  825MPD2     N12195   0.095   1.864  15.339  0.8885  0.7141 -0.2415
  825MPD2    H512196   0.175   1.921  15.315  1.7869 -0.4199  0.1050
  825MPD2    N112197   4.683   1.399  15.389 -0.4269 -0.1646 -0.1682
  825MPD2    H712198   4.709   1.301  15.395  1.1073  0.1711 -1.3847
  826MPD2     C12199   4.144   1.513  13.354 -0.4789 -1.3384 -0.5208
  826MPD2    C112200   4.201   1.499  13.475 -0.0658  0.4028 -0.5246
  826MPD2    C212201   4.119   1.512  13.586 -0.0172 -0.8081  0.0471
  826MPD2    C312202   3.988   1.548  13.579  1.1970  0.1952  0.2034
  826MPD2    C412203   3.926   1.535  13.460 -0.5523  0.2852  0.8300
  826MPD2    C512204   4.002   1.525  13.346  0.2004  0.0254  1.4279
  826MPD2     H12205   4.163   1.494  13.683 -1.6117 -2.5669  0.4261
  826MPD2    H112206   3.817   1.534  13.459 -0.5581 -0.7324  2.7761
  826MPD2    H212207   4.210   1.523  13.268 -0.8491  1.4190 -0.4984
  826MPD2    H312208   3.966   1.538  13.245  2.4629 -0.8492  0.5082
  826MPD2     N12209   3.904   1.576  13.690  0.4045 -0.5217 -0.0957
  826MPD2    H512210   3.810   1.612  13.676 -0.2286 -1.5657  1.4214
  826MPD2    N112211   4.339   1.463  13.481  0.2414 -0.0290  0.3599
  826MPD2    H712212   4.390   1.443  13.396 -2.1899  0.4678 -1.2168
  827MPD2     C12213   0.171   3.244   9.933 -0.1419 -0.0911  0.2009
  827MPD2    C112214   0.160   3.116   9.989  0.1620  0.3197 -0.3176
  827MPD2    C212215   0.056   3.036   9.940 -0.6218  0.1752  0.2113
  827MPD2    C312216   4.701   3.073   9.839  1.5924  0.4559 -0.2193
  827MPD2    C412217   4.724   3.206   9.793 -0.1170 -0.1877  0.1136
  827MPD2    C512218   0.089   3.286   9.837  0.1857 -0.1959 -1.0483
  827MPD2     H12219   0.041   2.937   9.980  1.4179  0.2787  1.2185
  827MPD2    H112220   4.665   3.256   9.718 -1.0790 -0.7721  0.4762
  827MPD2    H212221   0.254   3.309   9.959  1.5189 -1.4481 -1.7062
  827MPD2    H312222   0.108   3.387   9.801  2.2192 -0.5904 -1.0564
  827MPD2     N12223   4.598   2.984   9.796 -0.1668  0.0129  0.4474
  827MPD2    H512224   4.608   2.889   9.829 -3.4047 -0.2777  0.5864
  827MPD2    N112225   0.260   3.075  10.083 -0.2063 -0.1473 -0.1491
  827MPD2    H712226   0.334   3.142  10.103  0.1336 -0.9210  1.2097
  828MPD2     C12227   3.801   3.005  12.459 -0.3532 -0.0030  0.1727
  828MPD2    C112228   3.697   3.031  12.369 -0.2118 -0.2272 -1.1026
  828MPD2    C212229   3.719   3.088  12.249  0.4407 -0.2887  0.5174
  828MPD2    C312230   3.842   3.138  12.219 -0.6664  0.3601  0.6026
  828MPD2    C412231   3.943   3.122  12.309 -0.1118 -0.2763 -0.4550
  828MPD2    C512232   3.921   3.053  12.425  0.1458  0.0572  0.7158
  828MPD2     H12233   3.636   3.114  12.183  0.6310  0.6568  0.6546
  828MPD2    H112234   4.044   3.158  12.296 -0.1104  0.0720  0.5345
  828MPD2    H212235   3.792   2.964  12.559 -0.0310 -0.8118 -0.1266
  828MPD2    H312236   4.001   3.023  12.492  0.8124  1.8686  0.7366
  828MPD2     N12237   3.873   3.193  12.096 -0.1233 -0.2698  0.1999
  828MPD2    H512238   3.951   3.258  12.093 -0.3145 -0.0764 -0.5608
  828MPD2    N112239   3.569   2.982  12.386 -0.3228 -0.2605  0.3502
  828MPD2    H712240   3.499   3.019  12.323 -0.4206  0.1771  0.7171
  829MPD2     C12241   3.054   3.110  11.760  0.8083  0.0942  0.0702
  829MPD2    C112242   2.986   2.999  11.814 -0.2840  0.0431  0.1937
  829MPD2    C212243   3.027   2.950  11.937 -0.0373 -0.2065  0.3237
  829MPD2    C312244   3.128   3.011  12.011 -1.0101  0.7951 -0.1275
  829MPD2    C412245   3.186   3.122  11.957 -0.0421 -0.4210 -0.5420
  829MPD2    C512246   3.153   3.168  11.832 -0.3290  0.2571 -0.1199
  829MPD2     H12247   2.989   2.851  11.961 -1.6726 -0.5680 -3.7205
  829MPD2    H112248   3.264   3.174  12.010 -2.1791  0.9082  1.3244
  829MPD2    H212249   3.029   3.149  11.662 -0.0837 -0.8302 -0.0601
  829MPD2    H312250   3.209   3.248  11.785 -1.2971  0.5608 -0.7655
  829MPD2     N12251   3.175   2.966  12.140  0.1553  0.3330 -0.2136
  829MPD2    H512252   3.251   3.022  12.176  0.1546 -1.2813  2.2798
  829MPD2    N112253   2.872   2.947  11.741  0.5375  0.0931 -0.0921
  829MPD2    H712254   2.848   3.004  11.660  0.4207 -0.3397 -0.3686
  830MPD2     C12255   3.705   0.455  16.186 -0.3045 -0.3113  0.4865
  830MPD2    C112256   3.751   0.579  16.220  0.7682 -0.0185  0.8732
  830MPD2    C212257   3.810   0.655  16.130  0.0060 -0.1440 -0.4673
  830MPD2    C312258   3.815   0.621  15.996  0.3849 -0.7609  0.2730
  830MPD2    C412259   3.747   0.508  15.958 -0.2018  0.0571  0.3231
  830MPD2    C512260   3.708   0.419  16.052 -0.7292 -0.1747  0.5542
  830MPD2     H12261   3.850   0.748  16.170  0.1954  0.5539 -2.2875
  830MPD2    H112262   3.736   0.469  15.857  0.9288  2.4871 -0.7442
  830MPD2    H212263   3.651   0.386  16.249 -0.3229  0.4131  1.2594
  830MPD2    H312264   3.666   0.324  16.023 -0.0899  0.4331 -2.3363
  830MPD2     N12265   3.861   0.698  15.887 -0.1086  0.2152 -0.0096
  830MPD2    H512266   3.852   0.660  15.793 -0.4747 -0.5937  0.3527
  830MPD2    N112267   3.730   0.606  16.361  0.5594 -0.2562 -0.2573
  830MPD2    H712268   3.696   0.521  16.405  0.7881 -0.5207 -0.5971
  831MPD2     C12269   3.911   2.686  16.427  0.0148  0.0277 -0.1722
  831MPD2    C112270   3.945   2.555  16.403 -0.0133  0.4082  0.5285
  831MPD2    C212271   3.870   2.448  16.453 -0.5366 -0.4590 -0.1549
  831MPD2    C312272   3.751   2.471  16.522 -1.8072 -1.1063 -0.4675
  831MPD2    C412273   3.731   2.599  16.563  0.7117  0.1171 -0.1676
  831MPD2    C512274   3.810   2.697  16.516  0.1990 -0.0036  0.1077
  831MPD2     H12275   3.896   2.352  16.410  2.5038  0.2873  0.0413
  831MPD2    H112276   3.649   2.627  16.629  0.6686 -0.6387  0.1068
  831MPD2    H212277   3.964   2.773  16.391 -1.0910  0.3280 -1.0652
  831MPD2    H312278   3.788   2.797  16.551 -1.6609 -0.6133  0.6854
  831MPD2     N12279   3.655   2.373  16.545 -0.3104 -0.7104 -0.5564
  831MPD2    H512280   3.564   2.407  16.577 -0.5732 -1.1975 -0.7901
  831MPD2    N112281   4.056   2.536  16.324  0.6797 -0.0324 -0.1397
  831MPD2    H712282   4.077   2.618  16.267  0.5643  0.8141  1.0160
  832MPD2     C12283   2.816   3.893  17.448 -0.5246 -0.4593 -0.6226
  832MPD2    C112284   2.801   3.981  17.340 -0.4547 -0.1418  0.2431
  832MPD2    C212285   2.680   3.971  17.269 -0.0112  0.1471 -0.2950
  832MPD2    C312286   2.584   3.869  17.296  0.4322  0.4326  0.3728
  832MPD2    C412287   2.605   3.781  17.404 -0.2561 -0.1134  0.8164
  832MPD2    C512288   2.724   3.797  17.476 -0.0073 -0.0397 -0.5195
  832MPD2     H12289   2.653   4.029  17.182 -0.4834 -1.1789 -1.0214
  832MPD2    H112290   2.544   3.694  17.427 -0.4592 -0.6593 -1.7937
  832MPD2    H212291   2.901   3.907  17.514 -0.0700 -0.7675 -1.1413
  832MPD2    H312292   2.753   3.727  17.554  1.7075  1.5699  0.2891
  832MPD2     N12293   2.464   3.854  17.214 -0.2447  0.7715 -0.5211
  832MPD2    H512294   2.396   3.786  17.248  1.4286 -0.9347 -0.5811
  832MPD2    N112295   2.903   4.079  17.320  0.7216  0.6088 -0.5696
  832MPD2    H712296   2.978   4.076  17.389  1.0997 -0.9244 -1.0417
  833MPD2     C12297   3.766   0.563  12.751 -0.1379  0.7669 -0.4530
  833MPD2    C112298   3.794   0.683  12.690 -0.5515 -0.1647  0.1298
  833MPD2    C212299   3.923   0.701  12.638  0.0838  0.6078  0.2857
  833MPD2    C312300   4.016   0.604  12.650 -0.3298  0.7939 -0.1717
  833MPD2    C412301   3.992   0.496  12.732  0.1897  0.8617 -0.5488
  833MPD2    C512302   3.862   0.469  12.769  0.0539 -0.9458 -0.5580
  833MPD2     H12303   3.946   0.788  12.577  1.5399  0.3164  0.4257
  833MPD2    H112304   4.073   0.425  12.747  0.3453  0.0875 -4.8741
  833MPD2    H212305   3.662   0.543  12.774  0.0712  0.5430  0.3095
  833MPD2    H312306   3.848   0.379  12.829 -4.1928  1.3197  1.8348
  833MPD2     N12307   4.143   0.619  12.592  0.6765 -0.1256 -0.1789
  833MPD2    H512308   4.211   0.545  12.607  0.5280 -0.0528  0.8565
  833MPD2    N112309   3.699   0.785  12.675  0.2429  0.0165 -0.6079
  833MPD2    H712310   3.600   0.764  12.690  0.1063  0.2855 -1.1545
  834MPD2     C12311   4.449   0.033  12.147 -0.0344 -0.5755  0.2621
  834MPD2    C112312   4.434   0.131  12.051 -0.4739  0.0057  0.0233
  834MPD2    C212313   4.447   0.263  12.088 -0.0214  0.2646  0.5286
  834MPD2    C312314   4.460   0.300  12.221 -0.1549  0.2764  0.1796
  834MPD2    C412315   4.484   0.198  12.319 -0.1063 -0.1532 -0.0145
  834MPD2    C512316   4.467   0.069  12.278 -0.7245  0.8802 -0.6471
  834MPD2     H12317   4.436   0.340  12.013 -3.8821 -0.8366  0.0016
  834MPD2    H112318   4.505   0.225  12.421 -1.4045  0.4642  0.0847
  834MPD2    H212319   4.433   4.663  12.119 -1.9446  0.5086 -2.6803
  834MPD2    H312320   4.476   4.717  12.343 -1.6339  2.9546  2.2293
  834MPD2     N12321   4.447   0.432  12.269  0.0826 -0.4153 -0.5853
  834MPD2    H512322   4.493   0.440  12.359  0.1922  0.1612 -0.6922
  834MPD2    N112323   4.398   0.091  11.925  0.2782 -0.3335 -0.1243
  834MPD2    H712324   4.371   4.728  11.923  0.7277 -0.5183  2.1525
  835MPD2     C12325   4.398   3.168  11.034  0.2389 -0.4329 -0.2681
  835MPD2    C112326   4.315   3.211  11.135 -0.3859  0.1815  0.0287
  835MPD2    C212327   4.366   3.215  11.268  0.3907  0.0602 -0.2475
  835MPD2    C312328   4.490   3.159  11.300 -0.3609  0.0824  0.2110
  835MPD2    C412329   4.572   3.105  11.206  0.1198 -0.2475  0.2982
  835MPD2    C512330   4.526   3.115  11.073 -0.3340 -0.2952  0.1442
  835MPD2     H12331   4.302   3.248  11.349  2.2309 -0.1428  1.2911
  835MPD2    H112332   4.663   3.050  11.227 -0.2598 -0.3582  1.6308
  835MPD2    H212333   4.364   3.144  10.934  2.3802 -0.6988 -0.9244
  835MPD2    H312334   4.580   3.073  10.989  0.4414 -0.9764  0.9859
  835MPD2     N12335   4.540   3.146  11.436  0.1909  0.3636 -0.1024
  835MPD2    H512336   4.624   3.089  11.444 -0.1728  0.5436  5.4383
  835MPD2    N112337   4.182   3.254  11.108  0.3513 -0.2629  0.3707
  835MPD2    H712338   4.136   3.297  11.188  0.8274  0.8019  0.0764
  836MPD2     C12339   4.546   3.541  12.167  0.4184  0.3906  0.1983
  836MPD2    C112340   4.492   3.417  12.169 -0.2632 -0.0267  0.1571
  836MPD2    C212341   4.427   3.376  12.281  0.0175  0.4587 -0.4393
  836MPD2    C312342   4.417   3.464  12.390 -0.2799 -0.1477 -0.1015
  836MPD2    C412343   4.477   3.585  12.382  0.9230 -0.0227  0.1298
  836MPD2    C512344   4.545   3.623  12.272  0.6598  0.3659 -0.5986
  836MPD2     H12345   4.381   3.278  12.274 -0.9306  0.7991  1.1362
  836MPD2    H112346   4.452   3.668  12.447 -0.3802 -1.5473  1.5817
  836MPD2    H212347   4.600   3.559  12.075  0.9584 -1.9333  0.0523
  836MPD2    H312348   4.584   3.723  12.259  1.1278  0.0700 -1.4631
  836MPD2     N12349   4.338   3.437  12.503 -0.2561  0.1803 -0.4748
  836MPD2    H512350   4.319   3.522  12.554  0.8209  1.4813 -2.2478
  836MPD2    N112351   4.517   3.338  12.052 -0.2082 -0.2077  0.5488
  836MPD2    H712352   4.569   3.387  11.981  1.1515  0.9514  2.3375
  837MPD2     C12353   2.545   2.380  10.176  0.8689  0.2508  0.4595
  837MPD2    C112354   2.408   2.364  10.185  0.5310 -0.8010 -0.8434
  837MPD2    C212355   2.338   2.478  10.221 -0.6753 -0.2161 -0.6227
  837MPD2    C312356   2.402   2.602  10.227  0.3102 -0.3539 -0.1478
  837MPD2    C412357   2.536   2.610  10.220  0.3192 -0.3335 -0.4269
  837MPD2    C512358   2.608   2.502  10.195 -0.3371  0.0335 -0.2485
  837MPD2     H12359   2.230   2.474  10.213 -0.5797 -0.2587 -1.9145
  837MPD2    H112360   2.592   2.700  10.243 -0.6244  0.4515 -1.2323
  837MPD2    H212361   2.602   2.297  10.137 -1.2716 -0.7933 -0.4228
  837MPD2    H312362   2.714   2.522  10.189 -0.5759  1.0598 -1.2014
  837MPD2     N12363   2.322   2.714  10.243 -0.0802 -0.2642 -0.6688
  837MPD2    H512364   2.224   2.691  10.258 -0.2027 -0.0588 -1.1379
  837MPD2    N112365   2.342   2.246  10.146 -0.5270  0.2842 -0.1729
  837MPD2    H712366   2.241   2.248  10.149 -0.5625  1.9061 -2.0003
  838MPD2     C12367   1.232   1.116  11.937  0.1737  0.5331  0.1516
  838MPD2    C112368   1.147   1.018  11.898 -0.4983 -0.0147  0.0146
  838MPD2    C212369   1.058   0.964  11.990  0.1096  0.8317 -0.4818
  838MPD2    C312370   1.057   1.008  12.120  0.0123 -0.0321 -0.1431
  838MPD2    C412371   1.133   1.117  12.156 -0.6226  0.4057  0.1091
  838MPD2    C512372   1.212   1.178  12.062 -0.0898  0.3317 -0.7290
  838MPD2     H12373   0.981   0.893  11.960 -1.1353  2.4725 -1.1321
  838MPD2    H112374   1.121   1.169  12.250  1.5810 -1.4499  1.4471
  838MPD2    H212375   1.301   1.162  11.868  1.0234 -2.3793 -0.9546
  838MPD2    H312376   1.261   1.273  12.079 -0.2187  0.0029  1.4534
  838MPD2     N12377   0.983   0.949  12.220 -0.6706  0.0420 -0.2084
  838MPD2    H512378   0.981   0.988  12.314 -1.3572  0.6293 -0.4702
  838MPD2    N112379   1.133   0.981  11.763  0.1192 -0.2053 -0.2149
  838MPD2    H712380   1.049   0.930  11.741 -1.5232  2.6383 -0.5512
  839MPD2     C12381   0.722   0.415  11.885 -0.1926  0.1493  0.1120
  839MPD2    C112382   0.754   0.364  11.767  0.5017 -0.5286 -0.1279
  839MPD2    C212383   0.824   0.445  11.681 -0.3194 -0.6194  0.2491
  839MPD2    C312384   0.841   0.578  11.719 -0.1020  0.0323  1.0567
  839MPD2    C412385   0.809   0.625  11.846  0.0339 -0.4390  0.4980
  839MPD2    C512386   0.740   0.543  11.925 -0.2820 -0.7666 -0.0516
  839MPD2     H12387   0.863   0.407  11.587  0.8995  1.2893 -0.0225
  839MPD2    H112388   0.830   0.726  11.880 -1.1974  0.8583 -2.6017
  839MPD2    H212389   0.675   0.354  11.961 -2.1175  1.8714  0.3121
  839MPD2    H312390   0.714   0.562  12.028  1.7799 -1.1180  0.5359
  839MPD2     N12391   0.892   0.678  11.636 -0.1195 -0.1940 -0.5668
  839MPD2    H512392   0.880   0.766  11.685  0.6611  0.2272 -1.1412
  839MPD2    N112393   0.730   0.227  11.737 -0.1436 -0.1397  0.7313
  839MPD2    H712394   0.773   0.195  11.650  1.1016  1.6952  0.6739
  840MPD2     C12395   0.834   3.226   9.941  0.3555  0.1842 -0.5452
  840MPD2    C112396   0.834   3.194  10.072 -0.1765  0.8204  0.2156
  840MPD2    C212397   0.918   3.262  10.160 -0.4785  0.3110 -0.6055
  840MPD2    C312398   0.985   3.371  10.117 -0.3886  0.1514  0.0503
  840MPD2    C412399   0.974   3.402   9.989 -0.1107 -0.6209  0.1371
  840MPD2    C512400   0.907   3.330   9.891  0.5350  0.3256 -0.1217
  840MPD2     H12401   0.928   3.229  10.263 -1.9644 -1.0132 -0.8909
  840MPD2    H112402   1.030   3.490   9.959  0.3761 -0.7102  0.7931
  840MPD2    H212403   0.762   3.185   9.870 -0.6840  1.1280 -0.0417
  840MPD2    H312404   0.893   3.365   9.789  0.8259 -1.1668 -0.6767
  840MPD2     N12405   1.046   3.462  10.203  0.2521 -0.3781  0.1767
  840MPD2    H512406   1.095   3.539  10.159  1.0315 -1.5141 -0.9355
  840MPD2    N112407   0.749   3.094  10.117 -0.0612  0.0861  0.3710
  840MPD2    H712408   0.688   3.059  10.043  0.5019  0.6500 -0.3605
  841MPD2     C12409   0.507   3.040  14.888  0.6257 -0.4611  0.0659
  841MPD2    C112410   0.577   2.948  14.968  1.1401 -0.2972 -0.0341
  841MPD2    C212411   0.719   2.961  14.976  0.1186  0.0545 -1.0254
  841MPD2    C312412   0.788   3.050  14.889 -0.0211 -0.1514  0.0747
  841MPD2    C412413   0.710   3.114  14.789 -0.0798  1.0191 -0.0772
  841MPD2    C512414   0.575   3.111  14.796 -0.3130  0.1795  0.1635
  841MPD2     H12415   0.783   2.903  15.042  0.8516 -1.4795 -3.0791
  841MPD2    H112416   0.769   3.171  14.719  1.5917 -1.1373 -0.4239
  841MPD2    H212417   0.400   3.057  14.888  0.5038 -1.2697  1.6522
  841MPD2    H312418   0.532   3.177  14.722  0.9309  1.0276  0.1918
  841MPD2     N12419   0.930   3.058  14.901 -0.4390  0.2983  0.1748
  841MPD2    H512420   0.971   2.997  14.972 -1.1992  0.0273  0.3791
  841MPD2    N112421   0.510   2.859  15.052 -0.0078  0.2531  0.7654
  841MPD2    H712422   0.566   2.794  15.107 -0.3268  0.3421  1.1898
  842MPD2     C12423   0.959   3.685  17.131 -0.2569  0.0367  0.1789
  842MPD2    C112424   1.046   3.737  17.039  0.5006  0.3940 -0.2744
  842MPD2    C212425   1.180   3.698  17.053 -0.1086 -0.4152 -0.8016
  842MPD2    C312426   1.226   3.608  17.146 -0.7634 -0.3475 -0.2351
  842MPD2    C412427   1.134   3.558  17.232 -0.1340 -0.0787 -0.1432
  842MPD2    C512428   1.004   3.594  17.224 -1.1999  0.5520 -0.1921
  842MPD2     H12429   1.246   3.743  16.980  0.8536 -0.4060  0.0686
  842MPD2    H112430   1.166   3.493  17.313 -1.5951  2.2835  2.3536
  842MPD2    H212431   0.853   3.708  17.130 -0.3825 -0.7399 -2.9573
  842MPD2    H312432   0.927   3.562  17.293 -1.2694  0.5079 -0.2900
  842MPD2     N12433   1.363   3.569  17.169  0.0649  0.3880 -0.3005
  842MPD2    H512434   1.385   3.502  17.242 -1.3851 -0.7547 -0.9017
  842MPD2    N112435   1.002   3.835  16.944  0.3914 -0.1358  0.9537
  842MPD2    H712436   0.911   3.873  16.968  0.2215  0.1945 -0.2344
  843MPD2     C12437   3.738   0.009  17.696 -1.0271  0.4858 -0.2955
  843MPD2    C112438   3.793   4.662   0.055 -0.1837  0.5338 -0.7862
  843MPD2    C212439   3.902   4.708   0.122  0.5589 -0.0516 -0.2510
  843MPD2    C312440   3.960   0.095   0.089 -0.3174 -0.7154 -0.4695
  843MPD2    C412441   3.900   0.182  17.732 -0.1742  0.8435  0.2355
  843MPD2    C512442   3.787   0.132  17.678 -1.0723  0.2291 -0.5068
  843MPD2     H12443   3.947   4.646   0.198 -0.1952  0.4543  0.6154
  843MPD2    H112444   3.942   0.278  17.704 -1.2014  0.9615 -0.8759
  843MPD2    H212445   3.649   4.720  17.638 -1.7575 -1.0151  1.4108
  843MPD2    H312446   3.730   0.195  17.610 -2.0319 -0.5263 -0.3992
  843MPD2     N12447   4.084   0.146   0.141  0.0720  0.3604  0.0968
  843MPD2    H512448   4.129   0.223   0.091 -1.4567  1.5235  0.5063
  843MPD2    N112449   3.734   4.531   0.076  0.0892 -0.1885  0.5005
  843MPD2    H712450   3.652   4.510   0.019 -0.7166 -1.3696  2.0918
  844MPD2     C12451   2.118   3.281  16.924  0.1165 -0.6652  0.5321
  844MPD2    C112452   2.154   3.329  16.797  0.0124 -0.5686  0.0135
  844MPD2    C212453   2.257   3.425  16.779  1.2549  0.1197  0.3855
  844MPD2    C312454   2.317   3.466  16.893 -0.7310 -0.0063 -0.1252
  844MPD2    C412455   2.284   3.422  17.019  0.4647  0.2285  0.4384
  844MPD2    C512456   2.178   3.336  17.031  0.4540  0.9517 -0.0675
  844MPD2     H12457   2.289   3.460  16.681  0.3938 -0.6275 -0.1563
  844MPD2    H112458   2.330   3.447  17.114 -1.5172 -0.4705  1.5840
  844MPD2    H212459   2.048   3.202  16.947 -0.3125 -0.5876 -0.4945
  844MPD2    H312460   2.158   3.288  17.126 -2.7435  0.1336 -1.1507
  844MPD2     N12461   2.424   3.562  16.883 -0.5653 -0.2681 -0.2522
  844MPD2    H512462   2.431   3.603  16.790  0.9679 -0.0175 -0.0180
  844MPD2    N112463   2.096   3.270  16.681 -0.9674  0.1267 -0.3175
  844MPD2    H712464   2.131   3.302  16.591 -0.2367  1.7910  0.5668
  845MPD2     C12465   2.630   4.515  16.717  0.2692 -0.0324  0.8261
  845MPD2    C112466   2.688   4.496  16.845  0.2466 -0.0707  0.3979
  845MPD2    C212467   2.714   4.368  16.888 -0.6462 -0.1715  0.0949
  845MPD2    C312468   2.691   4.258  16.812  0.6724  0.3149  0.2866
  845MPD2    C412469   2.629   4.284  16.689  0.0753 -0.2057 -0.0939
  845MPD2    C512470   2.617   4.408  16.632  0.5084  0.2407 -0.1489
  845MPD2     H12471   2.767   4.349  16.981 -2.6689 -1.0383  1.0706
  845MPD2    H112472   2.621   4.201  16.620 -0.8674 -1.9736  2.1454
  845MPD2    H212473   2.605   4.610  16.671  1.6012 -0.0859 -0.0177
  845MPD2    H312474   2.578   4.417  16.532  0.4856  1.8678  0.0044
  845MPD2     N12475   2.703   4.126  16.867  0.3506 -0.0021 -0.0539
  845MPD2    H512476   2.744   4.119  16.959  3.0468 -1.0924 -1.3328
  845MPD2    N112477   2.698   4.609  16.927  0.3000 -0.2013 -0.1363
  845MPD2    H712478   2.658   4.698  16.900 -1.1728 -0.4550  1.1594
  846MPD2     C12479   3.464   4.731  13.468 -1.0977  0.4622 -0.0680
  846MPD2    C112480   3.367   0.060  13.542  0.2088  0.2983  0.0710
  846MPD2    C212481   3.364   0.044  13.677  0.3096  0.2121  0.1749
  846MPD2    C312482   3.455   4.694  13.739  0.5966  0.5767  0.0416
  846MPD2    C412483   3.548   4.621  13.663  0.3848  0.4196  0.6633
  846MPD2    C512484   3.557   4.649  13.525  0.1968  0.3140 -0.3074
  846MPD2     H12485   3.294   0.088  13.746  0.0390  1.3228 -0.8042
  846MPD2    H112486   3.614   4.539  13.691  1.5327  0.7397 -1.0920
  846MPD2    H212487   3.474   0.022  13.363 -1.2553  2.3826  0.3764
  846MPD2    H312488   3.631   4.609  13.457 -1.2280  0.6692 -2.0633
  846MPD2     N12489   3.442   4.681  13.878  0.0943 -0.2838 -0.7023
  846MPD2    H512490   3.368   4.731  13.925 -2.3692 -2.6523 -2.0558
  846MPD2    N112491   3.270   0.143  13.491 -0.8319  0.1740 -0.1436
  846MPD2    H712492   3.223   0.193  13.566 -1.1771  1.3524 -1.1470
  847MPD2     C12493   3.262   0.644  14.667  0.1472 -0.8412 -0.0189
  847MPD2    C112494   3.311   0.756  14.730  0.3695  0.4664  0.1929
  847MPD2    C212495   3.441   0.749  14.792 -0.3057  0.6131 -0.0342
  847MPD2    C312496   3.509   0.626  14.789 -0.2484 -0.6024  0.1677
  847MPD2    C412497   3.449   0.505  14.741  0.3509  0.5612  0.3598
  847MPD2    C512498   3.329   0.521  14.673 -0.3064  0.0263  0.1066
  847MPD2     H12499   3.479   0.832  14.850  1.5293 -1.2137  1.3924
  847MPD2    H112500   3.498   0.408  14.740  0.6023  0.7220 -3.0979
  847MPD2    H212501   3.163   0.637  14.625  0.3907 -1.4048 -0.4997
  847MPD2    H312502   3.286   0.440  14.617  0.0250 -0.4487  0.5370
  847MPD2     N12503   3.638   0.635  14.844 -0.4563  0.1363  0.6299
  847MPD2    H512504   3.665   0.729  14.869  0.2075  0.7266 -2.2950
  847MPD2    N112505   3.239   0.879  14.737  0.3218  0.0253 -0.2914
  847MPD2    H712506   3.289   0.953  14.787 -2.0433  1.8449 -0.6046
  848MPD2     C12507   2.033   4.083  16.493 -0.5712  0.4805  0.1009
  848MPD2    C112508   2.055   4.142  16.610 -0.8271 -1.2092  0.1062
  848MPD2    C212509   2.025   4.280  16.617  0.1430  0.3883  0.0985
  848MPD2    C312510   1.974   4.351  16.513 -0.8309 -0.3337  0.1180
  848MPD2    C412511   1.942   4.283  16.396  0.0145  0.8369  0.1660
  848MPD2    C512512   1.979   4.156  16.385  0.4853 -0.7547 -0.3895
  848MPD2     H12513   2.050   4.333  16.708  0.8017  0.2419  0.0058
  848MPD2    H112514   1.892   4.342  16.319 -0.2357  2.2708  1.4158
  848MPD2    H212515   2.062   3.979  16.482  1.5954  1.2779 -1.6777
  848MPD2    H312516   1.949   4.112  16.291  1.0640  1.1171 -1.4516
  848MPD2     N12517   1.920   4.485  16.520  1.0058 -0.1666  0.2402
  848MPD2    H512518   1.858   4.516  16.446 -0.6955 -1.1120  1.2767
  848MPD2    N112519   2.105   4.069  16.723  0.0385  0.1701  0.0505
  848MPD2    H712520   2.128   4.125  16.805 -1.5330  0.4334  0.3139
  849MPD2     C12521   0.098   3.561  14.095 -0.1029  0.0662  1.4970
  849MPD2    C112522   0.222   3.622  14.125  0.6688  0.1079 -0.9855
  849MPD2    C212523   0.274   3.617  14.253  0.1362  0.2837 -0.1214
  849MPD2    C312524   0.211   3.550  14.353 -0.1363 -0.2656 -0.4064
  849MPD2    C412525   0.091   3.487  14.325  0.2255  0.1833 -0.4057
  849MPD2    C512526   0.034   3.500  14.202  1.1286 -0.2104 -1.1599
  849MPD2     H12527   0.371   3.660  14.275  0.4596  1.9296 -4.7751
  849MPD2    H112528   0.032   3.436  14.400  2.1234  0.8267  1.5364
  849MPD2    H212529   0.050   3.556  13.998 -1.3069 -0.0254  2.0863
  849MPD2    H312530   4.671   3.454  14.190 -0.2637  2.5730 -0.6993
  849MPD2     N12531   0.276   3.523  14.471 -0.2151 -0.0052  0.8250
  849MPD2    H512532   0.256   3.441  14.527  0.9573  1.0568  2.7938
  849MPD2    N112533   0.293   3.688  14.018 -0.2704 -0.5096  0.3597
  849MPD2    H712534   0.239   3.709  13.935 -0.2283  1.9308  0.9489
  850MPD2     C12535   3.500   1.573  14.892 -0.1171 -0.0787  0.4863
  850MPD2    C112536   3.527   1.673  14.990 -0.8368 -0.4874 -0.1605
  850MPD2    C212537   3.659   1.678  15.038 -0.2185 -0.5269 -0.5539
  850MPD2    C312538   3.761   1.589  14.995 -0.2519  0.2904 -0.1207
  850MPD2    C412539   3.721   1.499  14.899  0.2022  0.4132  0.1065
  850MPD2    C512540   3.598   1.492  14.846 -0.2249  0.9158 -0.1103
  850MPD2     H12541   3.684   1.761  15.103 -0.6948 -0.0966 -0.9204
  850MPD2    H112542   3.792   1.430  14.853 -1.3363 -0.0445 -1.5902
  850MPD2    H212543   3.403   1.580  14.843 -0.5533  1.5548  1.5833
  850MPD2    H312544   3.573   1.416  14.773 -1.0596  1.2554 -0.1830
  850MPD2     N12545   3.896   1.592  15.041 -0.2179  0.1261  0.5255
  850MPD2    H512546   3.960   1.515  15.022 -0.2202  0.2035  0.1895
  850MPD2    N112547   3.417   1.750  15.036  0.5032  0.1352  0.4103
  850MPD2    H712548   3.333   1.735  14.981  1.1019  0.0419 -0.4887
  851MPD2     C12549   3.987   1.717  15.707 -0.4462  0.5314  0.0800
  851MPD2    C112550   3.883   1.655  15.634 -0.4422  0.4887  0.0409
  851MPD2    C212551   3.874   1.514  15.629  0.4947  0.7089  0.3928
  851MPD2    C312552   3.974   1.438  15.686  0.3176  0.1960 -0.5186
  851MPD2    C412553   4.080   1.502  15.744 -0.1381 -0.4394 -0.0009
  851MPD2    C512554   4.084   1.641  15.769  0.5340  0.5279  0.6608
  851MPD2     H12555   3.789   1.460  15.590  1.5176 -0.5898 -0.0127
  851MPD2    H112556   4.170   1.453  15.781  0.3402 -0.8593 -1.6934
  851MPD2    H212557   3.981   1.823  15.731  0.6230  0.7315 -0.5293
  851MPD2    H312558   4.161   1.688  15.829  1.9326 -1.3048  0.3122
  851MPD2     N12559   3.970   1.300  15.678  0.8125  0.5021 -0.7098
  851MPD2    H512560   3.888   1.258  15.635  0.3252  1.2702 -0.5208
  851MPD2    N112561   3.787   1.740  15.580  0.0320  0.0260  0.4783
  851MPD2    H712562   3.790   1.838  15.604  2.0302  0.1063 -0.0968
  852MPD2     C12563   3.067   0.502  10.810 -0.4324 -0.5850 -0.1918
  852MPD2    C112564   3.180   0.468  10.885 -0.0472  1.2708 -0.1658
  852MPD2    C212565   3.294   0.545  10.867  0.0012  0.3350 -0.0218
  852MPD2    C312566   3.297   0.649  10.775 -0.5579  0.1489  0.3967
  852MPD2    C412567   3.177   0.682  10.708  0.1449 -0.6396  0.1385
  852MPD2    C512568   3.065   0.620  10.739 -0.2357  0.5104 -0.1167
  852MPD2     H12569   3.377   0.525  10.934 -0.0750 -1.2534 -0.4053
  852MPD2    H112570   3.163   0.773  10.650 -1.5061 -1.1910 -0.3132
  852MPD2    H212571   2.975   0.445  10.818 -2.1842  2.4330  0.8858
  852MPD2    H312572   2.969   0.650  10.699 -1.2745 -2.8802 -0.1438
  852MPD2     N12573   3.420   0.718  10.758 -0.7206 -0.0576  0.2044
  852MPD2    H512574   3.500   0.685  10.812  0.1095  1.0292 -0.3525
  852MPD2    N112575   3.175   0.353  10.976  0.1899  0.2932 -0.0407
  852MPD2    H712576   3.251   0.346  11.043  0.0701  3.2849  0.4148
  853MPD2     C12577   0.932   3.757  12.399  0.1187 -0.0573  0.0986
  853MPD2    C112578   0.807   3.758  12.339 -0.1777 -0.3765 -0.8054
  853MPD2    C212579   0.800   3.807  12.204 -0.5104 -0.1893  0.2439
  853MPD2    C312580   0.909   3.850  12.132 -0.2845  0.6414 -0.2738
  853MPD2    C412581   1.032   3.848  12.198 -0.1618 -0.0113 -0.1540
  853MPD2    C512582   1.042   3.799  12.325 -0.1419 -0.4206  0.2212
  853MPD2     H12583   0.709   3.809  12.146 -0.8572  0.3886  0.8039
  853MPD2    H112584   1.122   3.871  12.142  0.6030 -0.7003  0.7779
  853MPD2    H212585   0.939   3.702  12.493  1.7826  0.9753  0.5741
  853MPD2    H312586   1.142   3.783  12.362 -0.1593  1.2301  1.0125
  853MPD2     N12587   0.903   3.891  11.996  0.1368  0.8572 -0.8417
  853MPD2    H512588   0.985   3.918  11.944  1.1443 -0.5310  0.0172
  853MPD2    N112589   0.695   3.725  12.419  0.3542 -0.2597  0.4275
  853MPD2    H712590   0.702   3.718  12.520  1.7562 -0.8641  0.2827
  854MPD2     C12591   1.688   3.887  13.036  0.1523 -0.1597 -0.1883
  854MPD2    C112592   1.781   3.951  12.959 -0.1288  1.2592  0.2444
  854MPD2    C212593   1.919   3.913  12.969 -0.9376 -0.7942 -0.0464
  854MPD2    C312594   1.955   3.808  13.052 -0.7178  0.0449  0.2262
  854MPD2    C412595   1.854   3.754  13.129  0.1967 -0.0789  0.1367
  854MPD2    C512596   1.724   3.784  13.117 -0.3659 -0.9909  0.2256
  854MPD2     H12597   1.996   3.962  12.910 -1.6376 -0.8051 -0.9630
  854MPD2    H112598   1.865   3.663  13.188  0.2312  1.8174  3.0161
  854MPD2    H212599   1.585   3.922  13.045 -0.0561 -0.7364 -0.3087
  854MPD2    H312600   1.651   3.719  13.164  0.7820 -1.8115  0.8762
  854MPD2     N12601   2.084   3.746  13.053 -0.0002 -0.5118  0.5989
  854MPD2    H512602   2.094   3.661  13.108  1.8297 -0.4551  0.3525
  854MPD2    N112603   1.746   4.061  12.878 -0.0979  0.0187  0.0011
  854MPD2    H712604   1.646   4.078  12.886 -0.3366 -0.9396 -0.9726
  855MPD2     C12605   2.795   3.809  13.709 -0.0665  0.8340  0.6155
  855MPD2    C112606   2.694   3.715  13.727 -0.1087  0.0361 -0.0899
  855MPD2    C212607   2.616   3.684  13.611  0.0059  0.0045 -0.0998
  855MPD2    C312608   2.649   3.735  13.489  0.0538  1.0637 -0.2095
  855MPD2    C412609   2.752   3.822  13.481 -0.3330  0.2469  0.0551
  855MPD2    C512610   2.825   3.858  13.588 -0.5671  0.5242  0.4919
  855MPD2     H12611   2.548   3.600  13.618  2.3806 -1.9558 -0.1242
  855MPD2    H112612   2.768   3.878  13.389  0.7342  2.7609  1.7803
  855MPD2    H212613   2.840   3.854  13.797  0.5426  1.9501 -0.2715
  855MPD2    H312614   2.895   3.939  13.574 -1.7817  1.5139  0.1810
  855MPD2     N12615   2.565   3.705  13.371 -0.3691 -0.5146  0.4697
  855MPD2    H512616   2.600   3.720  13.277 -2.5210  0.5492 -0.1435
  855MPD2    N112617   2.677   3.638  13.842 -0.2228 -0.1724  0.2922
  855MPD2    H712618   2.611   3.561  13.840 -2.9034  2.0944  0.2732
  856MPD2     C12619   4.304   0.298  13.600 -0.4109 -0.0814 -0.8055
  856MPD2    C112620   4.342   0.355  13.720 -0.9660 -0.6189  0.0919
  856MPD2    C212621   4.264   0.447  13.793 -0.3880  0.3559 -0.3847
  856MPD2    C312622   4.136   0.470  13.739  0.0621  0.1360 -0.3179
  856MPD2    C412623   4.091   0.399  13.629 -0.3263  0.0219  0.4509
  856MPD2    C512624   4.173   0.320  13.557 -1.0789  0.4941  0.5194
  856MPD2     H12625   4.301   0.490  13.886  0.3448 -1.9071  0.3574
  856MPD2    H112626   3.999   0.431  13.581 -0.4073 -0.0095  0.5838
  856MPD2    H212627   4.363   0.223  13.549  1.3503  0.7187  0.0839
  856MPD2    H312628   4.133   0.273  13.469 -0.2352 -0.0063  0.4009
  856MPD2     N12629   4.049   0.559  13.809  0.2289  0.4210 -0.1297
  856MPD2    H512630   3.956   0.563  13.768  0.5065 -1.0404 -0.9076
  856MPD2    N112631   4.467   0.325  13.773  0.1466 -0.1496  1.3613
  856MPD2    H712632   4.491   0.386  13.850 -1.7746  2.5550 -0.2063
  857MPD2     C12633   1.035   2.276  13.758 -0.0645 -0.0854 -0.0568
  857MPD2    C112634   1.143   2.359  13.728 -0.4172 -0.3779  0.2429
  857MPD2    C212635   1.164   2.468  13.810  0.0998 -0.6134 -0.4642
  857MPD2    C312636   1.074   2.496  13.924 -0.1340 -0.6669  0.5962
  857MPD2    C412637   0.965   2.411  13.951  0.5099 -0.2138 -0.5030
  857MPD2    C512638   0.949   2.302  13.868  0.2339 -0.1249  0.3237
  857MPD2     H12639   1.243   2.538  13.787  0.1743 -0.5911 -0.1421
  857MPD2    H112640   0.898   2.434  14.034  0.3649  2.3459 -1.3194
  857MPD2    H212641   1.015   2.196  13.688 -3.1913  0.5610  0.1159
  857MPD2    H312642   0.859   2.243  13.885 -0.4830  1.1347  0.8716
  857MPD2     N12643   1.100   2.611  13.996 -0.3446 -0.7372  0.1605
  857MPD2    H512644   1.173   2.667  13.954  1.0877 -2.0383  0.9333
  857MPD2    N112645   1.221   2.331  13.613  0.2856 -0.5402 -0.5406
  857MPD2    H712646   1.185   2.257  13.554 -0.0150 -0.2344 -0.7393
  858MPD2     C12647   2.246   1.349  16.621  0.1983 -0.4573 -0.6732
  858MPD2    C112648   2.370   1.290  16.634  0.1047 -0.6986 -0.5137
  858MPD2    C212649   2.459   1.330  16.731  0.3367  0.1248 -0.1607
  858MPD2    C312650   2.432   1.441  16.813  0.0749 -0.1340  0.4069
  858MPD2    C412651   2.317   1.505  16.785 -0.7184 -0.0672 -0.6341
  858MPD2    C512652   2.222   1.462  16.697 -0.0336 -0.2274  0.3461
  858MPD2     H12653   2.561   1.293  16.734 -0.5721 -2.2610  0.8793
  858MPD2    H112654   2.310   1.605  16.826  4.2617  0.1841 -0.4050
  858MPD2    H212655   2.174   1.320  16.546 -0.0458  0.5953 -0.8416
  858MPD2    H312656   2.136   1.524  16.673 -0.6581 -1.7731 -1.4300
  858MPD2     N12657   2.526   1.499  16.906  0.0537 -0.6417  0.0875
  858MPD2    H512658   2.489   1.572  16.965 -1.8320 -0.9471 -0.6978
  858MPD2    N112659   2.397   1.181  16.546 -0.4705  0.1180  0.5061
  858MPD2    H712660   2.324   1.169  16.477 -0.8925  0.5089  0.8838
  859MPD2     C12661   0.289   2.967  15.459 -0.4833 -0.0601  0.3401
  859MPD2    C112662   0.421   2.993  15.428 -0.0721 -1.0702  0.1369
  859MPD2    C212663   0.511   2.895  15.470 -0.3188  0.1040 -1.2726
  859MPD2    C312664   0.478   2.787  15.551  0.4026 -0.0491  0.5770
  859MPD2    C412665   0.341   2.761  15.574 -0.1125 -0.4112 -1.0320
  859MPD2    C512666   0.254   2.859  15.534 -0.2682  0.1299  0.5306
  859MPD2     H12667   0.615   2.922  15.462  0.0594 -1.3149 -1.2050
  859MPD2    H112668   0.301   2.668  15.612 -4.0657  1.6252 -0.2156
  859MPD2    H212669   0.208   3.031  15.427 -1.1342 -0.4109  1.2792
  859MPD2    H312670   0.148   2.850  15.557 -0.4793  0.6071 -0.2715
  859MPD2     N12671   0.573   2.697  15.605  0.1974 -0.8230  0.0693
  859MPD2    H512672   0.541   2.640  15.683 -0.8889  2.5694  2.1274
  859MPD2    N112673   0.451   3.109  15.350  0.2018  0.0999  0.0316
  859MPD2    H712674   0.372   3.167  15.325  0.5791  0.7557  0.3581
  860MPD2     C12675   3.345   4.059  11.629  0.1165 -0.0813 -0.2328
  860MPD2    C112676   3.307   4.111  11.753 -0.9895  0.1085  0.3141
  860MPD2    C212677   3.216   4.033  11.828 -0.0503  0.1027 -0.7105
  860MPD2    C312678   3.157   3.919  11.777 -0.0897  0.2491 -0.6707
  860MPD2    C412679   3.201   3.867  11.654  1.0187  0.2423 -0.0490
  860MPD2    C512680   3.300   3.936  11.586  0.1955  0.1945  0.3525
  860MPD2     H12681   3.191   4.065  11.928  0.4585 -1.2118 -0.1513
  860MPD2    H112682   3.168   3.769  11.623 -0.2147  0.4426  0.6389
  860MPD2    H212683   3.418   4.111  11.569  1.5433  1.0271  2.4476
  860MPD2    H312684   3.335   3.891  11.494  0.5773 -0.1362  0.6620
  860MPD2     N12685   3.066   3.858  11.863  0.2728  0.1106 -0.1821
  860MPD2    H512686   3.052   3.910  11.949 -0.5951 -0.2669 -0.1008
  860MPD2    N112687   3.363   4.226  11.810 -0.2207 -0.4544  0.3558
  860MPD2    H712688   3.328   4.243  11.903 -0.2562 -0.3584  0.3246
  861MPD2     C12689   1.794   1.750  11.270 -0.0454  0.5727 -0.3113
  861MPD2    C112690   1.840   1.879  11.251  0.2478 -0.2733  1.3808
  861MPD2    C212691   1.803   1.951  11.134 -0.2325  1.0333  0.3779
  861MPD2    C312692   1.708   1.894  11.042 -0.8269 -0.1461  0.6617
  861MPD2    C412693   1.663   1.762  11.065 -0.2047  0.4725 -0.4441
  861MPD2    C512694   1.707   1.693  11.181 -0.7874 -0.1697  0.4732
  861MPD2     H12695   1.843   2.051  11.127  0.5934  0.6897  0.2055
  861MPD2    H112696   1.599   1.717  10.990  0.1442 -0.6383 -0.0865
  861MPD2    H212697   1.813   1.686  11.355 -0.2461  1.2980  0.2811
  861MPD2    H312698   1.673   1.591  11.199  1.0603 -0.8781 -0.0494
  861MPD2     N12699   1.649   1.963  10.933 -0.3918  0.2199 -0.2423
  861MPD2    H512700   1.563   1.921  10.899  1.8443 -2.6438 -2.2893
  861MPD2    N112701   1.930   1.939  11.344 -0.5662  0.5554  0.4648
  861MPD2    H712702   1.958   2.033  11.316  3.3491 -1.5295 -2.5938
  862MPD2     C12703   1.014   1.933  10.582 -0.0939 -0.1548 -0.6401
  862MPD2    C112704   1.102   1.926  10.686 -0.3049 -0.6211  0.1747
  862MPD2    C212705   1.059   1.853  10.796  0.4636  0.0863  0.1063
  862MPD2    C312706   0.941   1.792  10.801  0.0354 -0.3908 -0.8860
  862MPD2    C412707   0.865   1.780  10.681 -0.9335  0.3530  0.3956
  862MPD2    C512708   0.900   1.857  10.572  0.7934 -0.5700 -1.0251
  862MPD2     H12709   1.125   1.848  10.882  1.6000  0.5253 -0.7374
  862MPD2    H112710   0.774   1.722  10.675 -0.4150 -0.3514 -0.8136
  862MPD2    H212711   1.037   1.988  10.492  2.3682  0.2057  0.2098
  862MPD2    H312712   0.827   1.858  10.491  0.5321 -3.2170 -0.8340
  862MPD2     N12713   0.904   1.713  10.911 -0.4386 -0.4112 -0.1904
  862MPD2    H512714   0.837   1.637  10.900 -0.3547 -0.5583  0.3313
  862MPD2    N112715   1.222   1.998  10.703 -0.1511  0.0681  0.4674
  862MPD2    H712716   1.282   1.982  10.783 -0.3885  0.3892  0.7066
  863MPD2     C12717   0.738   0.249  16.750  0.1385  0.5884  0.3316
  863MPD2    C112718   0.797   0.373  16.766 -0.1224  0.2535 -0.4498
  863MPD2    C212719   0.914   0.378  16.839  0.2162  0.2149 -0.3146
  863MPD2    C312720   0.958   0.265  16.912 -0.1332 -0.4252  0.0700
  863MPD2    C412721   0.885   0.145  16.909  0.3416  0.1119 -0.1283
  863MPD2    C512722   0.770   0.141  16.826 -0.1408  0.5123 -0.5997
  863MPD2     H12723   0.960   0.475  16.850 -0.3997  0.3412  1.2213
  863MPD2    H112724   0.931   0.064  16.965  1.3826  1.0679  0.3986
  863MPD2    H212725   0.659   0.242  16.676 -0.7311  0.1016  1.3094
  863MPD2    H312726   0.716   0.048  16.817  2.0256 -0.7319 -0.7543
  863MPD2     N12727   1.063   0.272  17.005 -1.0027 -0.2696 -0.1621
  863MPD2    H512728   1.083   0.202  17.076 -0.5271  0.5183  0.4916
  863MPD2    N112729   0.738   0.484  16.698  0.0160 -0.3044  0.3397
  863MPD2    H712730   0.657   0.458  16.642 -0.1980 -1.3614  1.1221
  864MPD2     C12731   1.619   0.888  17.107  0.3133 -0.3222 -0.3330
  864MPD2    C112732   1.529   0.988  17.081  1.0164  0.1650  0.2632
  864MPD2    C212733   1.568   1.115  17.043  0.3141  0.4142 -0.1814
  864MPD2    C312734   1.701   1.134  17.002 -0.4312  0.1741 -0.0718
  864MPD2    C412735   1.789   1.026  17.010  0.4113  0.6925  0.1344
  864MPD2    C512736   1.751   0.912  17.077 -0.7575  0.2323  0.3806
  864MPD2     H12737   1.494   1.193  17.039 -0.9056 -0.8005 -1.1613
  864MPD2    H112738   1.895   1.029  16.986  0.1302 -0.6346 -1.3405
  864MPD2    H212739   1.584   0.791  17.141  1.5030 -0.9029 -0.7680
  864MPD2    H312740   1.828   0.836  17.090 -1.8744 -1.0245 -0.3093
  864MPD2     N12741   1.754   1.249  16.941  0.2723 -0.0406 -0.2829
  864MPD2    H512742   1.845   1.241  16.897 -0.7206  1.0882 -2.5470
  864MPD2    N112743   1.394   0.948  17.087 -0.2739 -0.4920 -0.5030
  864MPD2    H712744   1.379   0.848  17.101  3.4715 -1.1050 -0.8477
  865MPD2     C12745   1.570   1.999  16.340 -0.6191 -0.6457  0.4381
  865MPD2    C112746   1.496   1.905  16.396  0.5042 -0.6809  0.0809
  865MPD2    C212747   1.512   1.879  16.528 -0.6848  0.2987  0.0825
  865MPD2    C312748   1.612   1.950  16.607  0.9131 -0.8684  0.3480
  865MPD2    C412749   1.680   2.050  16.546  0.3471 -0.5137  0.4984
  865MPD2    C512750   1.659   2.077  16.413 -0.2912 -0.0199  0.4667
  865MPD2     H12751   1.454   1.800  16.574 -0.9302  1.7078  2.2117
  865MPD2    H112752   1.762   2.105  16.590  0.4648  0.7051 -1.2402
  865MPD2    H212753   1.552   2.028  16.237  0.9128 -2.3066 -0.2926
  865MPD2    H312754   1.711   2.163  16.372 -0.6602  0.8279  1.7573
  865MPD2     N12755   1.669   1.896  16.727 -0.1754 -0.4007  0.4678
  865MPD2    H512756   1.766   1.923  16.738  0.1600 -2.3700  2.2703
  865MPD2    N112757   1.406   1.836  16.312  0.0029  0.4805  0.5649
  865MPD2    H712758   1.408   1.873  16.218  1.9306  3.0854  1.6373
  866MPD2     C12759   2.666   2.780  11.246  0.2808 -0.0674 -0.5132
  866MPD2    C112760   2.611   2.658  11.222 -0.2527 -0.2800 -0.1352
  866MPD2    C212761   2.478   2.645  11.193  1.3577 -0.4479  0.6837
  866MPD2    C312762   2.399   2.762  11.183 -0.5180 -0.0474 -0.1651
  866MPD2    C412763   2.457   2.887  11.190 -0.2814  0.2589 -0.1031
  866MPD2    C512764   2.591   2.892  11.216  0.6236 -0.0971 -0.6305
  866MPD2     H12765   2.433   2.548  11.207 -1.5318  0.8712  0.7400
  866MPD2    H112766   2.402   2.981  11.186 -0.9657 -0.2079 -1.6673
  866MPD2    H212767   2.770   2.804  11.268 -0.0933  0.4713  0.6471
  866MPD2    H312768   2.639   2.989  11.217  0.1347  0.1545 -1.8272
  866MPD2     N12769   2.260   2.743  11.156  0.4479 -0.2943 -0.2761
  866MPD2    H512770   2.226   2.648  11.166 -0.6964  0.3765  2.0498
  866MPD2    N112771   2.698   2.545  11.225 -0.3905  0.1192  0.0479
  866MPD2    H712772   2.790   2.563  11.264 -1.1911  1.3836  1.3483
  867MPD2     C12773   0.071   1.972  16.704 -0.0888 -0.5662 -0.2012
  867MPD2    C112774   0.133   1.895  16.794  0.2618 -0.4213  0.4045
  867MPD2    C212775   0.209   1.951  16.897  0.1675  0.4143  0.4548
  867MPD2    C312776   0.220   2.088  16.899 -0.4897  0.1886  0.1974
  867MPD2    C412777   0.167   2.171  16.797 -0.1086 -0.1302  0.1605
  867MPD2    C512778   0.089   2.106  16.704  0.4017  0.1928  0.1244
  867MPD2     H12779   0.268   1.888  16.963  0.6481 -0.7084 -1.0427
  867MPD2    H112780   0.178   2.278  16.785  1.9387 -0.4346 -0.6233
  867MPD2    H212781   0.014   1.916  16.631  1.0858 -0.0004 -1.5516
  867MPD2    H312782   0.041   2.171  16.632 -0.1601 -1.8346 -1.3430
  867MPD2     N12783   0.292   2.161  16.997 -0.0395  0.1064 -0.2978
  867MPD2    H512784   0.273   2.260  16.993  0.7568  0.2049 -1.4911
  867MPD2    N112785   0.135   1.756  16.769 -0.3258 -0.2632  0.3417
  867MPD2    H712786   0.100   1.734  16.676 -0.8570 -1.1593  0.7579
  868MPD2     C12787   1.331   0.247  13.090 -0.0361  0.0370 -0.5896
  868MPD2    C112788   1.406   0.359  13.061  0.6108 -0.0238 -0.4506
  868MPD2    C212789   1.352   0.481  13.107  0.4585 -0.3928 -0.6444
  868MPD2    C312790   1.225   0.492  13.158  0.3075  0.1494 -0.0556
  868MPD2    C412791   1.147   0.377  13.168 -0.5889 -0.4635 -0.3334
  868MPD2    C512792   1.203   0.256  13.146 -0.2095  1.1169  0.3372
  868MPD2     H12793   1.398   0.577  13.084  2.1509 -1.5077 -1.9624
  868MPD2    H112794   1.049   0.377  13.215  0.1325 -0.7189  1.1605
  868MPD2    H212795   1.357   0.146  13.060  1.6416 -0.2588  1.9508
  868MPD2    H312796   1.140   0.169  13.156  0.4450  0.6756  0.5935
  868MPD2     N12797   1.178   0.623  13.198  1.0948  0.0513 -0.3357
  868MPD2    H512798   1.225   0.712  13.183 -3.4061  2.4394 -0.4644
  868MPD2    N112799   1.520   0.345  12.977  0.2456 -0.6437 -0.4578
  868MPD2    H712800   1.560   0.256  12.950  0.3093 -1.4095  2.2189
  869MPD2     C12801   2.997   3.303   1.207  0.3106  0.1669 -0.5565
  869MPD2    C112802   3.063   3.320   1.091 -0.2121 -0.0864  0.6146
  869MPD2    C212803   3.199   3.348   1.097  0.1336  0.2754 -0.0417
  869MPD2    C312804   3.259   3.385   1.219  0.3423 -0.3461 -0.1262
  869MPD2    C412805   3.183   3.366   1.334  0.4556 -0.0009  0.0247
  869MPD2    C512806   3.053   3.321   1.327 -0.9300  0.0494  0.3075
  869MPD2     H12807   3.249   3.377   1.005 -2.3337 -0.4267 -1.6287
  869MPD2    H112808   3.213   3.395   1.434 -1.5450  2.1272  0.0156
  869MPD2    H212809   2.890   3.286   1.212  0.1926  0.7685 -1.1725
  869MPD2    H312810   2.989   3.316   1.415 -1.0908  0.7060  0.2270
  869MPD2     N12811   3.381   3.468   1.227  0.1864 -0.3918  1.0290
  869MPD2    H512812   3.406   3.505   1.318  1.0923  3.5592 -0.8617
  869MPD2    N112813   2.983   3.299   0.979 -0.3864  0.0721 -0.0309
  869MPD2    H712814   2.890   3.261   0.996 -0.9728  1.5745  0.0931
  870MPD2     C12815   3.103   2.978   1.891 -0.3987 -0.1796 -0.2696
  870MPD2    C112816   3.103   2.882   1.799 -0.1826 -0.1782 -0.1898
  870MPD2    C212817   2.987   2.832   1.747  0.4158  0.0209 -0.1010
  870MPD2    C312818   2.862   2.872   1.802  0.4348  0.0425 -1.5450
  870MPD2    C412819   2.860   2.967   1.900 -0.1587 -0.7826  0.4814
  870MPD2    C512820   2.985   3.013   1.940  0.1595 -0.2694 -0.1606
  870MPD2     H12821   2.994   2.778   1.653  1.1092 -0.9116  0.4914
  870MPD2    H112822   2.770   3.018   1.932  0.1970 -0.2788  0.6771
  870MPD2    H212823   3.193   3.010   1.943  0.0961 -2.9914  0.6056
  870MPD2    H312824   2.996   3.093   2.012  3.0585 -1.9554  1.2628
  870MPD2     N12825   2.739   2.820   1.749  0.2924 -0.0864  0.2890
  870MPD2    H512826   2.744   2.780   1.656 -2.1160 -4.0055  1.8299
  870MPD2    N112827   3.226   2.830   1.743  0.1722  0.1223  0.7007
  870MPD2    H712828   3.311   2.873   1.780 -0.4997  1.1188  1.0951
  871MPD2     C12829   3.821   1.853  16.555  0.5845  0.2933 -0.0813
  871MPD2    C112830   3.834   1.805  16.677 -0.8941 -0.0634 -0.4867
  871MPD2    C212831   3.924   1.699  16.693 -0.3373 -0.0329  0.0032
  871MPD2    C312832   3.982   1.636  16.581 -0.3906 -0.1095  0.9243
  871MPD2    C412833   3.938   1.677  16.454  0.2506 -0.5935 -0.2646
  871MPD2    C512834   3.854   1.779  16.445 -0.1097 -0.1318  0.2525
  871MPD2     H12835   3.944   1.647  16.786  0.1029 -0.9143 -0.5867
  871MPD2    H112836   3.978   1.631  16.365  1.5571  0.4090 -0.1983
  871MPD2    H212837   3.761   1.941  16.536 -1.7884 -0.9331  1.7816
  871MPD2    H312838   3.810   1.822  16.356 -0.5826  1.0931  1.0761
  871MPD2     N12839   4.089   1.542  16.604 -0.4205 -0.9665  0.0965
  871MPD2    H512840   4.104   1.516  16.701 -0.8771 -0.2333  0.3635
  871MPD2    N112841   3.795   1.892  16.783  0.1438 -0.1865  0.1346
  871MPD2    H712842   3.727   1.965  16.767 -0.3692 -0.5294  0.7846
  872MPD2     C12843   4.347   4.045  13.411 -0.4187  0.0579  0.5878
  872MPD2    C112844   4.395   4.127  13.510 -0.2584 -0.0179  0.2388
  872MPD2    C212845   4.308   4.194  13.593  0.4562 -0.2165  0.2555
  872MPD2    C312846   4.172   4.190  13.566 -0.2000  0.0544  0.6364
  872MPD2    C412847   4.124   4.113  13.460 -0.2745  0.2398 -0.3530
  872MPD2    C512848   4.213   4.044  13.386  0.2008 -0.5383 -0.1972
  872MPD2     H12849   4.337   4.252  13.681  1.6177 -0.1663 -0.1598
  872MPD2    H112850   4.018   4.114  13.435 -0.1455 -0.5978 -0.9332
  872MPD2    H212851   4.413   3.987  13.347 -3.0776 -2.5435  0.2254
  872MPD2    H312852   4.168   3.994  13.301  2.0778  0.6945 -1.9257
  872MPD2     N12853   4.082   4.247  13.657  0.2903  0.2098  0.6798
  872MPD2    H512854   4.120   4.268  13.749  1.8498 -1.7543  0.4728
  872MPD2    N112855   4.532   4.143  13.540 -0.0692  0.1209 -0.0919
  872MPD2    H712856   4.571   4.211  13.605  1.8358  0.6539 -1.7623
  873MPD2     C12857   2.516   4.392   1.242  0.6929  0.2910 -0.4293
  873MPD2    C112858   2.395   4.451   1.279  0.0401 -0.1099 -0.0392
  873MPD2    C212859   2.293   4.363   1.313  0.6115  0.0482 -0.0918
  873MPD2    C312860   2.297   4.224   1.288  0.3907 -0.7412 -0.5193
  873MPD2    C412861   2.415   4.168   1.244  0.4293  0.0479 -0.1162
  873MPD2    C512862   2.523   4.254   1.236  0.0220  0.6816  0.2725
  873MPD2     H12863   2.201   4.408   1.349  1.2466 -0.6019  2.3666
  873MPD2    H112864   2.431   4.061   1.238 -0.5612 -0.1517  1.0078
  873MPD2    H212865   2.604   4.452   1.227  0.1300  1.5618  1.3729
  873MPD2    H312866   2.616   4.211   1.203  0.6506  1.2095  1.3628
  873MPD2     N12867   2.190   4.142   1.324 -0.4024  0.3345  0.2446
  873MPD2    H512868   2.189   4.044   1.297 -0.6883  0.5236 -0.4261
  873MPD2    N112869   2.388   4.592   1.283  0.8456 -0.2094  0.0845
  873MPD2    H712870   2.476   4.642   1.278  2.1508 -2.5173 -0.2098
  874MPD2     C12871   1.129   4.576  16.378 -0.0718 -0.1870 -0.1088
  874MPD2    C112872   1.183   4.512  16.488  0.0280 -0.2105 -0.7006
  874MPD2    C212873   1.300   4.567  16.554 -0.1655  0.4635 -0.6669
  874MPD2    C312874   1.352   4.685  16.501  0.1905  0.3891 -0.0401
  874MPD2    C412875   1.291   0.018  16.395 -0.4452  0.3345  0.6589
  874MPD2    C512876   1.186   4.690  16.333  0.1447  0.1101 -0.5205
  874MPD2     H12877   1.346   4.525  16.642 -4.1610 -0.9972  0.7262
  874MPD2    H112878   1.341   0.099  16.343  1.3602 -1.4425 -0.3408
  874MPD2    H212879   1.052   4.524  16.322  0.8786 -0.5971 -1.0472
  874MPD2    H312880   1.142   0.002  16.245  1.7909  2.1708 -0.2558
  874MPD2     N12881   1.480   0.002  16.561  0.2348 -0.0407 -0.3650
  874MPD2    H512882   1.521   4.674  16.630  0.8946 -1.1772 -1.7871
  874MPD2    N112883   1.120   4.394  16.532 -0.2936  0.4089 -0.3113
  874MPD2    H712884   1.051   4.360  16.466  1.5952 -0.0787 -2.0428
  875MPD2     C12885   1.322   2.366  15.224 -0.8430  0.0165  0.8536
  875MPD2    C112886   1.426   2.396  15.136  0.0682 -0.9413  0.0537
  875MPD2    C212887   1.549   2.428  15.189  0.1810  0.5170 -0.3076
  875MPD2    C312888   1.571   2.422  15.323 -0.6016 -0.3627  0.4099
  875MPD2    C412889   1.466   2.388  15.410 -0.7526  0.0749  0.0940
  875MPD2    C512890   1.342   2.372  15.358  0.5274 -0.6674 -0.0812
  875MPD2     H12891   1.627   2.456  15.120 -0.6074 -2.2211 -2.3251
  875MPD2    H112892   1.460   2.406  15.517 -1.6898  0.1886  0.0298
  875MPD2    H212893   1.223   2.342  15.186  0.0299 -1.1462 -0.6832
  875MPD2    H312894   1.263   2.344  15.427  0.0725  2.1498  0.5283
  875MPD2     N12895   1.700   2.459  15.372 -0.1984 -0.0462 -0.1621
  875MPD2    H512896   1.777   2.477  15.309 -0.6760  0.1090 -0.6960
  875MPD2    N112897   1.397   2.408  14.999  0.1310 -0.1018 -0.0308
  875MPD2    H712898   1.300   2.396  14.975  0.0368 -1.6774  1.1519
  876MPD2     C12899   1.728   3.865  15.997  0.3076 -0.1695 -0.2168
  876MPD2    C112900   1.673   3.760  15.930  0.0095 -0.0611  0.3416
  876MPD2    C212901   1.661   3.636  15.991  0.1213  0.4365  0.3503
  876MPD2    C312902   1.703   3.623  16.127  0.0729 -0.0464 -0.2788
  876MPD2    C412903   1.770   3.731  16.187  1.0709 -0.9257  0.5055
  876MPD2    C512904   1.766   3.847  16.121 -0.6655  0.0534 -0.3041
  876MPD2     H12905   1.623   3.554  15.931  0.1253  0.2519  0.5951
  876MPD2    H112906   1.832   3.738  16.275  1.7738 -3.8439  0.2384
  876MPD2    H212907   1.733   3.960  15.946 -2.2612  0.7211  1.1621
  876MPD2    H312908   1.807   3.932  16.174 -1.0383  0.0075  0.0581
  876MPD2     N12909   1.693   3.494  16.198  0.2913 -0.2292 -0.2033
  876MPD2    H512910   1.668   3.408  16.151 -0.7192  0.4281 -0.8661
  876MPD2    N112911   1.634   3.790  15.798 -0.8756 -0.4110 -0.6318
  876MPD2    H712912   1.668   3.873  15.751  1.4456 -1.4241 -0.7546
  877MPD2     C12913   1.775   4.225  15.187 -0.0232 -0.3284 -0.6163
  877MPD2    C112914   1.688   4.133  15.145  0.1051 -0.4601 -0.0884
  877MPD2    C212915   1.639   4.140  15.019 -0.9265  1.1281  0.4318
  877MPD2    C312916   1.663   4.244  14.925 -0.5374 -0.1863  0.1942
  877MPD2    C412917   1.765   4.329  14.969 -0.7135 -0.0981 -0.3431
  877MPD2    C512918   1.812   4.320  15.097  0.0196  0.3329 -0.1088
  877MPD2     H12919   1.556   4.074  14.997  0.2899  0.5391 -2.3473
  877MPD2    H112920   1.804   4.401  14.897  0.7515  0.4593  1.0288
  877MPD2    H212921   1.802   4.222  15.292  0.6822 -1.3236 -0.8194
  877MPD2    H312922   1.887   4.395  15.123  0.0163 -0.3348  1.7902
  877MPD2     N12923   1.613   4.240  14.789  0.4841 -0.2074  0.5449
  877MPD2    H512924   1.628   4.319  14.726 -2.9240 -0.5615 -0.6929
  877MPD2    N112925   1.621   4.043  15.234 -0.2654  0.6182 -0.3918
  877MPD2    H712926   1.550   3.988  15.188 -0.5602  0.8254 -0.1913
  878MPD2     C12927   0.843   3.243  13.378 -0.6799  1.1909 -0.1174
  878MPD2    C112928   0.871   3.368  13.335 -1.0422  0.1959 -1.0738
  878MPD2    C212929   0.831   3.480  13.408 -0.0121  0.1137  0.7181
  878MPD2    C312930   0.739   3.452  13.509  0.2724 -0.6552 -0.3552
  878MPD2    C412931   0.695   3.324  13.548 -0.5745 -0.2469  0.1254
  878MPD2    C512932   0.753   3.219  13.481  0.0617  0.2565 -0.2769
  878MPD2     H12933   0.848   3.584  13.380 -0.1415 -0.0039  0.2104
  878MPD2    H112934   0.643   3.299  13.640  0.2537 -2.0883  0.1000
  878MPD2    H212935   0.883   3.151  13.335 -2.0806  0.2844  0.5064
  878MPD2    H312936   0.721   3.121  13.516 -0.5126  0.0400 -1.4002
  878MPD2     N12937   0.715   3.569  13.583  0.6838  0.3146 -0.1095
  878MPD2    H512938   0.782   3.645  13.575  0.0279  0.7843 -1.2919
  878MPD2    N112939   0.943   3.383  13.209 -0.4020  0.3607  0.1148
  878MPD2    H712940   0.979   3.294  13.177 -0.1090  0.3130  0.5760
  879MPD2     C12941   1.504   0.359  16.797 -0.0931 -0.3654 -1.1274
  879MPD2    C112942   1.525   0.262  16.893 -0.6345 -0.4056 -0.5302
  879MPD2    C212943   1.444   0.154  16.903  0.3795 -0.0046 -0.2616
  879MPD2    C312944   1.331   0.144  16.819  0.1796 -0.0062 -0.6308
  879MPD2    C412945   1.300   0.249  16.736  0.0160 -0.5247 -0.8408
  879MPD2    C512946   1.389   0.352  16.726 -0.2432  0.4264  0.3406
  879MPD2     H12947   1.469   0.072  16.969 -2.4189 -2.6923 -2.4630
  879MPD2    H112948   1.210   0.249  16.674 -0.4582  2.0319 -0.1680
  879MPD2    H212949   1.571   0.440  16.771 -0.5841 -0.1118 -1.5959
  879MPD2    H312950   1.378   0.431  16.652  2.3099  2.1052  1.7432
  879MPD2     N12951   1.237   0.048  16.828  0.4604 -0.4358  0.4838
  879MPD2    H512952   1.161   0.055  16.761  2.4677  1.8713 -1.5342
  879MPD2    N112953   1.640   0.275  16.975 -0.2239  0.0325  0.5845
  879MPD2    H712954   1.689   0.362  16.959  1.9690 -0.8236  2.5022
  880MPD2     C12955   3.156   2.113   1.029 -0.4217 -0.6076 -0.2084
  880MPD2    C112956   3.131   2.135   0.895 -0.1278  0.2059 -0.1842
  880MPD2    C212957   3.230   2.138   0.800 -0.9668  0.1308  0.0236
  880MPD2    C312958   3.360   2.100   0.839  0.6901 -0.3614  0.8114
  880MPD2    C412959   3.383   2.091   0.977  0.3975 -0.1890 -0.5216
  880MPD2    C512960   3.285   2.091   1.070  0.6656 -0.1671  0.0351
  880MPD2     H12961   3.216   2.140   0.693 -1.3253  0.9142  0.0873
  880MPD2    H112962   3.483   2.071   1.014  0.0975  0.1429  0.4496
  880MPD2    H212963   3.067   2.111   1.092  1.3712  1.2060  2.3721
  880MPD2    H312964   3.325   2.102   1.170  0.7770 -1.6639  0.1459
  880MPD2     N12965   3.460   2.067   0.740 -0.0909 -0.0845 -0.4911
  880MPD2    H512966   3.437   2.083   0.642 -3.9867  1.1619  0.6304
  880MPD2    N112967   2.995   2.166   0.856  0.4564 -0.3132  0.2492
  880MPD2    H712968   2.932   2.189   0.932 -0.6818 -3.2022  0.1852
  881MPD2     C12969   2.673   2.874   0.108  0.0064  0.2522 -0.2497
  881MPD2    C112970   2.730   2.748   0.097  0.2171  0.0013 -0.1459
  881MPD2    C212971   2.732   2.667   0.206  0.5434 -0.3273  0.1367
  881MPD2    C312972   2.653   2.692   0.318 -0.4215 -0.0414 -0.3015
  881MPD2    C412973   2.589   2.815   0.324 -0.0813  0.3855  0.4596
  881MPD2    C512974   2.601   2.902   0.221  0.3936 -0.0125 -0.4620
  881MPD2     H12975   2.795   2.579   0.207  2.3691  1.0260  3.5443
  881MPD2    H112976   2.513   2.842   0.396 -0.8218  1.3362 -0.6941
  881MPD2    H212977   2.678   2.935   0.018  0.7919  0.7455  0.1344
  881MPD2    H312978   2.547   2.996   0.233  1.7925  0.9822 -1.9923
  881MPD2     N12979   2.641   2.601   0.424 -0.8588 -0.6617 -0.3658
  881MPD2    H512980   2.587   2.634   0.503 -0.7795 -0.8007 -0.2538
  881MPD2    N112981   2.807   2.717  17.718 -0.5376 -0.9665 -0.8062
  881MPD2    H712982   2.812   2.788  17.646  1.2442 -1.1942 -0.9247
  882MPD2     C12983   1.016   4.594  14.625 -0.3908  0.2235 -0.0226
  882MPD2    C112984   1.007   4.496  14.522  0.7712 -0.3238  0.2425
  882MPD2    C212985   0.888   4.474  14.458  0.3837  0.1968 -0.3735
  882MPD2    C312986   0.772   4.541  14.498  0.5626 -0.9728  0.2045
  882MPD2    C412987   0.782   4.628  14.606  0.4778 -1.1332  0.3990
  882MPD2    C512988   0.906   4.661  14.660 -0.1779  0.1105  0.2382
  882MPD2     H12989   0.874   4.394  14.387  1.0649  1.7267 -2.2481
  882MPD2    H112990   0.693   4.662  14.657  1.5938  0.4058  1.3366
  882MPD2    H212991   1.105   4.604  14.686  0.9700  2.3435 -2.3404
  882MPD2    H312992   0.920   4.724  14.747  1.0097  1.2724 -0.7931
  882MPD2     N12993   0.641   4.509  14.463  0.0253  0.1255  0.0293
  882MPD2    H512994   0.578   4.559  14.525 -0.7545 -1.1106  0.2295
  882MPD2    N112995   1.115   4.410  14.498 -0.1690  0.4375  0.6281
  882MPD2    H712996   1.104   4.341  14.424 -2.2660  2.2422 -0.7470
  883MPD2     C12997   3.058   3.687  16.118 -0.0440 -0.0109 -0.7117
  883MPD2    C112998   3.073   3.802  16.040  0.3160 -0.0279 -0.2275
  883MPD2    C212999   3.137   3.917  16.091 -0.0106  0.1493  0.3998
  883MPD2    C313000   3.164   3.918  16.230  0.5731 -0.3132  0.3684
  883MPD2    C413001   3.149   3.805  16.306  0.2561  0.3137  0.3865
  883MPD2    C513002   3.100   3.691  16.249  0.2576  1.1484 -0.3222
  883MPD2     H13003   3.152   4.009  16.036  0.1012 -1.8383 -2.8604
  883MPD2    H113004   3.177   3.807  16.411  0.8887 -0.6753  0.2413
  883MPD2    H213005   3.016   3.592  16.088 -1.5864  0.6155 -0.4979
  883MPD2    H313006   3.097   3.596  16.300 -1.2201  1.3934  0.0471
  883MPD2     N13007   3.207   4.043  16.287 -0.8067  0.4541  0.4110
  883MPD2    H513008   3.254   4.107  16.224 -2.2304 -0.7422 -1.8876
  883MPD2    N113009   3.037   3.812  15.902  0.0657  0.1909  0.2644
  883MPD2    H713010   3.055   3.902  15.858  0.4306 -0.2331 -0.4600
  884MPD2     C13011   0.158   4.697  15.415  0.6017  0.5298  0.3346
  884MPD2    C113012   0.145   0.036  15.299 -0.4397  0.0358 -0.3207
  884MPD2    C213013   0.036   0.120  15.296  0.4170  0.0288  0.6515
  884MPD2    C313014   4.686   0.135  15.404  0.2070 -0.1046  0.3019
  884MPD2    C413015   4.712   0.069  15.521  0.1946 -0.6226 -0.0488
  884MPD2    C513016   0.080   4.712  15.522 -1.0873  0.2014 -0.1307
  884MPD2     H13017   0.004   0.167  15.204 -1.9150 -1.1039  0.8816
  884MPD2    H113018   4.640   0.066  15.602 -1.2491  0.6885 -1.2642
  884MPD2    H213019   0.235   4.623  15.434  2.2271  1.4552 -2.6562
  884MPD2    H313020   0.094   4.647  15.607 -0.0171 -0.5008 -0.8393
  884MPD2     N13021   4.583   0.224  15.391  0.1009 -0.1925  0.0402
  884MPD2    H513022   4.587   0.288  15.313 -0.2478  0.9106  0.9127
  884MPD2    N113023   0.241   0.030  15.196 -0.1192  0.4624  0.5081
  884MPD2    H713024   0.211   0.076  15.110 -1.4614  0.8167  1.1608
  885MPD2     C13025   4.067   0.371   0.536 -0.4578 -0.3955 -0.2755
  885MPD2    C113026   4.146   0.479   0.505 -0.3167 -0.1445 -0.4371
  885MPD2    C213027   4.138   0.536   0.378 -0.6190  0.0108 -0.4427
  885MPD2    C313028   4.040   0.494   0.285  0.7524 -0.1174 -0.2975
  885MPD2    C413029   3.951   0.393   0.324 -0.5592  0.1886 -0.2451
  885MPD2    C513030   3.973   0.325   0.441  0.1856  0.3627 -0.5320
  885MPD2     H13031   4.222   0.598   0.347 -0.0507 -1.4781 -1.8845
  885MPD2    H113032   3.879   0.354   0.253 -1.0548  0.4571  0.1164
  885MPD2    H213033   4.070   0.310   0.626  1.6038 -0.9657 -0.7196
  885MPD2    H313034   3.910   0.238   0.456 -1.4243  1.5778 -0.1900
  885MPD2     N13035   4.033   0.560   0.159  0.3531 -0.2636  0.4700
  885MPD2    H513036   4.109   0.625   0.142 -1.5577  2.0808  0.8893
  885MPD2    N113037   4.242   0.520   0.604  0.1105  0.2301 -0.0873
  885MPD2    H713038   4.235   0.487   0.700 -1.9730  2.3933  0.5327
  886MPD2     C13039   4.649   3.875  15.681  0.7384  0.0235 -0.1600
  886MPD2    C113040   4.709   3.802  15.583 -0.0710  0.1543  0.4433
  886MPD2    C213041   4.709   3.852  15.455  0.8335  0.2221  0.1759
  886MPD2    C313042   4.637   3.969  15.425 -0.4183 -0.2830  0.0018
  886MPD2    C413043   4.585   4.040  15.530  0.0482  0.0926  0.3030
  886MPD2    C513044   4.587   3.996  15.656 -0.2906 -0.2412  0.5452
  886MPD2     H13045   0.027   3.801  15.375  0.2782  0.0040 -0.0502
  886MPD2    H113046   4.544   4.140  15.522  0.3522  0.2105  0.2455
  886MPD2    H213047   4.685   3.873  15.784 -0.8394  0.9747  0.4176
  886MPD2    H313048   4.558   4.062  15.737 -2.8314  2.6393 -2.7008
  886MPD2     N13049   4.640   4.017  15.288 -0.3440  0.0934  0.5752
  886MPD2    H513050   4.688   3.962  15.218 -0.8998 -0.0827  0.3344
  886MPD2    N113051   0.044   3.678  15.605  0.4471  0.3834  0.4095
  886MPD2    H713052   0.083   3.627  15.527  0.7941  0.4482  0.5396
  887MPD2     C13053   0.320   3.817  15.276  0.3679  0.2253 -0.3813
  887MPD2    C113054   0.415   3.767  15.365 -0.4921  0.3937  0.1375
  887MPD2    C213055   0.518   3.848  15.405 -0.1537 -0.4289  0.3557
  887MPD2    C313056   0.531   3.975  15.347 -0.2500  0.5850  0.8007
  887MPD2    C413057   0.441   4.024  15.255  0.5869 -0.0755 -0.2303
  887MPD2    C513058   0.326   3.947  15.233 -0.2293  0.4761 -0.3663
  887MPD2     H13059   0.585   3.807  15.481  2.3670 -1.2937 -2.3132
  887MPD2    H113060   0.449   4.123  15.211  0.2044  0.2570  0.4368
  887MPD2    H213061   0.237   3.758  15.240  0.7994 -1.0552  0.6964
  887MPD2    H313062   0.260   3.985  15.157  0.0113  0.4758 -0.5749
  887MPD2     N13063   0.631   4.057  15.398  0.7517 -0.2432  0.0182
  887MPD2    H513064   0.679   4.016  15.477 -0.7889 -0.4035  0.8707
  887MPD2    N113065   0.403   3.641  15.430 -0.4202 -0.0014 -0.7882
  887MPD2    H713066   0.471   3.611  15.499 -2.0182  2.9142  2.0527
  888MPD2     C13067   2.094   3.659  14.703 -0.3011  0.1592  0.6842
  888MPD2    C113068   2.123   3.647  14.834 -0.0159 -0.1160 -0.3568
  888MPD2    C213069   2.210   3.737  14.887  0.0644  0.3968 -0.1702
  888MPD2    C313070   2.264   3.838  14.808 -0.5927  0.5238  0.2824
  888MPD2    C413071   2.226   3.857  14.680 -0.6156 -0.1290 -0.1292
  888MPD2    C513072   2.152   3.761  14.629  0.5520  0.0325 -0.5103
  888MPD2     H13073   2.231   3.736  14.993  0.4947 -0.5399 -0.2655
  888MPD2    H113074   2.245   3.937  14.609  2.2888 -0.5325  0.2006
  888MPD2    H213075   2.047   3.579  14.647  0.5975  0.9293 -1.1768
  888MPD2    H313076   2.129   3.765  14.524  0.2272 -2.2373 -0.5206
  888MPD2     N13077   2.344   3.942  14.860 -0.0901  0.2214 -0.0059
  888MPD2    H513078   2.362   3.943  14.960  2.3529 -0.0928 -0.4262
  888MPD2    N113079   2.062   3.552  14.922 -0.2292 -0.3561 -0.3434
  888MPD2    H713080   2.111   3.535  15.009 -0.5181 -3.5011 -0.8073
  889MPD2     C13081   0.935   3.293  14.007 -0.4115  0.7194 -0.1066
  889MPD2    C113082   1.063   3.247  13.981  0.5318 -0.1935  0.6710
  889MPD2    C213083   1.141   3.334  13.907 -0.0164 -0.1772  0.2125
  889MPD2    C313084   1.092   3.439  13.835 -0.6015 -0.3396 -0.4212
  889MPD2    C413085   0.962   3.469  13.849  0.6338  0.2674  0.5382
  889MPD2    C513086   0.891   3.409  13.950 -0.4243  0.8962  0.3312
  889MPD2     H13087   1.248   3.317  13.902  0.0293  0.3078 -0.4004
  889MPD2    H113088   0.918   3.562  13.815  0.6902  0.4120  0.8575
  889MPD2    H213089   0.869   3.230  14.065  0.0509  0.8071  0.5114
  889MPD2    H313090   0.790   3.443  13.971 -0.4306  0.6996  0.6112
  889MPD2     N13091   1.181   3.504  13.744  0.7950  0.0297 -0.2143
  889MPD2    H513092   1.276   3.469  13.735  0.9424  1.2103 -3.1882
  889MPD2    N113093   1.114   3.134  14.057  0.6396  0.2260  0.1599
  889MPD2    H713094   1.042   3.070  14.090  0.3426 -0.5183 -1.8911
  890MPD2     C13095   1.240   0.277  14.662  0.9861  0.4680  0.0188
  890MPD2    C113096   1.322   0.363  14.731 -0.0117 -0.2734  0.3829
  890MPD2    C213097   1.402   0.304  14.829 -0.6349  0.1708 -0.6165
  890MPD2    C313098   1.391   0.165  14.859  0.2184 -0.1328 -0.4320
  890MPD2    C413099   1.300   0.091  14.785 -0.1806  0.0887 -0.5842
  890MPD2    C513100   1.234   0.145  14.686  0.9169  0.0244  0.1037
  890MPD2     H13101   1.477   0.362  14.882  0.3059 -0.0140 -1.7591
  890MPD2    H113102   1.282   4.718  14.788  0.7536 -0.0607 -0.3351
  890MPD2    H213103   1.180   0.320  14.583  0.4119 -0.9056 -0.2811
  890MPD2    H313104   1.164   0.088  14.626  0.6060 -0.4922  0.9608
  890MPD2     N13105   1.477   0.115  14.954  0.0968  0.5141  0.0192
  890MPD2    H513106   1.521   0.189  15.008  0.6502  0.9842 -1.0579
  890MPD2    N113107   1.311   0.500  14.701  0.2842 -0.6726  0.4134
  890MPD2    H713108   1.266   0.520  14.613  1.4161 -0.3445 -0.0913
  891MPD2     C13109   4.233   3.370  16.535  0.2076 -0.5823  0.1517
  891MPD2    C113110   4.140   3.412  16.633 -0.0617 -0.0091 -0.3972
  891MPD2    C213111   4.191   3.453  16.759  0.1383  0.3238  0.7499
  891MPD2    C313112   4.325   3.473  16.772 -0.4644 -0.1023 -0.1128
  891MPD2    C413113   4.409   3.446  16.666 -0.0286 -0.7425  0.2984
  891MPD2    C513114   4.367   3.392  16.548  0.0415  0.0573 -0.2810
  891MPD2     H13115   4.125   3.468  16.843  0.0884  1.1950  0.5564
  891MPD2    H113116   4.517   3.451  16.671 -0.0551  0.4680 -0.2144
  891MPD2    H213117   4.193   3.338  16.439  0.3540 -0.5137  0.0675
  891MPD2    H313118   4.437   3.365  16.470  2.6260 -0.4703  2.2253
  891MPD2     N13119   4.377   3.526  16.894  0.0139  0.0877  0.6743
  891MPD2    H513120   4.305   3.545  16.964 -0.6896  1.2556 -0.3615
  891MPD2    N113121   4.003   3.402  16.601 -0.0160 -0.5307 -0.3075
  891MPD2    H713122   3.973   3.361  16.513 -0.3221  0.2980 -0.5937
  892MPD2     C13123   0.161   4.431  15.140  0.0143 -0.1832 -0.3693
  892MPD2    C113124   0.093   4.494  15.034  0.6392  0.2957 -0.3787
  892MPD2    C213125   0.137   4.471  14.903  1.0450 -0.0671 -0.5728
  892MPD2    C313126   0.248   4.391  14.879 -0.3021  0.0508 -0.1134
  892MPD2    C413127   0.312   4.337  14.982 -0.4114 -0.2556  0.1217
  892MPD2    C513128   0.269   4.359  15.110  0.0740  0.2854  0.4271
  892MPD2     H13129   0.077   4.519  14.827  0.3896 -1.9077 -1.2228
  892MPD2    H113130   0.401   4.276  14.973  1.6433  2.2635  3.3851
  892MPD2    H213131   0.137   4.433  15.246 -0.4966 -2.5810 -0.4431
  892MPD2    H313132   0.330   4.323  15.192  1.1744  3.4600  1.0179
  892MPD2     N13133   0.290   4.362  14.746 -0.0049 -0.4990  0.4813
  892MPD2    H513134   0.384   4.325  14.746  1.4205  3.1253  1.2643
  892MPD2    N113135   4.718   4.569  15.067  0.4786 -0.1612  0.2134
  892MPD2    H713136   4.680   4.570  15.161 -1.2826  0.1568 -0.5113
  893MPD2     C13137   1.815   2.903   1.707 -1.3689  0.1433  0.2128
  893MPD2    C113138   1.750   3.013   1.653  0.6331  0.0403 -0.0868
  893MPD2    C213139   1.615   3.003   1.624  0.4097  0.1311  0.1345
  893MPD2    C313140   1.550   2.888   1.662 -0.5200  0.0597  0.9166
  893MPD2    C413141   1.610   2.781   1.724 -0.0640  0.3431  0.2272
  893MPD2    C513142   1.748   2.786   1.742 -0.3643 -0.3786  0.4863
  893MPD2     H13143   1.555   3.074   1.569  2.3832  0.9686 -0.9301
  893MPD2    H113144   1.551   2.701   1.769 -0.0197  0.5871  0.7163
  893MPD2    H213145   1.922   2.911   1.729 -0.8856 -0.0486 -2.1435
  893MPD2    H313146   1.803   2.704   1.788  1.1377  0.5625  0.3511
  893MPD2     N13147   1.409   2.867   1.660 -0.0763  0.4674 -0.2165
  893MPD2    H513148   1.382   2.783   1.710  1.3173  1.0831  1.5991
  893MPD2    N113149   1.827   3.122   1.605 -0.3002  1.0942 -0.1598
  893MPD2    H713150   1.922   3.132   1.641  0.1892  0.0544 -1.1682
  894MPD2     C13151   0.727   0.644   1.476  0.3853 -0.5511  0.3240
  894MPD2    C113152   0.681   0.760   1.426 -1.0589  0.0512 -0.4602
  894MPD2    C213153   0.692   0.786   1.291 -0.1622  0.2512  0.3834
  894MPD2    C313154   0.729   0.686   1.200 -0.4853 -0.1330  0.7213
  894MPD2    C413155   0.761   0.560   1.251 -0.7332 -0.0392 -0.3357
  894MPD2    C513156   0.759   0.546   1.384  1.1200  0.1374 -0.5513
  894MPD2     H13157   0.664   0.887   1.262 -1.3523 -0.1624  0.0945
  894MPD2    H113158   0.786   0.470   1.198  0.2544  0.1082 -0.1243
  894MPD2    H213159   0.742   0.628   1.582  1.6462 -1.0274  0.0686
  894MPD2    H313160   0.788   0.448   1.421  2.1785  0.9985  0.9569
  894MPD2     N13161   0.758   0.724   1.066 -0.6895  0.5755 -0.5287
  894MPD2    H513162   0.759   0.823   1.045 -1.4690  0.9301  1.1109
  894MPD2    N113163   0.627   0.869   1.507  0.0157  0.3911 -0.7430
  894MPD2    H713164   0.601   0.951   1.452 -0.1404 -0.8617 -2.5473
  895MPD2     C13165   3.877   3.867  13.563  0.2684  0.7369  0.2220
  895MPD2    C113166   3.801   3.758  13.524 -0.6965 -0.0610  0.1811
  895MPD2    C213167   3.851   3.634  13.526 -0.2983 -0.4242 -0.3493
  895MPD2    C313168   3.979   3.604  13.573 -0.0129  0.6375  0.4724
  895MPD2    C413169   4.057   3.707  13.610 -0.2390  0.5615  0.6218
  895MPD2    C513170   4.005   3.838  13.605  0.4003 -0.1414  0.2664
  895MPD2     H13171   3.781   3.553  13.511 -2.8671  1.5387  1.1535
  895MPD2    H113172   4.162   3.689  13.631  0.3797  0.0416 -2.9964
  895MPD2    H213173   3.832   3.966  13.568  0.7544  1.0271 -1.0461
  895MPD2    H313174   4.062   3.928  13.625  0.7477 -0.6442  1.5688
  895MPD2     N13175   4.032   3.469  13.572  0.7435  0.2253 -0.1255
  895MPD2    H513176   4.124   3.460  13.613  2.0963 -0.3920 -3.2591
  895MPD2    N113177   3.665   3.775  13.483 -0.3989  0.0941 -0.3142
  895MPD2    H713178   3.619   3.690  13.453 -0.2499  0.6120 -2.0524
  896MPD2     C13179   2.525   2.015   1.593  0.6708 -0.0493  0.5132
  896MPD2    C113180   2.547   1.912   1.505 -0.0653 -0.8223  0.1982
  896MPD2    C213181   2.434   1.863   1.441  0.0831 -0.1241  0.2326
  896MPD2    C313182   2.306   1.909   1.470 -0.2537  0.4532 -0.4809
  896MPD2    C413183   2.286   2.005   1.571  0.2110  0.8507  0.2858
  896MPD2    C513184   2.401   2.061   1.624  0.6394  0.5696 -0.2572
  896MPD2     H13185   2.437   1.779   1.372  1.4932  0.8348 -0.8765
  896MPD2    H113186   2.187   2.041   1.595 -1.3091 -1.3015 -2.6880
  896MPD2    H213187   2.608   2.052   1.651  0.6639 -0.2360  0.6422
  896MPD2    H313188   2.384   2.128   1.708  1.6380 -1.3097  1.4395
  896MPD2     N13189   2.198   1.839   1.406 -0.1009 -0.9245 -0.2020
  896MPD2    H513190   2.219   1.779   1.327  2.7052  1.0349 -0.9709
  896MPD2    N113191   2.675   1.879   1.461  0.0877  0.3658 -0.3280
  896MPD2    H713192   2.750   1.931   1.506 -1.0411  0.7419  1.0956
  897MPD2     C13193   2.631   2.975  10.486 -0.2373 -0.5922  0.3605
  897MPD2    C113194   2.701   3.085  10.521 -0.5204 -0.3184 -0.4734
  897MPD2    C213195   2.630   3.184  10.585 -0.3087 -0.2127 -0.5182
  897MPD2    C313196   2.500   3.160  10.631  0.1030  0.6118  0.2849
  897MPD2    C413197   2.432   3.050  10.593  0.1388  0.7636 -0.2870
  897MPD2    C513198   2.494   2.960  10.513  0.7842  0.5906  0.5054
  897MPD2     H13199   2.671   3.276  10.627  0.7700 -0.4405 -1.0603
  897MPD2    H113200   2.331   3.025  10.623 -0.1650  1.6831 -0.5410
  897MPD2    H213201   2.689   2.900  10.434 -2.4192 -1.5717 -0.6594
  897MPD2    H313202   2.438   2.871  10.487 -0.7170  1.3761  1.0570
  897MPD2     N13203   2.438   3.259  10.712  0.2080 -0.7688 -0.1438
  897MPD2    H513204   2.480   3.350  10.722  1.6564 -1.0541 -3.7496
  897MPD2    N113205   2.845   3.088  10.501  0.4297 -0.3017 -0.0546
  897MPD2    H713206   2.879   3.033  10.423  0.7481 -0.7168  0.3817
  898MPD2     C13207   0.617   4.198   0.214  0.0947 -0.0214  0.1764
  898MPD2    C113208   0.603   4.322   0.265 -0.0426  0.0858  0.5983
  898MPD2    C213209   0.483   4.390   0.242 -0.8730  0.1478 -0.0184
  898MPD2    C313210   0.396   4.348   0.148  0.4982  0.4921 -0.7302
  898MPD2    C413211   0.423   4.230   0.077 -0.6284 -0.5516 -0.4324
  898MPD2    C513212   0.532   4.158   0.115 -0.1683 -0.2885  0.1923
  898MPD2     H13213   0.463   4.481   0.298 -1.3384 -0.2887  0.5272
  898MPD2    H113214   0.371   4.190  17.728 -0.1924  1.3374 -1.5846
  898MPD2    H213215   0.704   4.137   0.235 -1.1570 -2.1311 -0.8608
  898MPD2    H313216   0.568   4.067   0.069  1.8974  1.3344 -1.3890
  898MPD2     N13217   0.282   4.435   0.119  0.9692  0.7838 -0.4051
  898MPD2    H513218   0.272   4.525   0.166  3.3619  1.5430 -1.3321
  898MPD2    N113219   0.687   4.378   0.360  0.2957  0.1085 -0.3407
  898MPD2    H713220   0.660   4.462   0.410 -1.0225  0.0389 -0.9375
  899MPD2     C13221   1.201   4.541  17.330 -0.2817 -0.4884  0.2342
  899MPD2    C113222   1.260   4.642  17.394 -0.7620 -0.0338  0.3701
  899MPD2    C213223   1.247   4.649  17.532  0.1138 -0.4445  0.3565
  899MPD2    C313224   1.175   4.553  17.596 -0.3351 -0.3246 -0.4721
  899MPD2    C413225   1.115   4.447  17.526 -0.1238 -0.7870 -0.0705
  899MPD2    C513226   1.134   4.445  17.392 -0.0410 -0.6035 -0.4591
  899MPD2     H13227   1.282   4.733  17.591  0.4410 -0.8540  0.7449
  899MPD2    H113228   1.054   4.374  17.578 -1.1953 -0.7273 -1.2462
  899MPD2    H213229   1.213   4.529  17.223 -1.2667  1.1703 -0.0588
  899MPD2    H313230   1.084   4.367  17.336 -0.2658 -0.6126 -0.2439
  899MPD2     N13231   1.148   4.561  17.733 -0.0297  0.8184  0.6044
  899MPD2    H513232   1.070   4.510   0.036 -0.6212  1.1777 -0.1237
  899MPD2    N113233   1.318   0.010  17.313 -0.4740  0.3346  1.1905
  899MPD2    H713234   1.302   4.732  17.213 -1.2081  0.0805  1.3382
  900MPD2     C13235   0.220   1.337  13.097  0.3274  0.0295 -0.7779
  900MPD2    C113236   0.154   1.253  13.010 -0.2962  0.2664  0.1994
  900MPD2    C213237   0.078   1.293  12.903  0.0426  0.3303 -0.3197
  900MPD2    C313238   0.062   1.430  12.885  0.3983  0.1372  0.4017
  900MPD2    C413239   0.127   1.518  12.973  0.0791 -0.1448 -0.2043
  900MPD2    C513240   0.205   1.467  13.075  0.6724  0.8617 -0.9786
  900MPD2     H13241   0.025   1.226  12.837  0.1439  0.2227 -0.2918
  900MPD2    H113242   0.111   1.625  12.972 -3.2707 -0.6418 -1.9827
  900MPD2    H213243   0.293   1.293  13.164  0.1716  1.7404  0.4866
  900MPD2    H313244   0.264   1.534  13.136  1.5593  0.1819 -1.0854
  900MPD2     N13245   4.715   1.473  12.780  0.2576 -0.3240  0.3354
  900MPD2    H513246   4.646   1.412  12.740  0.2363  0.8553 -1.4318
  900MPD2    N113247   0.181   1.112  13.031  0.2780  0.3398 -0.1469
  900MPD2    H713248   0.270   1.080  13.067  1.1420  1.2864 -1.4380
  901MPD2     C13249   4.698   0.091  12.738 -0.5233 -0.5613 -0.4362
  901MPD2    C113250   0.098   0.103  12.743 -0.4417 -0.2195  0.2248
  901MPD2    C213251   0.153   0.223  12.781  0.1237  0.1341 -0.2180
  901MPD2    C313252   0.075   0.328  12.819  0.1836 -0.0882 -0.0960
  901MPD2    C413253   4.673   0.313  12.805  0.2127  0.6332 -0.6784
  901MPD2    C513254   4.616   0.188  12.770  0.1622  0.6339  0.0927
  901MPD2     H13255   0.260   0.237  12.767 -0.0946 -0.0512 -2.0496
  901MPD2    H113256   4.601   0.392  12.816  0.2981  0.6127  0.0527
  901MPD2    H213257   4.650   4.732  12.710 -0.0099 -1.0860  0.4342
  901MPD2    H313258   4.509   0.177  12.764  0.1169  1.0217  0.1341
  901MPD2     N13259   0.123   0.449  12.863  0.1985 -0.3132  0.0581
  901MPD2    H513260   0.224   0.454  12.858  0.2317  0.1865  1.4350
  901MPD2    N113261   0.191   0.005  12.691 -1.0324  0.0614 -0.3810
  901MPD2    H713262   0.290   0.028  12.685 -1.3845  2.2996  2.1905
  902MPD2     C13263   3.604   4.096  12.774 -0.0093 -0.2333 -0.4214
  902MPD2    C113264   3.719   4.168  12.759 -0.1731  0.5758 -0.5825
  902MPD2    C213265   3.836   4.106  12.703  0.8057 -0.2217  0.5475
  902MPD2    C313266   3.832   3.975  12.674  0.4421  0.0025 -0.1047
  902MPD2    C413267   3.711   3.902  12.679 -0.9020 -0.1304  0.4229
  902MPD2    C513268   3.600   3.966  12.723  0.3299  0.3018 -0.8378
  902MPD2     H13269   3.931   4.159  12.697 -0.1136  1.6058  2.2219
  902MPD2    H113270   3.699   3.802  12.640 -0.2691 -1.6903  4.1672
  902MPD2    H213271   3.508   4.142  12.795  0.4364  1.0491 -1.1812
  902MPD2    H313272   3.506   3.912  12.723  0.6300 -0.2247  1.7650
  902MPD2     N13273   3.938   3.916  12.606  0.5221  0.4865  0.2882
  902MPD2    H513274   3.918   3.830  12.557  1.7049  0.0901  0.4987
  902MPD2    N113275   3.717   4.304  12.794 -0.2974 -0.0103  0.0860
  902MPD2    H713276   3.630   4.351  12.815 -0.3995 -0.0223 -0.3065
  903MPD2     C13277   4.224   4.443  12.230  0.4636  0.0977  0.7094
  903MPD2    C113278   4.152   4.328  12.213 -0.8430  0.0907  0.0732
  903MPD2    C213279   4.029   4.327  12.153  0.5124  0.8328 -0.3857
  903MPD2    C313280   3.968   4.445  12.125 -0.3404  0.2623 -0.2519
  903MPD2    C413281   4.035   4.557  12.163 -0.7171 -0.5279  0.2128
  903MPD2    C513282   4.162   4.558  12.202  0.2454 -0.0570  0.0213
  903MPD2     H13283   3.986   4.231  12.127 -0.1264  0.8412  0.6545
  903MPD2    H113284   3.993   4.655  12.140 -3.1659 -1.0905  2.2836
  903MPD2    H213285   4.316   4.452  12.286  0.0610 -0.1510  1.4249
  903MPD2    H313286   4.224   4.647  12.208  1.6720 -0.9608 -1.3111
  903MPD2     N13287   3.843   4.439  12.065  0.2603  0.2931  0.5079
  903MPD2    H513288   3.802   4.346  12.055  5.5930 -1.8570 -1.2819
  903MPD2    N113289   4.222   4.212  12.249  0.6678 -0.4416  0.5704
  903MPD2    H713290   4.308   4.217  12.303  1.0782  0.6896 -0.1997
  904MPD2     C13291   3.680   3.309  13.776  0.0334 -0.8504  0.0181
  904MPD2    C113292   3.659   3.222  13.879  1.1018  0.7188  0.2533
  904MPD2    C213293   3.755   3.194  13.976  0.2446 -0.5501  0.6816
  904MPD2    C313294   3.877   3.254  13.971 -0.1339 -0.3614 -0.6871
  904MPD2    C413295   3.893   3.350  13.876 -0.4263 -0.2521 -0.3821
  904MPD2    C513296   3.802   3.368  13.776 -0.6053 -0.2514  0.0974
  904MPD2     H13297   3.731   3.139  14.066 -0.7218 -4.5975 -2.0663
  904MPD2    H113298   3.987   3.402  13.886  0.0439 -1.1157 -0.3140
  904MPD2    H213299   3.611   3.328  13.695  1.6759  0.0537 -1.1957
  904MPD2    H313300   3.823   3.447  13.706  1.3449 -1.0190 -0.1841
  904MPD2     N13301   3.969   3.226  14.078 -0.0705  0.7765 -0.2843
  904MPD2    H513302   3.940   3.154  14.144 -0.0914 -1.5497 -2.8137
  904MPD2    N113303   3.532   3.161  13.893 -0.2127 -0.2034  0.2527
  904MPD2    H713304   3.525   3.074  13.945 -1.0221 -1.4603 -1.9641
  905MPD2     C13305   3.359   3.150  13.309  0.1031  0.3858  0.1309
  905MPD2    C113306   3.422   3.265  13.357  0.0590 -0.1196 -0.1190
  905MPD2    C213307   3.559   3.259  13.371 -0.2535 -0.0649 -0.0594
  905MPD2    C313308   3.623   3.138  13.337  0.6395 -0.2904  0.1276
  905MPD2    C413309   3.558   3.028  13.291 -0.3385  0.3867  0.4529
  905MPD2    C513310   3.422   3.036  13.267  0.5852  0.5659  0.4467
  905MPD2     H13311   3.618   3.344  13.402  0.7600 -0.0109 -2.0910
  905MPD2    H113312   3.611   2.936  13.270  0.5396  0.6690  1.4569
  905MPD2    H213313   3.251   3.146  13.302  0.2072  0.3749 -1.3631
  905MPD2    H313314   3.365   2.954  13.225 -1.5381  1.1832  2.1502
  905MPD2     N13315   3.758   3.130  13.368  0.2768  0.2571  0.0625
  905MPD2    H513316   3.803   3.213  13.404 -0.2841  0.8126 -0.5291
  905MPD2    N113317   3.334   3.363  13.415 -0.5173  0.3528  0.3744
  905MPD2    H713318   3.235   3.342  13.414 -0.3754 -0.4152  1.6283
  906MPD2     C13319   1.222   3.530  11.031 -0.0527 -0.4515 -0.1034
  906MPD2    C113320   1.199   3.439  10.936 -0.0791  0.4192 -0.4390
  906MPD2    C213321   1.188   3.306  10.971  1.0343 -0.3939  0.7287
  906MPD2    C313322   1.209   3.255  11.093  0.6353 -0.7060  0.8161
  906MPD2    C413323   1.233   3.343  11.188 -0.5422  0.0021  0.1279
  906MPD2    C513324   1.234   3.481  11.161 -0.2258  0.2528  0.0139
  906MPD2     H13325   1.163   3.235  10.894 -0.3575 -0.5248  1.2985
  906MPD2    H113326   1.262   3.311  11.287 -0.0210 -2.0161 -0.6772
  906MPD2    H213327   1.233   3.637  11.015  2.8516 -0.6797  0.4011
  906MPD2    H313328   1.258   3.545  11.245 -2.2241  1.2361 -0.1714
  906MPD2     N13329   1.192   3.113  11.107 -0.8501 -0.2113 -0.7868
  906MPD2    H513330   1.168   3.066  11.020 -0.1047 -1.6470 -0.2281
  906MPD2    N113331   1.188   3.472  10.799 -0.2498 -0.6440  0.5526
  906MPD2    H713332   1.172   3.398  10.731  0.6140  0.6090 -1.0108
  907MPD2     C13333   0.031   2.650  15.722  0.0134 -0.1716 -0.1586
  907MPD2    C113334   0.095   2.526  15.706  0.0421  0.2742  0.7586
  907MPD2    C213335   0.188   2.488  15.800 -0.6339 -0.0254  0.2802
  907MPD2    C313336   0.210   2.566  15.911  0.3640  0.3496  0.5411
  907MPD2    C413337   0.146   2.683  15.929  0.1055  0.7139 -0.4517
  907MPD2    C513338   0.051   2.725  15.837 -0.1217  0.2266 -0.6596
  907MPD2     H13339   0.238   2.392  15.793  1.0924  0.8787  0.1362
  907MPD2    H113340   0.161   2.751  16.011  1.7552 -1.1688  0.7836
  907MPD2    H213341   4.686   2.681  15.656 -0.9015  0.3380  1.1949
  907MPD2    H313342   4.729   2.815  15.857 -1.2566 -1.2570  2.9771
  907MPD2     N13343   0.303   2.518  16.004  0.1582 -0.2386  0.4238
  907MPD2    H513344   0.340   2.426  15.983 -0.0758 -0.3348  0.4278
  907MPD2    N113345   0.063   2.448  15.590  0.1449 -0.6031  0.0586
  907MPD2    H713346   4.717   2.475  15.534 -0.6836 -2.2215  0.4575
  908MPD2     C13347   3.280   2.624   9.929  0.3030  0.3292 -0.1217
  908MPD2    C113348   3.157   2.624   9.986  0.3648  0.6530  0.3207
  908MPD2    C213349   3.112   2.729  10.068  0.2726  0.6579  0.1671
  908MPD2    C313350   3.198   2.840  10.088  0.4131  0.4408  0.0739
  908MPD2    C413351   3.322   2.848  10.017 -0.5232 -0.6238 -0.6042
  908MPD2    C513352   3.357   2.740   9.933 -0.0706  0.1758 -0.1035
  908MPD2     H13353   3.013   2.721  10.112 -0.3052  1.3637 -0.9889
  908MPD2    H113354   3.387   2.934  10.026 -3.3367  1.3945  0.7142
  908MPD2    H213355   3.303   2.533   9.875 -0.4474 -0.5326  1.0249
  908MPD2    H313356   3.455   2.737   9.888  1.0160 -1.3071  2.3155
  908MPD2     N13357   3.167   2.936  10.185  0.2511 -0.0084  0.1876
  908MPD2    H513358   3.083   2.926  10.241  0.3280 -0.3715  0.2395
  908MPD2    N113359   3.078   2.508   9.971  0.5138 -0.1361 -0.3631
  908MPD2    H713360   3.126   2.428   9.932  0.7867  0.5960 -1.5327
  909MPD2     C13361   2.738   1.161  11.463 -0.0197 -0.1503  0.1873
  909MPD2    C113362   2.809   1.279  11.480  0.1819  0.5854 -0.7525
  909MPD2    C213363   2.819   1.331  11.610 -0.1896 -0.1005 -0.0831
  909MPD2    C313364   2.767   1.262  11.724  0.0203 -0.0319 -0.4182
  909MPD2    C413365   2.698   1.149  11.693 -0.4800 -0.1265  1.4765
  909MPD2    C513366   2.683   1.100  11.570 -0.3364  1.0618 -0.3068
  909MPD2     H13367   2.866   1.426  11.627 -0.5538  0.0331  0.1839
  909MPD2    H113368   2.649   1.084  11.765 -0.1781 -0.5549  1.2942
  909MPD2    H213369   2.707   1.114  11.370 -1.2180 -1.1407  1.0937
  909MPD2    H313370   2.623   1.012  11.549 -0.1711  1.1006 -0.9224
  909MPD2     N13371   2.781   1.321  11.852 -0.2181  0.4914 -0.3901
  909MPD2    H513372   2.811   1.418  11.852 -0.7269  0.6598  1.3678
  909MPD2    N113373   2.869   1.362  11.379  0.1979  0.1647 -0.0169
  909MPD2    H713374   2.900   1.456  11.402 -4.5761  1.5118  0.8855
  910MPD2     C13375   3.923   2.909  16.007  0.0214  0.1132 -0.7532
  910MPD2    C113376   4.040   2.925  15.939  0.7196 -0.4073 -0.0075
  910MPD2    C213377   4.038   2.965  15.804  0.7404 -0.1645 -0.1957
  910MPD2    C313378   3.909   2.971  15.743  0.1375 -0.0287 -0.3964
  910MPD2    C413379   3.798   2.941  15.813 -0.3409 -0.2018  0.4692
  910MPD2    C513380   3.806   2.905  15.944  0.7196 -0.1609 -0.3795
  910MPD2     H13381   4.126   2.990  15.746  1.2670  1.0406  1.1345
  910MPD2    H113382   3.700   2.937  15.766  0.8747 -1.0059 -2.0230
  910MPD2    H213383   3.927   2.870  16.108  0.3607 -1.6238 -1.4367
  910MPD2    H313384   3.714   2.874  15.991  0.3835 -0.4409 -1.2311
  910MPD2     N13385   3.893   2.991  15.603 -0.0929 -0.4526  0.4510
  910MPD2    H513386   3.795   2.991  15.576 -0.0132  0.1298  0.1544
  910MPD2    N113387   4.161   2.896  16.002  0.6902 -0.5265 -0.5429
  910MPD2    H713388   4.242   2.919  15.946 -1.6081  0.9250 -3.2531
  911MPD2     C13389   2.418   3.318  16.139 -0.6652  0.1486 -0.1058
  911MPD2    C113390   2.455   3.380  16.262 -0.3585  0.1775 -0.2410
  911MPD2    C213391   2.461   3.517  16.269  0.5334  0.3873  0.2033
  911MPD2    C313392   2.431   3.589  16.156 -0.7380  0.3485  0.3029
  911MPD2    C413393   2.386   3.528  16.039 -0.2272 -1.4504 -0.1545
  911MPD2    C513394   2.383   3.394  16.027 -0.6584 -1.2145  0.2912
  911MPD2     H13395   2.501   3.566  16.356  3.3020  0.5677 -1.1735
  911MPD2    H113396   2.368   3.588  15.950 -2.0080  0.5450  1.5610
  911MPD2    H213397   2.419   3.211  16.123 -0.9664  0.2711 -0.9308
  911MPD2    H313398   2.347   3.360  15.931 -0.9634 -0.5423  0.1698
  911MPD2     N13399   2.449   3.729  16.148 -0.6767  0.1960 -0.2408
  911MPD2    H513400   2.426   3.778  16.062  4.1151 -0.7308 -2.0640
  911MPD2    N113401   2.491   3.297  16.372 -0.6157  0.5214 -0.1670
  911MPD2    H713402   2.485   3.197  16.356  1.8032  0.0484  1.8183
  912MPD2     C13403   2.008   3.581  15.885  0.4543  0.4490 -0.3970
  912MPD2    C113404   2.046   3.617  16.014  0.2859 -0.2349  0.4554
  912MPD2    C213405   2.051   3.535  16.132  0.2671 -0.4399  0.0876
  912MPD2    C313406   2.033   3.400  16.109  0.2276  0.4688 -0.3788
  912MPD2    C413407   1.993   3.366  15.983 -0.9424  0.8999  0.2009
  912MPD2    C513408   1.980   3.451  15.871 -0.0180 -0.2648  0.7288
  912MPD2     H13409   2.071   3.562  16.235  1.8105 -0.5915 -0.1751
  912MPD2    H113410   1.972   3.263  15.959 -0.1150  0.4950  1.2177
  912MPD2    H213411   1.987   3.646  15.801 -1.3057  2.3302  1.4837
  912MPD2    H313412   1.949   3.400  15.780  1.9594 -0.8015  0.3377
  912MPD2     N13413   2.048   3.302  16.207  0.5165  0.7582 -0.1645
  912MPD2    H513414   2.091   3.325  16.295  0.1702  2.2402 -0.3789
  912MPD2    N113415   2.068   3.760  16.029 -0.2234  0.0908  0.3632
  912MPD2    H713416   2.069   3.822  15.949 -0.6058  0.1056  0.3715
  913MPD2     C13417   2.484   0.532  10.061 -0.5362  0.3310 -0.1643
  913MPD2    C113418   2.416   0.540  10.184 -0.7723 -0.3642  0.2088
  913MPD2    C213419   2.354   0.662  10.218 -0.1466  0.8088  0.1068
  913MPD2    C313420   2.348   0.772  10.127 -0.2560  0.0210 -0.6911
  913MPD2    C413421   2.414   0.759  10.009  0.3106 -0.1974  0.1803
  913MPD2    C513422   2.489   0.647   9.986  0.7911  0.9780 -0.2481
  913MPD2     H13423   2.312   0.665  10.318  1.7025 -3.2007  0.9970
  913MPD2    H113424   2.416   0.840   9.937  1.9750  0.2701  0.7383
  913MPD2    H213425   2.540   0.443  10.033 -0.6461  0.1345  0.2368
  913MPD2    H313426   2.548   0.652   9.895  2.8547 -0.0599  1.0260
  913MPD2     N13427   2.284   0.890  10.163  0.2292 -0.1124 -0.3027
  913MPD2    H513428   2.295   0.978  10.113 -0.1131  0.2430  0.2429
  913MPD2    N113429   2.448   0.435  10.279  0.4397 -0.1768  0.1916
  913MPD2    H713430   2.528   0.375  10.261  1.1424  0.8009  0.0702
  914MPD2     C13431   0.969   0.215  12.430 -0.4329 -0.1387 -0.9018
  914MPD2    C113432   0.863   0.269  12.491  0.6815 -0.1291 -0.9274
  914MPD2    C213433   0.755   0.194  12.540  0.7730 -0.1560  0.4085
  914MPD2    C313434   0.760   0.055  12.523 -0.0514  0.8943  1.0792
  914MPD2    C413435   0.869   0.002  12.460  0.3516  0.1133 -0.0633
  914MPD2    C513436   0.975   0.081  12.419  0.0019 -0.4576  0.5905
  914MPD2     H13437   0.678   0.242  12.599 -1.8249 -1.1825 -2.1281
  914MPD2    H113438   0.881   4.629  12.454 -0.4278 -0.1206  2.7075
  914MPD2    H213439   1.054   0.277  12.403 -0.3458  0.3721  0.5315
  914MPD2    H313440   1.058   0.027  12.375 -0.4177 -1.4968  1.0717
  914MPD2     N13441   0.655   4.716  12.582 -0.8987 -0.3670  0.0033
  914MPD2    H513442   0.586   0.027  12.641 -1.9889 -1.3228 -0.5364
  914MPD2    N113443   0.866   0.410  12.492 -0.1354  0.3728 -0.0912
  914MPD2    H713444   0.946   0.459  12.453 -0.5041  1.3361  0.3537
  915MPD2     C13445   3.446   4.594  15.517  0.1761 -0.8217  0.3890
  915MPD2    C113446   3.315   4.602  15.551 -0.0919 -1.2618  0.0245
  915MPD2    C213447   3.264   4.680  15.650 -0.0995 -0.7313  0.2416
  915MPD2    C313448   3.347   0.013  15.737  0.3598  0.4109  0.6445
  915MPD2    C413449   3.483   4.734  15.710  0.1215  0.3249  0.0620
  915MPD2    C513450   3.526   4.668  15.600 -0.2403 -0.0892  0.4354
  915MPD2     H13451   3.156   4.673  15.663 -0.1291 -1.6073 -0.4471
  915MPD2    H113452   3.564   0.060  15.751 -1.5367  3.2239 -0.8818
  915MPD2    H213453   3.484   4.553  15.424 -2.6911 -2.4769 -0.0526
  915MPD2    H313454   3.631   4.657  15.575 -0.3060 -2.8122  1.3664
  915MPD2     N13455   3.290   0.078  15.846 -0.4031  0.0215  0.4302
  915MPD2    H513456   3.193   0.060  15.870 -0.0194  0.1912  2.0929
  915MPD2    N113457   3.220   4.543  15.464 -0.0456 -0.6139 -0.9629
  915MPD2    H713458   3.129   4.563  15.504  0.7954 -0.7112  1.0217
  916MPD2     C13459   1.678   2.940  15.935 -0.0243 -0.2537 -0.8004
  916MPD2    C113460   1.728   2.929  16.062  0.2845 -0.1089 -0.0720
  916MPD2    C213461   1.810   2.821  16.082 -0.0975  0.1243  0.3104
  916MPD2    C313462   1.838   2.724  15.988  0.1726 -0.2427  0.0315
  916MPD2    C413463   1.783   2.737  15.862  0.7424  0.3226 -0.1945
  916MPD2    C513464   1.698   2.849  15.842  0.1963 -0.1748  0.2249
  916MPD2     H13465   1.866   2.823  16.175 -1.8985  0.5505  1.3888
  916MPD2    H113466   1.813   2.672  15.781 -1.2220  1.3203 -1.7416
  916MPD2    H213467   1.611   3.019  15.904 -1.7435 -1.2470  0.3650
  916MPD2    H313468   1.652   2.860  15.745 -0.6822  0.1735  0.6827
  916MPD2     N13469   1.929   2.625  16.029 -0.2332  0.3799  0.1976
  916MPD2    H513470   1.979   2.646  16.115 -0.7216 -2.8106  1.2626
  916MPD2    N113471   1.687   3.023  16.154 -0.3214  0.4335 -0.1991
  916MPD2    H713472   1.628   3.100  16.122 -1.0377  1.3057  3.1655
  917MPD2     C13473   1.196   0.370  11.580 -0.1747 -0.5492  0.1449
  917MPD2    C113474   1.249   0.478  11.641 -0.6407 -0.4291  0.3699
  917MPD2    C213475   1.307   0.579  11.570  0.3751  0.2710  0.3347
  917MPD2    C313476   1.311   0.574  11.429 -1.1231 -0.1829  0.7543
  917MPD2    C413477   1.269   0.465  11.371 -0.0931 -0.4334 -0.0800
  917MPD2    C513478   1.221   0.357  11.446  0.1712  0.3686  0.5142
  917MPD2     H13479   1.334   0.673  11.618 -0.1432 -0.7805  2.6767
  917MPD2    H113480   1.272   0.456  11.263  0.6171 -1.7726  0.0573
  917MPD2    H213481   1.171   0.279  11.633 -1.4237  0.4099  1.2202
  917MPD2    H313482   1.214   0.256  11.407  1.8312  1.3125 -2.1815
  917MPD2     N13483   1.338   0.683  11.345  0.6979  0.1174 -0.5045
  917MPD2    H513484   1.317   0.681  11.246 -2.2675  0.1275  0.1120
  917MPD2    N113485   1.223   0.476  11.778 -0.2074  0.1769 -0.2440
  917MPD2    H713486   1.193   0.387  11.816  2.6278 -0.5472  0.2932
  918MPD2     C13487   1.296   1.110  12.547  1.2912 -0.0557 -0.8340
  918MPD2    C113488   1.386   1.088  12.441 -0.9816  0.0994  0.1564
  918MPD2    C213489   1.363   0.980  12.360 -0.0273  0.4466 -0.8758
  918MPD2    C313490   1.279   0.883  12.396  0.1464 -0.0486 -0.1669
  918MPD2    C413491   1.195   0.900  12.504  0.4464  0.6871 -0.3556
  918MPD2    C513492   1.198   1.018  12.577  0.2875 -0.2428 -0.6142
  918MPD2     H13493   1.421   0.974  12.269  1.5284 -1.1786  0.2304
  918MPD2    H113494   1.121   0.826  12.530 -1.8632  3.3081  0.4552
  918MPD2    H213495   1.309   1.194  12.615 -1.2308 -1.3047  1.2023
  918MPD2    H313496   1.125   1.036  12.655  1.7858 -0.2777  0.7990
  918MPD2     N13497   1.289   0.759  12.320  1.2209  0.3671  0.4175
  918MPD2    H513498   1.351   0.756  12.240  0.5982  1.0684 -0.0912
  918MPD2    N113499   1.491   1.178  12.415  0.1221  0.5015 -0.0543
  918MPD2    H713500   1.555   1.159  12.339 -0.8887 -0.8125 -0.5786
  919MPD2     C13501   2.071   4.100  11.289  0.1962 -0.0935  0.2870
  919MPD2    C113502   2.204   4.097  11.326 -0.3296  0.6487  0.6024
  919MPD2    C213503   2.303   4.151  11.242  0.5978 -0.2715  0.4643
  919MPD2    C313504   2.269   4.213  11.124  0.3208  0.7414  0.4787
  919MPD2    C413505   2.132   4.222  11.083 -0.1914  0.0323 -0.4696
  919MPD2    C513506   2.036   4.166  11.173  0.1662  0.2484  0.0858
  919MPD2     H13507   2.405   4.138  11.277  0.6774 -1.2268 -0.1279
  919MPD2    H113508   2.102   4.271  10.991  0.7980 -0.0692 -0.8491
  919MPD2    H213509   1.990   4.046  11.337 -0.8661  3.1947  2.1599
  919MPD2    H313510   1.933   4.168  11.141 -0.5102 -1.7547  2.0918
  919MPD2     N13511   2.357   4.268  11.033 -0.3805 -0.2308  0.5976
  919MPD2    H513512   2.318   4.298  10.944 -0.1973 -1.5060  0.0902
  919MPD2    N113513   2.246   4.037  11.445  0.0393  0.3670  0.2657
  919MPD2    H713514   2.344   4.052  11.465  0.5468 -2.0679 -0.4376
  920MPD2     C13515   2.196   0.092  10.410  0.7253  0.0891  0.5647
  920MPD2    C113516   2.167   0.084  10.544  0.1448  0.6080 -0.6106
  920MPD2    C213517   2.213   4.704  10.613  0.5562 -0.4839  0.5296
  920MPD2    C313518   2.296   4.615  10.552 -0.4655 -0.5259 -0.1732
  920MPD2    C413519   2.342   4.643  10.422  0.5230 -0.4172  0.3276
  920MPD2    C513520   2.287   0.006  10.346  0.0592  0.7550 -0.0783
  920MPD2     H13521   2.192   4.698  10.719  0.1940 -1.0338  0.4224
  920MPD2    H113522   2.410   4.582  10.363 -0.9864  0.8933 -2.7570
  920MPD2    H213523   2.157   0.172  10.348  1.1234  0.4189  0.7322
  920MPD2    H313524   2.317   0.019  10.243  2.4900  1.5771  0.7237
  920MPD2     N13525   2.354   4.513  10.638  0.0263  0.0211 -0.0992
  920MPD2    H513526   2.317   4.499  10.732  3.3834  0.5055  1.3148
  920MPD2    N113527   2.083   0.172  10.610 -0.0545 -0.2924 -0.1982
  920MPD2    H713528   2.074   0.155  10.710  0.3654 -2.5474 -0.5524
  921MPD2     C13529   3.288   3.472  16.962 -0.1428  0.3150  0.1141
  921MPD2    C113530   3.298   3.372  16.867 -0.0584 -0.0408  0.5070
  921MPD2    C213531   3.180   3.310  16.824 -0.7129 -0.6269 -0.4489
  921MPD2    C313532   3.058   3.352  16.870 -0.4234  0.3961  0.2094
  921MPD2    C413533   3.044   3.450  16.968  0.3333  0.1848 -0.5269
  921MPD2    C513534   3.163   3.510  17.013  0.2849 -0.3545  0.5891
  921MPD2     H13535   3.193   3.232  16.750 -1.1013 -0.6435 -0.5009
  921MPD2    H113536   2.947   3.473  17.010 -0.1594 -1.9299 -0.4746
  921MPD2    H213537   3.377   3.526  16.990 -0.8333  1.4608  0.0908
  921MPD2    H313538   3.159   3.581  17.094  0.1160  0.8405 -0.4701
  921MPD2     N13539   2.954   3.276  16.816  0.6188  0.3450 -0.6214
  921MPD2    H513540   2.984   3.214  16.742  0.9079 -0.1538 -0.0817
  921MPD2    N113541   3.427   3.353  16.811 -0.7483 -0.1702 -0.1582
  921MPD2    H713542   3.504   3.412  16.842 -0.7142 -0.4458  0.2822
  922MPD2     C13543   4.184   1.880   0.112  0.3764  1.2312  0.7151
  922MPD2    C113544   4.200   1.787   0.220 -0.8218 -0.7312  0.0465
  922MPD2    C213545   4.208   1.654   0.200 -0.7721  0.3808  0.2062
  922MPD2    C313546   4.194   1.601   0.071  0.0846  0.0723  0.3054
  922MPD2    C413547   4.184   1.689  17.704 -0.4995 -0.3818  0.3305
  922MPD2    C513548   4.174   1.831  17.725 -0.0781  0.5713  0.1990
  922MPD2     H13549   4.239   1.593   0.284  1.3125  1.6711  0.3819
  922MPD2    H113550   4.158   1.663  17.602 -1.3987  1.3260  0.1209
  922MPD2    H213551   4.192   1.987   0.130  1.2174  1.3780 -0.5886
  922MPD2    H313552   4.161   1.902  17.644  2.5880  0.4621 -0.3145
  922MPD2     N13553   4.169   1.464   0.060  0.5813 -0.4347 -0.9116
  922MPD2    H513554   4.156   1.411   0.145  2.1422 -1.1980 -1.1541
  922MPD2    N113555   4.226   1.824   0.354  0.2376  0.2702  0.4500
  922MPD2    H713556   4.243   1.740   0.409  0.2121 -0.7115 -1.0520
  923MPD2     C13557   0.306   3.754   8.726 -0.7243 -0.2443  0.0733
  923MPD2    C113558   0.317   3.854   8.824  0.4530 -1.2416  0.2141
  923MPD2    C213559   0.402   3.835   8.935 -0.5193  0.0384 -0.3312
  923MPD2    C313560   0.471   3.714   8.949 -0.7032 -1.4086  0.1985
  923MPD2    C413561   0.457   3.617   8.853 -0.2479 -0.6032  0.3803
  923MPD2    C513562   0.378   3.640   8.743 -0.1001 -0.3113  0.3166
  923MPD2     H13563   0.413   3.908   9.014 -0.1875  0.0516 -0.3901
  923MPD2    H113564   0.520   3.529   8.864  0.5441 -0.2226 -1.1139
  923MPD2    H213565   0.238   3.772   8.644  1.4375  2.5402 -1.1464
  923MPD2    H313566   0.361   3.562   8.670  0.6440 -2.1534  2.1130
  923MPD2     N13567   0.542   3.685   9.068 -0.3687 -0.4078  0.4795
  923MPD2    H513568   0.599   3.602   9.062  0.0542 -0.1042  0.3281
  923MPD2    N113569   0.236   3.970   8.810  0.3301  0.1848  0.1787
  923MPD2    H713570   0.164   3.969   8.739 -0.0044  1.9707  0.5022
  924MPD2     C13571   0.666   1.886  15.773  0.3064  0.2805  0.6525
  924MPD2    C113572   0.599   1.873  15.890  0.0342 -0.3303 -0.8232
  924MPD2    C213573   0.608   1.976  15.986  0.7155 -0.0155  0.1582
  924MPD2    C313574   0.685   2.089  15.962 -0.0894  0.2821  0.0909
  924MPD2    C413575   0.758   2.099  15.847 -0.1881  0.5521 -0.0016
  924MPD2    C513576   0.752   1.994  15.759 -0.1483  0.7091 -0.3896
  924MPD2     H13577   0.552   1.963  16.078  3.2222 -1.0311  1.5484
  924MPD2    H113578   0.813   2.190  15.829  2.5469 -0.6264  2.4599
  924MPD2    H213579   0.653   1.819  15.689  0.4052 -0.3694  1.1599
  924MPD2    H313580   0.795   2.005  15.661 -0.2972 -1.3626 -0.7018
  924MPD2     N13581   0.675   2.198  16.049  0.3128  0.7592  0.8169
  924MPD2    H513582   0.723   2.285  16.026 -0.9002  1.3366  0.4941
  924MPD2    N113583   0.497   1.776  15.904  0.3421 -0.3634 -0.6356
  924MPD2    H713584   0.452   1.733  15.824 -0.8801  0.1180 -0.1994
  925MPD2     C13585   4.138   4.310  14.387  0.5600 -0.7026  0.0385
  925MPD2    C113586   4.001   4.312  14.373 -0.3763 -0.3891 -0.3468
  925MPD2    C213587   3.919   4.314  14.483  0.4169 -0.6078  0.0010
  925MPD2    C313588   3.974   4.291  14.612  0.1575  0.1383  0.2787
  925MPD2    C413589   4.107   4.261  14.617 -0.3228  0.1608  0.2485
  925MPD2    C513590   4.188   4.272  14.505  0.4436 -0.0174 -0.1587
  925MPD2     H13591   3.812   4.329  14.475  0.6970  0.4200 -1.8106
  925MPD2    H113592   4.140   4.238  14.718 -2.4608 -0.2866  0.8511
  925MPD2    H213593   4.197   4.321  14.297 -0.1236  1.5815 -0.1512
  925MPD2    H313594   4.297   4.267  14.509  0.2961 -1.8575  1.6728
  925MPD2     N13595   3.902   4.276  14.733 -0.5723 -0.0787 -0.0957
  925MPD2    H513596   3.958   4.251  14.813 -1.3895 -0.3625  0.3897
  925MPD2    N113597   3.926   4.322  14.248  0.0548  0.3264 -0.5133
  925MPD2    H713598   3.828   4.294  14.252  0.6393 -2.0001 -2.3372
  926MPD2     C13599   2.400   2.548  14.281 -0.1810 -0.5246  0.1571
  926MPD2    C113600   2.352   2.650  14.205  0.7548  0.1168  0.3287
  926MPD2    C213601   2.434   2.692  14.098  0.5158  0.2560 -0.5696
  926MPD2    C313602   2.558   2.635  14.071 -0.1809 -0.8635 -0.1241
  926MPD2    C413603   2.602   2.534  14.156 -0.0447  0.5565  0.5022
  926MPD2    C513604   2.524   2.492  14.261  0.5137 -0.4583  0.1210
  926MPD2     H13605   2.400   2.776  14.037  1.0071  0.9320  0.0927
  926MPD2    H113606   2.696   2.487  14.133  0.9582  1.9032  1.8652
  926MPD2    H213607   2.340   2.513  14.364  0.2371  0.3670  0.8470
  926MPD2    H313608   2.549   2.408  14.324 -1.5021 -1.1986 -0.0804
  926MPD2     N13609   2.643   2.672  13.962 -0.5333 -0.5205 -0.7499
  926MPD2    H513610   2.725   2.612  13.955 -0.0789  0.0909 -0.5832
  926MPD2    N113611   2.225   2.706  14.220  0.0452 -0.1646 -0.9921
  926MPD2    H713612   2.185   2.760  14.143 -0.0651  1.1752  0.0048
  927MPD2     C13613   3.641   0.424  17.430  0.1023 -0.0301 -0.4652
  927MPD2    C113614   3.513   0.463  17.399 -0.0420 -0.8115 -0.3819
  927MPD2    C213615   3.480   0.487  17.270  0.5741  0.2541  0.2562
  927MPD2    C313616   3.570   0.472  17.173  0.0274  0.2164  0.7132
  927MPD2    C413617   3.701   0.448  17.197 -0.0113 -0.0656  0.2857
  927MPD2    C513618   3.735   0.422  17.330 -0.2980 -0.6638 -0.1453
  927MPD2     H13619   3.383   0.524  17.239 -1.0408 -3.6237  0.6565
  927MPD2    H113620   3.784   0.434  17.130  1.3068 -1.5338  2.2165
  927MPD2    H213621   3.672   0.422  17.533  1.7200 -0.6332 -0.9687
  927MPD2    H313622   3.836   0.407  17.368  0.3035 -3.5050 -2.8264
  927MPD2     N13623   3.530   0.485  17.039 -0.2571  0.4113  0.2880
  927MPD2    H513624   3.431   0.503  17.027 -1.1498 -2.8463  2.6547
  927MPD2    N113625   3.418   0.472  17.501  0.0826 -0.3260  0.1934
  927MPD2    H713626   3.456   0.462  17.595  0.8182 -1.5729 -0.2335
  928MPD2     C13627   0.691   4.094   0.781 -0.2795  0.1742 -0.0172
  928MPD2    C113628   0.788   4.137   0.870 -0.4098 -0.3103 -0.3303
  928MPD2    C213629   0.923   4.139   0.837  0.2331  0.1404  0.5654
  928MPD2    C313630   0.965   4.085   0.715 -0.1656 -0.8287 -0.1206
  928MPD2    C413631   0.875   4.034   0.633 -0.4929  0.0298 -0.4183
  928MPD2    C513632   0.737   4.043   0.661 -0.4709 -0.1999  0.3418
  928MPD2     H13633   0.997   4.178   0.906  0.0978 -0.2962  0.9571
  928MPD2    H113634   0.910   3.986   0.543  3.4930 -0.5090  1.4030
  928MPD2    H213635   0.586   4.088   0.807 -0.2375  0.4584  0.2172
  928MPD2    H313636   0.668   4.007   0.587  0.3595  0.5060 -0.7800
  928MPD2     N13637   1.102   4.089   0.669 -0.8435 -0.6707  0.0189
  928MPD2    H513638   1.123   4.058   0.575  1.7412  0.4366  0.2320
  928MPD2    N113639   0.736   4.178   0.999  0.3131  0.6977 -0.0650
  928MPD2    H713640   0.636   4.166   1.009  0.6703 -0.8796  1.4973
  929MPD2     C13641   0.572   3.412  10.251 -0.2817 -0.1868  0.4576
  929MPD2    C113642   0.479   3.339  10.325  0.9448  0.0811 -0.1698
  929MPD2    C213643   0.345   3.363  10.310 -0.1709  1.4495  0.0874
  929MPD2    C313644   0.298   3.461  10.221 -0.2076 -0.0276 -0.1268
  929MPD2    C413645   0.392   3.523  10.143 -0.2610 -0.2012 -0.3111
  929MPD2    C513646   0.527   3.498  10.153 -0.3281 -0.0603 -0.0154
  929MPD2     H13647   0.278   3.306  10.374  0.5168 -0.3622 -0.8119
  929MPD2    H113648   0.376   3.606  10.076 -3.6321 -1.6503 -1.3005
  929MPD2    H213649   0.679   3.395  10.246 -0.2809  0.4483 -2.0752
  929MPD2    H313650   0.588   3.552  10.081 -0.7919 -1.6796 -1.6174
  929MPD2     N13651   0.161   3.487  10.197  0.3208 -0.5686  0.6454
  929MPD2    H513652   0.130   3.570  10.148  0.1370 -0.5422  0.8064
  929MPD2    N113653   0.531   3.245  10.419  0.2103  0.2097  0.3338
  929MPD2    H713654   0.630   3.249  10.440  0.0406  2.7232  0.6180
  930MPD2     C13655   1.632   0.609  14.213 -0.2380 -0.9452  0.1595
  930MPD2    C113656   1.734   0.621  14.117  0.0945 -0.6114  0.5056
  930MPD2    C213657   1.744   0.528  14.012 -0.1827 -0.1788 -0.4310
  930MPD2    C313658   1.636   0.445  13.984 -0.2304  0.5492  0.2491
  930MPD2    C413659   1.533   0.445  14.079  0.1827 -1.0394 -0.2935
  930MPD2    C513660   1.531   0.515  14.194 -0.4806 -0.9433 -0.3460
  930MPD2     H13661   1.820   0.528  13.935 -0.8831  0.6082 -1.1420
  930MPD2    H113662   1.454   0.372  14.063 -1.4585  0.2374  2.1377
  930MPD2    H213663   1.646   0.664  14.305  2.6737  0.2325 -0.9791
  930MPD2    H313664   1.442   0.509  14.255 -0.0361 -0.6167  0.3298
  930MPD2     N13665   1.620   0.358  13.876  0.2125 -0.3559 -0.1419
  930MPD2    H513666   1.546   0.292  13.897  0.6036 -1.0624 -0.9857
  930MPD2    N113667   1.830   0.721  14.150 -0.0818 -0.5194 -0.3264
  930MPD2    H713668   1.835   0.759  14.244 -3.9677  1.8083 -1.0364
  931MPD2     C13669   3.542   0.201   0.269  0.2429 -0.2584  0.4711
  931MPD2    C113670   3.447   0.275   0.329  0.0812  0.1959  0.2940
  931MPD2    C213671   3.399   0.239   0.456  1.0918  0.0464 -0.5262
  931MPD2    C313672   3.466   0.144   0.528 -0.0683  0.2424 -0.3120
  931MPD2    C413673   3.551   0.057   0.461 -0.0954 -0.0812  0.2457
  931MPD2    C513674   3.594   0.092   0.340 -0.2679 -0.3733 -0.2745
  931MPD2     H13675   3.330   0.309   0.502  2.3129  1.1599 -0.3765
  931MPD2    H113676   3.612   4.713   0.504  0.5031  0.5376  0.5327
  931MPD2    H213677   3.601   0.226   0.181 -1.0833 -0.6426 -0.5198
  931MPD2    H313678   3.660   0.025   0.285  0.4315  1.5589 -1.7701
  931MPD2     N13679   3.440   0.117   0.665 -0.7592  0.8586  0.0294
  931MPD2    H513680   3.489   0.043   0.714  0.0534  1.5775  0.3251
  931MPD2    N113681   3.390   0.374   0.239 -0.4964  1.0424 -0.4641
  931MPD2    H713682   3.446   0.404   0.159 -1.6195 -2.6121 -2.6578
  932MPD2     C13683   3.998   4.262  11.741 -0.4962 -0.5267  0.3924
  932MPD2    C113684   4.072   4.289  11.630 -0.4332 -0.3908  0.4427
  932MPD2    C213685   4.111   4.188  11.545 -0.2446  0.2798  0.7636
  932MPD2    C313686   4.072   4.064  11.571 -0.1721  0.0846  0.0647
  932MPD2    C413687   3.996   4.033  11.680 -0.1290  0.3034  0.3676
  932MPD2    C513688   3.959   4.132  11.762 -0.8990 -0.5765  0.1118
  932MPD2     H13689   4.176   4.213  11.462 -0.8515  0.6558  0.3986
  932MPD2    H113690   3.954   3.936  11.702  0.2457 -0.5621 -2.7605
  932MPD2    H213691   3.968   4.329  11.821  0.6895 -0.0198  0.4071
  932MPD2    H313692   3.895   4.115  11.848 -0.9148 -0.6322  0.0891
  932MPD2     N13693   4.117   3.949  11.499 -0.2862  1.1024  0.3912
  932MPD2    H513694   4.086   3.860  11.536 -0.0362  0.9694  0.2807
  932MPD2    N113695   4.119   4.419  11.606  0.3366 -0.1583 -0.0809
  932MPD2    H713696   4.186   4.426  11.529  0.4305  4.1428  0.3499
  933MPD2     C13697   0.139   4.377   1.028 -1.1436  0.5996 -0.7947
  933MPD2    C113698   0.186   4.386   1.156 -0.7650  0.1848 -0.1062
  933MPD2    C213699   0.106   4.450   1.252 -0.5071 -0.1877 -0.0599
  933MPD2    C313700   4.720   4.508   1.218  0.3271 -0.5220 -0.3569
  933MPD2    C413701   4.672   4.496   1.089  0.0274  0.2601 -0.1362
  933MPD2    C513702   0.007   4.425   0.996 -0.1399 -0.7203  0.4908
  933MPD2     H13703   0.151   4.468   1.348  1.9818 -1.0691 -1.0703
  933MPD2    H113704   4.579   4.543   1.063 -0.2637 -0.8689 -1.1733
  933MPD2    H213705   0.197   4.339   0.944 -0.3392 -2.4938  1.1520
  933MPD2    H313706   4.710   4.417   0.892  1.4380  0.6241 -0.0859
  933MPD2     N13707   4.659   4.583   1.323 -0.1928  0.0165  0.0210
  933MPD2    H513708   4.716   4.595   1.406 -0.2589 -1.9679  0.3445
  933MPD2    N113709   0.314   4.331   1.190 -0.7912 -0.3294 -0.2426
  933MPD2    H713710   0.375   4.289   1.121  0.8432  0.1463  0.9076
  934MPD2     C13711   1.948   1.544   1.716  0.8321  0.4567 -0.1029
  934MPD2    C113712   2.047   1.496   1.632  0.8852  0.6897 -0.2540
  934MPD2    C213713   2.012   1.381   1.561  0.2888 -0.7384  0.2472
  934MPD2    C313714   1.891   1.312   1.575  0.3920  0.2492 -0.2750
  934MPD2    C413715   1.789   1.372   1.650 -0.0692 -0.4577 -0.4305
  934MPD2    C513716   1.820   1.486   1.723 -0.0351  0.2172 -0.1754
  934MPD2     H13717   2.092   1.345   1.497  0.0854 -1.1108  0.2036
  934MPD2    H113718   1.692   1.324   1.661 -0.5613  0.1792 -1.9896
  934MPD2    H213719   1.961   1.625   1.786  1.2307  2.0184 -1.9734
  934MPD2    H313720   1.736   1.520   1.783 -0.1388  0.3190 -0.3799
  934MPD2     N13721   1.866   1.192   1.512  0.5909 -0.0528 -0.1354
  934MPD2    H513722   1.773   1.154   1.528  1.1169 -0.8124  1.0723
  934MPD2    N113723   2.182   1.547   1.629 -0.3587  0.5214  0.3598
  934MPD2    H713724   2.242   1.498   1.563  0.2080  0.5298  0.8739
  935MPD2     C13725   2.382   0.467   1.003  0.1767  0.1461  0.4487
  935MPD2    C113726   2.247   0.463   0.974  0.0942 -0.2975  0.8819
  935MPD2    C213727   2.160   0.526   1.061  0.0131 -0.2728 -1.1689
  935MPD2    C313728   2.203   0.613   1.157  0.2164 -1.0221  1.3152
  935MPD2    C413729   2.339   0.615   1.183  0.1170 -0.4599  0.5477
  935MPD2    C513730   2.423   0.535   1.112  0.0477  0.3666 -0.4318
  935MPD2     H13731   2.055   0.507   1.044 -0.5324 -0.1311  1.9580
  935MPD2    H113732   2.381   0.689   1.250 -0.1032  0.0286  0.1450
  935MPD2    H213733   2.451   0.400   0.954  1.4572  1.7670  0.0640
  935MPD2    H313734   2.529   0.538   1.133  0.2405 -0.3662 -1.3114
  935MPD2     N13735   2.111   0.694   1.225  0.1492  0.0231  0.0488
  935MPD2    H513736   2.150   0.746   1.303  0.4414 -0.0761 -0.0307
  935MPD2    N113737   2.203   0.390   0.865 -0.2728  0.5265 -0.1149
  935MPD2    H713738   2.103   0.379   0.854 -0.2909  0.9399 -0.3850
  936MPD2     C13739   4.532   2.603  12.424 -0.2491  0.7564  0.6093
  936MPD2    C113740   4.567   2.637  12.550 -0.0574  0.0994 -0.1656
  936MPD2    C213741   4.604   2.761  12.585 -0.7105  0.4549 -0.4761
  936MPD2    C313742   4.609   2.861  12.489 -0.8655  0.0595  0.3105
  936MPD2    C413743   4.581   2.826  12.360 -0.0701 -0.0050 -0.0588
  936MPD2    C513744   4.544   2.697  12.323  0.0974 -0.8741  0.2235
  936MPD2     H13745   4.630   2.795  12.684  2.7441  1.0986 -1.6021
  936MPD2    H113746   4.580   2.897  12.279  0.0937  0.8257  0.6647
  936MPD2    H213747   4.503   2.505  12.386  0.5518  0.3584  1.0282
  936MPD2    H313748   4.527   2.667  12.220  0.8659 -1.8838  0.3951
  936MPD2     N13749   4.614   2.994  12.532 -0.0962  0.1252  0.5761
  936MPD2    H513750   4.609   3.008  12.633  2.8755  0.6109  0.6462
  936MPD2    N113751   4.563   2.547  12.661 -0.3666  0.5731  0.0643
  936MPD2    H713752   4.586   2.586  12.752  0.2175 -0.0336  0.1748
  937MPD2     C13753   2.755   3.642  11.622 -0.4376  0.1115 -0.3825
  937MPD2    C113754   2.752   3.778  11.639 -0.8638 -0.1224 -0.4668
  937MPD2    C213755   2.834   3.854  11.559 -0.4557  0.3588  0.2494
  937MPD2    C313756   2.930   3.795  11.475 -0.6291 -0.2019  0.3804
  937MPD2    C413757   2.934   3.654  11.470 -0.0971 -0.0711 -0.2775
  937MPD2    C513758   2.849   3.577  11.541  0.2354  0.1625 -0.1636
  937MPD2     H13759   2.823   3.962  11.561 -0.1366  0.3957  0.0321
  937MPD2    H113760   3.001   3.601  11.402  0.5502  1.9909 -1.2384
  937MPD2    H213761   2.684   3.582  11.677  0.4759 -1.9082 -1.3988
  937MPD2    H313762   2.871   3.471  11.534  2.6640  0.6467  0.2122
  937MPD2     N13763   3.009   3.874  11.397  0.6604 -0.0417 -0.1749
  937MPD2    H513764   3.002   3.973  11.417 -4.6631 -0.3359 -0.4915
  937MPD2    N113765   2.648   3.848  11.696  0.2024 -0.0111 -0.5043
  937MPD2    H713766   2.642   3.949  11.688 -1.5212 -0.1330 -0.8986
  938MPD2     C13767   1.174   0.543   0.889  0.0404 -0.2021  0.4864
  938MPD2    C113768   1.244   0.654   0.938 -0.2166 -0.2496 -0.5470
  938MPD2    C213769   1.240   0.661   1.079 -0.1402 -0.2586 -0.0748
  938MPD2    C313770   1.144   0.588   1.153 -0.1568 -0.9957 -0.2195
  938MPD2    C413771   1.078   0.489   1.097 -1.2006 -0.1528 -0.2302
  938MPD2    C513772   1.096   0.459   0.964 -0.2755 -0.1784 -0.5367
  938MPD2     H13773   1.291   0.744   1.126 -2.8355  0.9843  0.6500
  938MPD2    H113774   1.012   0.421   1.151 -1.9245  0.5255 -0.2514
  938MPD2    H213775   1.179   0.520   0.783 -1.6027 -1.1008  0.6130
  938MPD2    H313776   1.046   0.383   0.905 -0.7586 -1.1212  1.0963
  938MPD2     N13777   1.108   0.619   1.281  0.1089 -0.7181  0.0089
  938MPD2    H513778   1.058   0.555   1.341  1.3021 -0.9140  0.7915
  938MPD2    N113779   1.330   0.742   0.866  0.1986  0.1759  0.2512
  938MPD2    H713780   1.393   0.804   0.917  0.5031  1.7485 -2.0131
  939MPD2     C13781   2.571   1.826   1.051  0.2574  0.4911  0.4728
  939MPD2    C113782   2.665   1.928   1.054 -0.0453 -0.2198 -1.0562
  939MPD2    C213783   2.775   1.907   0.975 -0.6303 -0.0445  0.0100
  939MPD2    C313784   2.791   1.797   0.895 -0.2062 -0.2617 -0.4844
  939MPD2    C413785   2.699   1.699   0.904 -0.1971 -0.2370 -0.0236
  939MPD2    C513786   2.587   1.712   0.979 -0.0202  0.0210  0.2696
  939MPD2     H13787   2.855   1.981   0.972 -2.2727  1.8689  3.6161
  939MPD2    H113788   2.718   1.606   0.851 -0.2105 -0.5264  0.4825
  939MPD2    H213789   2.487   1.833   1.119  0.6176 -2.3916  1.1659
  939MPD2    H313790   2.527   1.624   0.999  1.4590 -0.9803  0.3427
  939MPD2     N13791   2.897   1.795   0.800 -0.2813 -0.2975  0.4980
  939MPD2    H513792   2.945   1.884   0.792  0.5988 -0.9069 -1.1029
  939MPD2    N113793   2.628   2.048   1.123  0.3031 -0.3339  0.6665
  939MPD2    H713794   2.539   2.053   1.171 -0.1368  0.8853 -0.2765
  940MPD2     C13795   4.619   2.629  13.752 -0.0870  0.4067  0.1448
  940MPD2    C113796   4.676   2.553  13.856 -0.7751 -0.5666  0.7760
  940MPD2    C213797   0.068   2.516  13.835 -0.1162 -0.6369 -0.4593
  940MPD2    C313798   0.139   2.545  13.719  0.1510 -0.2882  0.0227
  940MPD2    C413799   0.068   2.609  13.614  0.1734  0.3385 -0.2935
  940MPD2    C513800   4.682   2.657  13.637  0.3661 -0.7433  0.4405
  940MPD2     H13801   0.111   2.450  13.909  0.2507 -0.3312 -0.4016
  940MPD2    H113802   0.111   2.626  13.516  0.1953 -1.8143 -0.6755
  940MPD2    H213803   4.517   2.663  13.740 -0.1657 -0.0053 -0.3659
  940MPD2    H313804   4.628   2.697  13.552  0.6522  0.3805  0.7965
  940MPD2     N13805   0.268   2.513  13.698 -0.4783  0.2156  0.0867
  940MPD2    H513806   0.296   2.524  13.601 -1.8790 -0.9524 -0.4570
  940MPD2    N113807   4.603   2.528  13.972  0.5211 -0.6494 -0.3932
  940MPD2    H713808   4.652   2.480  14.048  0.5240 -3.5220 -2.2072
  941MPD2     C13809   3.869   2.135   9.536 -0.1594 -0.3360  0.3472
  941MPD2    C113810   3.990   2.088   9.577 -0.2072 -0.2871  0.3576
  941MPD2    C213811   3.996   2.037   9.706 -0.3921 -0.7373  0.2649
  941MPD2    C313812   3.880   2.011   9.780 -0.5867  0.8396 -0.4261
  941MPD2    C413813   3.760   2.048   9.730 -0.4281 -0.1122 -0.4257
  941MPD2    C513814   3.757   2.112   9.609  0.6760  0.2015  0.2256
  941MPD2     H13815   4.092   2.003   9.745 -0.7609 -0.3221  1.5225
  941MPD2    H113816   3.665   2.029   9.778  0.7905 -1.6198  1.3589
  941MPD2    H213817   3.858   2.194   9.446  0.8645 -1.6236 -0.6324
  941MPD2    H313818   3.666   2.151   9.565  1.4376  1.0559 -0.6026
  941MPD2     N13819   3.885   1.959   9.908  0.0170 -0.4402  0.6986
  941MPD2    H513820   3.800   1.953   9.963 -0.7369 -3.5095 -0.7567
  941MPD2    N113821   4.110   2.117   9.508  0.5661 -0.1369 -0.0262
  941MPD2    H713822   4.196   2.089   9.552  0.0218  0.4462  1.4003
  942MPD2     C13823   4.392   4.001   8.810  0.1672 -0.4206 -0.3183
  942MPD2    C113824   4.411   4.016   8.945 -0.1893 -0.3661  0.7351
  942MPD2    C213825   4.530   3.950   8.996  0.0723 -0.4040  0.1762
  942MPD2    C313826   4.610   3.872   8.927 -0.1861 -0.4330 -0.3842
  942MPD2    C413827   4.585   3.864   8.792 -0.4842  0.2685  0.3137
  942MPD2    C513828   4.479   3.929   8.732  0.1963 -0.2462  0.6307
  942MPD2     H13829   4.554   3.977   9.098  1.6646  1.7284 -0.7706
  942MPD2    H113830   4.652   3.812   8.724 -0.4141  0.2288  0.4127
  942MPD2    H213831   4.310   4.054   8.762  0.2651  0.8520  0.9374
  942MPD2    H313832   4.466   3.924   8.625  4.0578  2.7416  0.0658
  942MPD2     N13833   4.721   3.797   8.978 -0.1319 -0.0073  0.3036
  942MPD2    H513834   0.029   3.733   8.911  0.2935 -1.2916  1.7959
  942MPD2    N113835   4.317   4.075   9.027  0.1161  0.4288  0.5660
  942MPD2    H713836   4.337   4.051   9.123 -0.7203  0.9376  0.8734
  943MPD2     C13837   2.840   2.601  10.458 -0.2038  0.2164  0.4135
  943MPD2    C113838   2.847   2.469  10.416  0.2033  0.4649 -0.1064
  943MPD2    C213839   2.968   2.430  10.352 -0.7018 -0.3547 -0.3964
  943MPD2    C313840   3.081   2.511  10.347  0.7618  0.4533 -0.2507
  943MPD2    C413841   3.060   2.643  10.398 -0.1140 -0.0905  0.3810
  943MPD2    C513842   2.943   2.687  10.445  1.2217 -0.2620  0.2739
  943MPD2     H13843   2.980   2.327  10.319  2.1722 -0.0185 -0.3533
  943MPD2    H113844   3.135   2.717  10.373  0.7775 -1.0801  0.1465
  943MPD2    H213845   2.751   2.642  10.505 -0.7530  0.6734 -1.0466
  943MPD2    H313846   2.938   2.793  10.468 -1.2973 -0.0584 -1.1121
  943MPD2     N13847   3.210   2.461  10.315  0.0918  0.0713 -0.8480
  943MPD2    H513848   3.279   2.532  10.291  0.8468 -0.9794 -1.8042
  943MPD2    N113849   2.736   2.388  10.447  0.7367 -0.3524  0.8533
  943MPD2    H713850   2.647   2.429  10.473  1.1107  0.9917 -0.0109
  944MPD2     C13851   2.392   1.107  10.999 -0.4509 -0.7041 -0.7206
  944MPD2    C113852   2.416   1.058  11.126 -0.0665  0.2567 -1.1232
  944MPD2    C213853   2.411   1.144  11.234  0.2860 -0.9976 -0.3648
  944MPD2    C313854   2.380   1.276  11.214 -0.2086 -0.4244  0.5523
  944MPD2    C413855   2.356   1.326  11.086 -0.8336  1.3752  0.5388
  944MPD2    C513856   2.356   1.240  10.980  0.5647  0.1856  0.4249
  944MPD2     H13857   2.418   1.112  11.337 -0.5086  0.0008 -0.0016
  944MPD2    H113858   2.325   1.427  11.064 -0.0915  0.9586 -2.4787
  944MPD2    H213859   2.419   1.051  10.911 -1.8001 -3.3863  0.5584
  944MPD2    H313860   2.344   1.294  10.886  0.7385 -0.6899 -0.0964
  944MPD2     N13861   2.378   1.367  11.323  0.4711 -0.0383 -0.1860
  944MPD2    H513862   2.409   1.332  11.413  4.6934  0.3935 -1.5062
  944MPD2    N113863   2.446   0.923  11.138  0.4030 -0.4376 -0.2659
  944MPD2    H713864   2.439   0.868  11.053 -0.9144  1.5131 -1.4014
    1TMC1    C113865   1.200   1.539  14.974  0.5925  0.2499  0.8113
    1TMC1    C213866   1.122   1.462  14.899 -0.0632  0.1768 -0.2435
    1TMC1    C313867   1.179   1.370  14.817 -0.9198  0.3940  0.3419
    1TMC1    C413868   1.338   1.536  14.959  0.4146 -0.4650 -0.2722
    1TMC1    C513869   1.389   1.448  14.871  0.4694 -0.1287  0.3114
    1TMC1    C613870   1.314   1.358  14.796  1.2709  0.3325  0.2487
    1TMC1     C13871   1.148   1.644  15.065 -0.4465 -0.0804 -0.0399
    1TMC1     O13872   1.233   1.696  15.138 -0.5257 -0.5292 -0.1655
    1TMC1     H13873   1.018   1.457  14.927  0.3857 -1.1053  1.2236
    1TMC1    H113874   1.404   1.591  15.025 -3.1010  2.7385  0.5576
    1TMC1    H213875   1.345   1.282  14.726  1.6415  0.6349  0.0811
    1TMC1    C713876   1.522   1.477  14.839  0.0920  0.5021  0.2978
    1TMC1    C813877   1.089   1.264  14.767 -0.4739 -0.7438 -0.1068
    1TMC1    O113878   1.570   1.589  14.863 -0.1224  0.1612  0.2905
    1TMC1    O213879   0.985   1.227  14.824 -0.2428  0.1390  0.0926
    1TMC1    O313880   1.553   1.404  14.731 -0.0184 -0.4481 -0.0246
    1TMC1    H313881   1.530   1.309  14.726  0.6828 -0.6627  0.8201
    1TMC1    O513882   1.128   1.214  14.646  0.1254  0.1428  0.2509
    1TMC1    H513883   1.203   1.265  14.608  1.0208 -1.4199 -0.0951
    2MPD2     C13884   0.808   1.954  15.264  0.4078  0.1336 -0.2465
    2MPD2    C113885   0.774   1.933  15.127 -0.5078 -0.1581 -0.1684
    2MPD2    C213886   0.839   1.842  15.055 -0.9765  0.6214  0.1743
    2MPD2    C313887   0.945   1.768  15.115  0.5587 -0.0515 -0.1969
    2MPD2    C413888   0.986   1.786  15.246 -0.0461 -0.0622  0.3896
    2MPD2    C513889   0.911   1.881  15.314 -0.5062  0.0547  0.8219
    2MPD2     H13890   0.816   1.834  14.950 -0.1849 -1.3600  0.1474
    2MPD2    H113891   1.060   1.726  15.298 -0.5150 -1.2730 -0.3392
    2MPD2    H213892   0.752   2.028  15.320  2.0257  1.5824 -0.5508
    2MPD2    H313893   0.930   1.908  15.418  0.4711  1.6681  0.2147
    2MPD2     N13894   1.019   1.675  15.036  0.0732 -0.1024 -0.0802
    2MPD2    H513895   0.976   1.648  14.948  1.6429  1.9971 -1.4913
    2MPD2    N113896   0.669   2.016  15.072 -0.1042 -0.3419 -0.4721
    2MPD2    H713897   0.634   2.093  15.127  0.0829 -0.7653  0.2386
    3TMC2    C113898   0.523   2.104  14.909  0.2183 -0.9336 -0.2816
    3TMC2    C213899   0.561   2.227  14.953  0.2574 -0.2988 -0.1594
    3TMC2    C313900   0.499   2.334  14.885  0.1703 -0.6418 -0.7544
    3TMC2    C413901   0.443   2.077  14.801 -0.3816 -0.2467 -0.3197
    3TMC2    C513902   0.393   2.184  14.741 -0.0804 -0.2001 -0.4694
    3TMC2    C613903   0.415   2.315  14.781 -0.0986  0.8546 -0.0303
    3TMC2     C13904   0.610   1.997  14.949  0.7759  0.2159  0.3777
    3TMC2     O13905   0.625   1.910  14.864  0.7895  0.2184  0.1453
    3TMC2     H13906   0.627   2.251  15.036 -0.9782  0.7209  0.5298
    3TMC2    H113907   0.411   1.979  14.768 -1.0688  0.1277 -0.7534
    3TMC2    H213908   0.377   2.399  14.724  1.5225  0.1610 -2.1196
    3TMC2    C713909   0.351   2.161  14.604 -0.3534  0.8949 -0.2351
    3TMC2    C813910   0.560   2.462  14.904  0.0537 -0.4770 -0.3924
    3TMC2    O113911   0.364   2.044  14.568  0.1224  0.1282  0.0110
    3TMC2    O213912   0.606   2.497  15.013 -0.5830  0.2259 -0.7394
    3TMC2    O513913   0.623   2.487  14.792  0.3134 -0.0532 -0.4935
    3TMC2    H513914   0.582   2.455  14.709  0.1920 -4.5559  1.2969
    4TMC2    C113915   0.027   2.893  13.989  0.0998  0.2682 -0.0547
    4TMC2    C213916   0.135   2.908  13.905  0.0830  0.4197  0.1346
    4TMC2    C313917   0.254   2.849  13.935 -0.4141  0.8265 -0.8944
    4TMC2    C413918   0.033   2.819  14.103 -0.5600  0.2294  0.1984
    4TMC2    C513919   0.156   2.762  14.127 -0.0220  0.1774  0.3348
    4TMC2    C613920   0.265   2.763  14.040  0.1556  0.3728 -0.1246
    4TMC2     C13921   4.624   2.924  13.940 -0.4463 -0.4332 -0.5724
    4TMC2     O13922   4.535   2.856  13.994  0.1164 -0.0275  0.0750
    4TMC2     H13923   0.125   2.968  13.815 -1.1313 -0.3902 -0.2739
    4TMC2    H113924   4.680   2.822  14.168  0.4391 -1.1916  1.6121
    4TMC2    H213925   0.353   2.701  14.051  0.1644  0.0798 -1.8473
    4TMC2    C713926   0.140   2.641  14.214  0.6159 -0.6372  0.1030
    4TMC2    C813927   0.358   2.867  13.831 -0.2771 -0.3687  0.7615
    4TMC2    O113928   0.059   2.641  14.304 -0.1511  0.5052  0.0105
    4TMC2    O213929   0.347   2.891  13.714 -0.5790 -0.1947  0.4678
    4TMC2    O513930   0.473   2.864  13.891 -0.2157  0.4283 -0.4048
    4TMC2    H513931   0.477   2.872  13.988  0.5903 -1.2218 -0.2950
    5MPD2     C13932   4.314   2.957  13.532  0.1241 -0.1383 -0.0438
    5MPD2    C113933   4.422   3.045  13.508  0.2794 -0.5775 -0.2940
    5MPD2    C213934   4.529   3.042  13.603 -0.3566 -0.2298  0.0994
    5MPD2    C313935   4.518   2.968  13.722  0.4358 -0.3857  0.5036
    5MPD2    C413936   4.407   2.895  13.741 -0.0938 -0.1225 -0.8341
    5MPD2    C513937   4.316   2.878  13.644 -0.1463  0.3968  0.1134
    5MPD2     H13938   4.611   3.111  13.588 -1.1934  1.1075  1.5330
    5MPD2    H113939   4.396   2.822  13.820  0.3194 -0.0813 -0.7351
    5MPD2    H213940   4.225   2.945  13.471  0.0453  0.7519 -0.0929
    5MPD2    H313941   4.234   2.809  13.661 -0.9912  0.7201 -2.7839
    5MPD2     N13942   4.622   2.984  13.813 -0.5158  0.1288 -0.4458
    5MPD2    H513943   4.700   3.042  13.786  0.0727 -1.1208 -1.4532
    5MPD2    N113944   4.427   3.107  13.381  0.3451  0.1891  0.6422
    5MPD2    H713945   4.346   3.101  13.320  1.4068  2.0608 -0.9050
    6MPD1     C13946   3.638   4.722  13.135 -0.2179  0.0076 -0.5004
    6MPD1    C113947   3.550   4.610  13.142  0.1223  0.3667  0.2401
    6MPD1    C213948   3.604   4.486  13.162  0.0186 -0.3847  0.5075
    6MPD1    C313949   3.737   4.477  13.193  0.2174  0.2702  0.3081
    6MPD1    C413950   3.808   4.588  13.200  0.2774 -0.2668  0.8423
    6MPD1    C513951   3.766   4.713  13.177 -0.2393 -0.6943  0.4469
    6MPD1     H13952   3.537   4.403  13.144 -3.3589  2.4741 -0.1401
    6MPD1    H113953   3.910   4.580  13.235 -0.6817 -1.8475  3.2682
    6MPD1    H213954   3.600   0.088  13.124 -3.0042 -0.9814  0.0141
    6MPD1    H313955   3.825   0.066  13.203 -0.8111 -1.4819  4.3807
    6MPD1     N13956   3.806   4.354  13.200 -0.0928 -0.5384 -0.3440
    6MPD1    H513957   3.907   4.356  13.208 -0.1163  2.4766 -0.6840
    6MPD1    N113958   3.419   4.636  13.096 -0.2665 -0.4780 -0.1212
    6MPD1    H613959   3.392   4.733  13.113 -0.4691 -0.5567  0.0037
    6MPD1    H713960   3.345   4.575  13.127 -0.6213  1.0047  1.9489
    7MPD2     C13961   3.746   3.464  13.104 -0.2646  0.5982 -0.3646
    7MPD2    C113962   3.857   3.537  13.118  0.0547 -0.0157 -0.1679
    7MPD2    C213963   3.979   3.466  13.109 -0.7571  0.7936  1.0085
    7MPD2    C313964   3.985   3.333  13.078 -0.8687 -0.8243 -0.6209
    7MPD2    C413965   3.873   3.258  13.079 -0.0706 -0.5328  0.7522
    7MPD2    C513966   3.757   3.325  13.088  0.8682 -0.8421  0.1935
    7MPD2     H13967   4.070   3.525  13.119 -0.6542  0.4672  1.9794
    7MPD2    H113968   3.879   3.150  13.069 -0.3404 -0.5355  0.6074
    7MPD2    H213969   3.651   3.515  13.101 -0.8300 -0.5221 -2.0529
    7MPD2    H313970   3.662   3.274  13.078 -0.8793  2.8586 -1.9655
    7MPD2     N13971   4.110   3.273  13.052  0.1801  0.2190  0.2304
    7MPD2    H513972   4.115   3.172  13.048  0.2983  0.3080 -1.5922
    7MPD2    N113973   3.866   3.677  13.122 -0.1079  0.0259  0.9509
    7MPD2    H713974   3.955   3.725  13.131  0.5466 -1.4480  2.2871
    8TMC3    C113975   4.354   3.267  13.018 -0.4423  0.3510 -0.1085
    8TMC3    C213976   4.367   3.228  13.148  1.0607  0.0605 -0.0889
    8TMC3    C313977   4.492   3.252  13.209  0.0562  0.2579  0.5146
    8TMC3    C413978   4.450   3.346  12.957 -0.1559  0.2620 -0.0305
    8TMC3    C513979   4.562   3.372  13.025  0.6966  0.1310  0.1166
    8TMC3    C613980   4.590   3.318  13.146 -0.0227  0.0352 -0.1425
    8TMC3     C13981   4.228   3.338  13.011  0.1365 -0.2685  0.3392
    8TMC3     O13982   4.233   3.451  12.956 -0.2625  0.1534 -0.3590
    8TMC3     H13983   4.292   3.176  13.206  1.5973  0.4829  0.9990
    8TMC3    H113984   4.434   3.371  12.853  0.0541  1.6938  0.2736
    8TMC3    H213985   4.673   3.342  13.212 -0.4297 -0.0026  0.3830
    8TMC3    C713986   4.600   3.514  13.027 -0.3259  0.4431  0.1051
    8TMC3    C813987   4.519   3.193  13.340 -0.7241  0.2138  0.1956
    8TMC3    O113988   4.705   3.543  13.082 -0.1149 -0.5864 -0.1022
    8TMC3    O213989   4.623   3.224  13.395  0.4340  0.0837 -0.1487
    9TMC3    C113990   3.818   4.118  13.160 -0.3120  0.8332  0.5197
    9TMC3    C213991   3.925   4.138  13.079 -0.0980  0.6620 -0.7374
    9TMC3    C313992   3.989   4.038  13.018  0.0534 -0.1301  0.6581
    9TMC3    C413993   3.747   3.998  13.170 -0.0981  0.4611 -0.2096
    9TMC3    C513994   3.812   3.900  13.102 -0.3231 -0.3231  1.5409
    9TMC3    C613995   3.930   3.917  13.035  0.0813  0.4404 -0.0179
    9TMC3     C13996   3.743   4.233  13.207 -0.2784 -0.4211  0.6624
    9TMC3     O13997   3.620   4.215  13.218 -0.2853  0.1226 -0.1406
    9TMC3     H13998   3.970   4.236  13.073 -0.8655  0.9695 -1.4699
    9TMC3    H113999   3.658   3.989  13.231  1.3069  1.0321  1.9296
    9TMC3    H214000   3.952   3.836  12.966  1.6284  0.2516  0.6961
    9TMC3    C714001   3.762   3.766  13.119 -0.5441 -0.4621  0.1176
    9TMC3    C814002   4.132   4.055  12.997 -0.0154  0.0448  0.1433
    9TMC3    O114003   3.642   3.750  13.125 -0.1925 -0.0463 -0.4233
    9TMC3    O214004   4.178   4.171  13.012 -0.1859  0.3574 -0.3906
   10MPD2     C14005   4.590   3.813  13.027  0.3858 -0.4850 -0.0006
   10MPD2    C114006   4.488   3.728  13.010 -0.6149  0.6472  0.2716
   10MPD2    C214007   4.361   3.779  12.992  0.2860  0.1753  0.3264
   10MPD2    C314008   4.328   3.909  13.002 -0.1865 -0.7151 -0.3823
   10MPD2    C414009   4.433   3.997  13.034  0.3801  0.5425  0.2803
   10MPD2    C514010   4.564   3.948  13.040  0.0768  0.0104  0.8634
   10MPD2     H14011   4.286   3.706  12.963  1.3368 -1.4173  1.6074
   10MPD2    H114012   4.410   4.102  13.047 -0.7885  0.3422 -0.1453
   10MPD2    H214013   4.693   3.788  13.046  1.2616  4.2512  1.4270
   10MPD2    H314014   4.650   4.009  13.063  0.9423 -0.3962 -1.2493
   10MPD2     N14015   4.193   3.936  12.994  0.3908 -0.4359  0.5465
   10MPD2    H514016   4.134   3.856  12.972 -2.3831  1.8286 -0.1176
   10MPD2    N114017   4.496   3.591  12.985 -0.2278  0.4086 -0.5470
   10MPD2    H714018   4.410   3.545  12.959  0.2400 -0.9258  0.2981
   11MPD2     C14019   0.246   2.149  14.325  0.6327 -0.0429  0.1062
   11MPD2    C114020   0.251   2.266  14.409  0.2130 -0.1340 -0.0806
   11MPD2    C214021   0.214   2.386  14.356 -0.1550  0.1999 -0.0080
   11MPD2    C314022   0.195   2.407  14.220 -0.5355 -0.6490  0.4159
   11MPD2    C414023   0.199   2.296  14.139 -0.3097  0.0811 -0.1949
   11MPD2    C514024   0.226   2.167  14.190  0.2044 -0.3677 -0.1813
   11MPD2     H14025   0.196   2.465  14.429 -2.1450 -1.5773  1.4159
   11MPD2    H114026   0.185   2.299  14.032 -2.2925  0.3798  0.0810
   11MPD2    H214027   0.274   2.049  14.358 -0.5317 -0.8873 -1.5048
   11MPD2    H314028   0.226   2.083  14.122 -0.0812 -0.6188  0.1322
   11MPD2     N14029   0.191   2.529  14.155  0.3150 -0.5400  0.1372
   11MPD2    H514030   0.216   2.527  14.057  1.7413  0.2693  0.4911
   11MPD2    N114031   0.292   2.263  14.541  0.3623 -0.1573 -0.1439
   11MPD2    H714032   0.278   2.346  14.598 -1.5169 -0.1738 -0.5879
    1MPD1     C14033   4.208   4.144  17.213  0.1865  0.4086  0.3097
    1MPD1    C114034   4.080   4.152  17.166 -0.3992 -0.5180 -0.6898
    1MPD1    C214035   4.069   4.141  17.026  0.7942 -0.4541  0.6890
    1MPD1    C314036   4.164   4.098  16.940  0.5000 -0.9751  0.9491
    1MPD1    C414037   4.287   4.074  17.000 -0.6416  0.5642 -0.3048
    1MPD1    C514038   4.307   4.106  17.130 -0.8381  0.3682  0.5065
    1MPD1     H14039   3.973   4.169  16.986  1.2504  2.2320  1.4812
    1MPD1    H114040   4.372   4.051  16.937 -1.5013 -0.0745 -1.2193
    1MPD1    H214041   4.235   4.174  17.314  0.3714 -0.7298  0.5992
    1MPD1    H314042   4.406   4.094  17.172  0.1195  1.8412 -1.3279
    1MPD1     N14043   4.156   4.098  16.797 -0.6568 -0.0788  0.4815
    1MPD1    H514044   4.243   4.074  16.751 -0.0915  3.3550 -0.2406
    1MPD1    N114045   3.976   4.200  17.254 -0.2162 -0.4019 -0.0835
    1MPD1    H614046   3.979   4.153  17.344 -0.6605  1.9156  1.1438
    1MPD1    H714047   3.881   4.182  17.221 -0.2499  1.0074 -0.7465
    2MPD1     C14048   0.126   4.127  16.423 -0.6436 -0.4403  0.0914
    2MPD1    C114049   0.071   4.136  16.545  0.2293 -0.7794 -0.2899
    2MPD1    C214050   4.670   4.172  16.540 -0.0324 -0.2569 -0.8106
    2MPD1    C314051   4.587   4.147  16.430 -0.0535 -0.5472 -0.0052
    2MPD1    C414052   4.648   4.117  16.311 -0.0653  0.0692 -0.4156
    2MPD1    C514053   0.049   4.116  16.310 -0.3985 -0.2406  0.6020
    2MPD1     H14054   4.628   4.212  16.632  2.3716 -0.3843  0.3197
    2MPD1    H114055   4.592   4.111  16.219  0.5236  1.8116 -0.8850
    2MPD1    H214056   0.232   4.113  16.405 -0.4985 -2.0939  2.3847
    2MPD1    H314057   0.089   4.089  16.212 -0.1820  0.4622  0.4942
    2MPD1     N14058   4.446   4.165  16.448 -0.1738  0.3050  0.0456
    2MPD1    H514059   4.412   4.152  16.543  0.0518 -1.0957 -0.0687
    2MPD1    N114060   0.141   4.151  16.668 -0.2256  0.4560  0.0834
    2MPD1    H614061   0.087   4.132  16.753  1.6086 -2.8981  0.5120
    2MPD1    H714062   0.227   4.096  16.666  0.2683  1.1803  1.1310
    3TMC3    C114063   4.217   4.128  16.405  0.5830 -0.0085 -0.1714
    3TMC3    C214064   4.124   4.085  16.310 -0.2769 -0.0690 -0.0759
    3TMC3    C314065   3.998   4.056  16.355  0.7266  0.4504 -0.0381
    3TMC3    C414066   4.194   4.133  16.546 -0.3165  0.2329  0.4080
    3TMC3    C514067   4.065   4.103  16.576  0.5275 -0.4510  0.5587
    3TMC3    C614068   3.965   4.072  16.487  0.1471  0.3984 -0.2457
    3TMC3     C14069   4.350   4.166  16.353  0.1283  0.1565 -0.1399
    3TMC3     O14070   4.363   4.150  16.234 -0.1293 -0.1973  0.3483
    3TMC3     H14071   4.146   4.075  16.204  2.0691 -1.7503  0.5586
    3TMC3    H114072   4.273   4.174  16.608  0.7304 -2.0279  0.5756
    3TMC3    H214073   3.863   4.058  16.519  0.7777 -1.7176  0.8076
    3TMC3    C714074   4.037   4.110  16.721 -0.6829  0.1193 -0.1139
    3TMC3    C814075   3.883   4.027  16.263 -0.5962 -0.3231  0.2662
    3TMC3    O114076   3.922   4.134  16.755  1.1637  0.7664  0.2844
    3TMC3    O214077   3.785   3.979  16.320 -0.4291  0.3207  0.0589
    4MPD1     C14078   3.656   3.967  15.799 -0.2117  0.0568 -0.3402
    4MPD1    C114079   3.783   4.016  15.786 -0.2079 -0.0544 -0.8494
    4MPD1    C214080   3.855   4.040  15.896  0.4031 -0.2749  0.0639
    4MPD1    C314081   3.813   4.019  16.029  0.3061 -0.1323 -0.0449
    4MPD1    C414082   3.685   3.969  16.042  0.2006 -1.1382 -0.0345
    4MPD1    C514083   3.605   3.956  15.933 -0.7189 -0.3582  1.2478
    4MPD1     H14084   3.948   4.095  15.884 -0.5937  1.7038  1.2576
    4MPD1    H114085   3.640   3.955  16.140 -1.9199 -1.6352 -1.0844
    4MPD1    H214086   3.586   3.946  15.719 -1.7558  1.8781  0.5494
    4MPD1    H314087   3.502   3.925  15.951 -1.2031  0.5443  0.0860
    4MPD1     N14088   3.904   4.051  16.138 -0.8671 -0.1248 -0.1131
    4MPD1    H514089   3.991   4.093  16.109 -2.1242  1.6139 -1.4287
    4MPD1    N114090   3.834   4.030  15.654  0.4366  0.5411  0.4209
    4MPD1    H614091   3.760   4.011  15.587 -0.2104 -0.5653  1.4427
    4MPD1    H714092   3.892   4.110  15.630 -0.6235  1.2613  0.2733
    1TCq1    O114093   4.378   4.039  11.739 -0.4976 -0.7749 -0.2120
    1TCq1    C114094   4.420   3.926  11.677  0.1534  0.3573  0.2618
    1TCq1    O214095   4.400   3.812  11.722 -0.0959  0.2253  0.1969
    1TCq1    C214096   4.541   3.964  11.605  0.2612 -0.5290  0.4664
    1TCq1    C314097   4.553   4.065  11.517 -0.1353  0.0762  0.0057
    1TCq1    C414098   4.674   4.101  11.467 -0.0141 -0.0974 -0.1174
    1TCq1    C514099   0.034   4.006  11.459  0.0397  0.0411 -0.0921
    1TCq1    C614100   0.027   3.905  11.550  0.0244  0.6094  0.7721
    1TCq1    C714101   4.654   3.888  11.628  0.1127  0.2269 -1.1409
    1TCq1    C814102   0.144   3.836  11.603 -0.7712 -0.0574 -1.0608
    1TCq1    O414103   0.131   3.778  11.715  0.3809  0.3031 -0.1907
    1TCq1    C914104   4.680   4.205  11.364 -0.2256 -0.3211 -0.3162
    1TCq1    O514105   4.579   4.280  11.351 -0.0055 -0.2678 -0.0519
    1TCq1    O614106   0.046   4.208  11.285 -0.2631 -0.2839  0.3796
    1TCq1    H114107   4.394   4.120  11.685 -0.7106 -1.2072 -0.9218
    1TCq1    H214108   4.469   4.133  11.510  0.0937  0.5974  2.4411
    1TCq1    H314109   0.123   4.030  11.401  0.1042 -2.6011 -1.0754
    1TCq1    H414110   4.646   3.812  11.705  2.1921  0.4198 -0.7470
    2MPD1     C14111   0.631   3.712  11.568  0.0761 -0.0480  0.0953
    2MPD1    C114112   0.600   3.771  11.451 -0.5290 -0.5052  0.2210
    2MPD1    C214113   0.466   3.812  11.433  0.2051 -0.2361 -0.7220
    2MPD1    C314114   0.377   3.797  11.541 -0.3728 -0.2553  0.7631
    2MPD1    C414115   0.416   3.747  11.663  0.1464  0.5582 -0.2148
    2MPD1    C514116   0.546   3.711  11.672 -0.5323 -0.2294 -0.1257
    2MPD1     H14117   0.434   3.870  11.347 -1.9097  0.6271  0.6446
    2MPD1    H114118   0.352   3.729  11.748  0.0405  0.8963 -0.2233
    2MPD1    H214119   0.719   3.649  11.568 -0.0901 -0.2824  0.2062
    2MPD1    H314120   0.574   3.662  11.764 -0.9158  0.5565  0.4087
    2MPD1     N14121   0.249   3.847  11.519  0.2560  0.3448  0.0778
    2MPD1    H514122   0.231   3.890  11.429 -0.3416 -3.0491 -1.3949
    2MPD1    N114123   0.686   3.767  11.339  0.2181  0.2334  0.5363
    2MPD1    H614124   0.669   3.843  11.274  0.3897  0.2433  0.5045
    2MPD1    H714125   0.786   3.769  11.359  0.6433 -2.4288 -1.4396
    1TMC1    C114126   2.907   1.103   1.632  0.3295 -0.2958  0.1576
    1TMC1    C214127   2.965   1.015   1.550  0.8854 -0.0314  0.0972
    1TMC1    C314128   3.073   1.050   1.471 -0.9478  0.4824  0.1395
    1TMC1    C414129   2.954   1.234   1.652  0.0621  0.5164  0.0209
    1TMC1    C514130   3.076   1.268   1.583  0.5521  0.2694 -0.0498
    1TMC1    C614131   3.133   1.175   1.501  0.3578  0.4574  0.9615
    1TMC1     C14132   2.806   1.057   1.725 -0.7921 -1.3288  0.5311
    1TMC1     O14133   2.790   1.116   1.831 -0.3478  0.2062  0.0033
    1TMC1     H14134   2.925   0.914   1.542 -0.8051  0.5497  1.4207
    1TMC1    H114135   2.904   1.289   1.730  0.0684  0.9128 -0.2540
    1TMC1    H214136   3.230   1.185   1.453 -1.1711  2.3991 -1.7363
    1TMC1    C714137   3.150   1.388   1.618 -0.1693  1.0159 -0.0660
    1TMC1    C814138   3.165   0.944   1.435 -0.3789  0.4575 -0.5873
    1TMC1    O114139   3.273   1.385   1.626  0.6642  0.3180 -0.6705
    1TMC1    O214140   3.278   0.935   1.485 -0.0739 -0.4448  0.2449
    1TMC1    O314141   3.074   1.463   1.700  0.0662 -0.4613  0.0725
    1TMC1    H314142   2.981   1.464   1.669  0.2172  2.7120 -0.2776
    1TMC1    O514143   3.090   0.844   1.380  0.1264 -0.1406  0.5687
    1TMC1    H514144   2.997   0.871   1.365  0.7719  1.6802 -0.0987
    2MPD1     C14145   2.379   0.784   1.833 -0.1898  0.6616 -0.0506
    2MPD1    C114146   2.444   0.720   1.733  0.1579 -0.3107  0.2798
    2MPD1    C214147   2.553   0.788   1.687  0.1595 -0.4388 -0.3339
    2MPD1    C314148   2.619   0.897   1.741 -0.2087  0.5173 -0.3491
    2MPD1    C414149   2.559   0.946   1.853  0.1095 -0.7457  0.1932
    2MPD1    C514150   2.438   0.893   1.884 -0.4170 -0.0532 -0.5486
    2MPD1     H14151   2.594   0.761   1.591  0.2831  0.1778 -0.4485
    2MPD1    H114152   2.581   1.042   1.898  1.9436  0.0806 -2.4457
    2MPD1    H214153   2.274   0.772   1.857 -0.4166 -1.0983 -1.9533
    2MPD1    H314154   2.377   0.945   1.957  1.1241  0.1929  0.5764
    2MPD1     N14155   2.728   0.959   1.674 -0.1429  0.0240  0.0165
    2MPD1    H514156   2.751   0.919   1.583 -0.1774  0.8618 -0.3572
    2MPD1    N114157   2.372   0.622   1.656 -0.4110 -0.2624 -0.8191
    2MPD1    H614158   2.429   0.558   1.601  0.4785 -0.3292  0.1886
    2MPD1    H714159   2.308   0.566   1.711 -0.8867  1.1067  0.0007
    1MPD1     C14160   2.591   2.841  12.102  0.4632 -1.0554  0.5564
    1MPD1    C114161   2.654   2.960  12.094  0.6057 -0.0765 -0.0574
    1MPD1    C214162   2.596   3.055  12.018  0.2804  0.2769  0.2507
    1MPD1    C314163   2.476   3.037  11.949  0.0570  0.4398  0.5001
    1MPD1    C414164   2.414   2.912  11.958 -0.9103 -0.5655 -0.1924
    1MPD1    C514165   2.467   2.819  12.042  0.6051 -0.4371 -0.9035
    1MPD1     H14166   2.637   3.156  12.021 -1.1208  0.8229  1.1195
    1MPD1    H114167   2.316   2.890  11.918 -0.5841 -0.5538 -0.9946
    1MPD1    H214168   2.635   2.763  12.162  1.8721  0.4858  1.5350
    1MPD1    H314169   2.404   2.732  12.051 -2.4394  2.0950  2.1974
    1MPD1     N14170   2.429   3.147  11.867 -0.1684 -0.4346 -0.0875
    1MPD1    H514171   2.494   3.224  11.861 -1.9937  1.0226 -0.9987
    1MPD1    N114172   2.772   2.983  12.174  0.1052 -0.3124 -0.1767
    1MPD1    H614173   2.840   3.039  12.124  1.4368 -1.5245  0.2666
    1MPD1    H714174   2.832   2.901  12.184 -0.2514 -0.4302  0.9391
    2MPD1     C14175   1.296   4.349  11.243 -0.2246  0.6029 -0.2823
    2MPD1    C114176   1.197   4.377  11.149  0.2448  0.3694 -0.2718
    2MPD1    C214177   1.217   4.328  11.021 -0.5247 -0.4147 -0.3081
    2MPD1    C314178   1.323   4.233  10.995  0.1437 -0.2392 -0.0206
    2MPD1    C414179   1.407   4.201  11.098 -0.2296 -0.0820  0.2005
    2MPD1    C514180   1.401   4.267  11.213  0.3459 -0.5468  0.1072
    2MPD1     H14181   1.152   4.357  10.940 -0.6826 -0.4530 -0.1953
    2MPD1    H114182   1.484   4.126  11.087 -0.7855 -0.7103  0.6387
    2MPD1    H214183   1.303   4.398  11.339 -1.2730  1.1810 -0.4983
    2MPD1    H314184   1.472   4.258  11.294 -1.1404 -2.8214  1.1445
    2MPD1     N14185   1.341   4.166  10.865  0.9104  0.1651  0.4321
    2MPD1    H514186   1.414   4.097  10.868  0.8409  0.0438 -0.8204
    2MPD1    N114187   1.119   4.493  11.178 -0.4688 -0.2574 -0.3321
    2MPD1    H614188   1.101   4.499  11.278 -1.2681  2.5692 -0.6430
    2MPD1    H714189   1.024   4.495  11.141 -0.4980  2.2614 -0.1088
    3MPD1     C14190   0.851   3.702  10.185 -0.2655  0.1043  0.0904
    3MPD1    C114191   0.825   3.750  10.310 -0.3880  0.8641 -0.1076
    3MPD1    C214192   0.914   3.845  10.357 -0.6733 -0.8191  0.5649
    3MPD1    C314193   1.028   3.887  10.289  0.1731  0.5589 -0.5532
    3MPD1    C414194   1.034   3.845  10.155 -0.0127 -0.4734  0.1538
    3MPD1    C514195   0.948   3.754  10.103 -0.8823  0.0393  0.1774
    3MPD1     H14196   0.903   3.885  10.457 -1.2163 -1.5077  0.7821
    3MPD1    H114197   1.096   3.890  10.078 -0.4786 -1.3588 -0.7302
    3MPD1    H214198   0.783   3.630  10.141  0.1175 -0.7626  0.9127
    3MPD1    H314199   0.973   3.722  10.003 -0.0847  0.1138  0.3471
    3MPD1     N14200   1.121   3.975  10.343  0.0676 -0.1418  0.4182
    3MPD1    H514201   1.103   4.007  10.438 -4.4254  0.2407 -0.5755
    3MPD1    N114202   0.713   3.698  10.377 -0.6255 -0.2916  0.1606
    3MPD1    H614203   0.636   3.665  10.319 -2.0137  0.1276  1.7524
    3MPD1    H714204   0.663   3.764  10.437 -2.2636 -0.7191 -0.7177
    4MPD2     C14205   1.912   3.661  11.387  0.0613 -0.5930  0.1553
    4MPD2    C114206   2.053   3.653  11.395 -0.3653 -1.0048 -0.2125
    4MPD2    C214207   2.130   3.698  11.286  0.4466  0.0318  0.2809
    4MPD2    C314208   2.081   3.770  11.183  0.3526  0.8802  0.1030
    4MPD2    C414209   1.942   3.780  11.170  0.8328  0.3896  0.3436
    4MPD2    C514210   1.862   3.722  11.274 -0.3813  0.3661 -0.3532
    4MPD2     H14211   2.235   3.673  11.290  0.1231 -1.3600  0.0398
    4MPD2    H114212   1.893   3.832  11.089 -2.1030 -0.6555  1.4570
    4MPD2    H214213   1.847   3.635  11.469  1.3616 -0.5576  1.2023
    4MPD2    H314214   1.756   3.732  11.257 -0.3499  0.3988 -0.5250
    4MPD2     N14215   2.165   3.830  11.081 -0.1464 -0.4254  0.0045
    4MPD2    H514216   2.122   3.858  10.993  3.1749  1.1295 -1.1663
    4MPD2    N114217   2.123   3.586  11.496 -0.5122 -0.2097  0.1087
    4MPD2    H714218   2.225   3.587  11.490 -0.4986 -2.1308  0.0949
    5TMC3    C114219   2.176   3.480  11.687  0.5176 -0.4015 -0.2481
    5TMC3    C214220   2.177   3.343  11.724 -0.1040 -0.2538 -0.0141
    5TMC3    C314221   2.291   3.266  11.717 -0.1210  0.1444  0.2038
    5TMC3    C414222   2.290   3.533  11.645 -0.2209  0.1090 -0.6408
    5TMC3    C514223   2.402   3.454  11.628  0.1931  0.3902  0.2498
    5TMC3    C614224   2.400   3.319  11.654 -0.1257  0.3219 -0.0498
    5TMC3     C14225   2.067   3.529  11.610 -0.2038  0.3269  0.1889
    5TMC3     O14226   1.948   3.504  11.635 -0.6191 -0.1891  0.1780
    5TMC3     H14227   2.091   3.299  11.773 -0.8829  1.8139  0.4735
    5TMC3    H114228   2.305   3.640  11.639 -1.0732  0.2716  0.1732
    5TMC3    H214229   2.491   3.263  11.638  0.8969  2.0794 -0.3723
    5TMC3    C714230   2.456   3.480  11.493  0.3103 -0.4907  0.2230
    5TMC3    C814231   2.305   3.148  11.801 -0.0373 -0.1592  0.9441
    5TMC3    O114232   2.412   3.582  11.448 -0.0820 -0.0036 -0.1505
    5TMC3    O214233   2.202   3.082  11.813  0.4175 -0.1141  0.2781
    6TMC3    C114234   1.343   4.140  10.624 -0.3329 -0.3359  0.2674
    6TMC3    C214235   1.266   4.113  10.513  0.9867  0.2463  0.5395
    6TMC3    C314236   1.329   4.060  10.404 -0.2938  0.4501  0.1570
    6TMC3    C414237   1.472   4.106  10.643  0.3732  0.4689 -0.2034
    6TMC3    C514238   1.527   4.056  10.529  0.3808  1.0286  0.0042
    6TMC3    C614239   1.461   4.034  10.408 -0.7796  0.1229 -0.0194
    6TMC3     C14240   1.282   4.204  10.745  0.2089 -0.1386 -0.3934
    6TMC3     O14241   1.191   4.286  10.725  0.0941 -0.0318 -0.6384
    6TMC3     H14242   1.161   4.138  10.515  0.0709 -3.5943 -0.2382
    6TMC3    H114243   1.543   4.145  10.715  0.1771 -1.5117  1.0546
    6TMC3    H214244   1.505   3.987  10.321  0.0528  0.3910  0.2624
    6TMC3    C714245   1.665   4.022  10.533 -0.3655 -0.1672 -0.9213
    6TMC3    C814246   1.247   4.004  10.298 -0.3519  0.4192  0.2238
    6TMC3    O114247   1.717   4.009  10.642  0.1299  0.1355  0.6166
    6TMC3    O214248   1.297   3.979  10.190 -0.1113  0.1458  0.3075
    7MPD2     C14249   2.590   3.352  11.021  0.4946 -0.1878 -0.2564
    7MPD2    C114250   2.535   3.469  11.076 -0.5401  0.9392 -0.3144
    7MPD2    C214251   2.523   3.478  11.211  0.4477 -0.1804 -0.1886
    7MPD2    C314252   2.554   3.372  11.292  0.4936 -0.5870  0.0353
    7MPD2    C414253   2.603   3.259  11.236  0.0919 -0.1796 -0.5589
    7MPD2    C514254   2.628   3.254  11.106  0.3984 -0.7896  0.0460
    7MPD2     H14255   2.482   3.575  11.238  0.0129  0.0135 -1.5089
    7MPD2    H114256   2.655   3.186  11.297 -1.3451 -1.0756 -0.4056
    7MPD2    H214257   2.609   3.343  10.915 -2.1336  0.2556 -0.7720
    7MPD2    H314258   2.673   3.166  11.062 -2.2626 -2.1849  0.0829
    7MPD2     N14259   2.521   3.375  11.428  0.3903  0.0150 -0.0478
    7MPD2    H514260   2.550   3.294  11.482  0.2467  0.7362  1.1286
    7MPD2    N114261   2.506   3.580  10.998  0.4460  0.1268 -0.1369
    7MPD2    H714262   2.488   3.667  11.047  0.3762  0.7197 -1.1999
    8TMC3    C114263   2.465   3.726  10.835 -0.3721 -0.6794 -0.2131
    8TMC3    C214264   2.370   3.746  10.736  0.3573 -0.4805  0.5323
    8TMC3    C314265   2.275   3.846  10.762 -0.0810  0.5408  0.0301
    8TMC3    C414266   2.464   3.793  10.947  0.0090  0.6839  0.2468
    8TMC3    C514267   2.361   3.875  10.972  0.1958  0.2982  0.4500
    8TMC3    C614268   2.267   3.909  10.881 -0.5404  0.5675 -0.2988
    8TMC3     C14269   2.504   3.591  10.861  0.4325  0.0460  0.7781
    8TMC3     O14270   2.513   3.504  10.774 -0.0052 -0.1901  0.3899
    8TMC3     H14271   2.382   3.696  10.641 -2.6146 -1.7242  0.8081
    8TMC3    H114272   2.546   3.811  11.015  1.3552  0.7219 -1.3920
    8TMC3    H214273   2.202   3.993  10.900  0.6209  1.2966  0.5125
    8TMC3    C714274   2.301   3.833  11.092 -0.5076  0.3561 -0.1944
    8TMC3    C814275   2.153   3.851  10.684  0.5006 -0.4499  0.9239
    8TMC3    O114276   2.378   3.782  11.171  0.0182  0.0287 -0.3198
    8TMC3    O214277   2.051   3.861  10.747  0.2566 -0.0060  0.0532
    9MPD2     C14278   2.113   3.927  10.319 -0.1161 -0.0681  0.3565
    9MPD2    C114279   2.079   3.905  10.450  0.0064  0.6952  0.6490
    9MPD2    C214280   1.947   3.931  10.478  0.6254  0.3218 -0.1443
    9MPD2    C314281   1.857   3.972  10.382  0.5681  0.4222  0.7112
    9MPD2    C414282   1.892   3.972  10.251  0.0331  0.2966 -0.0387
    9MPD2    C514283   2.024   3.959  10.218  0.7832 -0.3693  0.1800
    9MPD2     H14284   1.916   3.922  10.581  3.8179 -0.2296  0.7772
    9MPD2    H114285   1.823   4.002  10.173 -0.1770 -0.3873 -0.1086
    9MPD2    H214286   2.213   3.906  10.281 -0.6839  2.2520 -2.4866
    9MPD2    H314287   2.062   3.954  10.117 -2.0160  1.3284 -0.9689
    9MPD2     N14288   1.723   3.993  10.412 -0.2324  0.2813  0.5137
    9MPD2    H514289   1.662   3.997  10.331  2.7356  0.6104 -1.6537
    9MPD2    N114290   2.176   3.865  10.547  0.3676 -0.6254  0.1456
    9MPD2    H714291   2.273   3.874  10.517  0.0922  2.5538  0.2875
    1MPD1     C14292   2.735   2.585  16.072 -0.6021 -0.5824  0.2445
    1MPD1    C114293   2.643   2.666  16.135 -1.3448 -0.1074 -0.0720
    1MPD1    C214294   2.635   2.662  16.275  0.6107 -0.2704 -0.6879
    1MPD1    C314295   2.712   2.570  16.350  0.6190 -0.2257  0.7284
    1MPD1    C414296   2.794   2.485  16.278 -0.0469  0.3087  0.2788
    1MPD1    C514297   2.810   2.504  16.149  0.1491  1.5492 -0.2031
    1MPD1     H14298   2.571   2.732  16.328  3.0170  2.1529 -0.9681
    1MPD1    H114299   2.842   2.400  16.325  0.1279 -0.3513 -1.1062
    1MPD1    H214300   2.755   2.589  15.966 -0.3660  1.3718  0.3664
    1MPD1    H314301   2.877   2.433  16.102  0.4920 -0.0656  2.7296
    1MPD1     N14302   2.716   2.563  16.489  0.4113  0.0427 -0.2120
    1MPD1    H514303   2.784   2.500  16.530 -1.1026  0.7450  3.3982
    1MPD1    N114304   2.573   2.763  16.066 -0.7405 -0.6709 -0.3392
    1MPD1    H614305   2.498   2.802  16.122 -1.1668 -1.1202 -0.5916
    1MPD1    H714306   2.530   2.724  15.981 -3.2619  3.3684 -0.8964
    2TMC2    C114307   2.638   2.707  16.919  0.2117  0.1921 -0.5776
    2TMC2    C214308   2.769   2.682  16.952 -0.8280 -0.2008 -0.3467
    2TMC2    C314309   2.836   2.606  16.864 -0.4707  0.8431 -0.1824
    2TMC2    C414310   2.574   2.669  16.802  0.2736  0.1759  0.5849
    2TMC2    C514311   2.656   2.610  16.715  0.1323 -0.1728  0.1311
    2TMC2    C614312   2.781   2.560  16.747 -0.1641  0.5971  0.9239
    2TMC2     C14313   2.566   2.805  16.999  0.0178  0.4189 -0.4251
    2TMC2     O14314   2.640   2.852  17.084 -0.5260  0.2328  0.0326
    2TMC2     H14315   2.810   2.716  17.046 -1.5631 -0.6418  0.1341
    2TMC2    H114316   2.473   2.696  16.776  0.4176 -2.1897 -2.3414
    2TMC2    H214317   2.843   2.514  16.671  0.2840  2.4459  0.1661
    2TMC2    C714318   2.637   2.641  16.575 -0.0931 -0.1952 -0.3309
    2TMC2    C814319   2.964   2.559  16.894  0.6754 -0.0304 -0.4719
    2TMC2    O114320   2.563   2.736  16.560  0.5820  0.0719 -0.2789
    2TMC2    O214321   3.039   2.502  16.811 -0.2169  0.4921  0.2132
    2TMC2    O514322   2.951   2.524  17.019  0.3962  0.2882  0.3444
    2TMC2    H514323   2.891   2.585  17.068  0.9246  1.3607 -0.3543
    3MPD1     C14324   2.146   3.025  17.233 -0.0583  0.3757 -0.0922
    3MPD1    C114325   2.105   2.935  17.133  0.2693  0.3776 -0.4184
    3MPD1    C214326   2.205   2.852  17.069  0.0796  0.2862  0.6632
    3MPD1    C314327   2.338   2.875  17.077  0.7549  0.1443 -0.0121
    3MPD1    C414328   2.378   2.981  17.165  0.3170  0.0599 -0.0566
    3MPD1    C514329   2.280   3.043  17.243 -0.0822  1.1829  0.0464
    3MPD1     H14330   2.172   2.777  16.998  0.7909 -0.6124  1.2869
    3MPD1    H114331   2.481   3.010  17.178 -0.2021  1.7398  0.3700
    3MPD1    H214332   2.077   3.082  17.294 -0.1830 -1.3302  1.3662
    3MPD1    H314333   2.319   3.111  17.317  0.0391  1.4485 -0.2623
    3MPD1     N14334   2.427   2.799  16.994 -0.2003  0.5087  0.0750
    3MPD1    H514335   2.386   2.717  16.950 -0.5251  1.4071 -1.3040
    3MPD1    N114336   1.968   2.899  17.122  0.2350  0.3729 -0.7015
    3MPD1    H614337   1.903   2.968  17.158 -0.8535 -0.6133 -0.7976
    3MPD1    H714338   1.955   2.887  17.022 -0.3286 -0.4958 -0.5252
    1TMC1    C114339   4.201   1.889  13.303 -0.3036  0.4767  0.4700
    1TMC1    C214340   4.178   1.940  13.179 -0.1585 -1.1321  0.1099
    1TMC1    C314341   4.044   1.981  13.150 -0.2746  0.1385 -0.2176
    1TMC1    C414342   4.104   1.880  13.401  0.4683 -0.2403 -0.5394
    1TMC1    C514343   3.980   1.929  13.369 -0.3012 -0.2813 -0.2608
    1TMC1    C614344   3.954   1.980  13.246 -1.3705  1.0299 -0.0384
    1TMC1     C14345   4.346   1.876  13.338  0.0963 -0.5413 -0.0300
    1TMC1     O14346   4.429   1.902  13.246  0.0976  0.6582  0.6594
    1TMC1     H14347   4.258   1.938  13.105  0.3599  1.5969  0.6111
    1TMC1    H114348   4.126   1.860  13.505  0.4595  2.7543  0.0479
    1TMC1    H214349   3.854   2.012  13.221 -1.8349  0.2662  0.8441
    1TMC1    C714350   3.876   1.948  13.470  0.0821 -0.1813  0.6193
    1TMC1    C814351   4.004   2.042  13.029 -0.3663  0.0028 -0.3319
    1TMC1    O114352   3.903   1.947  13.589 -0.3001  0.0754 -0.4662
    1TMC1    O214353   3.943   2.148  13.036  0.4978 -0.0366 -0.0611
    1TMC1    O314354   3.758   1.931  13.416  0.0220 -0.4596 -0.2002
    1TMC1    H314355   3.752   1.896  13.324 -2.2667 -2.1538  0.6073
    1TMC1    O514356   4.086   2.006  12.929  0.3965  0.0467  0.1046
    1TMC1    H514357   4.129   1.919  12.945  1.9332  0.7746 -0.0430
    2MPD2     C14358   4.610   1.864  13.475  0.1756  0.2323 -0.1776
    2MPD2    C114359   4.489   1.813  13.528  0.0873  0.0014 -0.3350
    2MPD2    C214360   4.491   1.752  13.649 -0.5093  0.2614  0.2049
    2MPD2    C314361   4.614   1.737  13.720  0.0382  0.4415 -0.3187
    2MPD2    C414362   4.729   1.800  13.666  0.9186 -0.2876  0.0219
    2MPD2    C514363   4.725   1.849  13.544 -0.2432 -0.0156 -0.8758
    2MPD2     H14364   4.400   1.712  13.692 -1.7656  1.0255 -1.7172
    2MPD2    H114365   0.089   1.811  13.719  0.4916 -1.1608  0.9852
    2MPD2    H214366   4.619   1.917  13.381 -1.6208  1.4766  0.3543
    2MPD2    H314367   0.079   1.903  13.511  0.0546 -0.9255 -1.5738
    2MPD2     N14368   4.628   1.651  13.827 -0.4716  0.2371 -0.5059
    2MPD2    H514369   4.545   1.618  13.875  1.3122 -0.3736  2.1593
    2MPD2    N114370   4.367   1.837  13.469 -0.5169  0.1396  0.0382
    2MPD2    H714371   4.289   1.846  13.534 -0.6276  0.3029 -0.1156
    3TCq1    O114372   4.523   1.161  14.184 -0.2794 -0.4217  0.0546
    3TCq1    C114373   4.516   1.241  14.073 -0.2728  0.0360  0.7419
    3TCq1    O214374   4.480   1.208  13.965 -0.0802 -0.5748 -0.4012
    3TCq1    C214375   4.635   1.329  14.086  0.0152 -0.2235  0.8311
    3TCq1    C314376   0.010   1.283  14.148  0.1423  0.0898  0.0310
    3TCq1    C414377   0.122   1.355  14.123  0.4244 -0.4717  0.1856
    3TCq1    C514378   0.124   1.463  14.040  0.8079  0.3189  0.2412
    3TCq1    C614379   0.004   1.501  13.982  0.0568  1.0627  0.0548
    3TCq1    C714380   4.621   1.435  14.005 -0.7851 -0.6417 -0.1819
    3TCq1    C814381   0.017   1.610  13.881  0.1137  0.6854  0.8957
    3TCq1    O414382   0.134   1.635  13.850 -0.3761  0.3606  0.1182
    3TCq1    C914383   0.244   1.312  14.179 -0.5476  0.4403 -0.0802
    3TCq1    O514384   0.348   1.359  14.126 -0.0377  0.2556 -0.1527
    3TCq1    O614385   0.247   1.213  14.261  0.0306  0.0499 -0.3269
    3TCq1    H114386   4.557   1.215  14.258 -1.1962  0.7625 -0.4032
    3TCq1    H214387   0.023   1.198  14.214  1.4285  0.7483  0.6228
    3TCq1    H314388   0.215   1.520  14.029  0.7084 -0.1037 -2.8295
    3TCq1    H414389   4.524   1.461  13.965 -0.8516  0.7382  0.8672
    1MPD2     C14390   4.149   2.794  15.088  0.2682  0.3698  0.3074
    1MPD2    C114391   4.037   2.709  15.082  0.5360  0.2397 -0.3095
    1MPD2    C214392   4.030   2.599  15.160 -0.1790  0.3522 -0.2313
    1MPD2    C314393   4.131   2.573  15.246  0.5977  0.0047 -0.4701
    1MPD2    C414394   4.236   2.660  15.261 -0.1149  0.7237  0.2963
    1MPD2    C514395   4.249   2.768  15.183 -0.6982  0.3304  0.3166
    1MPD2     H14396   3.953   2.525  15.144 -0.0714  0.4225 -1.1032
    1MPD2    H114397   4.321   2.634  15.323  0.7037  1.2257 -0.6194
    1MPD2    H214398   4.160   2.887  15.033 -1.3798  2.0041  2.7633
    1MPD2    H314399   4.329   2.838  15.202  1.0204 -0.9247 -2.4022
    1MPD2     N14400   4.125   2.443  15.307  0.2351  0.3347  0.3132
    1MPD2    H514401   4.043   2.386  15.290  0.3513  0.3940 -0.4487
    1MPD2    N114402   3.935   2.731  14.987 -0.0041  0.2940 -0.3690
    1MPD2    H714403   3.861   2.661  14.989 -0.3714  0.6816 -0.3437
    2TMC3    C114404   3.851   2.766  14.776 -0.0548 -0.7550  0.0673
    2TMC3    C214405   3.810   2.634  14.790  0.2611  0.7753  0.2102
    2TMC3    C314406   3.719   2.583  14.701  1.0346 -0.4328 -0.4537
    2TMC3    C414407   3.819   2.840  14.675  0.7430 -0.5604  0.1407
    2TMC3    C514408   3.726   2.791  14.591 -0.1575  0.2788 -0.4236
    2TMC3    C614409   3.677   2.660  14.599  0.0148  0.3013 -0.1368
    2TMC3     C14410   3.953   2.807  14.873  0.2459  0.0038 -0.0654
    2TMC3     O14411   4.036   2.894  14.841 -0.3088 -0.0522 -0.0180
    2TMC3     H14412   3.870   2.561  14.844 -1.7621 -0.5408  0.6647
    2TMC3    H114413   3.874   2.933  14.665  0.8307 -0.4483  1.7638
    2TMC3    H214414   3.614   2.622  14.520 -2.5138  2.7509  0.6933
    2TMC3    C714415   3.676   2.872  14.482 -0.4527  0.1846  0.0141
    2TMC3    C814416   3.678   2.440  14.702  0.2145  0.0328 -0.5684
    2TMC3    O114417   3.599   2.823  14.399  0.5657 -0.3331  0.1949
    2TMC3    O214418   3.621   2.394  14.608  0.5007  0.5071 -0.3089
    3TCq1    O114419   3.886   4.018  14.206  0.0101 -0.1692 -0.6247
    3TCq1    C114420   3.983   3.963  14.285 -0.1207 -0.2926  0.0645
    3TCq1    O214421   4.100   4.000  14.311  0.0192  0.1124 -0.2206
    3TCq1    C214422   3.902   3.883  14.379  0.8296 -0.1319 -0.5117
    3TCq1    C314423   3.965   3.857  14.499 -0.1045 -0.0742 -0.0303
    3TCq1    C414424   3.915   3.761  14.580 -0.4461 -0.5245 -0.6268
    3TCq1    C514425   3.815   3.681  14.543  1.0458 -0.5350 -0.4788
    3TCq1    C614426   3.766   3.698  14.413  0.2015  0.0816 -0.3000
    3TCq1    C714427   3.806   3.798  14.333  0.1305 -0.0172  0.7661
    3TCq1    C814428   3.677   3.597  14.360  0.0752  0.1423  0.0678
    3TCq1    O414429   3.616   3.626  14.256  0.2912  0.0992  0.1691
    3TCq1    C914430   3.974   3.735  14.707  0.3530  0.3681 -0.6443
    3TCq1    O514431   4.073   3.799  14.747 -0.1769  0.2812 -0.1515
    3TCq1    O614432   3.926   3.632  14.766 -0.2153  0.4697  0.2703
    3TCq1    H114433   3.802   3.973  14.228  0.2522 -0.0398  0.5991
    3TCq1    H214434   4.049   3.919  14.529 -1.0436  2.1440 -1.9508
    3TCq1    H314435   3.777   3.595  14.598 -0.4091 -0.3314 -1.1609
    3TCq1    H414436   3.766   3.811  14.233  2.2145 -0.5512 -0.1310
    4MPD2     C14437   3.559   3.331  14.270 -0.1105 -0.0621  0.6680
    4MPD2    C114438   3.656   3.345  14.369 -0.2832 -0.3430  0.1166
    4MPD2    C214439   3.700   3.240  14.445 -0.2027 -0.9156 -0.4872
    4MPD2    C314440   3.653   3.110  14.421 -0.0211 -0.2036  0.4561
    4MPD2    C414441   3.559   3.097  14.319 -0.5525 -0.0695 -0.4174
    4MPD2    C514442   3.521   3.205  14.240  0.1717  0.0156 -0.1479
    4MPD2     H14443   3.783   3.252  14.515  0.4268 -1.7340 -1.0862
    4MPD2    H114444   3.528   3.004  14.272 -1.5642  1.2328 -2.3411
    4MPD2    H214445   3.526   3.410  14.204 -1.0644 -1.2378 -0.2619
    4MPD2    H314446   3.462   3.177  14.154  0.6722  2.7627 -1.3821
    4MPD2     N14447   3.707   3.006  14.497 -0.2682 -0.1769 -0.2251
    4MPD2    H514448   3.763   3.026  14.579 -1.0523  1.2084 -0.0322
    4MPD2    N114449   3.711   3.472  14.409  0.0197  0.2766 -0.3321
    4MPD2    H714450   3.792   3.476  14.471  1.0099 -1.0353 -1.5565
    5TMC2    C114451   4.005   2.108  15.314  0.1202  0.9289  0.6692
    5TMC2    C214452   3.944   2.085  15.437  0.3081  0.2820 -0.7644
    5TMC2    C314453   4.009   2.140  15.543  0.1596 -0.6362  0.6027
    5TMC2    C414454   4.119   2.184  15.302  0.6631  0.1049  0.0784
    5TMC2    C514455   4.181   2.243  15.412 -0.1452 -0.6319 -0.3051
    5TMC2    C614456   4.126   2.212  15.535 -0.1673 -0.2720  0.0965
    5TMC2     C14457   3.913   2.159  15.221 -0.4333  1.0096  0.8393
    5TMC2     O14458   3.899   2.280  15.236 -0.0865  0.2658  0.1206
    5TMC2     H14459   3.859   2.018  15.447  0.6045  0.1770  1.1621
    5TMC2    H114460   4.133   2.213  15.198 -0.1695  1.6452  0.4007
    5TMC2    H214461   4.162   2.268  15.621 -1.6554  0.9439 -0.0868
    5TMC2    C714462   4.219   2.379  15.384  0.0224 -0.3623 -0.6480
    5TMC2    C814463   3.953   2.097  15.668  0.7366 -0.6353 -0.2348
    5TMC2    O114464   4.330   2.411  15.416  0.0797 -0.3921 -0.1981
    5TMC2    O214465   3.866   2.010  15.674  0.0652  0.1518 -0.0960
    5TMC2    O514466   4.052   2.106  15.762  0.2607  0.1640  0.1321
    5TMC2    H514467   4.029   2.054  15.841  1.1986 -0.8465 -0.2665
    6MPD2     C14468   3.654   2.148  14.785 -0.9106 -0.3216 -0.2025
    6MPD2    C114469   3.695   2.258  14.860 -1.2196 -0.3944 -0.2197
    6MPD2    C214470   3.766   2.229  14.972 -0.0655  0.5477  0.2547
    6MPD2    C314471   3.788   2.094  15.017 -0.5901 -0.3115  0.2256
    6MPD2    C414472   3.752   1.990  14.933  0.1711  0.0413  0.0113
    6MPD2    C514473   3.690   2.021  14.815 -1.2807  0.1659 -0.8062
    6MPD2     H14474   3.794   2.315  15.032 -2.5450  1.7851 -0.3275
    6MPD2    H114475   3.773   1.888  14.963 -0.8008  0.4967  2.2314
    6MPD2    H214476   3.623   2.171  14.684 -0.5241 -0.0466 -0.2600
    6MPD2    H314477   3.667   1.937  14.750  1.1826 -0.8917 -0.3032
    6MPD2     N14478   3.856   2.066  15.139 -0.4533  0.1004  1.0175
    6MPD2    H514479   3.874   1.968  15.155 -3.0772 -0.9475 -2.4431
    6MPD2    N114480   3.691   2.391  14.829 -0.1649 -0.0163 -0.3674
    6MPD2    H714481   3.718   2.459  14.899  1.5715  0.8982 -1.9064
  945NH3     N114482   3.677   4.370   1.826 -0.3405 -0.1536 -0.1631
  945NH3     H214483   3.732   4.293   1.789 -0.5858 -0.4675  0.1276
  945NH3     H314484   3.746   4.431   1.870 -1.5427  0.8758  0.3170
  945NH3     H414485   3.631   4.322   1.903  0.9965 -2.2411 -0.6655
  946SOD     NA14486   0.543   0.849  14.649 -0.1242  0.1450 -0.0900
  947SOD     NA14487   1.960   1.091  12.896  0.4604 -0.2913 -0.2366
  948SOD     NA14488   4.481   4.633   8.676  0.2496 -0.3637  0.5282
  949SOD     NA14489   4.191   2.350   2.067 -0.2058  0.2917  0.2418
  950SOD     NA14490   1.328   0.264  10.893 -0.3127 -0.2047 -0.0355
  951SOD     NA14491   3.436   1.322   8.303  0.1173 -0.3109  0.0003
  952SOD     NA14492   2.787   1.234  16.690  0.2197  0.4922 -0.1970
  953SOD     NA14493   4.168   4.254  12.747  0.3073 -0.7960  0.0979
  954SOL     OW14494   2.089   2.542  17.070  0.2931  0.4004 -0.2444
  954SOL    HW114495   2.112   2.559  17.161  3.0999  0.8624 -1.0361
  954SOL    HW214496   2.170   2.563  17.022 -0.2274  1.0823 -0.8382
  955SOL     OW14497   3.004   3.459   5.375  0.3707  0.1953  0.0612
  955SOL    HW114498   3.022   3.390   5.312  0.2997 -0.7546  1.0798
  955SOL    HW214499   2.941   3.412   5.429 -0.3913  0.7919 -0.3135
  956SOL     OW14500   0.821   4.058   4.341  0.1279  0.3497  0.2045
  956SOL    HW114501   0.812   3.982   4.398 -0.5468 -0.8407 -1.4978
  956SOL    HW214502   0.876   4.110   4.399 -1.7519  1.3644  1.0926
  957SOL     OW14503   3.679   0.012   5.079  0.5571  0.6717  0.3534
  957SOL    HW114504   3.695   4.726   5.171 -1.5484  2.0075  1.0281
  957SOL    HW214505   3.584   0.011   5.082  0.6113  3.1940  3.0950
  958SOL     OW14506   0.291   0.917   8.909 -0.1481 -0.0837  0.4486
  958SOL    HW114507   0.301   0.968   8.990 -0.2516 -0.3629  0.6381
  958SOL    HW214508   0.277   0.828   8.941 -2.0410  0.8830  2.3179
  959SOL     OW14509   0.781   2.481   3.098 -0.6854 -0.2272 -0.1025
  959SOL    HW114510   0.693   2.446   3.113 -1.0185  0.3991 -0.6058
  959SOL    HW214511   0.793   2.442   3.011  1.5487  0.3744 -0.0683
  960SOL     OW14512   4.637   3.012   2.396  0.0728 -0.1347 -0.0260
  960SOL    HW114513   4.614   2.921   2.418 -1.1789  0.1687 -0.0961
  960SOL    HW214514   4.572   3.057   2.449  0.7942  0.2423  0.5285
  961SOL     OW14515   2.667   0.350   2.932  0.1418  1.2904 -0.1374
  961SOL    HW114516   2.585   0.358   2.882  0.2361  0.5576 -0.4079
  961SOL    HW214517   2.724   0.310   2.867 -0.7027  1.5943 -1.0527
  962SOL     OW14518   2.844   4.492   4.532  0.2294  0.1962 -0.8098
  962SOL    HW114519   2.870   4.581   4.507 -0.2526  0.0475 -1.8205
  962SOL    HW214520   2.912   4.435   4.498 -0.3126 -0.6320 -0.5180
  963SOL     OW14521   3.334   4.258   5.805  0.0689  0.1953  0.2613
  963SOL    HW114522   3.384   4.181   5.779  0.3684  0.9889 -1.5618
  963SOL    HW214523   3.397   4.330   5.801 -0.2365  0.4654  0.2985
  964SOL     OW14524   3.843   3.500   5.251 -0.0937  0.0678  0.7413
  964SOL    HW114525   3.750   3.518   5.260  0.5233  2.4477  2.1785
  964SOL    HW214526   3.840   3.404   5.249 -0.3474  0.0893  0.0033
  965SOL     OW14527   2.981   3.747   3.013  0.3869  0.1480 -0.4644
  965SOL    HW114528   3.032   3.821   2.980  0.3206  0.7165  0.7032
  965SOL    HW214529   3.016   3.758   3.102  1.6936  0.4111 -1.0153
  966SOL     OW14530   3.727   1.013   5.863 -0.2518  0.5364  0.4298
  966SOL    HW114531   3.799   0.980   5.809  0.5156  2.5326  0.2404
  966SOL    HW214532   3.647   0.971   5.832  1.7434 -2.3996 -0.7531
  967SOL     OW14533   3.386   3.922   8.784 -0.1714  0.4731  0.7056
  967SOL    HW114534   3.307   3.967   8.813  0.0270  0.5220  1.1664
  967SOL    HW214535   3.385   3.947   8.691  1.9641 -1.5710  0.1091
  968SOL     OW14536   4.361   2.019   6.381  0.0097 -0.5636 -0.5035
  968SOL    HW114537   4.268   2.004   6.362 -0.4518 -0.1751  1.4037
  968SOL    HW214538   4.407   2.013   6.298  1.3030 -0.6932  0.2287
  969SOL     OW14539   4.281   3.740   2.289 -0.1490  0.0393  0.5533
  969SOL    HW114540   4.275   3.797   2.212 -1.6799  0.0943  0.7155
  969SOL    HW214541   4.209   3.779   2.339 -0.8224  0.1495 -0.5209
  970SOL     OW14542   1.256   2.754  13.851 -0.1268  0.2086 -0.2488
  970SOL    HW114543   1.338   2.801  13.841  0.2963 -0.5082 -0.1225
  970SOL    HW214544   1.214   2.799  13.778 -0.5111 -0.1190 -0.2300
  971SOL     OW14545   2.489   1.606   8.602 -0.0338 -0.1848 -0.0307
  971SOL    HW114546   2.408   1.594   8.552 -0.9634 -0.1563  1.4755
  971SOL    HW214547   2.513   1.698   8.594  0.2547 -0.2182  0.4320
  972SOL     OW14548   4.262   2.436  11.243 -0.2246 -0.4131 -0.4093
  972SOL    HW114549   4.211   2.508  11.280  0.1669 -0.4522  0.2109
  972SOL    HW214550   4.336   2.490  11.213 -0.5290  1.0055  1.3934
  973SOL     OW14551   2.154   3.562   7.354 -0.1970  0.1161 -0.4606
  973SOL    HW114552   2.242   3.524   7.361  0.7609  1.5278 -4.6444
  973SOL    HW214553   2.155   3.644   7.403 -1.3266 -0.4177  0.4490
  974SOL     OW14554   0.271   2.471   6.807 -0.4145 -0.6333  0.1607
  974SOL    HW114555   0.221   2.509   6.879 -0.8314 -0.1054 -0.4103
  974SOL    HW214556   0.324   2.543   6.771 -1.7252 -0.3899 -1.2666
  975SOL     OW14557   1.821   2.949   8.068 -0.4565 -0.2955  0.3958
  975SOL    HW114558   1.812   3.021   8.005 -0.4040 -0.4178  0.2471
  975SOL    HW214559   1.744   2.897   8.044 -0.4516 -0.7141  1.2983
  976SOL     OW14560   1.015   1.292  12.735  0.6728  0.1409 -0.3452
  976SOL    HW114561   1.037   1.382  12.712  1.6403  0.1356  0.5505
  976SOL    HW214562   1.090   1.257  12.783 -0.4886  0.2355  1.5543
  977SOL     OW14563   2.912   1.443   4.033  0.3777  0.0767  0.1271
  977SOL    HW114564   2.945   1.384   4.101  3.9090 -0.9944 -2.4888
  977SOL    HW214565   2.975   1.514   4.050 -0.4627  0.7534  0.3948
  978SOL     OW14566   3.165   0.683   1.063 -0.2934  0.0934  0.3148
  978SOL    HW114567   3.079   0.691   1.104 -0.9742  3.9865 -1.8813
  978SOL    HW214568   3.164   0.589   1.081  2.1486  0.3327  1.7436
  979SOL     OW14569   0.631   2.726   3.330 -0.3471 -0.4367 -0.2623
  979SOL    HW114570   0.564   2.660   3.349  2.7249 -3.0993  1.4601
  979SOL    HW214571   0.710   2.675   3.314  0.8663  0.8640  1.6002
  980SOL     OW14572   2.113   3.060   6.171 -0.2045  0.0052 -0.1197
  980SOL    HW114573   2.130   3.110   6.091 -1.0881  1.9843  0.9185
  980SOL    HW214574   2.096   3.117   6.246  0.7436  0.1244  0.0075
  981SOL     OW14575   3.897   3.217   8.118  0.4643 -0.2230  0.8335
  981SOL    HW114576   3.880   3.288   8.180 -1.8297  1.3772 -1.6462
  981SOL    HW214577   3.990   3.200   8.131  0.9238  1.9867  0.3666
  982SOL     OW14578   2.830   2.452  13.928 -0.2121  0.3344  0.2397
  982SOL    HW114579   2.905   2.438  13.985  1.3136  3.8969 -0.8851
  982SOL    HW214580   2.834   2.373  13.874  0.5281  0.0334  0.7223
  983SOL     OW14581   0.702   3.362   3.288 -0.1254 -0.2676 -0.6407
  983SOL    HW114582   0.743   3.356   3.375  1.1448 -1.4168 -1.3171
  983SOL    HW214583   0.753   3.434   3.251 -1.4508  1.2666  0.5074
  984SOL     OW14584   2.756   1.754   6.475  0.0172  0.0514 -0.0613
  984SOL    HW114585   2.718   1.715   6.397 -0.0570  1.3030 -0.6537
  984SOL    HW214586   2.771   1.843   6.442 -0.7839 -0.7538 -2.5460
  985SOL     OW14587   4.453   3.629   1.930  0.2097 -0.1052 -0.0007
  985SOL    HW114588   4.481   3.602   1.842  1.5860  1.2843  0.0235
  985SOL    HW214589   4.477   3.721   1.943 -0.8047  0.4581 -2.1406
  986SOL     OW14590   2.263   1.153   0.022  0.2302 -0.0780  0.3237
  986SOL    HW114591   2.222   1.069   0.004 -0.9897 -0.1339  3.2481
  986SOL    HW214592   2.187   1.202   0.055 -0.5209 -0.6578 -0.5592
  987SOL     OW14593   0.629   3.897   7.272 -0.3398  0.0796  0.3631
  987SOL    HW114594   0.629   3.905   7.367  1.3249 -3.3462  0.6571
  987SOL    HW214595   0.703   3.954   7.251 -1.7108  0.6927 -2.8267
  988SOL     OW14596   2.554   4.331  12.014  0.1920  0.4877 -0.3970
  988SOL    HW114597   2.591   4.400  11.959  2.1287 -1.0543 -1.0350
  988SOL    HW214598   2.516   4.384  12.084 -1.1706 -1.4110  0.2941
  989SOL     OW14599   3.468   4.663   8.361  0.4077  0.0583  0.0327
  989SOL    HW114600   3.526   4.589   8.341  3.1776  2.6016 -1.3044
  989SOL    HW214601   3.383   4.620   8.370  0.0576  0.2061 -2.5813
  990SOL     OW14602   1.368   1.823  12.004 -0.3591 -0.3844  0.4996
  990SOL    HW114603   1.363   1.728  12.001  0.8527 -0.3288 -3.5075
  990SOL    HW214604   1.421   1.839  12.082  1.1310  0.9371 -0.7769
  991SOL     OW14605   0.698   0.404   9.409  0.5220 -0.7108  0.0719
  991SOL    HW114606   0.620   0.371   9.365  1.7591 -0.6358 -2.1965
  991SOL    HW214607   0.692   0.490   9.366 -1.0291  0.0177  1.7921
  992SOL     OW14608   3.227   1.788   6.038 -0.0195  0.3879  0.2903
  992SOL    HW114609   3.227   1.879   6.068  0.7691  1.1841 -2.1331
  992SOL    HW214610   3.193   1.745   6.117 -1.1380  0.2243 -0.2772
  993SOL     OW14611   1.621   1.794   0.415  0.9878 -1.1789  0.2484
  993SOL    HW114612   1.645   1.833   0.331 -0.7154 -0.5236  0.0616
  993SOL    HW214613   1.537   1.754   0.393  1.2508 -0.2116 -2.4381
  994SOL     OW14614   3.253   4.596   7.248  0.0830  0.0567  0.3617
  994SOL    HW114615   3.222   4.629   7.332 -0.2067 -0.1941  0.3530
  994SOL    HW214616   3.175   4.556   7.210  0.2255 -0.7552  0.9088
  995SOL     OW14617   3.630   4.351   7.748  0.4192  0.0298 -0.2858
  995SOL    HW114618   3.702   4.411   7.728  0.9994  0.0497  1.7610
  995SOL    HW214619   3.650   4.333   7.840 -1.7724  0.5090  0.2818
  996SOL     OW14620   1.955   3.094  11.015 -0.2262 -0.6352 -0.5220
  996SOL    HW114621   1.939   3.168  11.074 -1.6881  1.0045 -2.9695
  996SOL    HW214622   2.048   3.073  11.021 -0.4214 -0.7832  2.0512
  997SOL     OW14623   4.017   3.782   2.354  0.6328  0.0555  0.4056
  997SOL    HW114624   3.950   3.849   2.366  1.2919  0.8499 -0.3596
  997SOL    HW214625   4.063   3.789   2.438 -1.1346  0.4922  1.3430
  998SOL     OW14626   4.657   1.327   1.500 -0.0389 -0.4101 -0.1943
  998SOL    HW114627   4.604   1.261   1.456 -2.0173  0.0186  1.5926
  998SOL    HW214628   4.706   1.361   1.424 -0.6139  1.5260  0.3072
  999SOL     OW14629   2.801   3.782   8.506  0.4810 -0.0663  0.0979
  999SOL    HW114630   2.826   3.725   8.433 -0.4774 -1.1609  0.6270
  999SOL    HW214631   2.872   3.771   8.569  0.9534 -0.2754 -0.4732
 1000SOL     OW14632   1.634   0.519   1.028 -0.5691  0.4621  0.1110
 1000SOL    HW114633   1.622   0.546   1.119 -1.9615  0.3261 -0.0330
 1000SOL    HW214634   1.570   0.448   1.031  1.1885 -1.1714 -1.0241
 1001SOL     OW14635   1.295   0.428   2.767  0.2337  0.3482  0.5574
 1001SOL    HW114636   1.231   0.491   2.735 -0.9839 -0.7102  0.9302
 1001SOL    HW214637   1.242   0.353   2.741 -1.2944  1.9279 -0.8724
 1002SOL     OW14638   1.378   3.381  15.774 -0.2321  0.0314  0.0389
 1002SOL    HW114639   1.346   3.363  15.686 -1.4025 -0.1586  0.4995
 1002SOL    HW214640   1.407   3.472  15.767 -1.2535  0.3280 -0.4081
 1003SOL     OW14641   1.498   2.114   2.782  0.5041 -0.4677 -0.1582
 1003SOL    HW114642   1.503   2.024   2.750  0.3768 -0.3009 -0.6407
 1003SOL    HW214643   1.424   2.144   2.729 -0.7398 -2.5658  0.3753
 1004SOL     OW14644   4.456   3.560  16.074  0.0549 -0.0647  0.3755
 1004SOL    HW114645   4.457   3.604  15.989  0.6862  0.4378  0.6484
 1004SOL    HW214646   4.410   3.477  16.058  2.5419 -1.1001 -1.3583
 1005SOL     OW14647   2.481   0.235   9.112 -0.5498  0.0040 -0.1667
 1005SOL    HW114648   2.441   0.149   9.112 -0.8929  0.1639 -0.6635
 1005SOL    HW214649   2.478   0.249   9.206 -1.3860  1.5933 -0.4264
 1006SOL     OW14650   0.587   0.112   5.658  0.1231  0.7671  0.4533
 1006SOL    HW114651   0.553   0.048   5.720  0.0056  0.3725 -0.0134
 1006SOL    HW214652   0.530   0.108   5.581  1.8952  1.3721 -0.8681
 1007SOL     OW14653   3.524   2.673   7.591  0.4048 -0.4223  0.9589
 1007SOL    HW114654   3.593   2.721   7.636  1.2023  0.1213 -0.8562
 1007SOL    HW214655   3.568   2.589   7.577 -2.0972 -1.7297  0.9419
 1008SOL     OW14656   0.688   1.495  11.919 -0.0947  0.6287  0.0756
 1008SOL    HW114657   0.632   1.430  11.878  0.1682  0.5899 -0.2187
 1008SOL    HW214658   0.751   1.436  11.962 -0.6733  0.3087  0.4862
 1009SOL     OW14659   2.178   3.290   3.892 -0.4440  0.3990  0.0730
 1009SOL    HW114660   2.089   3.317   3.873 -0.6486 -0.3618 -0.0474
 1009SOL    HW214661   2.152   3.210   3.938  1.0831 -0.6022 -0.7838
 1010SOL     OW14662   2.138   1.950  10.609 -0.6345  0.3998  0.6875
 1010SOL    HW114663   2.091   1.896  10.546  3.8691 -0.7448 -1.6749
 1010SOL    HW214664   2.113   1.921  10.697  1.2082 -0.6057  0.8814
 1011SOL     OW14665   4.062   4.635  10.102 -0.4783  0.3278  0.5188
 1011SOL    HW114666   4.111   4.674  10.029 -0.4697 -2.5625 -1.0053
 1011SOL    HW214667   3.979   4.608  10.062  0.3306 -3.4025  1.3625
 1012SOL     OW14668   0.114   1.874  14.059 -0.1168  0.2802  0.2939
 1012SOL    HW114669   0.198   1.843  14.093 -1.7388 -0.7130  3.3277
 1012SOL    HW214670   0.084   1.804  14.001 -1.2110 -0.9528  2.3677
 1013SOL     OW14671   0.220   3.841   9.838  0.4060  0.1151 -0.7535
 1013SOL    HW114672   0.288   3.874   9.779  1.0260  1.9584  0.9731
 1013SOL    HW214673   0.182   3.775   9.780 -0.1828  0.3583 -0.6445
 1014SOL     OW14674   2.373   3.717  13.872 -0.3434 -0.2335  0.6055
 1014SOL    HW114675   2.368   3.764  13.789 -0.8859  0.0044  0.7729
 1014SOL    HW214676   2.282   3.717  13.901 -1.1562  0.9810 -1.9396
 1015SOL     OW14677   4.398   4.711   6.585 -0.1289 -0.3383 -0.0728
 1015SOL    HW114678   4.364   4.711   6.675 -0.3309 -2.6492 -0.1459
 1015SOL    HW214679   4.427   0.068   6.587 -1.9699  0.2515  0.4301
 1016SOL     OW14680   3.268   3.363  15.351 -0.1642  0.3182  0.1831
 1016SOL    HW114681   3.189   3.399  15.313  1.0450  3.4986  0.7270
 1016SOL    HW214682   3.305   3.433  15.405  1.0016 -1.0038  1.1125
 1017SOL     OW14683   3.841   1.689  11.161 -0.4452  0.1387 -0.4895
 1017SOL    HW114684   3.899   1.731  11.225 -2.4960  1.1622  0.6729
 1017SOL    HW214685   3.780   1.760  11.142  0.4110  0.9387 -0.2898
 1018SOL     OW14686   1.861   0.415   0.909  0.1989  0.0294 -0.3585
 1018SOL    HW114687   1.846   0.356   0.982 -1.5418  0.1093 -0.6442
 1018SOL    HW214688   1.779   0.464   0.913  0.0184 -0.4398  1.4214
 1019SOL     OW14689   2.278   3.940   5.986 -0.0901 -0.1482 -0.5729
 1019SOL    HW114690   2.286   3.847   6.007 -0.0912  0.1716  0.8029
 1019SOL    HW214691   2.368   3.968   5.997  0.1414 -0.1546 -2.3265
 1020SOL     OW14692   2.711   0.008  11.621 -0.1437  0.0142 -0.2090
 1020SOL    HW114693   2.712   4.652  11.589  0.3197  0.4750 -1.4852
 1020SOL    HW214694   2.748   0.057  11.547 -2.2408  2.9106  0.6595
 1021SOL     OW14695   1.636   0.949   2.826 -0.5179 -0.8983  0.6291
 1021SOL    HW114696   1.606   0.951   2.917 -0.0316  0.6656  0.7536
 1021SOL    HW214697   1.575   1.016   2.794 -0.9299 -0.2802  2.7241
 1022SOL     OW14698   1.077   4.051  15.965  0.7762 -0.0415  0.0208
 1022SOL    HW114699   1.080   3.985  15.896  0.1620  0.4930 -0.5158
 1022SOL    HW214700   1.088   4.125  15.906 -4.2349  1.3726  0.8786
 1023SOL     OW14701   3.453   1.711   5.632 -0.0793  0.5371 -0.1178
 1023SOL    HW114702   3.392   1.757   5.691  0.3091  1.9926 -0.8686
 1023SOL    HW214703   3.392   1.662   5.576 -1.0541  2.7088 -0.9553
 1024SOL     OW14704   4.008   1.416   5.050  0.2768  0.3304 -0.1685
 1024SOL    HW114705   3.936   1.359   5.025  1.4733 -1.5002  0.6125
 1024SOL    HW214706   4.078   1.352   5.058  1.6798  2.2830  3.2797
 1025SOL     OW14707   2.971   0.942  13.870 -0.2299  0.0652  0.2519
 1025SOL    HW114708   3.045   0.942  13.809  0.5655  0.0068  1.2244
 1025SOL    HW214709   2.959   1.035  13.889 -1.6671 -0.4030  1.5831
 1026SOL     OW14710   1.809   1.775   0.891 -0.3349  0.4636 -0.5521
 1026SOL    HW114711   1.853   1.850   0.930 -0.2736  0.6550 -0.9883
 1026SOL    HW214712   1.871   1.765   0.819 -1.6561 -1.1524 -1.4595
 1027SOL     OW14713   1.950   0.542   2.650 -0.1377 -0.1238 -0.1564
 1027SOL    HW114714   1.992   0.618   2.690 -2.1223  0.8920 -0.0196
 1027SOL    HW214715   1.952   0.566   2.558  1.2528 -2.9802 -0.8631
 1028SOL     OW14716   0.543   0.967   3.164  0.5228 -0.1052 -0.3972
 1028SOL    HW114717   0.600   0.987   3.238 -0.1715  1.3520 -0.2386
 1028SOL    HW214718   0.566   1.030   3.095  0.4945 -0.6941 -0.9424
 1029SOL     OW14719   1.373   0.030  10.942  0.2298 -0.6326  0.2472
 1029SOL    HW114720   1.294   4.714  10.921 -0.1395  1.3590 -3.2186
 1029SOL    HW214721   1.408   4.705  11.007  1.0883 -1.0464 -0.5889
 1030SOL     OW14722   0.885   4.521   5.812 -0.1187  0.8130 -0.1850
 1030SOL    HW114723   0.959   4.487   5.763  0.0781 -1.1435  1.4531
 1030SOL    HW214724   0.808   4.499   5.760  0.9115 -1.7369 -0.6589
 1031SOL     OW14725   4.208   3.506   4.579  0.0791 -0.1110  0.6123
 1031SOL    HW114726   4.288   3.452   4.582  0.7039  0.7000 -1.1587
 1031SOL    HW214727   4.193   3.521   4.486  1.5350 -1.4079  0.1557
 1032SOL     OW14728   2.973   1.767   6.933  0.3556  0.0140 -0.3768
 1032SOL    HW114729   3.054   1.739   6.890  0.4710 -0.4657  0.1366
 1032SOL    HW214730   2.914   1.787   6.861  0.1107  2.8881  0.6620
 1033SOL     OW14731   1.555   2.530   1.498  0.1602 -0.0016  0.0349
 1033SOL    HW114732   1.628   2.468   1.498  0.8853  0.8820 -1.1804
 1033SOL    HW214733   1.493   2.492   1.561 -0.5404 -1.9315 -1.8069
 1034SOL     OW14734   2.972   1.993  12.370  0.0233  0.9870 -0.5858
 1034SOL    HW114735   2.940   1.903  12.362  0.3796  0.8964 -1.0112
 1034SOL    HW214736   2.891   2.030  12.406 -0.8361 -0.3717 -1.1141
 1035SOL     OW14737   1.846   2.712   0.540  0.4324 -0.3324 -0.2927
 1035SOL    HW114738   1.808   2.787   0.495 -0.4098 -0.0009  0.9470
 1035SOL    HW214739   1.811   2.721   0.629  0.6081  0.0374 -0.2606
 1036SOL     OW14740   1.893   0.106   8.972 -0.1660 -0.0263  0.8216
 1036SOL    HW114741   1.828   0.160   8.927 -1.3462 -0.1514  2.3756
 1036SOL    HW214742   1.898   0.151   9.057 -3.3885 -0.1870  1.0628
 1037SOL     OW14743   4.703   4.544  10.867  0.3927  0.0713 -0.0605
 1037SOL    HW114744   4.733   4.472  10.812 -0.3890  0.5304 -1.0731
 1037SOL    HW214745   4.660   4.499  10.940 -0.7381  0.5618 -0.4229
 1038SOL     OW14746   2.118   4.281   1.834 -0.3960 -0.3216  0.2862
 1038SOL    HW114747   2.112   4.323   1.920  2.4634  0.4241  0.1296
 1038SOL    HW214748   2.042   4.318   1.788 -0.4879  2.7877  2.9469
 1039SOL     OW14749   3.361   1.161  10.255 -0.6089 -0.1968  0.0208
 1039SOL    HW114750   3.375   1.111  10.174  2.4222  0.5616  0.0684
 1039SOL    HW214751   3.433   1.125  10.307 -2.3609  0.0976  2.6713
 1040SOL     OW14752   1.415   1.401   7.221  0.1340 -0.2169 -0.2238
 1040SOL    HW114753   1.452   1.484   7.191 -1.4918 -0.4929 -3.0447
 1040SOL    HW214754   1.392   1.417   7.312 -1.0489 -0.5090 -0.4759
 1041SOL     OW14755   0.716   4.292   7.703 -0.1109 -0.2179  0.0053
 1041SOL    HW114756   0.648   4.226   7.713  0.5928 -1.1725 -1.3755
 1041SOL    HW214757   0.671   4.368   7.740  0.7732 -0.1611  0.9532
 1042SOL     OW14758   3.678   1.787   2.144  0.2795 -0.3320  0.0873
 1042SOL    HW114759   3.589   1.792   2.108  0.5137 -2.2595 -0.7143
 1042SOL    HW214760   3.664   1.809   2.236 -0.0677 -0.8140  0.1482
 1043SOL     OW14761   2.127   1.102   8.953 -0.2310 -0.3329  0.0641
 1043SOL    HW114762   2.106   1.063   8.868 -1.1186 -0.6457  0.4203
 1043SOL    HW214763   2.044   1.100   9.000 -0.2440 -1.1312  0.0158
 1044SOL     OW14764   1.587   4.267   1.977  0.4608 -0.3723 -0.5689
 1044SOL    HW114765   1.591   4.212   2.055  2.0055 -2.4419 -2.1109
 1044SOL    HW214766   1.649   4.337   1.998  1.0007 -1.3164  0.9616
 1045SOL     OW14767   2.398   1.974   4.861  0.4951 -0.1167 -0.2615
 1045SOL    HW114768   2.419   2.061   4.893  2.7346 -0.4793 -0.7435
 1045SOL    HW214769   2.304   1.985   4.850  0.7723  0.7859 -1.6678
 1046SOL     OW14770   0.230   1.459   1.111 -0.0750  0.0566  0.2329
 1046SOL    HW114771   0.179   1.457   1.192 -2.7551  0.3061 -1.4233
 1046SOL    HW214772   0.163   1.462   1.043 -0.5627  1.8228  0.7955
 1047SOL     OW14773   0.745   4.270  17.619  0.3259 -0.2953  0.1303
 1047SOL    HW114774   0.750   4.286  17.525 -3.7206  1.9553  0.3043
 1047SOL    HW214775   0.672   4.208  17.618 -0.3545  0.5436 -1.2703
 1048SOL     OW14776   3.285   3.432   4.265  0.2408 -0.3171 -0.3868
 1048SOL    HW114777   3.258   3.353   4.219 -0.0988  0.3458 -1.3338
 1048SOL    HW214778   3.246   3.497   4.206 -3.3657 -0.2451  2.0767
 1049SOL     OW14779   4.167   0.386   2.045 -0.0720 -0.4127 -0.3236
 1049SOL    HW114780   4.097   0.329   2.078 -2.0015  0.6769 -2.5334
 1049SOL    HW214781   4.232   0.321   2.018 -0.1758 -1.5614  2.1544
 1050SOL     OW14782   4.697   0.931  15.099  0.0427  0.7767  0.6413
 1050SOL    HW114783   4.662   1.018  15.085 -1.3058  0.2405  0.6472
 1050SOL    HW214784   4.677   0.932  15.193 -0.1379  1.6225  0.5848
 1051SOL     OW14785   3.107   2.970   9.613 -0.1134 -0.0607 -0.5487
 1051SOL    HW114786   3.081   3.003   9.699 -0.3804  0.7477 -0.9489
 1051SOL    HW214787   3.079   3.044   9.561  0.4739  1.8148  1.8232
 1052SOL     OW14788   1.630   2.667   5.579  0.4942  0.3275 -0.6110
 1052SOL    HW114789   1.548   2.713   5.564 -0.2558 -0.2393  1.7328
 1052SOL    HW214790   1.664   2.696   5.664 -1.2355 -0.0222  0.1905
 1053SOL     OW14791   1.987   4.056   8.405 -0.5327 -0.6283 -0.4313
 1053SOL    HW114792   1.977   3.965   8.377  4.6219 -0.4800 -2.7576
 1053SOL    HW214793   2.082   4.062   8.414 -0.4093 -0.0686 -2.1111
 1054SOL     OW14794   2.236   4.060   9.877 -0.2336 -0.1386  0.1012
 1054SOL    HW114795   2.330   4.044   9.869 -0.4134 -1.1949  0.0332
 1054SOL    HW214796   2.228   4.111   9.957 -0.4727  1.5282 -0.9944
 1055SOL     OW14797   1.876   4.175  15.907  0.0515 -0.4180  0.1661
 1055SOL    HW114798   1.939   4.241  15.937 -1.1804 -0.1092  2.1006
 1055SOL    HW214799   1.807   4.186  15.972  0.3437 -0.2792  0.4493
 1056SOL     OW14800   1.616   3.228  15.720 -0.0357 -0.1987 -0.1814
 1056SOL    HW114801   1.540   3.281  15.744  1.0718  1.9858 -1.5415
 1056SOL    HW214802   1.666   3.226  15.801 -0.2580  2.0563  0.0172
 1057SOL     OW14803   3.821   4.218   2.771 -0.1287 -0.4759 -0.0808
 1057SOL    HW114804   3.913   4.243   2.762  0.2355 -1.3181  1.2283
 1057SOL    HW214805   3.828   4.122   2.777 -0.4304 -0.6384 -2.1348
 1058SOL     OW14806   0.576   4.310  14.771  0.6679 -0.4444 -0.1557
 1058SOL    HW114807   0.635   4.257  14.718  1.7253 -0.5093  1.0783
 1058SOL    HW214808   0.600   4.296  14.863  2.0439 -1.0028 -0.5937
 1059SOL     OW14809   4.533   1.218   5.565  0.2795 -0.3834 -0.1279
 1059SOL    HW114810   4.601   1.270   5.609  0.4825 -1.4588  0.8402
 1059SOL    HW214811   4.578   1.185   5.487 -0.9899 -0.5421 -0.7966
 1060SOL     OW14812   2.428   1.265   3.541 -1.2607  0.2063  0.0262
 1060SOL    HW114813   2.489   1.282   3.470  0.1171  0.6588  1.3211
 1060SOL    HW214814   2.499   1.252   3.605 -1.4816  1.5715  0.5433
 1061SOL     OW14815   1.423   1.193   6.678  0.2102 -0.9270 -0.1292
 1061SOL    HW114816   1.373   1.209   6.758  0.1436 -0.3077 -0.2900
 1061SOL    HW214817   1.471   1.276   6.684 -0.8136 -0.4594  1.5121
 1062SOL     OW14818   0.944   4.685   3.734  0.3785 -0.5169  0.5592
 1062SOL    HW114819   1.021   4.629   3.735 -0.0399 -0.9926  3.7721
 1062SOL    HW214820   0.895   4.643   3.804 -1.3833  0.9064  0.1879
 1063SOL     OW14821   1.604   0.113  15.453 -0.1072 -0.0393 -0.4625
 1063SOL    HW114822   1.596   0.097  15.547 -2.4906 -1.4559 -0.9078
 1063SOL    HW214823   1.699   0.116  15.439 -0.0516 -1.1295 -0.3365
 1064SOL     OW14824   3.749   4.408   0.800  0.3031  0.4636  0.1604
 1064SOL    HW114825   3.787   4.388   0.714  2.9888  1.8027  1.0524
 1064SOL    HW214826   3.828   4.379   0.846  0.2303  0.0656  0.0359
 1065SOL     OW14827   0.511   1.399   7.716  0.2290  0.9118 -0.4917
 1065SOL    HW114828   0.529   1.437   7.630 -0.6419  2.6945  0.1296
 1065SOL    HW214829   0.600   1.374   7.741 -0.5107 -1.5403 -0.3031
 1066SOL     OW14830   2.140   1.867  15.244  0.7454 -0.1316  0.5919
 1066SOL    HW114831   2.058   1.908  15.273  2.0995  3.1664 -0.2435
 1066SOL    HW214832   2.198   1.941  15.263  0.0461  0.3421  0.9219
 1067SOL     OW14833   0.220   3.100  11.138  0.3400  0.0656 -0.3813
 1067SOL    HW114834   0.163   3.028  11.112  1.2879 -0.7409 -0.2243
 1067SOL    HW214835   0.226   3.151  11.058  0.5227  0.6487 -0.0013
 1068SOL     OW14836   1.408   1.756  13.091 -0.2987  0.7215 -0.0442
 1068SOL    HW114837   1.456   1.727  13.169 -1.0440  0.6767  0.3996
 1068SOL    HW214838   1.381   1.674  13.051  2.8468 -0.1563 -0.3821
 1069SOL     OW14839   1.128   1.127   7.270  0.1188 -0.0496 -0.8076
 1069SOL    HW114840   1.119   1.212   7.313  1.4795 -0.2403 -0.1185
 1069SOL    HW214841   1.036   1.105   7.260  0.6566 -1.8523 -1.9734
 1070SOL     OW14842   3.422   3.001   1.853  0.1516 -0.1763  0.0297
 1070SOL    HW114843   3.358   3.062   1.891 -0.9630 -1.1136 -0.3083
 1070SOL    HW214844   3.445   2.952   1.932  0.5444 -0.5508 -0.3232
 1071SOL     OW14845   2.052   4.436   9.677 -0.0522 -0.6321 -0.7376
 1071SOL    HW114846   2.134   4.397   9.647  0.7179 -0.5265  1.2571
 1071SOL    HW214847   2.084   4.511   9.727  0.8974  0.1923 -2.5500
 1072SOL     OW14848   4.160   2.168   3.036  0.4557  0.6833  0.2976
 1072SOL    HW114849   4.200   2.134   2.956 -1.5344  1.0056 -0.8289
 1072SOL    HW214850   4.086   2.208   2.990  0.1873 -0.5751 -0.3526
 1073SOL     OW14851   4.443   0.256  17.639 -0.2702 -0.2726  0.2331
 1073SOL    HW114852   4.421   0.187  17.577  1.9156 -0.8980  0.1750
 1073SOL    HW214853   4.538   0.250  17.647 -0.1397  0.2082 -1.0002
 1074SOL     OW14854   3.060   1.497   2.640  0.6577 -0.3018  0.0378
 1074SOL    HW114855   3.010   1.576   2.663  0.1912  0.5086 -3.7145
 1074SOL    HW214856   3.112   1.484   2.719  0.5838  0.5319  0.2272
 1075SOL     OW14857   2.367   1.980   5.745 -0.0657 -0.5450 -0.0796
 1075SOL    HW114858   2.455   2.016   5.738 -0.1372 -0.8488 -2.6003
 1075SOL    HW214859   2.356   1.959   5.838  2.7069 -0.7640  0.1957
 1076SOL     OW14860   0.461   4.415  17.450  0.2761  0.3605  0.0602
 1076SOL    HW114861   0.393   4.348  17.452  0.3927  0.2176 -1.0551
 1076SOL    HW214862   0.434   4.471  17.377 -3.0297  0.3638  1.2856
 1077SOL     OW14863   2.051   4.251  11.630 -0.3381 -0.9609  0.4397
 1077SOL    HW114864   2.048   4.157  11.615 -0.6543 -0.5333 -2.1468
 1077SOL    HW214865   1.962   4.262  11.665 -0.0753  1.0977  0.4546
 1078SOL     OW14866   0.906   3.163   8.120 -0.1177  0.2171 -0.0256
 1078SOL    HW114867   0.875   3.218   8.192  0.8803  0.5079  0.1763
 1078SOL    HW214868   0.951   3.229   8.068  0.1291  0.8810  1.0273
 1079SOL     OW14869   1.757   4.313   2.383 -0.4084  0.4137  0.0107
 1079SOL    HW114870   1.754   4.220   2.405  1.8828  1.0797  3.1142
 1079SOL    HW214871   1.832   4.331   2.439 -2.0438  0.3888  2.1727
 1080SOL     OW14872   3.065   1.781   9.588  0.5694  0.7988 -0.1213
 1080SOL    HW114873   3.124   1.856   9.578  1.8562 -0.1168  0.6981
 1080SOL    HW214874   3.014   1.779   9.507  0.9489 -0.4037 -0.3276
 1081SOL     OW14875   0.509   1.569   8.642  0.4896  0.3153 -0.1087
 1081SOL    HW114876   0.521   1.656   8.682 -2.6838 -0.7517  3.1343
 1081SOL    HW214877   0.587   1.516   8.662 -0.5570 -1.1071  0.1590
 1082SOL     OW14878   2.517   3.040   4.915 -0.4937  0.2789 -0.0304
 1082SOL    HW114879   2.534   3.099   4.987 -2.4618 -1.0492  1.5336
 1082SOL    HW214880   2.607   3.016   4.892 -0.1280  0.8908  0.7778
 1083SOL     OW14881   0.343   3.041   1.627  0.2921 -0.4162  0.0501
 1083SOL    HW114882   0.281   2.994   1.571 -3.7165  1.0739  3.2466
 1083SOL    HW214883   0.394   3.092   1.564  0.1185  2.1701  1.9866
 1084SOL     OW14884   3.815   1.200   9.549 -0.2135 -0.0627 -0.1477
 1084SOL    HW114885   3.758   1.273   9.570  0.0573 -0.8810  3.3889
 1084SOL    HW214886   3.805   1.158   9.635  0.6472  2.1518  1.0268
 1085SOL     OW14887   4.168   0.749  16.767  0.7603  0.1226  0.0201
 1085SOL    HW114888   4.192   0.840  16.747 -1.5612  1.1542  1.9136
 1085SOL    HW214889   4.161   0.760  16.862  2.0859  1.2967 -0.0106
 1086SOL     OW14890   3.007   2.952   0.147 -0.2127  0.5980 -0.2365
 1086SOL    HW114891   3.017   2.859   0.171  0.6421  0.6888 -0.2505
 1086SOL    HW214892   2.936   2.986   0.201  0.6697 -1.1834  2.0898
 1087SOL     OW14893   0.706   1.829   2.443  0.5935  0.1433  0.3866
 1087SOL    HW114894   0.660   1.747   2.460 -1.1927  0.7604 -1.3817
 1087SOL    HW214895   0.631   1.889   2.451 -0.1388 -0.2544 -3.0432
 1088SOL     OW14896   4.099   2.443  14.481 -0.6610  0.0684  0.3667
 1088SOL    HW114897   4.028   2.506  14.467 -0.3880  0.7950  2.2526
 1088SOL    HW214898   4.048   2.386  14.539 -0.8075  2.2237  2.3804
 1089SOL     OW14899   4.694   3.883   3.423 -0.0224 -0.3225 -0.7284
 1089SOL    HW114900   0.050   3.914   3.435  0.4360 -1.0041 -2.4307
 1089SOL    HW214901   4.653   3.917   3.502 -1.5485 -0.3110 -1.5230
 1090SOL     OW14902   0.811   2.834   5.514 -0.1559  0.0542 -0.1040
 1090SOL    HW114903   0.857   2.756   5.482  0.4724  0.5116 -0.3198
 1090SOL    HW214904   0.728   2.807   5.473 -0.4859  0.3580  0.3665
 1091SOL     OW14905   3.314   1.625   1.481 -0.5708 -0.2553  0.3999
 1091SOL    HW114906   3.316   1.540   1.526 -1.3381 -1.1242 -1.1906
 1091SOL    HW214907   3.360   1.599   1.402 -1.2883 -0.4560  0.0435
 1092SOL     OW14908   1.587   1.611   3.213 -0.0977  0.1007  0.0450
 1092SOL    HW114909   1.643   1.534   3.198 -1.3980 -0.8624  0.1806
 1092SOL    HW214910   1.505   1.580   3.176 -0.4180  1.7904 -0.6555
 1093SOL     OW14911   1.674   4.085  16.856 -0.4817 -0.5439 -0.1302
 1093SOL    HW114912   1.654   4.117  16.768 -0.4966 -0.1945 -0.0001
 1093SOL    HW214913   1.616   4.012  16.872  1.5550 -1.6274  2.3701
 1094SOL     OW14914   4.610   0.113   7.303  0.3861 -0.6629 -0.2110
 1094SOL    HW114915   4.604   0.071   7.389 -2.3856 -1.1833 -0.6511
 1094SOL    HW214916   4.670   0.185   7.324 -3.0694  1.4092  2.4662
 1095SOL     OW14917   1.263   0.437   9.647 -0.1835  0.5394  0.3396
 1095SOL    HW114918   1.173   0.405   9.641  0.1877 -0.3880 -0.3320
 1095SOL    HW214919   1.293   0.417   9.558  0.4554 -0.8856  0.8645
 1096SOL     OW14920   4.506   3.389  13.801 -0.2457 -0.2041 -0.1382
 1096SOL    HW114921   4.427   3.338  13.784 -1.5090  0.8905  2.4113
 1096SOL    HW214922   4.570   3.322  13.776  0.4462 -0.0732  1.2359
 1097SOL     OW14923   2.135   2.909   3.626 -0.6120  0.1478  0.1090
 1097SOL    HW114924   2.086   2.990   3.614  1.0560  0.8483 -1.9055
 1097SOL    HW214925   2.068   2.844   3.603  1.3512 -1.3971 -1.3375
 1098SOL     OW14926   2.894   4.218   4.356 -0.2179 -0.2917 -0.1342
 1098SOL    HW114927   2.849   4.195   4.437  2.8211 -3.4524  0.6681
 1098SOL    HW214928   2.821   4.215   4.293 -0.1850 -0.6041 -0.1577
 1099SOL     OW14929   1.560   4.483   3.423 -0.0483 -0.5798  0.3439
 1099SOL    HW114930   1.634   4.540   3.403 -1.7252  1.3778 -0.2784
 1099SOL    HW214931   1.537   4.445   3.338  0.8585 -0.3756  0.0106
 1100SOL     OW14932   4.140   0.065   4.953 -0.0418  0.3024  0.1805
 1100SOL    HW114933   4.077   0.132   4.926 -0.9601 -0.3713  0.6595
 1100SOL    HW214934   4.207   0.118   4.996  2.7128 -1.4895 -1.9085
 1101SOL     OW14935   2.715   0.881   6.755  0.3388 -0.3814 -0.1361
 1101SOL    HW114936   2.713   0.809   6.819  0.2998 -0.3323 -0.0814
 1101SOL    HW214937   2.627   0.884   6.717  0.4924  2.3774 -0.2723
 1102SOL     OW14938   0.715   3.232   5.045 -0.5264 -0.4187  0.1381
 1102SOL    HW114939   0.727   3.326   5.029  0.2823 -0.3940  0.8786
 1102SOL    HW214940   0.623   3.223   5.068  0.1112 -1.6686  2.0764
 1103SOL     OW14941   2.358   3.962   6.989  0.1748  0.4195 -0.0045
 1103SOL    HW114942   2.386   4.034   6.933  3.5917  0.1585  1.4071
 1103SOL    HW214943   2.266   3.984   7.005 -0.2678 -1.1321 -0.3809
 1104SOL     OW14944   0.086   2.054   8.060 -0.3521  0.5321  0.5152
 1104SOL    HW114945   0.122   2.093   8.140 -0.4434  1.5945  0.0457
 1104SOL    HW214946   0.136   1.973   8.063 -1.8479 -0.4227 -0.7015
 1105SOL     OW14947   3.151   1.666   6.275 -0.2167  0.1341 -0.3247
 1105SOL    HW114948   3.179   1.737   6.332 -0.7346 -0.2205  0.3694
 1105SOL    HW214949   3.189   1.596   6.329 -0.1579  0.2957 -0.1589
 1106SOL     OW14950   3.877   1.634   4.430  0.1972  0.1848  0.0789
 1106SOL    HW114951   3.851   1.699   4.364 -1.2226 -2.8848 -2.3429
 1106SOL    HW214952   3.866   1.688   4.509 -0.7330  3.2695 -2.1439
 1107SOL     OW14953   2.718   3.099   8.995 -0.2985  0.3840 -0.2213
 1107SOL    HW114954   2.809   3.116   9.020 -0.0556 -0.1536 -0.7563
 1107SOL    HW214955   2.726   3.083   8.901  1.0214 -1.9067  0.2756
 1108SOL     OW14956   0.317   0.723   2.738 -0.2100 -0.3690 -0.4794
 1108SOL    HW114957   0.374   0.794   2.766 -0.6777 -0.2794  0.2659
 1108SOL    HW214958   0.286   0.694   2.824 -0.3457  0.4543 -0.2547
 1109SOL     OW14959   3.091   2.908   8.435  0.1971  0.0883 -0.2853
 1109SOL    HW114960   3.028   2.860   8.381  0.3810 -2.4134  1.7235
 1109SOL    HW214961   3.050   2.995   8.438  1.9914  0.8492  1.7188
 1110SOL     OW14962   3.209   0.958   5.607  0.3152 -0.1114 -0.1331
 1110SOL    HW114963   3.136   0.982   5.664 -0.6385 -1.4697 -0.7916
 1110SOL    HW214964   3.178   0.982   5.519  0.0968 -0.1543 -0.0671
 1111SOL     OW14965   2.871   1.108   8.146  0.0128  0.1133 -0.4534
 1111SOL    HW114966   2.781   1.140   8.145 -0.5003 -1.2658  0.7953
 1111SOL    HW214967   2.914   1.159   8.215 -0.8746  1.2800 -0.7881
 1112SOL     OW14968   3.636   0.488   4.586  0.0571 -0.1555  0.1888
 1112SOL    HW114969   3.628   0.398   4.552  1.8114 -0.7990  1.5163
 1112SOL    HW214970   3.562   0.498   4.646  0.6200  0.9488  0.6760
 1113SOL     OW14971   0.077   0.362   6.195 -0.5252 -0.5270  0.2540
 1113SOL    HW114972   0.062   0.449   6.157  0.8924  0.9504  3.0432
 1113SOL    HW214973   0.006   0.317   6.151 -0.8678 -0.6132  0.8902
 1114SOL     OW14974   4.164   0.206   0.842 -0.4723 -0.0314  0.1189
 1114SOL    HW114975   4.196   0.137   0.900  1.7854 -2.0757 -3.5749
 1114SOL    HW214976   4.183   0.282   0.898  1.9551 -1.2885  0.9828
 1115SOL     OW14977   3.683   0.790  13.682 -0.5782  0.1796 -0.4687
 1115SOL    HW114978   3.744   0.725  13.648 -0.2884 -0.8719  2.0359
 1115SOL    HW214979   3.622   0.796  13.609 -0.7291  1.3818 -0.2537
 1116SOL     OW14980   1.522   2.866   2.567 -0.4865 -0.3456  0.1329
 1116SOL    HW114981   1.588   2.841   2.503  0.4865 -1.4801  1.5742
 1116SOL    HW214982   1.472   2.929   2.515 -3.5215 -1.3894  1.7662
 1117SOL     OW14983   3.364   3.698   5.021 -0.1196 -0.6621 -0.0736
 1117SOL    HW114984   3.368   3.603   5.036 -1.7431 -0.4795  1.4231
 1117SOL    HW214985   3.390   3.707   4.929 -1.1136 -0.0249 -0.2927
 1118SOL     OW14986   2.560   1.888   7.038  0.0084  0.2258 -0.0118
 1118SOL    HW114987   2.644   1.914   6.998 -0.3123 -0.7919 -1.3556
 1118SOL    HW214988   2.584   1.852   7.123 -0.2807 -1.2258 -0.5508
 1119SOL     OW14989   2.087   2.735   4.681 -0.0357 -0.1163 -0.0827
 1119SOL    HW114990   2.163   2.709   4.733  0.9484  0.8902 -1.0455
 1119SOL    HW214991   2.140   2.741   4.602 -0.4563  1.3877 -0.2531
 1120SOL     OW14992   1.941   4.649   7.709  0.2180  0.3147 -0.2715
 1120SOL    HW114993   1.893   4.568   7.687 -0.2809  0.9906 -1.6704
 1120SOL    HW214994   2.025   4.615   7.740  0.2906 -1.2843 -2.1697
 1121SOL     OW14995   2.596   0.072   1.079 -0.5746 -0.5065 -0.5962
 1121SOL    HW114996   2.593   4.724   1.030 -0.1116 -0.5447 -0.5609
 1121SOL    HW214997   2.651   0.130   1.026  1.4857 -1.3713  0.5771
 1122SOL     OW14998   2.182   3.962   8.070  0.2948  0.1568  0.1575
 1122SOL    HW114999   2.199   3.893   8.006 -1.4574  1.9135 -2.1812
 1122SOL    HW215000   2.176   3.922   8.158  2.1712 -1.6990 -0.5578
 1123SOL     OW15001   3.070   0.156  15.160 -0.1660  0.0980 -0.0296
 1123SOL    HW115002   3.089   0.209  15.082 -1.7590  0.3412 -0.2653
 1123SOL    HW215003   3.147   0.105  15.183 -1.2073 -0.5727  1.9673
 1124SOL     OW15004   3.833   0.928  13.363  0.1740 -0.2721 -0.3296
 1124SOL    HW115005   3.813   1.020  13.382  0.2240 -0.1857 -0.6997
 1124SOL    HW215006   3.752   0.881  13.384  1.1277 -1.9296 -0.3374
 1125SOL     OW15007   0.646   3.774   6.645 -0.0418  0.0383 -0.7614
 1125SOL    HW115008   0.725   3.729   6.614 -1.5006 -2.3627 -1.0108
 1125SOL    HW215009   0.649   3.859   6.602 -0.6149 -0.7664 -2.3797
 1126SOL     OW15010   2.731   3.712  16.022  0.4917  0.3526 -0.0810
 1126SOL    HW115011   2.716   3.800  16.057  2.1470  0.2002  0.9739
 1126SOL    HW215012   2.826   3.713  16.031  0.4839 -0.6917  0.0615
 1127SOL     OW15013   4.576   1.540   3.655 -0.5674 -0.3684 -0.0460
 1127SOL    HW115014   4.602   1.592   3.580 -0.1874  0.0415  0.3703
 1127SOL    HW215015   4.582   1.604   3.725 -3.2311 -1.0159  0.7839
 1128SOL     OW15016   1.019   3.014  17.185  0.2740  0.2311  0.1415
 1128SOL    HW115017   1.071   2.934  17.172  0.1294  0.5202 -2.2482
 1128SOL    HW215018   1.028   3.059  17.101  0.4708 -0.7161 -0.3417
 1129SOL     OW15019   4.205   2.518   6.007 -0.1443  0.1651  0.0761
 1129SOL    HW115020   4.208   2.473   6.091  1.0064  0.1542  0.0295
 1129SOL    HW215021   4.268   2.474   5.949 -0.8172 -0.2691 -0.3210
 1130SOL     OW15022   1.903   1.216  11.880 -0.2200 -0.2760  1.0879
 1130SOL    HW115023   1.923   1.249  11.967  0.9188  0.5630  0.5119
 1130SOL    HW215024   1.820   1.170  11.889 -0.1495 -0.5001  0.5770
 1131SOL     OW15025   3.651   1.143   3.522 -0.5944  0.6263 -0.0366
 1131SOL    HW115026   3.686   1.141   3.433 -0.5786 -0.1208 -0.0178
 1131SOL    HW215027   3.603   1.060   3.524  0.1727  0.1802 -0.0175
 1132SOL     OW15028   4.270   0.388   3.370 -0.1162 -0.8237  0.2205
 1132SOL    HW115029   4.222   0.471   3.375 -0.1724 -0.9167  1.1982
 1132SOL    HW215030   4.226   0.335   3.437  0.9860 -2.2006 -0.1459
 1133SOL     OW15031   1.192   3.651   8.068  0.5695 -0.0969  0.1125
 1133SOL    HW115032   1.186   3.736   8.110  0.0390 -0.5488  0.9456
 1133SOL    HW215033   1.256   3.611   8.126 -0.5592 -1.0681  0.6855
 1134SOL     OW15034   0.803   2.907  11.718 -0.3754  0.0652  0.0916
 1134SOL    HW115035   0.825   2.824  11.761  1.1327 -0.0946 -1.0006
 1134SOL    HW215036   0.742   2.948  11.780 -0.7822 -0.6195  0.1457
 1135SOL     OW15037   2.962   1.546   4.758  0.3429 -0.0478  0.1685
 1135SOL    HW115038   3.022   1.478   4.787  1.8467 -0.3548 -3.7063
 1135SOL    HW215039   3.022   1.608   4.716 -2.1569  2.6707  0.5600
 1136SOL     OW15040   3.001   3.057   9.242  0.6367 -0.0727  0.5574
 1136SOL    HW115041   2.979   3.088   9.330  0.3322 -1.4949  0.9889
 1136SOL    HW215042   3.015   3.144   9.204  1.4605 -0.3970  0.1200
 1137SOL     OW15043   1.393   4.234  16.442 -0.7443  0.4586 -0.5039
 1137SOL    HW115044   1.319   4.287  16.410 -1.3496  0.1386  0.3867
 1137SOL    HW215045   1.346   4.153  16.459 -1.3975  1.0544  0.5563
 1138SOL     OW15046   1.725   2.697   3.824  0.3445 -0.0641 -0.0439
 1138SOL    HW115047   1.812   2.711   3.860 -0.0525  1.0442  0.4894
 1138SOL    HW215048   1.724   2.604   3.846 -1.4252 -0.0420  0.0008
 1139SOL     OW15049   1.491   3.760   6.543 -0.0720  0.3660  0.4229
 1139SOL    HW115050   1.553   3.783   6.474 -0.0263 -1.8701 -0.2778
 1139SOL    HW215051   1.520   3.672   6.568 -0.6309  0.4905  1.5230
 1140SOL     OW15052   3.499   0.520   6.886  0.2987 -0.2596  0.0654
 1140SOL    HW115053   3.469   0.468   6.960  1.4921  0.7203  1.2300
 1140SOL    HW215054   3.540   0.448   6.837 -0.1861 -0.5881  0.1418
 1141SOL     OW15055   2.631   3.826   8.054  0.1639  0.6252 -0.2314
 1141SOL    HW115056   2.693   3.887   8.014  1.3741  0.0226  0.7158
 1141SOL    HW215057   2.587   3.778   7.984 -0.3813  0.0341  0.5174
 1142SOL     OW15058   1.616   2.627   8.024  0.6813 -0.3344 -0.1233
 1142SOL    HW115059   1.583   2.555   7.970 -0.6782 -0.0762  0.3695
 1142SOL    HW215060   1.638   2.686   7.951  1.5656  0.2185  0.5872
 1143SOL     OW15061   2.098   2.691  17.299 -0.4445 -0.0570 -0.1806
 1143SOL    HW115062   2.064   2.772  17.262 -0.0478  1.1271  2.0200
 1143SOL    HW215063   2.152   2.728  17.370 -2.2150  0.0319  1.1261
 1144SOL     OW15064   2.154   0.602   6.312 -0.2088  0.7211 -0.1336
 1144SOL    HW115065   2.058   0.606   6.320 -0.1792 -0.2508  0.6050
 1144SOL    HW215066   2.167   0.528   6.254  1.8797  1.0015 -0.0241
 1145SOL     OW15067   3.871   4.365   2.356  0.2533  0.3275  0.4428
 1145SOL    HW115068   3.800   4.347   2.418  0.7419  0.8617  1.1559
 1145SOL    HW215069   3.949   4.344   2.406 -0.1839 -1.2598  0.4657
 1146SOL     OW15070   0.851   3.073   7.309 -0.1295 -0.1429  0.5074
 1146SOL    HW115071   0.777   3.095   7.253  1.3508  0.6391 -1.1314
 1146SOL    HW215072   0.906   3.151   7.315 -0.5821  0.2518 -0.4505
 1147SOL     OW15073   1.160   4.513   8.315 -0.2268  0.3443  0.1128
 1147SOL    HW115074   1.180   4.457   8.390 -1.0058  0.7039  0.5973
 1147SOL    HW215075   1.246   4.540   8.284 -0.1898 -2.8238 -2.4863
 1148SOL     OW15076   0.566   2.789  14.666  0.2347  0.1852 -0.6021
 1148SOL    HW115077   0.497   2.833  14.715 -0.2136 -1.1364 -0.0509
 1148SOL    HW215078   0.519   2.732  14.606 -1.1688  1.4636 -0.7020
 1149SOL     OW15079   3.882   1.833   2.930 -0.3724 -0.0412  0.5404
 1149SOL    HW115080   3.822   1.900   2.963 -0.4677  0.1163  0.0580
 1149SOL    HW215081   3.964   1.856   2.973 -0.2594  2.0979 -0.8263
 1150SOL     OW15082   4.671   3.225   4.982  0.1362  0.2086 -0.1843
 1150SOL    HW115083   4.611   3.184   4.919  0.0877  0.2672 -0.1765
 1150SOL    HW215084   4.697   3.307   4.940  0.2206  0.7554  0.9299
 1151SOL     OW15085   3.793   4.094   9.197 -0.3474  0.2891  0.1686
 1151SOL    HW115086   3.727   4.075   9.263 -1.0695  0.1830 -0.5819
 1151SOL    HW215087   3.746   4.170   9.161  0.3828  0.6568 -0.0276
 1152SOL     OW15088   0.108   0.925   2.717  0.1418  0.1071  0.0126
 1152SOL    HW115089   0.182   0.867   2.698 -0.9108 -1.0111 -0.6848
 1152SOL    HW215090   0.094   0.915   2.811 -1.9518 -2.6426 -0.5777
 1153SOL     OW15091   2.027   0.411   5.863  0.0305 -0.4976 -0.0507
 1153SOL    HW115092   2.098   0.438   5.921 -0.6838  0.8666  0.1664
 1153SOL    HW215093   2.026   0.316   5.848 -1.0888 -0.3294 -1.0592
 1154SOL     OW15094   4.242   1.838  17.365  0.1352  0.0079  0.4467
 1154SOL    HW115095   4.156   1.879  17.368  0.9870  1.7612  1.0286
 1154SOL    HW215096   4.300   1.914  17.357  2.8497 -2.0321  0.9459
 1155SOL     OW15097   0.209   4.630   5.601  0.1405  0.4113  0.7031
 1155SOL    HW115098   0.168   4.685   5.534 -0.0046 -1.4350 -0.7062
 1155SOL    HW215099   0.140   4.566   5.620  0.4635  0.2646  1.3697
 1156SOL     OW15100   3.261   4.332   8.999  0.1528 -0.5321 -0.4980
 1156SOL    HW115101   3.171   4.343   8.968  0.0661 -1.2193 -0.4887
 1156SOL    HW215102   3.235   4.284   9.077  0.0079  0.4358  0.0563
 1157SOL     OW15103   4.544   3.707   2.372  0.2609 -0.1636 -0.0789
 1157SOL    HW115104   4.456   3.745   2.371  1.0183  1.6306  0.7061
 1157SOL    HW215105   4.587   3.770   2.313  0.2828 -1.5445 -1.5169
 1158SOL     OW15106   0.347   3.530   7.448  0.2592  0.0939  0.4091
 1158SOL    HW115107   0.327   3.623   7.438  0.8112 -0.0208 -1.6243
 1158SOL    HW215108   0.424   3.523   7.393  0.9582 -0.1760  1.4196
 1159SOL     OW15109   0.993   2.959  15.672 -0.4497 -0.1112  0.8030
 1159SOL    HW115110   0.931   3.004  15.616  2.8536  2.4141 -0.8140
 1159SOL    HW215111   0.975   3.004  15.755 -1.1336  0.6971  0.2005
 1160SOL     OW15112   0.283   0.510  12.195  0.3396  0.0071 -0.2007
 1160SOL    HW115113   0.196   0.481  12.168 -0.6383  2.6133  0.2096
 1160SOL    HW215114   0.319   0.422  12.212  1.6194 -0.1664 -3.7283
 1161SOL     OW15115   3.347   0.560   3.957 -0.4896  0.7383 -0.5622
 1161SOL    HW115116   3.409   0.574   4.029  2.4785 -0.2916 -2.9117
 1161SOL    HW215117   3.272   0.546   4.015  0.2296 -1.4177 -0.1452
 1162SOL     OW15118   3.259   3.057   0.176  0.7244  0.1716 -0.1932
 1162SOL    HW115119   3.239   3.064   0.269 -0.3033 -0.0954 -0.3859
 1162SOL    HW215120   3.178   3.016   0.146  1.4235 -1.3510  0.0025
 1163SOL     OW15121   3.617   3.193  10.188  1.0179  0.4616  1.0997
 1163SOL    HW115122   3.613   3.168  10.096  1.2356  1.3265  0.8477
 1163SOL    HW215123   3.653   3.282  10.192  1.1977  0.3396  2.1016
 1164SOL     OW15124   1.220   0.080  14.016 -0.6890  0.1943  0.0586
 1164SOL    HW115125   1.126   0.092  14.002 -1.2837 -2.8618  1.3882
 1164SOL    HW215126   1.222   4.719  14.021 -1.5701  0.0932 -1.5152
 1165SOL     OW15127   2.248   3.653   8.506  0.1293 -0.8190 -0.0771
 1165SOL    HW115128   2.174   3.636   8.564  0.0505  0.1089  0.0916
 1165SOL    HW215129   2.310   3.593   8.548  0.1038 -1.3581 -0.7945
 1166SOL     OW15130   0.439   2.152   8.090 -0.2061  0.0272 -0.4222
 1166SOL    HW115131   0.490   2.130   8.168  2.4830  2.3248 -1.5711
 1166SOL    HW215132   0.471   2.099   8.017  0.3382  0.3003 -0.3812
 1167SOL     OW15133   2.741   3.837   1.809  0.1936 -0.3505  0.3421
 1167SOL    HW115134   2.710   3.778   1.739 -0.9493  0.2293  0.3555
 1167SOL    HW215135   2.799   3.898   1.764 -0.1878 -0.8937 -0.9032
 1168SOL     OW15136   1.979   4.047  17.126  0.7685 -0.1774  0.1687
 1168SOL    HW115137   2.040   4.103  17.175 -1.9857  2.3007  0.7216
 1168SOL    HW215138   1.907   4.109  17.118  1.1229  0.0014 -1.5787
 1169SOL     OW15139   4.253   2.953  12.207 -0.4133  0.0189  0.3298
 1169SOL    HW115140   4.283   2.933  12.295 -1.2796 -4.0770 -0.3078
 1169SOL    HW215141   4.321   3.012  12.175 -0.6113 -1.0995 -2.2233
 1170SOL     OW15142   0.065   3.623   3.674  0.1064 -0.0921  0.5041
 1170SOL    HW115143   0.077   3.715   3.699  3.1840 -0.6803  1.1813
 1170SOL    HW215144   0.156   3.606   3.648  0.5971  3.0267  0.1462
 1171SOL     OW15145   3.203   2.367   8.499  0.0914  0.1821 -0.1436
 1171SOL    HW115146   3.117   2.373   8.540  0.0901  1.2370 -0.3067
 1171SOL    HW215147   3.223   2.453   8.462  0.3852  1.2717  2.5521
 1172SOL     OW15148   1.680   0.741   2.653  0.2945 -0.2200  0.0194
 1172SOL    HW115149   1.710   0.680   2.721  0.9715  0.7725  0.6149
 1172SOL    HW215150   1.637   0.797   2.717 -0.0869  0.5540 -0.9197
 1173SOL     OW15151   4.050   4.626  15.125  0.3436  0.3517 -0.6910
 1173SOL    HW115152   3.982   4.572  15.166  0.2632 -0.7003 -2.1965
 1173SOL    HW215153   4.060   4.595  15.035  0.5669  1.3255 -1.0064
 1174SOL     OW15154   0.411   3.380   3.183 -0.4295 -0.3766 -0.4432
 1174SOL    HW115155   0.387   3.455   3.129 -1.0808 -0.4198 -0.2051
 1174SOL    HW215156   0.506   3.394   3.182 -0.6952  1.4626  0.8891
 1175SOL     OW15157   2.415   4.526   2.457  0.1470  0.0148 -0.1381
 1175SOL    HW115158   2.349   4.462   2.483  0.9606 -0.9905 -0.5710
 1175SOL    HW215159   2.390   4.607   2.501 -0.1874 -0.5281  0.6715
 1176SOL     OW15160   4.055   4.115   3.216  0.1685  0.1668  0.8310
 1176SOL    HW115161   3.978   4.135   3.164 -1.7015 -2.7510  2.4446
 1176SOL    HW215162   4.024   4.088   3.303 -1.1164  0.0780  0.3461
 1177SOL     OW15163   1.550   3.280  16.010  0.5494 -0.0680  0.4240
 1177SOL    HW115164   1.515   3.334  15.939 -1.8936  0.5797  2.1246
 1177SOL    HW215165   1.470   3.277  16.062 -1.4019  1.2810 -2.5225
 1178SOL     OW15166   1.519   4.530   8.785  0.1972  0.4911 -1.1043
 1178SOL    HW115167   1.603   4.573   8.798  0.3753  0.1937 -1.2660
 1178SOL    HW215168   1.535   4.436   8.794  0.0585  0.6037  0.2473
 1179SOL     OW15169   1.435   4.231   3.879  0.3433 -0.3720 -0.1681
 1179SOL    HW115170   1.484   4.165   3.830 -0.1954 -1.7567  1.1808
 1179SOL    HW215171   1.445   4.199   3.968 -0.3384  0.7363  0.3079
 1180SOL     OW15172   3.706   0.001   6.696 -0.1368 -0.6884  0.2439
 1180SOL    HW115173   3.779   4.710   6.640 -0.8490 -0.8023 -0.6373
 1180SOL    HW215174   3.732   0.084   6.735 -0.4162 -0.6557  0.3606
 1181SOL     OW15175   3.242   3.181   8.757  0.1326 -0.1971  0.6080
 1181SOL    HW115176   3.306   3.115   8.729  0.1497 -0.4267  1.1970
 1181SOL    HW215177   3.212   3.213   8.671  0.5905  0.0613  0.5459
 1182SOL     OW15178   1.798   1.841   4.392 -0.0957  0.2890 -0.0938
 1182SOL    HW115179   1.882   1.795   4.386 -1.2440 -1.5928 -2.1962
 1182SOL    HW215180   1.824   1.904   4.459  2.2615  1.8424 -2.4764
 1183SOL     OW15181   1.532   0.362  15.792 -0.2153  0.0835 -0.1760
 1183SOL    HW115182   1.620   0.325  15.793 -1.4052 -2.7535  0.1430
 1183SOL    HW215183   1.533   0.425  15.864  2.8870 -0.6176  0.3770
 1184SOL     OW15184   1.485   0.123  13.962 -0.1256 -0.6062  0.3403
 1184SOL    HW115185   1.390   0.109  13.962 -0.4652  1.6347  0.2845
 1184SOL    HW215186   1.516   0.083  14.044  1.8370  2.3139  1.0074
 1185SOL     OW15187   3.877   4.303   5.451 -0.2581 -0.6480 -0.4453
 1185SOL    HW115188   3.904   4.342   5.368  0.6581  0.1175  0.2147
 1185SOL    HW215189   3.877   4.210   5.429  0.7666 -0.6492 -0.4302
 1186SOL     OW15190   4.633   1.708   3.903 -0.1065 -0.0675  0.3016
 1186SOL    HW115191   4.663   1.796   3.881 -2.6051  0.5894 -0.4486
 1186SOL    HW215192   4.660   1.708   3.995 -0.3300 -0.1775  0.3677
 1187SOL     OW15193   2.780   4.305   1.030  0.2272 -0.0363 -0.0874
 1187SOL    HW115194   2.871   4.298   1.060 -0.7108  1.7320  3.1529
 1187SOL    HW215195   2.754   4.389   1.067  1.0353 -0.2652  1.0092
 1188SOL     OW15196   3.351   2.079   3.066 -0.0883 -0.8224  0.3317
 1188SOL    HW115197   3.398   2.139   3.124  0.0603 -1.3630  0.7724
 1188SOL    HW215198   3.405   2.001   3.071  0.9009 -0.1994 -0.5889
 1189SOL     OW15199   3.545   3.684  12.423  0.3820 -0.0088  0.3526
 1189SOL    HW115200   3.487   3.760  12.425 -0.8383 -0.9297  0.4568
 1189SOL    HW215201   3.489   3.613  12.392  1.4485  0.5243 -2.8294
 1190SOL     OW15202   3.899   2.475   7.591  0.6592 -0.1239  0.1076
 1190SOL    HW115203   3.826   2.433   7.547  1.2056  0.9089 -1.7833
 1190SOL    HW215204   3.901   2.553   7.536 -0.9028  0.2067  0.5314
 1191SOL     OW15205   1.097   3.655   8.637 -0.0110 -0.0717 -0.1192
 1191SOL    HW115206   1.044   3.637   8.559 -0.5979 -1.2672  0.5577
 1191SOL    HW215207   1.059   3.739   8.662  0.7017  0.6766 -1.5194
 1192SOL     OW15208   2.063   1.879  12.026 -0.2664 -0.3457 -0.1119
 1192SOL    HW115209   2.022   1.891  11.940  1.1324  0.6258 -0.6510
 1192SOL    HW215210   2.045   1.967  12.059 -0.4098 -0.5979  0.4729
 1193SOL     OW15211   1.433   1.639   4.169 -0.3685  0.1390 -0.6006
 1193SOL    HW115212   1.513   1.588   4.158 -0.4226  0.1909 -1.2574
 1193SOL    HW215213   1.362   1.575   4.165  0.3986 -0.7710  0.2967
 1194SOL     OW15214   3.317   3.744   4.384 -0.3490  0.0431 -0.1954
 1194SOL    HW115215   3.405   3.776   4.364 -0.9691  1.8214 -0.0795
 1194SOL    HW215216   3.277   3.773   4.302 -0.2602 -0.9125 -0.5785
 1195SOL     OW15217   1.003   1.154   6.606  0.5610 -0.5520 -0.4556
 1195SOL    HW115218   1.029   1.233   6.653  0.4487  0.3536 -1.9398
 1195SOL    HW215219   1.087   1.118   6.579  0.8511 -1.7398  1.9428
 1196SOL     OW15220   2.655   1.421   9.648 -0.4004 -0.1233 -0.1453
 1196SOL    HW115221   2.602   1.396   9.723 -1.2793 -0.8975 -1.0341
 1196SOL    HW215222   2.588   1.405   9.581  0.8561 -0.6530 -1.2766
 1197SOL     OW15223   1.819   0.928   3.383 -0.4624 -0.2744 -0.1722
 1197SOL    HW115224   1.764   0.939   3.305  1.1200 -1.4452 -1.4651
 1197SOL    HW215225   1.902   0.901   3.343 -1.0483 -1.4364 -0.5968
 1198SOL     OW15226   2.338   4.187   7.280 -0.3726  0.4291  0.2608
 1198SOL    HW115227   2.271   4.120   7.269 -0.8060  0.7015  1.1855
 1198SOL    HW215228   2.302   4.274   7.296 -1.5081  0.1959 -1.0732
 1199SOL     OW15229   2.926   2.065   6.718 -0.8053  0.5032  0.1555
 1199SOL    HW115230   2.861   2.123   6.680  0.3646  1.0210 -1.0339
 1199SOL    HW215231   2.882   2.051   6.802  0.3425 -1.2216  0.4827
 1200SOL     OW15232   1.300   0.890  17.426  0.0330 -0.3203  0.1909
 1200SOL    HW115233   1.332   0.979  17.408  1.6079 -1.2062 -1.4920
 1200SOL    HW215234   1.365   0.836  17.381  0.0467 -0.2777  0.1587
 1201SOL     OW15235   0.524   0.306   2.163 -0.7388  0.2412 -0.1483
 1201SOL    HW115236   0.505   0.395   2.134 -1.2129 -0.0872 -0.8395
 1201SOL    HW215237   0.440   0.271   2.194  0.0384 -1.7673 -0.2634
 1202SOL     OW15238   0.161   0.410   5.743 -0.3332  0.3723 -0.1301
 1202SOL    HW115239   0.072   0.378   5.759 -0.8344  0.9279 -1.8905
 1202SOL    HW215240   0.190   0.354   5.672  0.1064 -1.6704  1.6484
 1203SOL     OW15241   2.671   4.160   2.685  0.7582 -0.4506  0.0740
 1203SOL    HW115242   2.668   4.166   2.590  2.6690  0.7155  0.0857
 1203SOL    HW215243   2.590   4.109   2.689  0.3675  0.1993  0.4570
 1204SOL     OW15244   1.574   3.015   7.437 -0.1084  0.1337  0.5887
 1204SOL    HW115245   1.636   2.942   7.440  0.1153  0.3179  0.4675
 1204SOL    HW215246   1.498   2.984   7.486  0.6821 -3.8294 -0.7366
 1205SOL     OW15247   0.368   3.914   5.125  0.0794 -0.0621 -0.0075
 1205SOL    HW115248   0.453   3.880   5.096  0.4110  1.2353 -0.5317
 1205SOL    HW215249   0.397   4.003   5.146 -0.8974 -0.1640  1.7322
 1206SOL     OW15250   0.170   2.283  13.161  0.4387 -0.2340  0.1614
 1206SOL    HW115251   0.146   2.340  13.234 -0.3900 -0.3974  0.0172
 1206SOL    HW215252   0.104   2.214  13.154  0.6690 -0.5404  0.9038
 1207SOL     OW15253   1.531   0.683  15.715  0.5738  0.1169 -0.0601
 1207SOL    HW115254   1.436   0.675  15.717  0.2957  3.3799 -0.5991
 1207SOL    HW215255   1.546   0.618  15.646 -0.4770 -0.3484  0.1564
 1208SOL     OW15256   2.773   3.215   3.321  0.7606 -0.2635  0.7113
 1208SOL    HW115257   2.735   3.277   3.260  1.8534 -1.1616 -0.8807
 1208SOL    HW215258   2.788   3.138   3.266 -1.1277 -1.1448  1.4237
 1209SOL     OW15259   2.835   4.264  10.002  0.5797  0.4174  0.9101
 1209SOL    HW115260   2.781   4.307  10.068  0.2702 -0.4982  1.2451
 1209SOL    HW215261   2.911   4.323  10.000  1.0932 -0.2720  0.0428
 1210SOL     OW15262   3.841   0.266   1.729  0.7193 -0.4134 -0.5676
 1210SOL    HW115263   3.806   0.303   1.647 -0.5636 -1.0848 -0.3330
 1210SOL    HW215264   3.862   0.338   1.788 -0.4893 -0.9561  0.5276
 1211SOL     OW15265   0.630   2.512   0.168 -0.0312  0.1375  0.0304
 1211SOL    HW115266   0.663   2.499   0.257 -1.3880  0.5400  0.5969
 1211SOL    HW215267   0.703   2.505   0.107  0.2905  0.1790  0.4140
 1212SOL     OW15268   0.414   3.434   6.387  0.1957  0.0850  0.2118
 1212SOL    HW115269   0.403   3.405   6.478 -0.9310  0.7131  0.2791
 1212SOL    HW215270   0.418   3.529   6.395  0.4922 -0.0948  2.1941
 1213SOL     OW15271   0.158   4.133   4.946 -0.0644  0.2329  0.2659
 1213SOL    HW115272   0.170   4.080   5.025 -0.0894  1.5040  1.1315
 1213SOL    HW215273   0.070   4.115   4.914  0.1160  0.9651 -0.6620
 1214SOL     OW15274   1.895   1.071  15.814  0.3665  0.4712  0.2422
 1214SOL    HW115275   1.826   1.023  15.769  3.2197 -1.8457 -1.7254
 1214SOL    HW215276   1.970   1.059  15.754  0.6992  1.2130  0.5154
 1215SOL     OW15277   4.458   2.014   4.483  0.1405  0.0351  0.0900
 1215SOL    HW115278   4.496   1.942   4.432 -0.8400 -0.0696 -0.5070
 1215SOL    HW215279   4.530   2.055   4.530  0.1568 -0.8871  0.8741
 1216SOL     OW15280   0.157   1.316   7.912 -0.1323  0.3296  0.1999
 1216SOL    HW115281   0.172   1.407   7.884 -3.8115  0.3259 -1.6893
 1216SOL    HW215282   0.066   1.307   7.886 -1.6779  1.9918  5.1567
 1217SOL     OW15283   2.103   1.483   5.869 -0.2100 -0.3396  0.5070
 1217SOL    HW115284   2.016   1.474   5.906 -0.3770  2.8838  0.8967
 1217SOL    HW215285   2.138   1.399   5.899  1.9010  1.0551  2.0027
 1218SOL     OW15286   4.321   3.789   7.358 -1.0868  0.0721  0.0922
 1218SOL    HW115287   4.243   3.843   7.346 -1.1471 -0.5191 -2.2374
 1218SOL    HW215288   4.349   3.783   7.267 -1.2489  1.1482 -0.0328
 1219SOL     OW15289   0.276   4.381   7.737 -0.6035 -0.1202  0.7539
 1219SOL    HW115290   0.217   4.366   7.664  1.0656  0.2184 -0.6709
 1219SOL    HW215291   0.353   4.359   7.684 -2.2957 -0.9030 -1.3821
 1220SOL     OW15292   2.103   3.091   6.498  0.0957  0.1890 -0.3209
 1220SOL    HW115293   2.043   3.109   6.570 -0.3160  1.9579 -1.0970
 1220SOL    HW215294   2.121   3.000   6.519 -2.8508 -0.0752  1.0715
 1221SOL     OW15295   0.200   3.855  16.001 -0.4402  0.0962  0.5563
 1221SOL    HW115296   0.190   3.946  15.973  0.5370  0.3936  1.1577
 1221SOL    HW215297   0.177   3.797  15.929 -0.1726  0.0873  0.4778
 1222SOL     OW15298   1.158   1.756   4.272 -0.0804  0.6422  0.6314
 1222SOL    HW115299   1.241   1.760   4.319  0.9524 -0.6290 -1.0524
 1222SOL    HW215300   1.142   1.663   4.288 -1.0161  0.8340  0.8287
 1223SOL     OW15301   3.578   4.298  13.501  0.2351 -0.3311 -0.4436
 1223SOL    HW115302   3.631   4.336  13.431 -2.5124  0.9345 -1.8091
 1223SOL    HW215303   3.612   4.208  13.501  0.2552 -0.3264  3.5162
 1224SOL     OW15304   2.349   1.606   7.648  0.6322 -0.2067 -0.2508
 1224SOL    HW115305   2.386   1.607   7.560  1.5563 -1.0506  0.1258
 1224SOL    HW215306   2.348   1.511   7.662  0.3362  0.0109  1.2309
 1225SOL     OW15307   3.334   2.812   8.214  0.2318 -0.1907 -0.1809
 1225SOL    HW115308   3.288   2.864   8.148  1.1843 -0.7973 -1.3314
 1225SOL    HW215309   3.401   2.875   8.239  1.3369 -0.8268 -1.5219
 1226SOL     OW15310   1.928   0.372   4.123  0.4067 -0.2305 -0.1667
 1226SOL    HW115311   1.950   0.283   4.095 -0.2795 -0.4255 -0.0821
 1226SOL    HW215312   1.922   0.419   4.040 -0.2799  1.4478  0.8217
 1227SOL     OW15313   2.482   3.305   6.401 -0.1276 -0.0325  0.3883
 1227SOL    HW115314   2.519   3.390   6.424  2.9142 -0.4313 -2.9318
 1227SOL    HW215315   2.551   3.286   6.337 -0.0493  0.5954  0.2840
 1228SOL     OW15316   4.011   0.411   8.526 -0.5852 -0.5915 -0.2529
 1228SOL    HW115317   3.944   0.398   8.460 -0.3196 -0.7734 -0.4881
 1228SOL    HW215318   4.086   0.377   8.477  0.9272  1.1002  0.8382
 1229SOL     OW15319   1.946   3.664   8.113 -0.1650  0.3175  0.0514
 1229SOL    HW115320   1.892   3.680   8.191  0.5187  0.5728  0.4759
 1229SOL    HW215321   2.034   3.688   8.144  0.7098 -2.3739 -0.3690
 1230SOL     OW15322   2.214   1.063   2.857  0.3567  0.1674 -0.0003
 1230SOL    HW115323   2.223   1.124   2.784 -0.3746  0.9945  0.5988
 1230SOL    HW215324   2.287   1.093   2.911  0.3148  2.1422 -1.0657
 1231SOL     OW15325   2.664   3.483  17.347  0.5319  0.0853  0.0377
 1231SOL    HW115326   2.753   3.473  17.380  0.8576  0.6769 -0.6556
 1231SOL    HW215327   2.671   3.542  17.272  1.7392  1.4642  1.2430
 1232SOL     OW15328   1.574   3.042   0.573  0.0524  0.5437 -0.0560
 1232SOL    HW115329   1.538   2.967   0.526 -0.1357  1.0535 -0.7067
 1232SOL    HW215330   1.614   2.997   0.648 -1.7775 -0.9005  0.0479
 1233SOL     OW15331   3.054   4.546   9.431 -0.3155 -0.0252 -0.3506
 1233SOL    HW115332   2.969   4.590   9.443  1.2167  2.6490  0.8186
 1233SOL    HW215333   3.032   4.455   9.449  0.5653 -0.1138  0.2798
 1234SOL     OW15334   4.292   4.266  13.917  0.2553 -0.0310 -1.0684
 1234SOL    HW115335   4.359   4.335  13.913  0.2751 -0.0740 -1.4293
 1234SOL    HW215336   4.236   4.302  13.986 -1.1922 -2.6330 -0.9015
 1235SOL     OW15337   0.023   0.246   2.380  0.4336  0.5269  0.6472
 1235SOL    HW115338   4.693   0.302   2.336 -1.5590 -0.8202  1.7878
 1235SOL    HW215339   4.704   0.167   2.367  0.6874  0.2200  1.4862
 1236SOL     OW15340   4.610   2.934   1.844 -0.2059  0.1222 -0.4272
 1236SOL    HW115341   4.661   2.858   1.872  0.6152  2.0828  3.2776
 1236SOL    HW215342   4.534   2.893   1.801  0.5694 -1.7395 -0.0176
 1237SOL     OW15343   2.927   3.895   8.859 -0.8433 -0.2040 -0.0526
 1237SOL    HW115344   2.961   3.897   8.948 -1.6081 -3.8536  0.3005
 1237SOL    HW215345   2.837   3.869   8.876 -0.6302  0.0975  1.4903
 1238SOL     OW15346   1.031   0.086  17.234 -0.0744 -0.2288  0.4860
 1238SOL    HW115347   0.983   0.007  17.259  0.8126 -1.2176 -0.8755
 1238SOL    HW215348   0.980   0.150  17.282  1.2520 -1.2473  3.2434
 1239SOL     OW15349   2.394   1.687   4.599  0.0416  0.1383 -0.7218
 1239SOL    HW115350   2.337   1.722   4.668 -1.3371  0.2766 -1.9403
 1239SOL    HW215351   2.480   1.716   4.630 -0.4260 -1.1817  1.8309
 1240SOL     OW15352   4.287   4.577   4.002 -0.4805  0.2129 -0.8309
 1240SOL    HW115353   4.285   4.573   4.098  1.3344  1.5050 -0.7500
 1240SOL    HW215354   4.207   4.629   3.989 -0.2024  0.3953 -1.7798
 1241SOL     OW15355   1.695   1.726   7.418  0.4990 -0.0433  0.0533
 1241SOL    HW115356   1.774   1.672   7.427  1.0535  0.7084 -0.3864
 1241SOL    HW215357   1.723   1.776   7.341  1.3767 -1.3259 -0.4672
 1242SOL     OW15358   3.522   1.537   8.732  0.0884  0.3211  0.7218
 1242SOL    HW115359   3.594   1.512   8.674 -2.7783 -1.6028 -2.0577
 1242SOL    HW215360   3.556   1.507   8.816  2.5028  2.3261  0.4543
 1243SOL     OW15361   1.638   2.214   4.922  0.6695 -0.3329  0.2168
 1243SOL    HW115362   1.598   2.259   4.848  0.7301  1.3647  1.2071
 1243SOL    HW215363   1.701   2.283   4.940  0.3416  0.4256 -1.5772
 1244SOL     OW15364   1.355   3.941   2.015  0.3721 -0.0203  0.4034
 1244SOL    HW115365   1.378   3.852   1.988 -0.1640 -0.4235  1.2750
 1244SOL    HW215366   1.270   3.919   2.052 -0.1314 -0.4556 -1.0121
 1245SOL     OW15367   2.516   1.933  12.265  0.7896 -0.7535 -0.9672
 1245SOL    HW115368   2.463   1.992  12.211 -0.9338  0.1779  1.7051
 1245SOL    HW215369   2.602   1.924  12.224  0.7945  0.5801 -1.2495
 1246SOL     OW15370   1.048   1.895   9.689 -0.0683  0.5613  0.2501
 1246SOL    HW115371   1.028   1.873   9.780  0.1276 -0.6091  0.0137
 1246SOL    HW215372   1.078   1.986   9.690  3.1541 -0.4979  1.5232
 1247SOL     OW15373   3.959   2.758   5.117 -0.7728  0.1268  0.3583
 1247SOL    HW115374   3.902   2.696   5.162  1.0574 -0.9505  1.1985
 1247SOL    HW215375   3.999   2.803   5.191 -2.8814  1.3046  0.7673
 1248SOL     OW15376   2.153   1.417   8.816 -0.3117  0.1526 -0.1705
 1248SOL    HW115377   2.111   1.355   8.757  0.6623 -3.7595  3.2807
 1248SOL    HW215378   2.237   1.375   8.829 -0.7691 -0.4187  0.9262
 1249SOL     OW15379   1.096   1.884   2.110  0.5562  0.5490 -0.2208
 1249SOL    HW115380   1.084   1.882   2.015 -0.9099 -2.1223  0.0212
 1249SOL    HW215381   1.151   1.806   2.110 -0.1006  0.0884 -1.6145
 1250SOL     OW15382   2.984   2.175   7.085  1.0385  0.6545  0.0531
 1250SOL    HW115383   3.012   2.261   7.054  2.3236  0.6923  1.3311
 1250SOL    HW215384   3.038   2.113   7.036  1.6620  0.8212  0.5375
 1251SOL     OW15385   1.643   1.168  10.823  0.0357 -0.3067  0.2034
 1251SOL    HW115386   1.667   1.249  10.868  0.6435  0.5432 -1.6247
 1251SOL    HW215387   1.705   1.174  10.750  0.8456  2.0797  1.0974
 1252SOL     OW15388   2.805   3.125   2.684 -0.0110  0.2451 -0.4562
 1252SOL    HW115389   2.855   3.166   2.614 -0.3321 -2.6094 -2.3425
 1252SOL    HW215390   2.754   3.202   2.711 -1.6245 -1.5424  1.6322
 1253SOL     OW15391   3.631   3.098   5.398 -0.1754 -0.0097  0.1705
 1253SOL    HW115392   3.623   3.008   5.365 -2.3604 -0.0369  0.7785
 1253SOL    HW215393   3.556   3.100   5.457  0.6105  1.2020  1.0990
 1254SOL     OW15394   0.030   1.113  16.181  0.4204  0.3496  0.7888
 1254SOL    HW115395   0.001   1.168  16.108  1.0779  0.0135  0.2743
 1254SOL    HW215396   4.690   1.123  16.240  0.0978 -1.3552  0.6690
 1255SOL     OW15397   3.295   0.713   8.903  0.2664 -0.1040 -0.2113
 1255SOL    HW115398   3.301   0.654   8.828 -0.4594 -1.5396  0.8660
 1255SOL    HW215399   3.266   0.656   8.975  1.0164  1.3361  1.2428
 1256SOL     OW15400   3.381   1.931  13.336 -0.2496  0.0372 -0.2179
 1256SOL    HW115401   3.300   1.900  13.296 -1.9380 -1.4125  4.2247
 1256SOL    HW215402   3.357   2.023  13.332 -0.3685  0.0800  1.2338
 1257SOL     OW15403   1.487   4.368  17.197 -0.0840 -0.3139  0.3045
 1257SOL    HW115404   1.574   4.331  17.205  1.2333  2.1227 -2.7854
 1257SOL    HW215405   1.454   4.358  17.107 -1.4474  2.2874  0.4770
 1258SOL     OW15406   1.043   0.054  14.356  0.1317 -0.4481 -0.5262
 1258SOL    HW115407   0.958   0.059  14.313  0.2857  1.4129 -0.6538
 1258SOL    HW215408   1.036   4.706  14.404 -0.8725 -0.0477  0.0122
 1259SOL     OW15409   4.028   2.165  12.091 -1.0058  0.6947  0.1665
 1259SOL    HW115410   3.974   2.110  12.147  1.9477 -1.9892  0.3498
 1259SOL    HW215411   4.098   2.171  12.155  0.3497  1.4714 -1.3942
 1260SOL     OW15412   0.958   2.828  11.539  0.5604 -0.1425 -0.0549
 1260SOL    HW115413   0.895   2.869  11.598  0.9132 -2.3011  1.8413
 1260SOL    HW215414   1.039   2.877  11.551 -0.6704  2.3472 -2.1556
 1261SOL     OW15415   1.544   0.135   3.128  0.5357 -0.0894 -0.1507
 1261SOL    HW115416   1.519   0.129   3.036 -1.7211  1.1725  0.3821
 1261SOL    HW215417   1.486   0.201   3.166  0.8977 -0.3773  0.9186
 1262SOL     OW15418   0.134   2.484   7.956 -0.7867  0.2655  0.2606
 1262SOL    HW115419   0.159   2.576   7.956  1.3681 -0.3169 -2.5484
 1262SOL    HW215420   0.214   2.439   7.929  0.1716  0.5756  2.6506
 1263SOL     OW15421   4.032   2.008   4.001  0.1384  0.4977  0.5938
 1263SOL    HW115422   4.050   2.060   3.922 -0.3211  0.3242  0.3767
 1263SOL    HW215423   3.959   2.062   4.030  1.7316  2.7676  0.3980
 1264SOL     OW15424   0.683   0.267   8.629  0.5026  0.2192 -0.0846
 1264SOL    HW115425   0.693   0.362   8.638  1.6445 -0.1251  2.2498
 1264SOL    HW215426   0.588   0.270   8.639  0.3704 -1.1945 -0.9790
 1265SOL     OW15427   2.190   0.657  13.900  0.4342 -0.2511 -0.0884
 1265SOL    HW115428   2.178   0.625  13.810 -1.1111  0.7681 -0.2393
 1265SOL    HW215429   2.148   0.586  13.948 -0.9474  1.4183  1.1571
 1266SOL     OW15430   2.307   2.977   9.255 -0.8752 -0.3341 -0.0200
 1266SOL    HW115431   2.346   2.890   9.249  0.6251  0.3194  0.3462
 1266SOL    HW215432   2.318   3.006   9.165  2.4249 -2.3041 -0.2438
 1267SOL     OW15433   3.392   2.966  14.888  0.0320 -0.2827  0.5286
 1267SOL    HW115434   3.435   3.039  14.844  0.5927 -1.5407 -1.0318
 1267SOL    HW215435   3.464   2.956  14.950 -0.1568  0.7446  0.9114
 1268SOL     OW15436   1.195   4.220   4.716 -0.0784  0.0672  0.5465
 1268SOL    HW115437   1.266   4.268   4.674 -0.7660  1.8772  1.4415
 1268SOL    HW215438   1.126   4.230   4.652  0.5982 -0.5431 -0.2756
 1269SOL     OW15439   1.199   2.097   6.243 -0.0280 -0.4094 -0.1824
 1269SOL    HW115440   1.205   2.162   6.173 -1.8940  0.3339  0.3448
 1269SOL    HW215441   1.104   2.098   6.256 -0.0729 -1.4912 -0.4038
 1270SOL     OW15442   1.078   0.171   6.318  0.0582 -0.5528  0.2335
 1270SOL    HW115443   1.135   0.196   6.391  0.6532 -1.5682  0.1131
 1270SOL    HW215444   1.067   0.078   6.337  0.6302 -0.5580  0.5406
 1271SOL     OW15445   2.539   1.896  14.437  0.1645 -0.4418 -0.3693
 1271SOL    HW115446   2.509   1.854  14.357  2.5040 -1.9019 -0.4954
 1271SOL    HW215447   2.594   1.829  14.478 -3.0506 -1.2458  2.5806
 1272SOL     OW15448   0.342   2.311   7.895  0.4369  0.3806  0.2969
 1272SOL    HW115449   0.294   2.241   7.850  1.4084  0.9810 -1.6540
 1272SOL    HW215450   0.386   2.270   7.970 -0.1541  0.6484  0.7968
 1273SOL     OW15451   3.904   0.167   2.541  0.4393 -0.1411 -0.1680
 1273SOL    HW115452   3.990   0.140   2.509  1.4171  2.3379  0.3698
 1273SOL    HW215453   3.854   0.157   2.460 -0.7622 -1.6702  0.7528
 1274SOL     OW15454   0.472   3.537   1.254 -0.3478 -0.4337  0.3626
 1274SOL    HW115455   0.500   3.609   1.311  1.4565 -1.0202  0.2106
 1274SOL    HW215456   0.458   3.583   1.171  0.8818  0.7032  0.7709
 1275SOL     OW15457   2.783   1.989   5.571  0.3811  0.8731  0.0249
 1275SOL    HW115458   2.878   1.982   5.569  0.4395  1.3907  0.9927
 1275SOL    HW215459   2.755   1.906   5.610 -0.1262  1.4603  0.9094
 1276SOL     OW15460   3.946   4.460   5.663  0.2235  0.2629  0.0479
 1276SOL    HW115461   3.936   4.385   5.605 -0.1640  1.4500 -1.4183
 1276SOL    HW215462   3.929   4.535   5.606  2.6738  2.1241  1.7480
 1277SOL     OW15463   0.129   4.385   1.596 -0.1281  0.0368 -0.4811
 1277SOL    HW115464   0.106   4.477   1.608  0.1918 -0.2781  2.4052
 1277SOL    HW215465   0.205   4.392   1.538  0.4809 -1.1624  0.1740
 1278SOL     OW15466   2.451   1.414   8.857  0.3939 -0.0647  0.0208
 1278SOL    HW115467   2.478   1.353   8.788  2.5328 -0.5997  1.3057
 1278SOL    HW215468   2.479   1.497   8.818  0.1404  0.0644  0.1169
 1279SOL     OW15469   2.853   2.196   5.057  0.2050  0.2624  0.2767
 1279SOL    HW115470   2.764   2.221   5.033  0.4169  2.6440  1.9739
 1279SOL    HW215471   2.864   2.218   5.150 -0.0157  0.9949  0.1260
 1280SOL     OW15472   4.081   4.173   8.670  0.1100  0.5023  0.1557
 1280SOL    HW115473   4.001   4.145   8.712 -0.3902 -2.1825 -2.5722
 1280SOL    HW215474   4.139   4.187   8.745  0.3188  1.6093 -0.2033
 1281SOL     OW15475   2.765   0.641  10.225 -0.2848  0.0646 -0.3529
 1281SOL    HW115476   2.743   0.554  10.259 -1.9713 -0.0471 -1.7510
 1281SOL    HW215477   2.743   0.636  10.132  0.0074  0.4378 -0.4403
 1282SOL     OW15478   3.286   4.361  10.630  0.1384 -0.5585  0.2617
 1282SOL    HW115479   3.284   4.404  10.715 -2.0619  1.0839 -0.6196
 1282SOL    HW215480   3.347   4.294  10.661  0.2760 -1.2104 -1.4124
 1283SOL     OW15481   1.745   2.427   2.452 -0.1363 -0.1793 -0.7910
 1283SOL    HW115482   1.768   2.476   2.531 -0.1514 -1.7476  0.1844
 1283SOL    HW215483   1.688   2.360   2.489  1.1213 -1.0976 -0.5245
 1284SOL     OW15484   1.244   0.459   8.309 -0.4920 -0.2884  0.3275
 1284SOL    HW115485   1.318   0.505   8.349 -1.2751  1.7327 -0.5546
 1284SOL    HW215486   1.194   0.535   8.281 -0.5995  0.2525  1.9814
 1285SOL     OW15487   4.235   0.849   5.593 -0.0463  0.7466 -0.0941
 1285SOL    HW115488   4.310   0.865   5.535  0.4396 -1.2217 -0.0034
 1285SOL    HW215489   4.178   0.906   5.542 -2.3503 -0.3417  1.3001
 1286SOL     OW15490   0.688   1.453   3.345 -0.2410 -0.3913 -0.7951
 1286SOL    HW115491   0.626   1.516   3.308 -1.0831 -1.3832 -1.0784
 1286SOL    HW215492   0.657   1.455   3.435 -4.3276  0.4607 -2.2090
 1287SOL     OW15493   3.475   2.604  14.318  0.4105 -0.1136  0.4102
 1287SOL    HW115494   3.399   2.608  14.376 -0.6460  2.3827 -1.1464
 1287SOL    HW215495   3.523   2.680  14.349 -1.8457  0.0775  3.4014
 1288SOL     OW15496   2.114   4.640   7.150 -0.3834 -0.6541 -0.0673
 1288SOL    HW115497   2.187   4.663   7.093  0.5730 -1.0750  0.9925
 1288SOL    HW215498   2.048   4.610   7.087 -0.1187  2.5084 -1.8472
 1289SOL     OW15499   1.173   2.562   8.152 -0.0759  0.2061 -0.0610
 1289SOL    HW115500   1.251   2.523   8.112 -0.3060  0.3088 -0.6215
 1289SOL    HW215501   1.199   2.647   8.186  0.0181 -0.4337  1.4493
 1290SOL     OW15502   1.745   3.300   5.557 -0.3014 -0.2925 -0.0094
 1290SOL    HW115503   1.780   3.211   5.560 -0.8929 -0.5867 -1.7621
 1290SOL    HW215504   1.825   3.352   5.562 -1.1107  0.6909  2.5718
 1291SOL     OW15505   1.578   2.632  12.698 -0.1496  0.3311  0.5190
 1291SOL    HW115506   1.536   2.575  12.762  2.4895 -0.2088  1.7368
 1291SOL    HW215507   1.634   2.570  12.652 -1.4973 -1.2828  1.0725
 1292SOL     OW15508   1.429   2.803   6.538  0.2473  0.2241 -0.2999
 1292SOL    HW115509   1.435   2.797   6.442  1.3759  0.0717 -0.2173
 1292SOL    HW215510   1.514   2.844   6.553 -0.8436  2.1949  0.4801
 1293SOL     OW15511   2.913   0.343   3.311  0.0724 -0.5674 -0.5284
 1293SOL    HW115512   3.006   0.333   3.333  0.2027  0.6970 -0.4834
 1293SOL    HW215513   2.893   0.250   3.301 -0.6453 -0.3391 -1.2112
 1294SOL     OW15514   2.785   0.831   2.674  0.2838 -0.1936 -0.0012
 1294SOL    HW115515   2.873   0.793   2.664 -0.3092 -1.1651 -1.4485
 1294SOL    HW215516   2.797   0.882   2.754 -1.8092 -0.1134  0.2482
 1295SOL     OW15517   3.081   4.150  14.286 -0.0106 -0.1037 -0.1007
 1295SOL    HW115518   3.129   4.068  14.277  0.9061  0.3235  0.7398
 1295SOL    HW215519   3.003   4.122  14.238  0.1008 -1.8206  0.7214
 1296SOL     OW15520   0.624   2.312   9.142  0.0396  0.7039 -0.0758
 1296SOL    HW115521   0.690   2.244   9.127  0.2998  1.0590 -0.5593
 1296SOL    HW215522   0.675   2.392   9.146  0.3898  0.4903 -0.2048
 1297SOL     OW15523   0.051   2.072   6.339 -0.3194  0.2001 -0.1481
 1297SOL    HW115524   0.136   2.029   6.329 -0.2271  0.3566 -0.0422
 1297SOL    HW215525   0.078   2.162   6.319  1.2336  0.0665  1.3443
 1298SOL     OW15526   0.049   3.680   7.651 -0.6950 -0.4062  0.4364
 1298SOL    HW115527   4.692   3.667   7.624 -0.6778 -0.6128  0.4745
 1298SOL    HW215528   0.039   3.678   7.746 -0.6521  0.3811  0.4606
 1299SOL     OW15529   0.492   3.568   0.126  0.0713 -0.1738  0.4576
 1299SOL    HW115530   0.451   3.486   0.099  1.6011 -0.0817 -2.1144
 1299SOL    HW215531   0.531   3.582   0.040  0.5508  2.1206  1.0545
 1300SOL     OW15532   3.248   2.346  16.721 -0.5431  0.4540 -0.4166
 1300SOL    HW115533   3.309   2.409  16.681  2.8032 -1.8597  1.0654
 1300SOL    HW215534   3.179   2.406  16.750 -0.4410  0.8821 -1.0617
 1301SOL     OW15535   2.600   0.464   6.192 -0.0411  0.3578 -0.8903
 1301SOL    HW115536   2.554   0.415   6.260  0.8713  1.1335  0.2953
 1301SOL    HW215537   2.616   0.552   6.228 -1.6323  0.6719 -0.9808
 1302SOL     OW15538   0.973   1.695   7.890  0.4019 -0.1729 -0.4719
 1302SOL    HW115539   0.932   1.759   7.831 -0.8040  0.5234  1.1014
 1302SOL    HW215540   0.917   1.698   7.968 -1.3274 -3.4843 -1.6183
 1303SOL     OW15541   3.044   3.999   6.011  0.1655  0.2741 -0.2294
 1303SOL    HW115542   2.980   3.980   6.081 -1.3589 -0.6549 -1.8804
 1303SOL    HW215543   3.032   3.924   5.954 -0.8730 -0.4129  0.8907
 1304SOL     OW15544   3.719   4.301   8.719 -0.4676  0.1783 -0.2438
 1304SOL    HW115545   3.741   4.343   8.802  1.0625 -0.4605 -0.3221
 1304SOL    HW215546   3.697   4.375   8.663  4.2773  2.5925  1.1040
 1305SOL     OW15547   1.800   0.021   2.812 -0.5204  1.1470  0.0205
 1305SOL    HW115548   1.742   4.730   2.740 -2.6506  0.0293  2.1711
 1305SOL    HW215549   1.829   0.108   2.782  0.8409  0.4685 -0.6615
 1306SOL     OW15550   0.062   2.581   1.272  0.4127 -0.5107 -0.2204
 1306SOL    HW115551   0.099   2.662   1.235  0.8041 -0.1575  0.9281
 1306SOL    HW215552   0.021   2.616   1.351  0.4993 -0.3315 -0.2537
 1307SOL     OW15553   0.157   3.126   4.524  0.0956  0.0413  0.7891
 1307SOL    HW115554   0.170   3.216   4.555  0.7800  0.1370  0.2311
 1307SOL    HW215555   0.152   3.145   4.430 -0.8189 -1.7001  0.4847
 1308SOL     OW15556   1.131   3.134   7.156  0.8894  0.1448 -0.1182
 1308SOL    HW115557   1.202   3.127   7.092 -2.2302 -0.3290 -3.5981
 1308SOL    HW215558   1.113   3.046   7.191  1.2262  0.2627  0.3400
 1309SOL     OW15559   4.524   3.724  13.369 -0.2250  0.7103 -0.2669
 1309SOL    HW115560   4.550   3.711  13.278 -0.8135  1.2333 -0.5132
 1309SOL    HW215561   4.580   3.796  13.399  0.5492 -0.2454  0.5848
 1310SOL     OW15562   2.139   2.124   2.541 -0.6845 -0.2052  0.4622
 1310SOL    HW115563   2.122   2.127   2.447 -1.0357  1.0914  0.5630
 1310SOL    HW215564   2.103   2.205   2.579  0.4156  0.2221  0.6080
 1311SOL     OW15565   3.037   4.580   0.028 -0.2136  0.3174  0.4050
 1311SOL    HW115566   3.121   4.539   0.050  0.0976  0.3216 -0.7427
 1311SOL    HW215567   3.055   4.668  17.733 -2.1467 -0.0179 -1.6307
 1312SOL     OW15568   2.244   2.916   8.368  0.2784  0.2936 -0.5133
 1312SOL    HW115569   2.224   2.981   8.435 -0.5144 -0.0494 -0.4140
 1312SOL    HW215570   2.152   2.903   8.344  0.0642 -0.9603  1.0292
 1313SOL     OW15571   0.953   1.052   8.438 -0.0590  0.1396  0.5280
 1313SOL    HW115572   0.903   0.999   8.499  1.2019 -1.8284 -0.1668
 1313SOL    HW215573   1.034   1.002   8.426  0.9341  2.1001 -0.9800
 1314SOL     OW15574   2.994   2.800   9.306 -0.7651 -0.3122 -0.2550
 1314SOL    HW115575   3.011   2.885   9.265  0.4554 -0.5547 -0.2625
 1314SOL    HW215576   2.978   2.835   9.394  1.1200  0.5578 -0.2540
 1315SOL     OW15577   4.144   0.840  12.845 -0.2120 -0.5084 -0.2627
 1315SOL    HW115578   4.112   0.796  12.766 -0.2744 -1.3956  0.2573
 1315SOL    HW215579   4.113   0.927  12.822  4.1368  1.0469 -0.1646
 1316SOL     OW15580   2.317   4.364  11.602  0.3234 -0.1054  0.8659
 1316SOL    HW115581   2.227   4.333  11.587  0.7272  0.3835 -2.4273
 1316SOL    HW215582   2.327   4.320  11.686 -1.5106 -0.0044  1.1502
 1317SOL     OW15583   2.032   1.533   9.032  0.2752  0.2496 -0.2047
 1317SOL    HW115584   2.102   1.492   9.082  1.1037  0.2507 -1.3644
 1317SOL    HW215585   2.053   1.502   8.944  1.1448 -2.4658  0.9408
 1318SOL     OW15586   2.280   0.759   4.126  0.0505  0.4250  0.1646
 1318SOL    HW115587   2.368   0.724   4.122 -0.5073 -0.8286 -1.2898
 1318SOL    HW215588   2.298   0.806   4.208  0.7786 -0.7531  0.6734
 1319SOL     OW15589   1.942   1.831   8.193  0.2535  0.7240  0.1147
 1319SOL    HW115590   1.867   1.781   8.163 -0.6631  1.4060  1.2992
 1319SOL    HW215591   1.940   1.814   8.287  2.9769  1.2897  0.2989
 1320SOL     OW15592   3.243   0.813  14.367 -0.1818  0.3014 -0.2133
 1320SOL    HW115593   3.194   0.818  14.448  1.5226 -0.8326  0.8930
 1320SOL    HW215594   3.265   0.720  14.359 -0.2223  0.3688 -1.1945
 1321SOL     OW15595   1.754   3.023   6.032  0.1517 -0.2275  0.0801
 1321SOL    HW115596   1.808   2.994   6.106 -0.2269 -0.6206  0.2079
 1321SOL    HW215597   1.732   3.111   6.063 -1.8339 -0.0231 -1.9686
 1322SOL     OW15598   2.971   4.350   8.899  0.2609  0.3701  0.3539
 1322SOL    HW115599   2.907   4.407   8.942 -0.7189 -0.5380  0.0644
 1322SOL    HW215600   2.957   4.378   8.809  1.0234 -1.5051 -0.3499
 1323SOL     OW15601   0.772   4.338  17.366 -0.1990  0.1274  0.8894
 1323SOL    HW115602   0.690   4.387  17.355 -1.1656 -1.2899  1.7776
 1323SOL    HW215603   0.789   4.314  17.275 -1.1176  0.4997  0.6181
 1324SOL     OW15604   0.429   2.718   1.022  0.2516 -0.1181 -0.3944
 1324SOL    HW115605   0.408   2.676   0.939 -0.3880 -0.3268 -0.1232
 1324SOL    HW215606   0.343   2.755   1.042  0.3370  0.6783 -1.4517
 1325SOL     OW15607   0.438   3.078   5.569 -0.3881 -0.3576  0.3483
 1325SOL    HW115608   0.359   3.125   5.542  0.9115  0.6635 -1.7597
 1325SOL    HW215609   0.441   3.096   5.663  2.0196 -0.2660  0.2521
 1326SOL     OW15610   4.360   0.052   7.533  0.2856  0.1853  0.1986
 1326SOL    HW115611   4.280   0.101   7.513  1.5555  2.2071  0.0160
 1326SOL    HW215612   4.340   4.694   7.523  0.9284  0.2654 -1.7297
 1327SOL     OW15613   1.298   2.093  14.799 -0.1591  0.7533 -0.4313
 1327SOL    HW115614   1.212   2.056  14.818  0.1145  0.5508  0.4301
 1327SOL    HW215615   1.315   2.065  14.709  0.7885  0.4615 -0.1643
 1328SOL     OW15616   3.566   2.332   8.845  0.0170 -0.2594  0.5439
 1328SOL    HW115617   3.480   2.365   8.872  0.6119  0.6485  1.2838
 1328SOL    HW215618   3.595   2.387   8.772 -1.0995  0.2627  0.4975
 1329SOL     OW15619   2.713   3.566   4.663 -0.2492 -0.2213 -0.3576
 1329SOL    HW115620   2.700   3.511   4.585 -1.3164 -0.7581  0.1871
 1329SOL    HW215621   2.628   3.540   4.700  0.4273 -1.1159  0.5507
 1330SOL     OW15622   0.085   0.932  15.918 -0.1638 -0.6472  0.0326
 1330SOL    HW115623   0.055   1.019  15.892  2.5742  0.0881 -0.6607
 1330SOL    HW215624   0.010   0.922  15.975  0.2858 -2.2675  0.3363
 1331SOL     OW15625   4.527   1.291   6.341 -1.0481  0.2628 -0.3142
 1331SOL    HW115626   4.500   1.311   6.430 -2.9563 -0.0996 -0.8083
 1331SOL    HW215627   4.604   1.348   6.342 -0.1097 -1.0196 -0.4594
 1332SOL     OW15628   3.640   0.081   4.374  1.0920  0.1828 -0.2002
 1332SOL    HW115629   3.601   0.148   4.429 -0.2841  2.2723 -3.6835
 1332SOL    HW215630   3.566   0.052   4.321  0.2437  1.9033  0.0337
 1333SOL     OW15631   0.987   3.340   1.856  0.5621 -0.2326 -0.0528
 1333SOL    HW115632   0.949   3.341   1.769 -2.2465 -0.1884  1.1689
 1333SOL    HW215633   1.004   3.246   1.859  2.6481  0.1511  0.0077
 1334SOL     OW15634   1.395   2.128   0.428  0.2421 -0.0953  0.0488
 1334SOL    HW115635   1.350   2.127   0.513  1.3457  1.2929  0.6458
 1334SOL    HW215636   1.329   2.158   0.367  0.2953 -1.0374 -0.4796
 1335SOL     OW15637   1.495   4.554   5.733 -0.4193  0.4426 -0.4438
 1335SOL    HW115638   1.584   4.579   5.756 -0.2453 -1.1984  0.6470
 1335SOL    HW215639   1.453   4.640   5.732 -0.6482  0.3343 -0.3144
 1336SOL     OW15640   1.048   4.412  10.404 -0.0470 -0.1544  0.2469
 1336SOL    HW115641   1.041   4.347  10.334  2.4812  1.1740 -1.2299
 1336SOL    HW215642   0.994   4.379  10.475 -0.9676 -0.3289 -0.5248
 1337SOL     OW15643   2.017   0.886   7.429 -0.1638  0.1948 -0.6392
 1337SOL    HW115644   1.971   0.843   7.501  0.7526  1.1937  0.5514
 1337SOL    HW215645   1.992   0.977   7.446 -1.0741 -0.2741  0.6016
 1338SOL     OW15646   0.422   3.374   4.752 -0.0682 -0.2014  0.0319
 1338SOL    HW115647   0.511   3.342   4.768  0.5558  2.0258  1.0811
 1338SOL    HW215648   0.370   3.296   4.773 -1.3364  0.3571 -1.0169
 1339SOL     OW15649   4.114   2.104   1.479  0.0945  0.0964 -0.7220
 1339SOL    HW115650   4.182   2.044   1.510  0.8889  0.6336 -1.4194
 1339SOL    HW215651   4.046   2.086   1.544  0.3827  0.0860 -0.4192
 1340SOL     OW15652   2.506   3.159  16.954 -0.0535  0.5345 -0.2508
 1340SOL    HW115653   2.468   3.126  17.036  1.3700 -2.0449 -0.6395
 1340SOL    HW215654   2.541   3.243  16.985 -1.7484  0.8121  0.9110
 1341SOL     OW15655   1.009   4.117   7.103 -0.3350  0.3676  0.1539
 1341SOL    HW115656   1.018   4.024   7.083 -1.8011  0.2529  0.0180
 1341SOL    HW215657   0.949   4.111   7.178 -1.7471 -0.0767 -1.0193
 1342SOL     OW15658   1.310   1.252   3.909 -0.7163 -0.4962 -0.0549
 1342SOL    HW115659   1.313   1.215   3.821 -2.6933 -0.1582 -0.2674
 1342SOL    HW215660   1.380   1.316   3.901 -1.5371  0.0358 -3.3296
 1343SOL     OW15661   4.204   1.277  15.385 -0.1656 -0.1911 -0.1318
 1343SOL    HW115662   4.140   1.347  15.384 -0.7598 -0.7018  2.4926
 1343SOL    HW215663   4.182   1.248  15.297  1.6881  1.6654 -1.2029
 1344SOL     OW15664   0.649   0.547   5.295 -0.2317 -0.4049  0.5265
 1344SOL    HW115665   0.560   0.536   5.261 -0.0441 -0.9006  0.1912
 1344SOL    HW215666   0.662   0.452   5.293 -1.6583 -0.6129  0.8717
 1345SOL     OW15667   0.882   1.943   4.896 -0.2272  0.4409 -0.2314
 1345SOL    HW115668   0.787   1.932   4.902 -0.0619 -0.9856 -0.2860
 1345SOL    HW215669   0.908   1.851   4.901  1.0808  0.7643 -1.2314
 1346SOL     OW15670   2.220   0.393  12.637 -0.1505 -0.0503 -0.0261
 1346SOL    HW115671   2.262   0.337  12.572  1.9019  2.1496 -0.6400
 1346SOL    HW215672   2.168   0.440  12.572 -0.7827 -1.8319 -0.7712
 1347SOL     OW15673   3.942   0.454   9.038 -0.1472  0.4683 -0.0406
 1347SOL    HW115674   3.949   0.397   9.115  1.8092  1.4002  0.4620
 1347SOL    HW215675   3.956   0.540   9.078  0.2278  0.4391 -0.1066
 1348SOL     OW15676   2.453   4.060  16.503 -0.7394  0.1536  0.2100
 1348SOL    HW115677   2.383   3.995  16.512  0.0602 -0.6056  0.9114
 1348SOL    HW215678   2.508   4.045  16.580 -0.5638  1.3664  0.3242
 1349SOL     OW15679   0.629   3.413   2.583  0.0924  0.2475  0.0776
 1349SOL    HW115680   0.597   3.417   2.674  1.0176 -1.6600  0.4766
 1349SOL    HW215681   0.586   3.336   2.547  0.6530  0.1083 -0.2924
 1350SOL     OW15682   3.106   3.961  13.737 -0.2203 -0.4072 -0.0166
 1350SOL    HW115683   3.172   3.966  13.806  2.3183 -1.8740 -2.3830
 1350SOL    HW215684   3.120   4.046  13.696 -0.4395 -0.1603  0.4149
 1351SOL     OW15685   0.382   2.009   4.061 -0.0324 -0.2006  0.2913
 1351SOL    HW115686   0.343   1.968   4.138 -3.3081  1.2098 -0.6322
 1351SOL    HW215687   0.475   1.988   4.070 -0.7469 -3.1985  0.6445
 1352SOL     OW15688   1.279   3.681   1.580 -0.1492 -0.7628 -0.0961
 1352SOL    HW115689   1.205   3.737   1.557 -0.7164 -2.8984 -3.4739
 1352SOL    HW215690   1.304   3.646   1.495  1.6812 -1.3595  0.6944
 1353SOL     OW15691   2.424   0.706  14.025  0.0795 -0.5633  0.3029
 1353SOL    HW115692   2.496   0.763  13.997 -1.7719 -0.1371 -3.5323
 1353SOL    HW215693   2.368   0.690  13.950  1.2496  0.8771 -0.8774
 1354SOL     OW15694   1.437   2.442   6.384 -0.1028  0.2888 -0.3286
 1354SOL    HW115695   1.508   2.430   6.321  0.2546 -0.5247  0.2247
 1354SOL    HW215696   1.365   2.474   6.330  0.8499  3.1204  0.0665
 1355SOL     OW15697   0.654   3.557   0.380 -0.1532 -0.2810  0.3863
 1355SOL    HW115698   0.573   3.549   0.329 -1.2399 -0.0300  2.0679
 1355SOL    HW215699   0.660   3.472   0.424 -0.0165  0.2021  1.2900
 1356SOL     OW15700   3.453   0.188   4.064 -0.0283 -0.1533  0.0062
 1356SOL    HW115701   3.412   0.158   4.145  0.4141  0.4812  0.4619
 1356SOL    HW215702   3.508   0.261   4.091 -2.0181  0.9590  1.0350
 1357SOL     OW15703   3.071   2.393   4.390  0.3991 -0.0530 -0.5583
 1357SOL    HW115704   3.142   2.390   4.454 -0.4927  0.8960  0.4660
 1357SOL    HW215705   3.002   2.369   4.452 -1.2063  1.3731 -1.8027
 1358SOL     OW15706   3.810   0.122  13.697  0.6048  0.2644  0.4360
 1358SOL    HW115707   3.730   0.080  13.666  0.6748  0.0685  0.5220
 1358SOL    HW215708   3.852   0.057  13.753 -0.3115  0.8148  1.7485
 1359SOL     OW15709   0.857   2.807   7.333  0.0527 -0.2056  0.1819
 1359SOL    HW115710   0.932   2.791   7.390  0.1228 -1.1362 -0.1717
 1359SOL    HW215711   0.851   2.903   7.340  0.7174  0.0082 -2.0521
 1360SOL     OW15712   2.579   1.289   1.832  0.2185  0.0482 -0.0855
 1360SOL    HW115713   2.549   1.353   1.897  2.5951 -0.6641  1.7332
 1360SOL    HW215714   2.668   1.269   1.862  1.3891  1.2689 -2.7199
 1361SOL     OW15715   0.987   3.690   8.359  0.6594 -0.2742  0.5220
 1361SOL    HW115716   0.894   3.710   8.357  0.8824  0.7341 -0.3017
 1361SOL    HW215717   1.030   3.754   8.302 -1.4596  1.2627  0.6743
 1362SOL     OW15718   1.897   1.198   2.947  0.0046  0.1661 -0.8188
 1362SOL    HW115719   1.936   1.203   3.034 -2.5195  1.8787  0.1838
 1362SOL    HW215720   1.922   1.286   2.919  3.7065 -0.8493 -0.7743
 1363SOL     OW15721   4.290   0.317   9.697  0.4362  0.2937  0.0258
 1363SOL    HW115722   4.276   0.264   9.618  0.9953 -0.4297  0.4096
 1363SOL    HW215723   4.383   0.303   9.716  0.7196  2.2383  0.0316
 1364SOL     OW15724   4.397   3.952  16.680  0.6288  0.1413 -0.2957
 1364SOL    HW115725   4.434   3.909  16.603 -0.8898 -1.1118 -0.3255
 1364SOL    HW215726   4.463   3.932  16.747  0.6434  0.0396 -0.3404
 1365SOL     OW15727   3.460   4.386   4.991  0.3589  0.3687  0.3877
 1365SOL    HW115728   3.441   4.457   5.052  1.4130  0.6279  0.4246
 1365SOL    HW215729   3.481   4.327   5.064 -1.4431 -1.4916 -0.6010
 1366SOL     OW15730   0.366   1.565   4.101  0.7768  0.0595  0.4528
 1366SOL    HW115731   0.380   1.517   4.020 -2.2011  2.0497 -1.2257
 1366SOL    HW215732   0.452   1.608   4.103  0.6477  0.3447 -0.2187
 1367SOL     OW15733   1.345   1.140   3.580  0.1650  0.4171  0.6453
 1367SOL    HW115734   1.422   1.104   3.625  0.1605  0.4732  0.6971
 1367SOL    HW215735   1.339   1.091   3.498 -1.0412 -0.7701  1.4443
 1368SOL     OW15736   4.615   0.843  16.086  0.9570  0.0941  0.6465
 1368SOL    HW115737   4.655   0.842  16.173  1.6102 -2.8035  0.3164
 1368SOL    HW215738   4.527   0.873  16.111  0.4734 -2.0259  1.5463
 1369SOL     OW15739   0.214   4.499   3.437 -0.3554 -0.0560  0.1683
 1369SOL    HW115740   0.287   4.482   3.378 -1.0765  1.7980 -1.2903
 1369SOL    HW215741   0.260   4.540   3.509 -0.1456  0.2067 -0.1154
 1370SOL     OW15742   4.255   0.276   2.423 -0.1467  0.0031 -0.0871
 1370SOL    HW115743   4.257   0.196   2.475 -0.7160 -0.1236 -0.2588
 1370SOL    HW215744   4.305   0.338   2.477  0.6978 -0.9843  0.2575
 1371SOL     OW15745   0.191   3.962   3.056 -0.2837  0.1268 -0.2705
 1371SOL    HW115746   0.187   4.057   3.041 -3.5475  0.5928  3.4753
 1371SOL    HW215747   0.097   3.941   3.055 -0.4239  0.6681  1.3079
 1372SOL     OW15748   1.997   0.544   9.783 -0.0595  0.2518  0.1421
 1372SOL    HW115749   1.964   0.587   9.862 -0.2901 -2.0973  1.3546
 1372SOL    HW215750   2.034   0.464   9.822 -0.7084  0.1334  0.5154
 1373SOL     OW15751   0.956   4.643   9.824  0.1105  0.0178 -0.1553
 1373SOL    HW115752   0.920   4.715   9.772  2.3531  1.3469  0.1231
 1373SOL    HW215753   0.907   4.563   9.806 -1.1976  0.4204  1.6140
 1374SOL     OW15754   2.191   1.945   6.356 -0.1850  0.1224  0.0710
 1374SOL    HW115755   2.184   1.860   6.312  0.1083  0.1914 -0.1005
 1374SOL    HW215756   2.127   1.937   6.428 -0.7450  1.9375 -0.2277
 1375SOL     OW15757   0.007   3.767   4.330 -0.0221  0.2060  0.6002
 1375SOL    HW115758   0.038   3.750   4.241  1.9811 -0.0262  1.3409
 1375SOL    HW215759   4.698   3.848   4.303  0.8277 -0.4404 -2.6554
 1376SOL     OW15760   3.332   1.268   9.310  0.0791  0.1069  0.0582
 1376SOL    HW115761   3.345   1.215   9.389  0.7706  2.6555  1.6683
 1376SOL    HW215762   3.421   1.303   9.308  0.7112 -1.5706 -0.9207
 1377SOL     OW15763   2.119   0.598   3.500 -0.5840 -0.4497  0.3051
 1377SOL    HW115764   2.196   0.642   3.536 -0.1647 -0.2582 -0.8037
 1377SOL    HW215765   2.092   0.667   3.439 -0.1307  0.5073  1.1913
 1378SOL     OW15766   1.555   2.417   5.651 -0.1411  0.5257  0.0772
 1378SOL    HW115767   1.624   2.394   5.713  1.3430  3.5424 -0.4956
 1378SOL    HW215768   1.581   2.504   5.621  1.3912 -1.1799 -3.4694
 1379SOL     OW15769   0.077   3.549   8.644 -0.2680  0.2783  0.3068
 1379SOL    HW115770   4.733   3.542   8.590  1.7379  1.5073 -2.7370
 1379SOL    HW215771   0.106   3.458   8.649 -0.7233  0.1220  0.1385
 1380SOL     OW15772   1.902   0.617   9.124  0.1569  0.0350  0.0446
 1380SOL    HW115773   1.849   0.603   9.045 -0.7830  1.2268  0.4659
 1380SOL    HW215774   1.891   0.541   9.181  0.5325  0.2991  0.4651
 1381SOL     OW15775   0.312   2.371   2.265  0.2618  0.2377  0.3082
 1381SOL    HW115776   0.297   2.465   2.261 -0.3027  0.1840  1.1627
 1381SOL    HW215777   0.234   2.329   2.300  1.0895  0.7445  2.7150
 1382SOL     OW15778   0.914   1.188  15.643  0.2461 -0.1213  0.6175
 1382SOL    HW115779   0.908   1.254  15.712 -2.3069  0.0092  0.2670
 1382SOL    HW215780   0.961   1.130  15.702  1.5474  0.9788  0.6689
 1383SOL     OW15781   4.595   3.275   9.465 -0.1674 -0.2590  0.6731
 1383SOL    HW115782   4.557   3.259   9.378  0.6280  1.3710  0.0083
 1383SOL    HW215783   4.545   3.220   9.525 -0.5075 -0.2012  0.4433
 1384SOL     OW15784   0.911   3.155  15.953 -0.2696  0.0137 -0.3101
 1384SOL    HW115785   0.926   3.239  15.910  0.8578  0.2485  0.5641
 1384SOL    HW215786   0.844   3.191  16.011 -0.1820  0.8325 -0.7188
 1385SOL     OW15787   3.337   0.778   7.980  0.0846 -0.0530  0.4591
 1385SOL    HW115788   3.424   0.770   8.019  1.3951 -1.7017 -2.8540
 1385SOL    HW215789   3.293   0.714   8.037  2.6249  0.0598  2.5368
 1386SOL     OW15790   3.349   4.003   6.539  0.1963  0.3182  0.8701
 1386SOL    HW115791   3.355   4.071   6.472 -0.7944  1.9208  2.4037
 1386SOL    HW215792   3.439   3.977   6.522  0.3689  0.2146  1.9260
 1387SOL     OW15793   1.484   2.102   3.121  0.0720  0.4818  0.1087
 1387SOL    HW115794   1.393   2.128   3.135 -0.3412 -1.0329  0.3011
 1387SOL    HW215795   1.463   2.016   3.084  0.4749  1.0301 -1.3699
 1388SOL     OW15796   1.765   2.059   7.882 -0.1349 -0.1811  0.2297
 1388SOL    HW115797   1.851   2.027   7.912  0.0505 -1.0382 -1.2250
 1388SOL    HW215798   1.776   2.031   7.791 -1.2987 -1.4515  0.4747
 1389SOL     OW15799   3.138   3.949   4.463  0.1167  0.7206  0.3323
 1389SOL    HW115800   3.216   3.908   4.425  0.2956  0.5762  0.8530
 1389SOL    HW215801   3.091   3.980   4.386 -0.1395 -0.1677  0.1284
 1390SOL     OW15802   0.350   3.114  12.816  0.1677 -0.3369  0.2883
 1390SOL    HW115803   0.394   3.102  12.901  2.3718  0.4838 -0.7196
 1390SOL    HW215804   0.315   3.027  12.800 -0.3333 -0.1035  0.1254
 1391SOL     OW15805   2.220   2.555   7.653 -0.1709 -0.3693  0.2449
 1391SOL    HW115806   2.171   2.510   7.721 -2.0157  0.2706 -0.6658
 1391SOL    HW215807   2.236   2.638   7.699  0.6740  0.0343 -0.7652
 1392SOL     OW15808   3.877   4.604  10.621  0.4470  0.3997  0.2109
 1392SOL    HW115809   3.907   4.607  10.712  2.0190 -1.1533 -0.2637
 1392SOL    HW215810   3.783   4.620  10.620  0.5640  1.0948  0.9414
 1393SOL     OW15811   0.083   3.499   6.431  0.6716  0.1800 -0.0347
 1393SOL    HW115812   0.156   3.558   6.412  0.7388 -0.2414 -1.0496
 1393SOL    HW215813   0.044   3.478   6.346  1.4765  0.7433 -0.5363
 1394SOL     OW15814   1.822   3.471   7.024  0.0215 -0.0124 -0.2263
 1394SOL    HW115815   1.918   3.471   7.026  0.0366 -2.3769 -0.5337
 1394SOL    HW215816   1.814   3.440   7.114  2.1541  2.4199  0.8054
 1395SOL     OW15817   1.243   2.467   6.711 -0.1354 -0.0187  0.6196
 1395SOL    HW115818   1.289   2.506   6.637 -1.2360  2.0220  0.9959
 1395SOL    HW215819   1.153   2.501   6.714 -0.6735 -1.4919  0.9486
 1396SOL     OW15820   1.067   2.564   2.954 -0.0330 -0.6561 -0.1725
 1396SOL    HW115821   1.132   2.594   3.016 -0.2463 -1.5653  0.4909
 1396SOL    HW215822   1.051   2.645   2.906 -0.7124 -0.1703  0.8897
 1397SOL     OW15823   2.817   4.690   3.670  0.8608 -0.8890  0.3423
 1397SOL    HW115824   2.780   0.005   3.743 -0.5155 -0.5197 -0.6017
 1397SOL    HW215825   2.751   4.722   3.608  2.4564 -0.8189 -1.3444
 1398SOL     OW15826   4.615   4.249   9.627  0.0146 -0.1325  0.8034
 1398SOL    HW115827   4.675   4.226   9.555 -3.7079  0.0336 -2.3488
 1398SOL    HW215828   4.623   4.166   9.674 -0.5125 -0.4428  0.3601
 1399SOL     OW15829   2.953   0.110   9.570  0.1981 -0.0239  0.1544
 1399SOL    HW115830   3.043   0.084   9.591  0.6890  0.9679 -0.7330
 1399SOL    HW215831   2.980   0.142   9.484  1.3476 -2.3940 -0.3552
 1400SOL     OW15832   3.871   4.347   0.563  0.0035 -0.8899  0.1187
 1400SOL    HW115833   3.941   4.379   0.505 -0.5062 -1.1061 -0.6165
 1400SOL    HW215834   3.849   4.262   0.524 -1.3593  0.5906 -2.3383
 1401SOL     OW15835   1.534   0.038   6.093 -1.0294 -0.5338  0.3338
 1401SOL    HW115836   1.492   0.081   6.167 -0.1346 -0.9024  1.0599
 1401SOL    HW215837   1.512   0.103   6.026 -1.8459 -1.0695  0.0825
 1402SOL     OW15838   4.439   4.103  14.269  0.0986 -0.3946 -0.0747
 1402SOL    HW115839   4.456   4.192  14.237  0.4626 -0.4810 -0.1174
 1402SOL    HW215840   4.523   4.065  14.242  0.7324  2.3493 -1.9914
 1403SOL     OW15841   3.896   2.416  12.960 -0.0477 -0.1866 -0.1522
 1403SOL    HW115842   3.988   2.441  12.968 -0.5645  1.7447 -0.3962
 1403SOL    HW215843   3.904   2.335  13.011 -0.4681 -0.4706 -0.5359
 1404SOL     OW15844   1.256   4.581   8.815 -0.2803  0.4031 -0.4951
 1404SOL    HW115845   1.238   4.616   8.728  2.1944  0.8988 -0.8003
 1404SOL    HW215846   1.350   4.571   8.805 -0.2340  0.8495 -0.4939
 1405SOL     OW15847   4.082   4.708   7.743  0.4866 -0.4264  0.3396
 1405SOL    HW115848   4.025   4.729   7.818 -1.4357  0.1590 -1.2885
 1405SOL    HW215849   4.123   4.629   7.778  3.8688  2.0258  1.9162
 1406SOL     OW15850   4.422   2.813  17.354 -0.1518 -0.6555 -0.4203
 1406SOL    HW115851   4.391   2.819  17.264 -2.7531 -1.0344  0.4286
 1406SOL    HW215852   4.475   2.893  17.364 -0.4451 -0.4635 -0.3920
 1407SOL     OW15853   3.041   4.406   4.016 -0.0154 -0.1434  0.2059
 1407SOL    HW115854   3.058   4.453   3.935  0.2518  0.2602  0.4934
 1407SOL    HW215855   3.015   4.322   3.979 -0.5169 -0.6044  1.6003
 1408SOL     OW15856   3.160   4.436  14.675 -0.8851  0.1742  0.5782
 1408SOL    HW115857   3.193   4.375  14.741  0.0595  0.1975  0.1166
 1408SOL    HW215858   3.092   4.487  14.720 -1.7878 -0.3043 -0.2392
 1409SOL     OW15859   3.089   3.731   1.389  0.3058  0.2978 -0.3886
 1409SOL    HW115860   3.049   3.798   1.445  0.7193 -1.3997  1.8838
 1409SOL    HW215861   3.140   3.684   1.454 -1.5451 -1.8356 -0.4662
 1410SOL     OW15862   2.870   4.508   2.026 -0.2584  0.3913 -0.1549
 1410SOL    HW115863   2.866   4.429   1.972  2.9169 -0.5493  1.0106
 1410SOL    HW215864   2.932   4.492   2.098  0.3753 -2.3513 -1.2984
 1411SOL     OW15865   2.190   0.598   0.486 -0.0736  0.6874  0.0687
 1411SOL    HW115866   2.139   0.530   0.442  2.2489 -1.6536  0.9710
 1411SOL    HW215867   2.134   0.598   0.564 -0.4472 -0.0059 -0.2001
 1412SOL     OW15868   1.381   4.549  14.259 -0.1917  0.1332 -0.1946
 1412SOL    HW115869   1.410   4.626  14.210  1.0172  0.3528  0.8306
 1412SOL    HW215870   1.442   4.561  14.332 -0.9741  0.8792  0.3379
 1413SOL     OW15871   2.896   0.610  13.637  0.3840 -0.4564 -0.0518
 1413SOL    HW115872   2.842   0.648  13.706  0.7790  0.1020 -0.0493
 1413SOL    HW215873   2.883   0.515  13.645 -0.2431 -0.1696  2.4101
 1414SOL     OW15874   2.292   0.929   2.248  0.0003 -0.0918 -0.4571
 1414SOL    HW115875   2.197   0.944   2.250  0.0195  0.0899 -1.0268
 1414SOL    HW215876   2.301   0.835   2.232 -1.5059 -0.1004 -1.3367
 1415SOL     OW15877   3.857   4.338   3.337 -0.1809 -0.8528  0.2347
 1415SOL    HW115878   3.884   4.257   3.380  2.0482  0.7959  1.9345
 1415SOL    HW215879   3.864   4.310   3.246 -0.3282 -0.8625  0.2255
 1416SOL     OW15880   4.358   4.260  11.226  0.3629  0.2860  0.4688
 1416SOL    HW115881   4.327   4.182  11.272  0.1852 -0.9288 -1.7105
 1416SOL    HW215882   4.442   4.258  11.270  0.7823 -0.8492 -0.3958
 1417SOL     OW15883   2.537   2.494   1.814  0.0136 -0.1160  0.1732
 1417SOL    HW115884   2.613   2.443   1.787 -0.3997 -1.0294  0.7318
 1417SOL    HW215885   2.504   2.449   1.891 -0.0175 -2.1226 -1.0160
 1418SOL     OW15886   1.217   1.861   5.100 -0.3161 -0.3137  0.3241
 1418SOL    HW115887   1.183   1.876   5.012  0.4014  1.2732  0.3106
 1418SOL    HW215888   1.180   1.936   5.146 -2.2739 -2.3173  2.0324
 1419SOL     OW15889   3.790   1.708   8.834  0.1180 -0.7873 -0.1020
 1419SOL    HW115890   3.716   1.703   8.895  2.0847 -0.8288  2.2662
 1419SOL    HW215891   3.833   1.625   8.850  1.0407  0.2557  2.9165
 1420SOL     OW15892   4.574   2.116   8.248  0.0265 -0.0855  0.1165
 1420SOL    HW115893   4.650   2.172   8.262 -0.8650  0.9374  0.8174
 1420SOL    HW215894   4.608   2.030   8.272 -2.6318 -1.6162 -1.5805
 1421SOL     OW15895   4.379   2.189   4.807 -0.3502  0.5448 -0.3095
 1421SOL    HW115896   4.471   2.212   4.798  0.3849 -2.2026  0.3820
 1421SOL    HW215897   4.336   2.256   4.753 -2.0536 -0.5326 -0.3021
 1422SOL     OW15898   4.104   2.042   2.649  0.2206  0.0179 -0.4618
 1422SOL    HW115899   4.114   2.126   2.605 -2.0553 -0.3673 -1.7013
 1422SOL    HW215900   4.182   2.058   2.702 -1.2248 -1.4798  2.1506
 1423SOL     OW15901   4.004   3.480   3.405  0.7160 -0.2171  0.7723
 1423SOL    HW115902   3.981   3.476   3.497 -0.9312 -0.2995  0.3550
 1423SOL    HW215903   4.076   3.416   3.400 -1.2367 -2.4639  1.6385
 1424SOL     OW15904   2.724   2.702   6.226  0.0536  0.2037 -0.4750
 1424SOL    HW115905   2.701   2.789   6.193  0.9310  0.9246  0.7651
 1424SOL    HW215906   2.638   2.662   6.234 -0.2075  0.8463  0.0023
 1425SOL     OW15907   2.687   3.715   6.228  0.3810  0.1722  0.7940
 1425SOL    HW115908   2.717   3.711   6.137  0.1640  1.6050  0.6577
 1425SOL    HW215909   2.739   3.641   6.261 -0.0044  0.1166  1.2708
 1426SOL     OW15910   3.540   1.436   7.817 -0.2780 -0.2477 -0.2988
 1426SOL    HW115911   3.573   1.371   7.756  0.1250 -1.8732  1.6517
 1426SOL    HW215912   3.447   1.415   7.831 -1.0983  4.6907  1.7993
 1427SOL     OW15913   3.622   2.902   7.358  0.5550 -0.0016 -0.4906
 1427SOL    HW115914   3.644   2.956   7.434 -0.7287  0.9170 -0.7745
 1427SOL    HW215915   3.528   2.886   7.369  0.4951  1.2039  0.7822
 1428SOL     OW15916   0.230   1.586  17.212  0.4414 -0.3492 -0.2077
 1428SOL    HW115917   0.314   1.541  17.210  1.4212  1.4897 -0.3143
 1428SOL    HW215918   0.225   1.612  17.120  1.0367 -2.3322 -0.8095
 1429SOL     OW15919   0.398   3.711  12.007 -0.3762 -0.0490 -0.0746
 1429SOL    HW115920   0.424   3.696  12.098 -1.9224  1.6371  0.6625
 1429SOL    HW215921   0.393   3.805  11.990 -0.5946 -0.0223  0.1305
 1430SOL     OW15922   1.159   3.889   4.735 -0.2592 -0.1166  0.5930
 1430SOL    HW115923   1.130   3.875   4.825 -0.3411 -0.7880  0.4611
 1430SOL    HW215924   1.157   3.984   4.721 -1.3387  0.0759  2.0994
 1431SOL     OW15925   4.488   1.385   9.273 -0.2153 -0.6545 -0.5300
 1431SOL    HW115926   4.579   1.411   9.284 -0.5251 -0.3155  1.2350
 1431SOL    HW215927   4.446   1.468   9.251 -1.8752 -0.4895  3.3058
 1432SOL     OW15928   2.728   1.962   8.671 -0.0312 -0.3800 -0.5985
 1432SOL    HW115929   2.745   1.921   8.587 -0.0087  2.6018 -2.0417
 1432SOL    HW215930   2.638   1.992   8.662 -0.6395 -1.2018  2.6005
 1433SOL     OW15931   0.675   1.211   7.446 -0.7193 -0.2821  0.1924
 1433SOL    HW115932   0.664   1.116   7.442 -2.8086 -0.0979  1.4406
 1433SOL    HW215933   0.746   1.222   7.508  0.6116  1.3290 -1.5952
 1434SOL     OW15934   1.548   0.342   6.391 -0.0931  0.4889  0.8468
 1434SOL    HW115935   1.613   0.370   6.456  0.2851  2.8834 -0.5523
 1434SOL    HW215936   1.528   0.257   6.430  1.3653  1.2584  3.2826
 1435SOL     OW15937   0.045   0.139   0.636  0.3114 -0.1575  0.0643
 1435SOL    HW115938   4.715   0.081   0.676  2.3007 -2.3245  0.1329
 1435SOL    HW215939   0.061   0.089   0.556  1.2769  0.6995 -0.2665
 1436SOL     OW15940   1.961   1.151   7.386  0.0962  0.1273  0.2592
 1436SOL    HW115941   2.015   1.162   7.307  0.6116  0.1332  0.6152
 1436SOL    HW215942   1.876   1.186   7.361  0.5845  1.5323  0.5781
 1437SOL     OW15943   2.440   4.061   2.727  0.5918  0.9486  0.2809
 1437SOL    HW115944   2.424   4.008   2.805 -0.8330 -1.5323 -1.7032
 1437SOL    HW215945   2.385   4.022   2.660 -0.0227  1.8159  0.2837
 1438SOL     OW15946   1.937   1.852  15.482  0.3184  0.3334 -0.3375
 1438SOL    HW115947   1.871   1.815  15.540  0.9506 -1.8697 -1.0297
 1438SOL    HW215948   1.886   1.892  15.412  1.6498  2.5853 -0.0324
 1439SOL     OW15949   1.046   0.405   3.989  0.2246 -0.2586  0.3558
 1439SOL    HW115950   1.108   0.478   3.978 -2.6272  1.8505 -1.7472
 1439SOL    HW215951   1.026   0.389   3.897 -0.0987  3.0316 -0.1639
 1440SOL     OW15952   2.821   3.416   8.819  0.0801  0.3709 -0.1657
 1440SOL    HW115953   2.901   3.455   8.854  0.5863  0.4988 -1.4581
 1440SOL    HW215954   2.834   3.330   8.858 -0.1287  0.2220 -0.4268
 1441SOL     OW15955   3.584   4.568   9.613  0.3015 -0.1809  0.1477
 1441SOL    HW115956   3.516   4.552   9.678  0.4936  0.9038  0.6049
 1441SOL    HW215957   3.658   4.515   9.643 -0.5777 -2.1334 -1.0919
 1442SOL     OW15958   2.230   4.443  11.331 -0.4673 -0.8480 -0.5026
 1442SOL    HW115959   2.212   4.437  11.238 -1.9858  2.5010 -0.4174
 1442SOL    HW215960   2.146   4.449  11.376 -0.4824 -1.0399 -0.5083
 1443SOL     OW15961   0.740   1.803  10.196  0.1992  0.0139 -0.2306
 1443SOL    HW115962   0.747   1.897  10.211  0.5042  0.1348 -1.1334
 1443SOL    HW215963   0.681   1.769  10.264 -0.3843  0.1603 -0.6713
 1444SOL     OW15964   1.164   4.002   6.638 -0.3358 -0.2757 -0.0432
 1444SOL    HW115965   1.071   4.025   6.626  0.1429  1.1261 -1.1085
 1444SOL    HW215966   1.182   4.052   6.717 -1.4620  0.7874 -0.4477
 1445SOL     OW15967   3.857   4.084  12.301  0.0975  0.2911 -0.0407
 1445SOL    HW115968   3.953   4.079  12.296  0.0670 -0.8498  0.5242
 1445SOL    HW215969   3.836   4.030  12.225  0.9345 -0.9174  0.5720
 1446SOL     OW15970   1.933   0.461  12.083  0.0377 -0.3116  0.0374
 1446SOL    HW115971   2.017   0.422  12.107 -0.5040 -0.6937  1.2804
 1446SOL    HW215972   1.877   0.384  12.089  1.0549 -1.1061 -0.6646
 1447SOL     OW15973   4.172   3.943   8.551  0.3626  0.1504 -0.3477
 1447SOL    HW115974   4.130   4.016   8.597  2.9516  0.0544  2.1471
 1447SOL    HW215975   4.116   3.873   8.584  1.1357 -1.5332 -2.6204
 1448SOL     OW15976   0.014   0.259   4.659  0.0241 -0.4195  0.1064
 1448SOL    HW115977   0.011   0.177   4.609  3.5140  0.2375 -1.2237
 1448SOL    HW215978   0.047   0.224   4.741  0.4323  1.1851  0.6320
 1449SOL     OW15979   1.842   2.314  13.770  0.5250  0.1594  0.5442
 1449SOL    HW115980   1.798   2.289  13.851 -0.2268 -2.6273 -0.7191
 1449SOL    HW215981   1.770   2.367  13.734  0.5462 -0.6466 -0.6787
 1450SOL     OW15982   4.170   0.703  17.064  0.0765  0.0496  0.0609
 1450SOL    HW115983   4.169   0.691  17.159 -3.9725 -0.3188 -0.0193
 1450SOL    HW215984   4.076   0.714  17.054  0.0216 -1.5137 -1.2108
 1451SOL     OW15985   3.321   2.772   3.917 -0.3219  0.3985 -0.2887
 1451SOL    HW115986   3.300   2.763   4.010 -1.3952  1.3292 -0.4436
 1451SOL    HW215987   3.410   2.807   3.914  0.4917 -1.5846  0.8220
 1452SOL     OW15988   0.497   1.261   7.236 -0.4860  0.0519 -0.1830
 1452SOL    HW115989   0.512   1.345   7.194 -0.4525  0.6068  0.9537
 1452SOL    HW215990   0.561   1.255   7.307 -0.7218 -0.1583  0.0107
 1453SOL     OW15991   2.098   0.258   8.689  0.8605 -0.0168  0.2645
 1453SOL    HW115992   2.095   0.171   8.649 -0.3514 -0.4761  1.3639
 1453SOL    HW215993   2.131   0.317   8.622  2.1925  1.2657  2.0498
 1454SOL     OW15994   2.253   4.259  16.082  0.2967  0.3667 -0.1847
 1454SOL    HW115995   2.176   4.315  16.070  1.2824  1.7820  0.0377
 1454SOL    HW215996   2.281   4.283  16.170 -0.0874  3.5965 -0.9160
 1455SOL     OW15997   3.948   0.891   7.474  0.6668 -0.3184 -0.7362
 1455SOL    HW115998   3.904   0.971   7.503  0.7524  0.1490 -1.9058
 1455SOL    HW215999   3.888   0.870   7.403 -1.4036 -0.2197  0.9528
 1456SOL     OW16000   1.631   2.330   6.966  0.7130 -0.0396  0.2804
 1456SOL    HW116001   1.609   2.326   7.059  1.6093  0.0946  0.5050
 1456SOL    HW216002   1.544   2.318   6.928  0.5801  0.1832  0.5201
 1457SOL     OW16003   3.738   1.353   5.466 -0.0297  0.0264  0.2672
 1457SOL    HW116004   3.727   1.427   5.526 -2.1315 -0.8817  0.9916
 1457SOL    HW216005   3.829   1.332   5.485  0.0171  1.2570  1.4271
 1458SOL     OW16006   0.532   1.084  14.640 -0.3068  1.0440 -0.5910
 1458SOL    HW116007   0.465   1.126  14.694  0.4390 -0.4920  1.5468
 1458SOL    HW216008   0.608   1.138  14.660  0.4698  0.0194 -0.7803
 1459SOL     OW16009   3.376   1.487  16.596  0.6660 -0.2740 -0.2846
 1459SOL    HW116010   3.395   1.544  16.521  1.9093 -0.7505 -0.3261
 1459SOL    HW216011   3.457   1.492  16.647 -0.3719 -1.2922  1.4739
 1460SOL     OW16012   0.939   2.877  10.543  0.1117 -0.5338  0.0508
 1460SOL    HW116013   0.914   2.930  10.468  1.3304  1.1338  0.8263
 1460SOL    HW216014   0.998   2.812  10.505 -1.3220  0.0527 -3.1437
 1461SOL     OW16015   3.177   4.272   9.611 -0.4199  0.8095 -0.0830
 1461SOL    HW116016   3.130   4.193   9.638 -1.2216  2.1715  2.4831
 1461SOL    HW216017   3.123   4.333   9.662 -3.8822 -0.8221 -1.7502
 1462SOL     OW16018   2.518   2.605   4.886  0.4918 -0.2275  0.0244
 1462SOL    HW116019   2.597   2.569   4.846  0.2193  1.4637 -2.0327
 1462SOL    HW216020   2.514   2.575   4.977  0.2571 -0.5229 -0.0837
 1463SOL     OW16021   3.345   3.470   2.667  0.2512  0.4813 -0.0341
 1463SOL    HW116022   3.395   3.499   2.591  1.5784  2.2728  1.5624
 1463SOL    HW216023   3.402   3.512   2.731 -0.5899  1.1727  0.2630
 1464SOL     OW16024   0.262   2.121   6.638 -0.1885 -0.1546  0.4496
 1464SOL    HW116025   0.288   2.160   6.554  0.0971 -1.2622  0.0279
 1464SOL    HW216026   0.319   2.165   6.701  0.1456 -0.0505  0.0771
 1465SOL     OW16027   2.913   0.512   6.921 -0.2114 -0.1472 -1.0231
 1465SOL    HW116028   2.911   0.463   6.839  1.4255 -1.2502 -0.4185
 1465SOL    HW216029   3.008   0.504   6.929 -0.5120 -1.1108  1.4609
 1466SOL     OW16030   1.312   1.412  16.964  0.0867 -0.4494 -0.3516
 1466SOL    HW116031   1.384   1.438  17.022  0.6458  1.4314 -1.9114
 1466SOL    HW216032   1.282   1.330  17.004 -2.9690  1.2880  0.9488
 1467SOL     OW16033   0.347   4.374   9.033 -0.2590  0.1219 -0.6657
 1467SOL    HW116034   0.300   4.411   8.959  2.6461 -0.7833 -2.9818
 1467SOL    HW216035   0.340   4.279   9.031 -0.8257  0.1323  0.7544
 1468SOL     OW16036   3.496   1.602   9.345  0.0176  0.4093  0.5214
 1468SOL    HW116037   3.549   1.525   9.367 -1.4531 -0.6939  0.2677
 1468SOL    HW216038   3.417   1.568   9.302  0.7136 -0.4764 -0.0613
 1469SOL     OW16039   4.080   4.207   8.235 -0.2968 -0.7989 -0.2250
 1469SOL    HW116040   4.036   4.250   8.308  1.8901  1.6941 -0.3966
 1469SOL    HW216041   4.021   4.136   8.212 -0.0286  0.4989 -4.7800
 1470SOL     OW16042   1.785   0.710  16.765 -0.1458 -0.1199 -0.5306
 1470SOL    HW116043   1.841   0.636  16.741  1.0922  0.3428  0.9255
 1470SOL    HW216044   1.764   0.748  16.680  0.0399  1.3767  0.1046
 1471SOL     OW16045   3.742   1.267   5.788 -0.4309  0.1867 -0.3130
 1471SOL    HW116046   3.770   1.267   5.697  3.9368 -0.5743  1.0250
 1471SOL    HW216047   3.732   1.177   5.818  0.3718  0.6228  1.3032
 1472SOL     OW16048   1.665   1.379   8.813 -0.2290 -0.3257  0.1387
 1472SOL    HW116049   1.616   1.431   8.877 -0.3187 -1.9203  1.3719
 1472SOL    HW216050   1.621   1.294   8.819 -0.9731  0.0076 -0.5997
 1473SOL     OW16051   1.377   3.788   4.622  0.1680 -0.4668 -0.2661
 1473SOL    HW116052   1.435   3.778   4.698  1.2099  1.9461 -0.7512
 1473SOL    HW216053   1.295   3.819   4.660 -0.4907  1.0132 -2.9497
 1474SOL     OW16054   1.075   0.576   2.357  0.5139 -0.0956  0.3135
 1474SOL    HW116055   1.123   0.554   2.277  0.7823 -0.2462  0.5163
 1474SOL    HW216056   1.060   0.487   2.392  0.0692 -0.2291 -0.2187
 1475SOL     OW16057   1.905   4.496   8.471 -0.0207  0.1309 -0.0822
 1475SOL    HW116058   1.928   4.456   8.387 -1.8457 -1.3229  0.1040
 1475SOL    HW216059   1.820   4.532   8.446 -0.7195 -0.7952  0.9612
 1476SOL     OW16060   3.762   1.581   0.991 -0.1948  0.5542  0.3944
 1476SOL    HW116061   3.796   1.664   0.957  1.1320 -0.2268 -0.2109
 1476SOL    HW216062   3.798   1.584   1.079 -0.7247  0.5738  0.6087
 1477SOL     OW16063   1.874   2.265  15.128  0.5998  0.3477 -0.5320
 1477SOL    HW116064   1.853   2.211  15.203  0.2501  0.7542 -0.3363
 1477SOL    HW216065   1.870   2.351  15.171 -2.4049 -1.0463  1.9632
 1478SOL     OW16066   1.575   1.519   9.498  0.0449 -0.1566  0.3971
 1478SOL    HW116067   1.514   1.573   9.448  0.9643  0.2551 -0.2822
 1478SOL    HW216068   1.507   1.462   9.535 -1.0569  1.6711  1.1557
 1479SOL     OW16069   1.476   3.061   6.160 -0.3351 -0.2236  0.1074
 1479SOL    HW116070   1.484   3.155   6.177  0.3669  0.1553 -2.3145
 1479SOL    HW216071   1.567   3.033   6.167  0.5446  2.9674  1.2647
 1480SOL     OW16072   1.969   4.614   9.347  0.1303  0.0201  1.2564
 1480SOL    HW116073   1.896   4.674   9.364  1.1922  2.2827 -2.1846
 1480SOL    HW216074   2.015   4.627   9.430 -0.0291  1.5570  1.1025
 1481SOL     OW16075   3.542   3.168  14.798 -0.1402 -0.4423  0.2403
 1481SOL    HW116076   3.564   3.254  14.832  0.2829  0.2517 -1.7881
 1481SOL    HW216077   3.633   3.145  14.779  0.1465 -0.3352  1.4657
 1482SOL     OW16078   0.348   1.534   7.899 -0.3725 -0.0686 -0.2731
 1482SOL    HW116079   0.351   1.606   7.836 -0.6292  1.6775  1.6910
 1482SOL    HW216080   0.416   1.479   7.861 -0.7000  0.1555 -1.1980
 1483SOL     OW16081   0.765   0.760   4.911  0.0529  0.2628  0.1333
 1483SOL    HW116082   0.808   0.814   4.978  0.9269 -1.9800  1.3697
 1483SOL    HW216083   0.782   0.673   4.946 -0.5540 -0.8998 -2.4843
 1484SOL     OW16084   1.045   4.219   2.941  0.6678 -0.4190  0.0352
 1484SOL    HW116085   0.967   4.244   2.990  3.0757  3.4867  1.9133
 1484SOL    HW216086   1.100   4.166   2.999 -0.2365 -1.5308 -0.1418
 1485SOL     OW16087   0.563   2.650   1.701 -0.2380  0.1002  0.0132
 1485SOL    HW116088   0.575   2.644   1.606 -3.0031  0.5512 -0.3929
 1485SOL    HW216089   0.478   2.608   1.713 -0.2085  0.1891  0.5490
 1486SOL     OW16090   0.827   0.538   2.816 -0.1889  0.0792 -0.1489
 1486SOL    HW116091   0.757   0.577   2.868  0.9947  2.3886 -0.2718
 1486SOL    HW216092   0.775   0.529   2.736 -2.0410  0.3584  1.0276
 1487SOL     OW16093   2.977   0.011   0.496  0.2330  0.5915  0.3267
 1487SOL    HW116094   2.882   0.010   0.490  0.2496 -1.3791  0.1562
 1487SOL    HW216095   2.982   0.093   0.544  0.6702 -0.0685  1.4005
 1488SOL     OW16096   1.414   4.427   5.420  0.0748 -0.4287  0.3749
 1488SOL    HW116097   1.497   4.379   5.411  0.5564  0.2792  1.0263
 1488SOL    HW216098   1.441   4.518   5.407 -2.0332 -0.0302 -1.1701
 1489SOL     OW16099   4.311   0.882   3.476  0.6677  0.3213  0.4191
 1489SOL    HW116100   4.222   0.917   3.470  0.2775 -0.6803  0.3401
 1489SOL    HW216101   4.368   0.957   3.459 -0.0647  1.0821  1.3005
 1490SOL     OW16102   1.618   2.292  11.692  0.2479  0.2222  0.3497
 1490SOL    HW116103   1.654   2.377  11.666  1.7551 -0.5169  0.0113
 1490SOL    HW216104   1.546   2.303  11.630  1.0297 -0.2878 -0.6497
 1491SOL     OW16105   4.186   2.091   3.443  0.8312 -0.1233  0.5364
 1491SOL    HW116106   4.235   2.156   3.493  3.3110 -2.5984  1.3017
 1491SOL    HW216107   4.113   2.145   3.413 -1.0056 -1.2817  2.9671
 1492SOL     OW16108   0.750   0.050   6.104 -0.3639  0.4378 -0.3745
 1492SOL    HW116109   0.708   0.124   6.059 -0.1845  0.6574 -0.1762
 1492SOL    HW216110   0.832   0.046   6.055  1.1578  0.8556  2.1731
 1493SOL     OW16111   3.582   1.079   8.547  0.7487  0.3762 -0.5490
 1493SOL    HW116112   3.543   1.166   8.538 -1.1258 -0.5779 -1.6572
 1493SOL    HW216113   3.625   1.092   8.631 -0.8886  3.9018 -0.2369
 1494SOL     OW16114   1.578   2.717   4.538 -0.2424 -0.5042  0.2747
 1494SOL    HW116115   1.672   2.733   4.528 -0.4891  0.1760 -0.8981
 1494SOL    HW216116   1.565   2.680   4.451 -2.6006  1.3771 -0.1524
 1495SOL     OW16117   3.712   4.203   6.962  0.3033  0.2226  0.0338
 1495SOL    HW116118   3.694   4.167   6.874 -0.2839 -1.5754  0.8865
 1495SOL    HW216119   3.782   4.143   6.986 -0.1227 -0.7197 -1.0322
 1496SOL     OW16120   3.249   3.494  11.830 -0.5071 -0.4400  0.1781
 1496SOL    HW116121   3.272   3.534  11.914 -4.1156  1.6951  0.1653
 1496SOL    HW216122   3.179   3.545  11.788  0.6960  0.2471 -0.9898
 1497SOL     OW16123   2.892   1.319   9.616 -0.3960  0.6994  0.9848
 1497SOL    HW116124   2.937   1.401   9.593  2.0269 -0.8736  0.1407
 1497SOL    HW216125   2.825   1.356   9.673 -0.6000 -0.0752  1.2462
 1498SOL     OW16126   2.729   0.065  16.103  0.2988  0.2724 -0.3782
 1498SOL    HW116127   2.811   0.039  16.146  0.2973  1.7912  0.5516
 1498SOL    HW216128   2.681   4.717  16.102 -0.2269  0.5950 -2.5821
 1499SOL     OW16129   0.395   0.257   6.678  0.2568  0.2078 -0.6320
 1499SOL    HW116130   0.424   0.173   6.716  1.3648  1.4424  1.2428
 1499SOL    HW216131   0.442   0.249   6.595 -1.2663 -0.4995 -1.4150
 1500SOL     OW16132   1.135   1.802  16.646 -0.4577 -0.6750 -0.1296
 1500SOL    HW116133   1.197   1.795  16.574  0.7320 -0.4636  0.8723
 1500SOL    HW216134   1.159   1.727  16.701 -1.7207 -1.1080 -0.1789
 1501SOL     OW16135   0.216   3.251  14.568 -0.0081 -0.1663  0.1045
 1501SOL    HW116136   0.129   3.214  14.582  0.0003  0.9167  2.8687
 1501SOL    HW216137   0.273   3.180  14.536 -0.0050  0.1816 -0.6751
 1502SOL     OW16138   2.965   2.445   9.007 -0.1719 -0.3688  0.5988
 1502SOL    HW116139   3.026   2.446   9.081  0.8213  0.7893 -0.2428
 1502SOL    HW216140   3.014   2.408   8.934  2.0097  2.9852  0.3663
 1503SOL     OW16141   1.828   3.542   7.897  0.0575 -0.4246 -0.6577
 1503SOL    HW116142   1.741   3.519   7.931 -1.9063  2.3524 -3.7835
 1503SOL    HW216143   1.857   3.596   7.970  1.7531 -2.2361  0.0270
 1504SOL     OW16144   3.611   0.142   3.154  0.4077 -0.1120 -0.2240
 1504SOL    HW116145   3.662   0.147   3.073 -2.8045  2.1867 -2.0970
 1504SOL    HW216146   3.682   0.170   3.212 -0.9138 -1.8455  2.2419
 1505SOL     OW16147   1.640   2.147   7.475 -0.5486 -0.1399  0.5164
 1505SOL    HW116148   1.588   2.067   7.463  0.2155 -0.6855  0.8174
 1505SOL    HW216149   1.597   2.200   7.542  1.1088  0.5957  0.9857
 1506SOL     OW16150   0.643   0.179   4.286  0.3179 -0.0038  0.1315
 1506SOL    HW116151   0.609   0.091   4.269  0.6742 -0.1131 -0.0230
 1506SOL    HW216152   0.637   0.178   4.381  1.7397  0.6258  0.2382
 1507SOL     OW16153   3.082   0.259   9.391 -0.3612 -0.1772 -0.8148
 1507SOL    HW116154   3.133   0.233   9.314  0.6259 -1.6028  0.3388
 1507SOL    HW216155   3.095   0.354   9.397  2.5443 -0.5755 -0.4725
 1508SOL     OW16156   4.039   2.533  12.589 -0.0708 -0.1996 -0.4013
 1508SOL    HW116157   4.014   2.625  12.602  0.5526  0.2197 -2.1880
 1508SOL    HW216158   4.089   2.539  12.508  0.6954  2.2132  0.2349
 1509SOL     OW16159   1.645   1.346   4.561 -0.8746  0.2043  0.4183
 1509SOL    HW116160   1.613   1.315   4.477 -1.5326 -0.2356  0.8364
 1509SOL    HW216161   1.680   1.432   4.536 -2.4612  0.3471 -1.2810
 1510SOL     OW16162   1.061   3.289   0.858 -0.6626 -0.6075 -0.0145
 1510SOL    HW116163   1.107   3.363   0.897  0.0552 -0.2738 -1.4880
 1510SOL    HW216164   1.067   3.311   0.765 -0.8364 -2.9950 -0.6084
 1511SOL     OW16165   1.950   3.425   6.659 -0.1584  0.3814 -0.1969
 1511SOL    HW116166   1.998   3.500   6.623  2.7966 -1.0706  0.6808
 1511SOL    HW216167   1.871   3.459   6.699 -0.4307 -0.5207  0.0279
 1512SOL     OW16168   1.456   1.700   5.108 -0.4579 -0.0324  0.5272
 1512SOL    HW116169   1.389   1.768   5.110  0.6671  1.0080  2.0685
 1512SOL    HW216170   1.409   1.646   5.044 -0.5697  1.5444 -0.7264
 1513SOL     OW16171   0.929   3.753   9.124 -0.1662 -0.1401  0.3980
 1513SOL    HW116172   1.015   3.778   9.089  0.7867 -2.7903  0.8475
 1513SOL    HW216173   0.894   3.836   9.156  1.4947  0.9465 -0.5864
 1514SOL     OW16174   1.137   1.356   0.606  0.4267  0.0762 -0.2136
 1514SOL    HW116175   1.217   1.329   0.560 -1.3262 -2.1604 -1.9988
 1514SOL    HW216176   1.101   1.269   0.622  0.2652  0.6072  2.3077
 1515SOL     OW16177   1.400   2.288   2.300 -0.4228  0.0623 -0.0136
 1515SOL    HW116178   1.488   2.262   2.272 -0.2185  0.0296  0.6669
 1515SOL    HW216179   1.391   2.219   2.365 -0.9678 -1.0315 -1.2540
 1516SOL     OW16180   3.641   3.940   3.932  0.2255 -0.6927 -0.3060
 1516SOL    HW116181   3.634   3.979   3.845 -2.5717 -2.1597 -0.7251
 1516SOL    HW216182   3.606   4.005   3.993  2.3371 -0.9671  1.2212
 1517SOL     OW16183   0.988   3.775   7.511  1.2377 -0.5335 -0.1223
 1517SOL    HW116184   0.909   3.823   7.485  1.4889  0.7289  1.4793
 1517SOL    HW216185   1.048   3.832   7.463 -0.3419  0.4145 -1.0015
 1518SOL     OW16186   2.769   4.171   9.126 -0.0463 -0.0674  0.2864
 1518SOL    HW116187   2.842   4.230   9.143 -0.7719  1.3156 -1.2994
 1518SOL    HW216188   2.741   4.134   9.210 -1.0590 -0.0105 -0.0194
 1519SOL     OW16189   4.394   1.587   9.137  0.2238 -0.2547 -0.3715
 1519SOL    HW116190   4.457   1.608   9.068  2.4476 -1.2218  1.3828
 1519SOL    HW216191   4.331   1.654   9.110  0.9381 -0.1741 -1.8574
 1520SOL     OW16192   3.622   1.091  16.579  0.0744 -0.1191  0.1619
 1520SOL    HW116193   3.578   1.014  16.615 -1.8529  1.1108  0.4272
 1520SOL    HW216194   3.667   1.130  16.654 -0.3688  0.6463  0.0263
 1521SOL     OW16195   1.126   4.270   3.771 -0.7240 -0.8023  0.5792
 1521SOL    HW116196   1.174   4.246   3.692 -1.5632  0.9296 -0.4605
 1521SOL    HW216197   1.112   4.359   3.737  2.8303 -0.0124  1.1849
 1522SOL     OW16198   2.123   3.802   8.302  0.6029 -0.4760 -0.4998
 1522SOL    HW116199   2.215   3.798   8.276  0.2504 -0.9608 -1.7139
 1522SOL    HW216200   2.132   3.764   8.389 -0.0136 -1.7927 -0.9979
 1523SOL     OW16201   3.827   4.722   1.646  0.1682 -0.3982 -0.2140
 1523SOL    HW116202   3.849   0.078   1.667 -1.0760 -0.1559  0.0467
 1523SOL    HW216203   3.733   0.004   1.646  0.0229 -1.2200  0.8633
 1524SOL     OW16204   3.900   4.473   6.323  0.0414 -0.1993 -0.4854
 1524SOL    HW116205   3.977   4.418   6.311  0.7068  0.8977 -1.2337
 1524SOL    HW216206   3.822   4.416   6.324 -0.2735  0.2430  0.4609
 1525SOL     OW16207   4.691   2.223  12.333  0.1455 -0.0598  0.4700
 1525SOL    HW116208   4.709   2.129  12.340 -0.1146  0.0093  2.1752
 1525SOL    HW216209   4.617   2.241  12.390  0.7830 -0.6198  1.4793
 1526SOL     OW16210   2.613   1.706  16.644 -0.3006 -0.0933 -0.4877
 1526SOL    HW116211   2.532   1.690  16.596 -0.8327  0.2526  0.2803
 1526SOL    HW216212   2.575   1.744  16.723  0.7496 -0.2823  0.1103
 1527SOL     OW16213   2.562   2.421   3.857 -0.5410  0.0862  0.0949
 1527SOL    HW116214   2.605   2.428   3.942 -0.1005 -2.4133  0.0675
 1527SOL    HW216215   2.632   2.408   3.793 -1.8531 -2.3168 -0.8514
 1528SOL     OW16216   4.159   4.473   0.783 -0.3713  0.5852 -0.5223
 1528SOL    HW116217   4.100   4.399   0.792  1.4155 -1.1632 -3.1972
 1528SOL    HW216218   4.098   4.547   0.793 -0.9479 -0.0115  0.3352
 1529SOL     OW16219   2.858   1.575  12.856 -0.0818 -0.5614 -0.0907
 1529SOL    HW116220   2.891   1.664  12.848  1.6848 -1.4475 -2.8217
 1529SOL    HW216221   2.803   1.583  12.933  0.5524 -0.2519  0.3305
 1530SOL     OW16222   2.089   4.395   0.259 -0.0135 -0.3222  0.2156
 1530SOL    HW116223   2.124   4.481   0.282 -1.3497  0.0939  0.6862
 1530SOL    HW216224   2.022   4.391   0.327  0.2785 -0.6965  0.4809
 1531SOL     OW16225   4.354   1.984   9.648 -1.1642  0.3050 -0.0349
 1531SOL    HW116226   4.337   1.925   9.721  0.6633 -0.9260 -0.5984
 1531SOL    HW216227   4.414   1.930   9.597  1.1616  1.9801  0.9429
 1532SOL     OW16228   1.791   3.740   6.534 -0.2842 -0.4038 -0.6384
 1532SOL    HW116229   1.886   3.729   6.534 -0.3314 -0.7647 -2.7612
 1532SOL    HW216230   1.759   3.734   6.624  0.7154  0.4688 -0.2223
 1533SOL     OW16231   3.734   0.171   2.907 -0.0656  0.3915 -0.5296
 1533SOL    HW116232   3.723   0.206   2.819 -0.3654  1.3312 -0.1240
 1533SOL    HW216233   3.825   0.146   2.919 -0.3179  0.3107  1.2546
 1534SOL     OW16234   1.874   0.918  11.116  0.2007  0.3516 -0.1804
 1534SOL    HW116235   1.880   0.950  11.026 -1.5604  0.0078 -0.4175
 1534SOL    HW216236   1.965   0.922  11.144 -0.0682 -2.5587  1.1457
 1535SOL     OW16237   4.161   3.776   6.979 -0.1652  0.1107  0.4536
 1535SOL    HW116238   4.250   3.802   6.955 -0.7078  0.9487 -0.5848
 1535SOL    HW216239   4.110   3.802   6.903  0.0676  2.0004  0.9540
 1536SOL     OW16240   0.377   1.211   5.820 -0.1713 -0.5631 -0.2080
 1536SOL    HW116241   0.399   1.185   5.730  0.6342  3.4465 -1.1774
 1536SOL    HW216242   0.301   1.155   5.834 -0.1320 -0.7370 -0.6762
 1537SOL     OW16243   1.620   2.176   2.182  0.3419 -0.2013  0.2885
 1537SOL    HW116244   1.612   2.100   2.240  1.0585  0.7890  1.6604
 1537SOL    HW216245   1.568   2.136   2.112 -0.7908  0.8451  0.5375
 1538SOL     OW16246   0.174   4.436   7.481 -0.0353 -0.3025  0.2364
 1538SOL    HW116247   0.216   4.454   7.397 -1.4823 -1.1185 -0.6496
 1538SOL    HW216248   0.103   4.380   7.451  0.9300 -2.1621  1.3865
 1539SOL     OW16249   4.117   3.231   3.422  0.1407 -0.4970  0.2513
 1539SOL    HW116250   4.120   3.184   3.338  1.9294  0.1954 -0.0614
 1539SOL    HW216251   4.159   3.169   3.481  0.2196 -1.0356 -0.3681
 1540SOL     OW16252   1.549   3.230   6.428  0.3411 -0.1105  0.4774
 1540SOL    HW116253   1.457   3.258   6.424  0.5187  0.2959 -0.8471
 1540SOL    HW216254   1.568   3.202   6.518 -1.1609 -2.5461  0.0352
 1541SOL     OW16255   1.157   0.278   4.789 -0.0600  0.0134 -0.2533
 1541SOL    HW116256   1.188   0.223   4.861 -0.1234 -2.4468 -2.1204
 1541SOL    HW216257   1.091   0.221   4.750 -2.0394  1.3814  1.0720
 1542SOL     OW16258   3.292   1.224   1.199 -0.1212  0.3722  0.3896
 1542SOL    HW116259   3.302   1.178   1.116 -1.7630  0.7030  0.0131
 1542SOL    HW216260   3.384   1.236   1.226  0.0681  1.5614 -0.7758
 1543SOL     OW16261   1.884   0.781   7.190  0.5293  0.0349 -0.0863
 1543SOL    HW116262   1.941   0.705   7.198  2.7562  1.7338  0.2181
 1543SOL    HW216263   1.907   0.821   7.274  0.5425  3.5907 -1.7512
 1544SOL     OW16264   0.808   2.765  14.363 -0.6965 -0.3253  0.4779
 1544SOL    HW116265   0.818   2.689  14.421 -3.7407  0.5641  2.1317
 1544SOL    HW216266   0.901   2.788  14.355 -1.0014  1.7739  2.8477
 1545SOL     OW16267   3.856   2.891   2.121  0.3901 -0.1722  0.5894
 1545SOL    HW116268   3.916   2.869   2.050 -0.5046 -0.4399 -0.0818
 1545SOL    HW216269   3.774   2.847   2.098 -0.2583  2.4465 -2.1517
 1546SOL     OW16270   0.826   4.190   6.300 -0.5723  0.1295 -0.1478
 1546SOL    HW116271   0.753   4.177   6.240 -0.5144 -0.4312 -0.0937
 1546SOL    HW216272   0.884   4.125   6.260 -0.0944 -2.2155  4.2739
 1547SOL     OW16273   3.572   4.296   5.654 -0.0861 -0.0625 -0.0754
 1547SOL    HW116274   3.602   4.360   5.718 -0.1515  0.3314 -0.4384
 1547SOL    HW216275   3.553   4.350   5.577  0.5845  1.2858  0.7141
 1548SOL     OW16276   1.759   1.608   8.523 -0.6946  0.4604 -0.2035
 1548SOL    HW116277   1.732   1.700   8.516 -1.1535  0.2603 -1.1014
 1548SOL    HW216278   1.680   1.565   8.556 -0.8942 -0.4636 -1.8881
 1549SOL     OW16279   0.064   2.935  10.981  0.0285  0.2283 -0.6006
 1549SOL    HW116280   0.019   2.919  10.898  0.1329  1.2784 -0.8613
 1549SOL    HW216281   0.109   2.852  10.995 -3.3032 -1.5696 -0.8031
 1550SOL     OW16282   1.029   2.832   0.614 -0.2523 -0.2084 -0.2464
 1550SOL    HW116283   1.026   2.918   0.656  1.4655  1.1556 -2.8755
 1550SOL    HW216284   0.940   2.820   0.581 -0.5236 -0.1439  0.4697
 1551SOL     OW16285   2.560   4.551   8.063  0.2344  0.0239 -0.1093
 1551SOL    HW116286   2.563   4.630   8.117 -0.8441 -0.8853  1.2681
 1551SOL    HW216287   2.624   4.494   8.106 -0.6346  1.7894  3.4547
 1552SOL     OW16288   1.215   0.900   2.633  0.5439  1.1916 -0.1221
 1552SOL    HW116289   1.148   0.873   2.571 -1.1303  0.2202  2.1029
 1552SOL    HW216290   1.285   0.913   2.569 -0.0593 -0.8534 -1.1816
 1553SOL     OW16291   3.866   1.588  17.183  0.4581 -0.1691  0.4956
 1553SOL    HW116292   3.945   1.615  17.229  0.9529  1.1832 -1.1348
 1553SOL    HW216293   3.869   1.644  17.106  1.7230 -1.9367 -0.7296
 1554SOL     OW16294   2.102   4.136   5.521  0.3807  0.0604 -0.4362
 1554SOL    HW116295   2.011   4.118   5.546 -0.0524  1.7125 -0.8442
 1554SOL    HW216296   2.145   4.099   5.598  0.4439  1.5476  0.2381
 1555SOL     OW16297   3.500   0.309  13.132  0.2551 -0.0701 -0.1363
 1555SOL    HW116298   3.483   0.266  13.048  2.0884  0.9710 -1.0441
 1555SOL    HW216299   3.434   0.270  13.190 -0.5078 -1.6265 -2.0277
 1556SOL     OW16300   3.245   2.593   7.075 -0.6033 -0.3636  0.2229
 1556SOL    HW116301   3.318   2.546   7.115  0.8197  1.0666 -0.7040
 1556SOL    HW216302   3.179   2.527   7.054 -1.6383  0.0662  2.1662
 1557SOL     OW16303   1.090   0.525   6.883 -0.2315 -0.1938 -0.2097
 1557SOL    HW116304   0.997   0.528   6.909 -0.5868  0.4594 -1.5673
 1557SOL    HW216305   1.099   0.437   6.848  2.2619  0.1247 -0.3495
 1558SOL     OW16306   2.220   1.605   2.318  0.1423 -0.0318  0.1134
 1558SOL    HW116307   2.186   1.632   2.404  0.8557  3.3847 -0.7169
 1558SOL    HW216308   2.143   1.572   2.271  0.9986 -0.7809 -0.7580
 1559SOL     OW16309   2.334   2.040   7.070  0.7332 -0.0367  0.1456
 1559SOL    HW116310   2.256   2.007   7.026  0.0170  1.9704 -0.0844
 1559SOL    HW216311   2.412   1.991   7.042  0.8139 -0.2001  0.6545
 1560SOL     OW16312   2.766   3.204   9.470  0.1455 -0.2182  0.2667
 1560SOL    HW116313   2.725   3.218   9.385  0.1367  1.0124  0.4631
 1560SOL    HW216314   2.752   3.111   9.486  1.0513 -0.0951  1.8198
 1561SOL     OW16315   3.481   2.333   7.550  0.0220 -0.2018  0.3315
 1561SOL    HW116316   3.479   2.300   7.640 -2.0200 -0.4258  0.2069
 1561SOL    HW216317   3.386   2.335   7.534  0.2299  4.6256 -0.3573
 1562SOL     OW16318   1.717   0.202   5.173  0.8139 -0.1777  0.0059
 1562SOL    HW116319   1.646   0.245   5.127  1.3908 -0.8323 -1.4869
 1562SOL    HW216320   1.705   0.108   5.158  2.3935 -0.2708 -0.6884
 1563SOL     OW16321   4.349   2.042   3.201  0.1309 -0.5214  0.0055
 1563SOL    HW116322   4.350   2.022   3.295 -1.5909  0.5716  0.2490
 1563SOL    HW216323   4.349   2.137   3.198 -0.3211 -0.4824  1.3652
 1564SOL     OW16324   1.079   0.571   2.641 -0.6423  0.2278 -0.0017
 1564SOL    HW116325   1.060   0.604   2.553 -1.7218  1.7375  0.8135
 1564SOL    HW216326   1.009   0.599   2.699 -1.5065  1.3991 -1.6028
 1565SOL     OW16327   3.932   3.392   2.741  0.2305 -0.0977  1.0074
 1565SOL    HW116328   3.944   3.351   2.655  2.5833 -0.2326  1.4055
 1565SOL    HW216329   3.886   3.472   2.713  0.8481  0.1365  0.6520
 1566SOL     OW16330   3.764   2.685   3.010  0.0172 -0.2414  0.0393
 1566SOL    HW116331   3.692   2.623   3.025  0.5133 -0.4286  1.6668
 1566SOL    HW216332   3.829   2.666   3.077 -0.9645 -0.6662  0.8840
 1567SOL     OW16333   4.317   0.995   0.703  0.2466 -0.7621  0.1591
 1567SOL    HW116334   4.234   0.970   0.663  0.4579 -1.3515  0.0933
 1567SOL    HW216335   4.360   1.039   0.629 -1.3833  0.2653 -0.1655
 1568SOL     OW16336   2.564   1.087   8.395  0.0976  0.6794 -0.3195
 1568SOL    HW116337   2.565   1.183   8.395  0.5021  0.6733  0.5326
 1568SOL    HW216338   2.610   1.076   8.478 -2.0872  1.4516  1.0079
 1569SOL     OW16339   3.898   1.205  13.292 -0.3798 -0.3473 -0.3639
 1569SOL    HW116340   3.815   1.252  13.300  1.1321  2.2699 -0.0811
 1569SOL    HW216341   3.859   1.146  13.227  1.0322 -1.3632 -0.2899
 1570SOL     OW16342   2.550   0.577   8.931  0.2809  0.4801  0.5832
 1570SOL    HW116343   2.599   0.533   9.000  0.8175  3.2278  1.9759
 1570SOL    HW216344   2.575   0.670   8.932  0.8151  0.3389 -1.7584
 1571SOL     OW16345   0.644   2.444  11.654  0.3582  0.0420  0.2989
 1571SOL    HW116346   0.570   2.498  11.683 -0.8010 -1.8653  0.9163
 1571SOL    HW216347   0.707   2.505  11.616  0.7414 -0.0280  0.8152
 1572SOL     OW16348   1.475   0.991   4.019 -0.3455 -0.0354  0.0195
 1572SOL    HW116349   1.530   0.985   4.097  2.3459  0.0774 -1.8849
 1572SOL    HW216350   1.405   0.931   4.046  0.8385 -1.2453  0.4391
 1573SOL     OW16351   0.429   0.421  12.709  0.6494 -0.1702  0.9139
 1573SOL    HW116352   0.436   0.469  12.626 -0.3108 -0.9998  0.3374
 1573SOL    HW216353   0.509   0.448  12.753  0.1690  1.6056  0.6891
 1574SOL     OW16354   1.214   1.691   7.759  0.2006 -0.0098 -0.3857
 1574SOL    HW116355   1.134   1.686   7.812  0.4627 -0.6498 -0.0527
 1574SOL    HW216356   1.257   1.608   7.778 -0.5997  0.2283  2.4200
 1575SOL     OW16357   1.093   2.193   9.007 -0.7653  0.3636 -0.0927
 1575SOL    HW116358   1.137   2.214   8.924  1.8048  1.8716  1.6686
 1575SOL    HW216359   1.168   2.189   9.066 -0.9865 -0.4204  0.1299
 1576SOL     OW16360   4.013   1.644   2.327  0.5830  0.1304  0.3597
 1576SOL    HW116361   4.054   1.597   2.254 -1.5537  0.1925 -0.8954
 1576SOL    HW216362   4.046   1.733   2.334  0.2813  0.3480 -0.8568
 1577SOL     OW16363   1.713   2.769   7.776 -0.7057  0.1597  0.2459
 1577SOL    HW116364   1.704   2.798   7.686  1.5294 -0.5517 -0.2170
 1577SOL    HW216365   1.764   2.689   7.766 -1.9717 -0.4638 -1.1383
 1578SOL     OW16366   2.022   4.346   8.659 -0.4034 -0.2241 -0.5906
 1578SOL    HW116367   2.006   4.266   8.609 -1.9909 -0.7652  0.7724
 1578SOL    HW216368   1.968   4.405   8.607  1.7216 -1.4053 -4.1193
 1579SOL     OW16369   0.272   2.037   3.569 -0.0191 -0.5557 -0.0091
 1579SOL    HW116370   0.252   2.096   3.496 -0.1393 -0.2922  0.2348
 1579SOL    HW216371   0.327   1.968   3.531 -0.0408 -1.0461  0.8463
 1580SOL     OW16372   3.361   1.081   0.976 -0.1069 -0.0694 -0.2006
 1580SOL    HW116373   3.398   0.995   0.959  0.1953  0.1206 -0.4992
 1580SOL    HW216374   3.272   1.069   0.943 -0.5498  1.2344  0.5188
 1581SOL     OW16375   2.600   0.589   3.570  0.3549 -0.1210 -0.1521
 1581SOL    HW116376   2.683   0.592   3.616  0.1267 -0.6485  0.2926
 1581SOL    HW216377   2.576   0.501   3.598 -1.7168  0.0787 -1.2543
 1582SOL     OW16378   1.565   4.088   9.990  0.4153  0.1934  0.4179
 1582SOL    HW116379   1.568   4.109  10.083 -0.8685  2.4932 -0.0455
 1582SOL    HW216380   1.505   4.014   9.987 -0.0610  0.5211  2.0708
 1583SOL     OW16381   3.749   1.746   8.488  0.1049  0.1327 -0.5125
 1583SOL    HW116382   3.672   1.694   8.464  0.1898 -1.0032  1.6024
 1583SOL    HW216383   3.795   1.691   8.552 -0.5424  0.6724  0.4228
 1584SOL     OW16384   2.432   0.962   3.518  0.0685  0.4104  0.2366
 1584SOL    HW116385   2.506   0.994   3.570  0.5679 -1.1469  0.5082
 1584SOL    HW216386   2.426   1.038   3.460  1.1096  2.0972  2.3260
 1585SOL     OW16387   0.897   4.504   6.246  0.0889 -0.5001 -0.0305
 1585SOL    HW116388   0.849   4.427   6.276 -0.0741 -0.8300 -1.1684
 1585SOL    HW216389   0.870   4.542   6.163  0.5159  1.7802  0.8675
 1586SOL     OW16390   1.414   0.684   9.676  0.1134 -0.1596 -0.0083
 1586SOL    HW116391   1.337   0.628   9.679 -0.1842  0.2718  0.5596
 1586SOL    HW216392   1.370   0.765   9.651  0.2465 -0.6620 -1.8272
 1587SOL     OW16393   2.178   0.575   8.163  0.0702 -0.3442 -0.4708
 1587SOL    HW116394   2.191   0.481   8.146 -0.8092 -0.7256  1.0260
 1587SOL    HW216395   2.268   0.607   8.166  0.8005 -2.1456 -2.7177
 1588SOL     OW16396   4.415   3.325   8.911 -0.1477  0.2979  0.4980
 1588SOL    HW116397   4.328   3.300   8.880  0.4334  0.8423 -1.6038
 1588SOL    HW216398   4.388   3.398   8.967 -0.7932 -1.1856  2.1003
 1589SOL     OW16399   4.117   0.965  11.377 -0.4519  0.2572 -0.5265
 1589SOL    HW116400   4.067   1.019  11.438 -0.4068 -0.2033 -0.0898
 1589SOL    HW216401   4.052   0.962  11.306  1.3049  0.6012 -2.1507
 1590SOL     OW16402   0.659   3.322   4.459 -0.0088 -0.0425  0.2879
 1590SOL    HW116403   0.654   3.274   4.542 -2.6746 -1.7859 -0.8759
 1590SOL    HW216404   0.680   3.411   4.487 -1.6194  0.5955 -0.5480
 1591SOL     OW16405   2.147   4.216   7.922 -0.2859  0.0872 -0.3687
 1591SOL    HW116406   2.159   4.136   7.973  0.8995 -0.3586 -1.3380
 1591SOL    HW216407   2.056   4.232   7.944  0.5283  1.2183  2.1116
 1592SOL     OW16408   3.092   2.284   8.766 -0.3130 -0.4549 -0.1968
 1592SOL    HW116409   3.098   2.208   8.708  0.7730 -0.2752 -0.3021
 1592SOL    HW216410   3.035   2.340   8.713  0.5365 -0.3067 -0.9479
 1593SOL     OW16411   1.369   2.365  17.344  0.2201  0.1349 -0.4675
 1593SOL    HW116412   1.280   2.343  17.317  0.0644 -0.0169  0.1597
 1593SOL    HW216413   1.408   2.377  17.258  0.8245  0.0613 -0.1982
 1594SOL     OW16414   4.005   2.315   5.788 -0.1176  0.1066  0.2306
 1594SOL    HW116415   3.997   2.223   5.815  0.0535 -0.6000 -2.1574
 1594SOL    HW216416   3.942   2.354   5.848 -0.3131 -1.4576  1.0372
 1595SOL     OW16417   2.301   2.788  12.539  0.2817 -0.1903  0.0537
 1595SOL    HW116418   2.222   2.767  12.489 -0.2907  0.8861  0.5060
 1595SOL    HW216419   2.266   2.774  12.627  1.0461  0.5783  0.4792
 1596SOL     OW16420   2.234   1.775   5.384  0.6476  0.2773  0.2942
 1596SOL    HW116421   2.161   1.826   5.349  0.4283 -1.4569 -1.7913
 1596SOL    HW216422   2.239   1.703   5.320 -0.4315  0.7290 -0.3122
 1597SOL     OW16423   1.883   1.162   5.537 -0.5316  0.1583  0.5803
 1597SOL    HW116424   1.914   1.111   5.462  0.8507 -0.5219  1.6248
 1597SOL    HW216425   1.887   1.246   5.493  0.7403 -1.2743 -2.0533
 1598SOL     OW16426   0.462   0.487   6.388  0.1102 -0.0702 -0.3560
 1598SOL    HW116427   0.550   0.473   6.424 -0.3777  0.4045  1.0158
 1598SOL    HW216428   0.424   0.401   6.372  0.6534 -0.4205  0.2322
 1599SOL     OW16429   0.589   0.053  13.222  0.0946 -0.2587 -0.0135
 1599SOL    HW116430   0.590   0.116  13.295  1.6907  1.6897 -1.7186
 1599SOL    HW216431   0.524   0.091  13.163  0.2021  0.0064  0.0410
 1600SOL     OW16432   3.914   1.884   6.794 -0.0844  0.1903 -0.6886
 1600SOL    HW116433   3.964   1.939   6.854 -3.0142  1.6528  0.3875
 1600SOL    HW216434   3.976   1.847   6.730  0.0710 -1.5675  0.4909
 1601SOL     OW16435   4.133   4.065   7.182  0.1838 -0.6890  0.1704
 1601SOL    HW116436   4.163   4.071   7.273  0.7378  1.7606 -0.1759
 1601SOL    HW216437   4.164   4.150   7.152 -1.2381 -0.3614 -0.3713
 1602SOL     OW16438   0.439   3.082   3.584  0.2795 -0.5753 -0.0447
 1602SOL    HW116439   0.517   3.035   3.556 -1.2786 -3.5673  0.5984
 1602SOL    HW216440   0.404   3.125   3.506 -0.1757 -0.3694  0.2696
 1603SOL     OW16441   4.625   0.104   6.322 -0.0333 -0.6611  0.1836
 1603SOL    HW116442   4.655   0.125   6.233 -3.4987  0.0195 -0.8348
 1603SOL    HW216443   4.581   0.184   6.351  2.2805  0.8232 -0.4384
 1604SOL     OW16444   2.606   4.437  12.834 -0.2689  0.7777  1.1483
 1604SOL    HW116445   2.601   4.484  12.751  0.6257  0.4590  0.9098
 1604SOL    HW216446   2.639   4.506  12.891 -1.4122  0.2448  2.4454
 1605SOL     OW16447   2.963   0.878  15.883  0.7990  0.0890  0.8364
 1605SOL    HW116448   2.931   0.816  15.948 -0.1109  0.5055  0.7875
 1605SOL    HW216449   2.889   0.882  15.822  2.2857  1.4302 -0.8980
 1606SOL     OW16450   1.555   0.051   7.094 -0.5978  0.2305  0.4157
 1606SOL    HW116451   1.611   0.129   7.086  1.1040 -1.0109  0.2899
 1606SOL    HW216452   1.508   0.072   7.175  0.9758 -0.8793  1.6453
 1607SOL     OW16453   1.178   1.944   5.756  0.3125  0.4911 -0.5010
 1607SOL    HW116454   1.113   1.891   5.709 -1.8953  0.1958  2.7998
 1607SOL    HW216455   1.248   1.946   5.691  0.8047 -0.8768 -0.0185
 1608SOL     OW16456   4.398   2.328   3.829  0.1403  0.1431 -0.3667
 1608SOL    HW116457   4.436   2.247   3.863 -1.8368 -1.1522 -1.1985
 1608SOL    HW216458   4.327   2.353   3.888 -0.4525  0.1885 -1.0927
 1609SOL     OW16459   4.304   4.573   6.180  0.7180 -0.0200 -1.1370
 1609SOL    HW116460   4.380   4.582   6.237 -1.0572 -3.2540  1.6502
 1609SOL    HW216461   4.344   4.615   6.103  2.7723 -1.1504 -0.6916
 1610SOL     OW16462   3.702   0.450  13.064 -0.2872  0.1671  0.6662
 1610SOL    HW116463   3.773   0.389  13.085 -0.7294 -0.8626 -0.8732
 1610SOL    HW216464   3.625   0.404  13.097 -1.3855  0.5380 -1.3887
 1611SOL     OW16465   1.226   4.560  10.694  0.4482  0.2625  0.5657
 1611SOL    HW116466   1.199   4.471  10.714  1.0881  0.0182  0.3463
 1611SOL    HW216467   1.178   4.608  10.762 -1.1946 -2.0231  1.0251
 1612SOL     OW16468   3.871   0.735   5.602  0.7115 -1.0386  0.4784
 1612SOL    HW116469   3.903   0.776   5.521 -0.2949  0.1385  0.6779
 1612SOL    HW216470   3.775   0.733   5.598  0.6556 -0.2385  1.4250
 1613SOL     OW16471   2.705   2.161   4.721 -1.0936 -0.1881 -0.0426
 1613SOL    HW116472   2.744   2.075   4.739 -0.2032  0.4927  1.3025
 1613SOL    HW216473   2.692   2.195   4.810 -1.2169 -1.5024  0.4418
 1614SOL     OW16474   3.467   2.230  17.638 -0.4359 -0.3051  0.2712
 1614SOL    HW116475   3.537   2.210  17.701 -0.2902 -0.0535  0.1880
 1614SOL    HW216476   3.514   2.273  17.567 -0.5148 -2.0518 -0.8367
 1615SOL     OW16477   1.605   0.458   7.675 -0.2187  0.0415 -0.0733
 1615SOL    HW116478   1.649   0.385   7.630 -0.9198  0.4782 -1.4884
 1615SOL    HW216479   1.594   0.418   7.761 -1.1545 -0.4566 -0.4187
 1616SOL     OW16480   3.752   4.344   9.798  0.1209  0.3239 -0.5536
 1616SOL    HW116481   3.784   4.283   9.731  1.5163  1.2225 -0.7084
 1616SOL    HW216482   3.685   4.289   9.840  0.6636 -0.9215 -1.3280
 1617SOL     OW16483   2.964   3.600   4.380  0.2258 -0.4908 -0.4943
 1617SOL    HW116484   2.947   3.670   4.444  0.7711 -0.4127 -0.4327
 1617SOL    HW216485   3.015   3.648   4.315  2.5129 -2.3996 -0.0692
 1618SOL     OW16486   4.063   2.468   6.551  0.7859  0.1865 -0.2330
 1618SOL    HW116487   4.097   2.554   6.527  0.7015  0.0388 -0.8775
 1618SOL    HW216488   4.127   2.435   6.614 -0.1274  2.5825  1.9718
 1619SOL     OW16489   2.528   3.927  11.335 -0.3910 -0.1421  0.5225
 1619SOL    HW116490   2.589   3.854  11.342 -1.6860 -1.2907 -0.0661
 1619SOL    HW216491   2.452   3.888  11.291 -2.3556  3.1831  0.9550
 1620SOL     OW16492   2.028   2.157   4.671 -0.3955  0.0816  0.1994
 1620SOL    HW116493   2.084   2.149   4.594  0.6361 -0.0098  0.9566
 1620SOL    HW216494   1.970   2.232   4.655  1.3343  1.3615 -0.0087
 1621SOL     OW16495   0.502   3.574   5.644  0.5953  0.1004 -0.0755
 1621SOL    HW116496   0.565   3.641   5.618  0.4501  0.5016  0.6062
 1621SOL    HW216497   0.484   3.531   5.560 -1.7358 -0.9816  0.9740
 1622SOL     OW16498   2.955   2.078   2.356  0.6030  0.4493 -0.4918
 1622SOL    HW116499   2.935   1.999   2.305  0.5769 -0.5185  1.0424
 1622SOL    HW216500   2.876   2.081   2.410  0.7995 -1.5395 -0.1228
 1623SOL     OW16501   1.497   2.345  14.079  0.1043  0.5101  0.5954
 1623SOL    HW116502   1.506   2.441  14.085  0.1132  0.6582 -1.6576
 1623SOL    HW216503   1.450   2.324  14.160 -1.7500  2.5100  0.0321
 1624SOL     OW16504   2.069   4.283   3.977  0.2254 -0.6408 -0.6370
 1624SOL    HW116505   2.065   4.277   4.072 -0.7441  1.8552 -0.5103
 1624SOL    HW216506   2.047   4.191   3.963  0.9391 -1.1225  1.4957
 1625SOL     OW16507   1.272   1.518   8.826  0.5675  0.7819  0.0418
 1625SOL    HW116508   1.353   1.489   8.786  0.2815 -2.3718  1.7300
 1625SOL    HW216509   1.211   1.482   8.762 -1.0189  1.7886  0.9812
 1626SOL     OW16510   1.099   2.369   3.962 -0.6176  0.0455 -0.2652
 1626SOL    HW116511   1.007   2.392   3.972 -0.5294  0.1345  0.2913
 1626SOL    HW216512   1.093   2.274   3.951 -0.0720  0.1029 -1.1181
 1627SOL     OW16513   3.231   4.446   3.056 -0.0234 -0.6123  0.2624
 1627SOL    HW116514   3.164   4.386   3.025 -1.9148  2.4622 -1.5434
 1627SOL    HW216515   3.236   4.506   2.982  0.0338 -1.1544 -0.1697
 1628SOL     OW16516   3.311   3.762   6.720  0.0674  0.2318 -0.4033
 1628SOL    HW116517   3.346   3.840   6.676  1.5611 -1.0248 -1.4291
 1628SOL    HW216518   3.377   3.752   6.788  0.2277  0.3382 -0.5427
 1629SOL     OW16519   4.070   4.118   6.033  0.4141 -0.6168  0.1753
 1629SOL    HW116520   4.036   4.049   5.976  0.0678 -1.4212  1.3396
 1629SOL    HW216521   4.162   4.097   6.046  0.9259  1.7218  0.3044
 1630SOL     OW16522   1.279   4.435   6.380  0.0927 -0.9571  0.3709
 1630SOL    HW116523   1.209   4.382   6.418 -2.0196  0.1409 -2.0034
 1630SOL    HW216524   1.349   4.432   6.446  2.0356  1.1074 -1.5824
 1631SOL     OW16525   0.457   0.400  16.639 -0.5328 -0.0304 -0.1999
 1631SOL    HW116526   0.447   0.328  16.577  2.0968 -0.5365 -0.0177
 1631SOL    HW216527   0.373   0.445  16.632  0.1699  1.1841 -0.8767
 1632SOL     OW16528   1.939   2.280  10.754 -0.0437  0.6993  0.1222
 1632SOL    HW116529   2.024   2.252  10.790  0.0875 -0.5221 -1.1769
 1632SOL    HW216530   1.877   2.238  10.813 -0.6707  1.0065 -0.3165
 1633SOL     OW16531   0.633   0.462  13.532  0.1069 -0.0596  0.2071
 1633SOL    HW116532   0.678   0.441  13.613 -1.3563 -2.1922  0.4649
 1633SOL    HW216533   0.672   0.546  13.509  0.6405 -0.8194 -1.6431
 1634SOL     OW16534   1.954   3.290   4.676 -0.0994 -0.2539  0.1865
 1634SOL    HW116535   2.049   3.280   4.669 -0.2706 -1.8498  0.1876
 1634SOL    HW216536   1.919   3.236   4.605  0.9721 -0.9272  0.1676
 1635SOL     OW16537   1.043   3.602   4.838  0.4140  0.1516 -0.1523
 1635SOL    HW116538   1.050   3.509   4.858  1.9920  0.9873  3.1603
 1635SOL    HW216539   1.121   3.619   4.784  0.0484 -2.7888 -1.5917
 1636SOL     OW16540   2.579   3.000   1.279  0.2260 -0.0244 -0.0554
 1636SOL    HW116541   2.642   2.978   1.211  0.7974 -0.3694  0.5922
 1636SOL    HW216542   2.553   2.919   1.322 -0.9467  1.2858  1.7336
 1637SOL     OW16543   3.641   4.558  10.132 -0.6661 -0.2616  0.1616
 1637SOL    HW116544   3.699   4.574  10.206 -2.9192 -0.8131  2.0365
 1637SOL    HW216545   3.712   4.566  10.068 -0.2996  1.6564  0.8146
 1638SOL     OW16546   1.112   3.167   7.848 -0.4243  0.2451  0.1020
 1638SOL    HW116547   1.199   3.206   7.855  0.5344 -1.8500  0.1020
 1638SOL    HW216548   1.067   3.250   7.833 -0.8807 -0.3391 -1.7539
 1639SOL     OW16549   1.012   4.372   4.004 -0.2452 -0.1976 -0.5699
 1639SOL    HW116550   1.066   4.443   4.036 -1.1065  0.7893 -1.2905
 1639SOL    HW216551   1.056   4.364   3.919  0.0462 -0.5603 -0.3818
 1640SOL     OW16552   0.169   1.322   5.559 -0.2103  0.6322 -0.0679
 1640SOL    HW116553   0.243   1.267   5.582 -1.0229  0.6104  2.4599
 1640SOL    HW216554   0.128   1.341   5.643  3.6253  0.0222  1.8970
 1641SOL     OW16555   1.157   0.942   9.730  0.5169 -0.1458  0.4821
 1641SOL    HW116556   1.195   0.925   9.644  2.8816  0.6081  1.3736
 1641SOL    HW216557   1.089   1.001   9.698  1.5704  1.1623  0.6372
 1642SOL     OW16558   2.828   0.861  11.398 -0.4219 -0.2124 -0.7363
 1642SOL    HW116559   2.913   0.902  11.417  0.0652  0.2795 -4.0288
 1642SOL    HW216560   2.821   0.873  11.303 -0.6294  1.6752 -0.4819
 1643SOL     OW16561   0.227   2.835  12.712 -0.1909 -0.1996 -0.1083
 1643SOL    HW116562   0.134   2.847  12.731  0.4149  1.4108  1.8381
 1643SOL    HW216563   0.268   2.811  12.795 -1.4373  0.6129  0.7303
 1644SOL     OW16564   3.259   1.464   5.185 -0.9168 -0.6087  0.6428
 1644SOL    HW116565   3.315   1.471   5.262 -0.4985 -1.3050  0.4068
 1644SOL    HW216566   3.220   1.377   5.194  0.2725 -0.9740  2.2515
 1645SOL     OW16567   0.084   4.465  12.307  0.1725  0.2818 -0.3386
 1645SOL    HW116568   0.177   4.489  12.303  0.4556 -0.7401  0.2926
 1645SOL    HW216569   0.051   4.494  12.222 -0.7982  1.2403  0.3712
 1646SOL     OW16570   3.675   2.740   3.353  0.6183  0.7486  0.2285
 1646SOL    HW116571   3.634   2.826   3.345 -1.8120 -0.4747 -0.1794
 1646SOL    HW216572   3.613   2.695   3.409 -1.4692 -0.1041 -2.7713
 1647SOL     OW16573   0.064   1.470   2.242 -0.0150  0.2243  0.0333
 1647SOL    HW116574   0.101   1.459   2.330  0.3871 -0.6595 -0.2423
 1647SOL    HW216575   0.039   1.378   2.230  0.6603  0.4703 -3.2500
 1648SOL     OW16576   3.109   3.880   5.540 -0.4885  0.5140 -0.3569
 1648SOL    HW116577   3.062   3.943   5.593 -1.7962  0.4795 -1.4656
 1648SOL    HW216578   3.141   3.938   5.470 -2.7121 -0.0137 -1.8054
 1649SOL     OW16579   1.795   0.743   7.865  0.1887  0.2824 -0.8892
 1649SOL    HW116580   1.834   0.731   7.779 -0.9293  1.2044 -1.5293
 1649SOL    HW216581   1.845   0.683   7.919 -1.3192  0.8351  1.1325
 1650SOL     OW16582   2.987   0.147   2.031  0.2524  0.0643  0.2933
 1650SOL    HW116583   2.992   0.154   2.126 -0.5565  0.0241  0.3410
 1650SOL    HW216584   2.894   0.132   2.015  0.1621 -0.5917  1.4273
 1651SOL     OW16585   1.570   3.591   5.298  0.8507  0.4381 -0.3572
 1651SOL    HW116586   1.532   3.599   5.211 -0.9557 -1.1027  0.2961
 1651SOL    HW216587   1.579   3.684   5.322 -0.9171 -0.0203  2.1038
 1652SOL     OW16588   2.279   3.619   7.062  0.4951  0.4941  0.0297
 1652SOL    HW116589   2.369   3.651   7.058  0.4451  0.1492 -3.2235
 1652SOL    HW216590   2.261   3.635   7.155 -1.9804 -0.8818 -0.1981
 1653SOL     OW16591   0.932   2.167   3.402 -0.4399 -0.4149 -0.3771
 1653SOL    HW116592   0.980   2.092   3.436  0.7499  1.1116  1.3154
 1653SOL    HW216593   0.987   2.243   3.421  0.5922 -1.2292 -0.1071
 1654SOL     OW16594   3.314   3.958  13.921  0.2469 -0.2937  0.0038
 1654SOL    HW116595   3.355   3.879  13.885  2.4867  3.1318 -4.8642
 1654SOL    HW216596   3.387   4.018  13.935  0.0538  0.1086 -0.7570
 1655SOL     OW16597   3.061   2.829   6.259  0.1945  0.2419  0.3171
 1655SOL    HW116598   2.990   2.849   6.321 -0.8102 -2.8780  0.1640
 1655SOL    HW216599   3.103   2.915   6.249  1.2694 -0.1135  1.7674
 1656SOL     OW16600   2.636   1.029  13.069  0.2783 -0.2012  0.3258
 1656SOL    HW116601   2.658   0.993  13.154 -0.8729 -0.7604  0.3756
 1656SOL    HW216602   2.704   1.001  13.008 -1.1890  1.8084 -2.2414
 1657SOL     OW16603   0.718   4.219   4.065 -0.3775  0.5415 -0.2704
 1657SOL    HW116604   0.717   4.181   4.153  0.7336  1.2939  0.0650
 1657SOL    HW216605   0.745   4.308   4.087  0.9977 -0.5541  2.4661
 1658SOL     OW16606   4.282   3.572  13.340 -0.8003  0.4543  0.0075
 1658SOL    HW116607   4.370   3.607  13.345 -0.3001 -0.9222  0.8563
 1658SOL    HW216608   4.286   3.506  13.409 -1.6267  1.6579  1.2105
 1659SOL     OW16609   3.276   4.439   1.877 -0.2293 -0.0578 -0.0619
 1659SOL    HW116610   3.233   4.505   1.931  1.0408  1.5639 -1.0328
 1659SOL    HW216611   3.321   4.499   1.817 -0.8126 -0.2031 -0.6456
 1660SOL     OW16612   2.761   0.803   3.974 -0.0899  0.5630  0.0147
 1660SOL    HW116613   2.832   0.740   3.978  0.4027  1.1786  1.1044
 1660SOL    HW216614   2.805   0.888   3.976  0.1070  0.4630 -0.2291
 1661SOL     OW16615   3.322   1.845  10.589 -0.8158  0.7114 -0.0683
 1661SOL    HW116616   3.279   1.794  10.520 -1.1075  1.4009 -0.4004
 1661SOL    HW216617   3.254   1.909  10.612 -1.4707  0.2802 -0.8019
 1662SOL     OW16618   1.363   2.450   8.014  0.0279 -0.2066  0.2109
 1662SOL    HW116619   1.342   2.357   8.018  0.8593 -0.3375  1.7060
 1662SOL    HW216620   1.403   2.454   7.927  0.0436 -1.2082  0.1764
 1663SOL     OW16621   1.848   2.442   9.169  0.1295 -0.0142  0.3149
 1663SOL    HW116622   1.835   2.444   9.074  1.4436  4.5711  0.2292
 1663SOL    HW216623   1.924   2.385   9.177  1.3240  1.5694  0.3301
 1664SOL     OW16624   3.329   0.920   7.520  0.5119  0.3869 -0.5535
 1664SOL    HW116625   3.300   0.897   7.608  0.0059  0.1965 -0.7700
 1664SOL    HW216626   3.244   0.915   7.478 -1.2689  1.3661  2.9459
 1665SOL     OW16627   4.655   3.534   9.557  0.4844 -0.2786 -0.3892
 1665SOL    HW116628   4.579   3.574   9.514  0.5252  1.5967  1.2872
 1665SOL    HW216629   4.635   3.442   9.537  2.1345 -0.9464  1.1138
 1666SOL     OW16630   4.682   2.312   4.254  0.2048  0.1122  0.5865
 1666SOL    HW116631   4.719   2.320   4.342 -0.8983  0.4145  1.0295
 1666SOL    HW216632   0.028   2.295   4.206 -0.5113  1.8334 -1.2298
 1667SOL     OW16633   4.379   0.347   3.653  0.3883  0.6959 -0.5989
 1667SOL    HW116634   4.310   0.413   3.647 -0.5006 -0.2695 -0.9804
 1667SOL    HW216635   4.397   0.354   3.746  1.2055  0.1861 -0.7217
 1668SOL     OW16636   2.354   2.191   4.460 -0.5014 -0.8822  0.3034
 1668SOL    HW116637   2.380   2.280   4.482 -2.7536  0.2752 -1.8324
 1668SOL    HW216638   2.421   2.134   4.499  0.9101 -0.9704 -2.2763
 1669SOL     OW16639   2.098   0.595  17.581  0.6268 -0.1103 -0.0647
 1669SOL    HW116640   2.050   0.665  17.538  2.0213  0.9602  0.1272
 1669SOL    HW216641   2.172   0.575  17.524  0.3001 -1.3869 -0.0437
 1670SOL     OW16642   0.347   1.451   3.790 -0.3627  0.2962  0.2086
 1670SOL    HW116643   0.268   1.397   3.782 -1.7526  1.9859  2.3505
 1670SOL    HW216644   0.419   1.392   3.771 -2.0982 -1.3245 -1.4207
 1671SOL     OW16645   2.993   3.511   9.015  0.1715  0.3850  0.0552
 1671SOL    HW116646   2.936   3.521   9.091  0.1218  1.1200 -0.0738
 1671SOL    HW216647   3.079   3.529   9.051  0.7502  1.0876 -1.6736
 1672SOL     OW16648   0.904   1.273  15.903 -0.3816 -0.1495 -0.0831
 1672SOL    HW116649   0.907   1.188  15.947  1.4264  0.0233  0.1100
 1672SOL    HW216650   0.895   1.337  15.974  2.7989 -0.6397  0.7453
 1673SOL     OW16651   3.030   4.433   6.768 -0.6022 -0.6497  0.0547
 1673SOL    HW116652   3.055   4.366   6.704  0.4813  1.0652 -1.3202
 1673SOL    HW216653   3.110   4.433   6.820  0.8378  2.2911 -2.1618
 1674SOL     OW16654   4.370   0.385   4.732  0.2864 -0.3983  0.1760
 1674SOL    HW116655   4.277   0.409   4.728  0.1351 -1.0332 -0.2092
 1674SOL    HW216656   4.371   0.309   4.674 -0.1249  0.9711 -1.6488
 1675SOL     OW16657   0.428   3.563   5.009 -0.0905  0.8166 -0.2500
 1675SOL    HW116658   0.379   3.610   4.942  3.0137  2.9429 -1.0063
 1675SOL    HW216659   0.363   3.547   5.077  0.7713  0.2158  0.4289
 1676SOL     OW16660   2.075   0.037   2.458 -0.1325 -0.4673 -0.0291
 1676SOL    HW116661   2.099   0.002   2.373 -0.8153 -0.8733 -0.0547
 1676SOL    HW216662   2.148   0.013   2.515 -0.0566  0.2513  0.1748
 1677SOL     OW16663   0.574   4.546  17.673 -0.2607 -0.2423 -0.0282
 1677SOL    HW116664   0.539   4.484  17.609 -1.1525 -1.3394  1.5316
 1677SOL    HW216665   0.593   4.483   0.006 -0.4919 -1.3865 -1.0043
 1678SOL     OW16666   0.479   1.137  14.351 -0.1947 -0.3715 -0.1534
 1678SOL    HW116667   0.412   1.179  14.296 -0.7131 -0.5910  0.3090
 1678SOL    HW216668   0.440   1.140  14.438 -0.9245 -1.1131 -0.4516
 1679SOL     OW16669   3.839   3.963   2.477 -0.0277  0.3589 -0.4062
 1679SOL    HW116670   3.782   3.928   2.545  0.4727  1.0485  0.3777
 1679SOL    HW216671   3.789   3.944   2.398  0.4805 -1.0838 -0.3708
 1680SOL     OW16672   0.044   3.160  17.250 -0.2956 -0.2200 -0.5008
 1680SOL    HW116673   0.106   3.194  17.314 -1.9125 -0.4917  1.1964
 1680SOL    HW216674   0.082   3.190  17.167 -1.8868  1.7665 -0.5174
 1681SOL     OW16675   2.481   0.333  13.158 -0.1940  0.3935 -0.0416
 1681SOL    HW116676   2.565   0.358  13.196  0.1249 -1.6000  0.5584
 1681SOL    HW216677   2.497   0.354  13.066  1.2108 -0.5211 -0.0065
 1682SOL     OW16678   0.487   0.038  10.519  0.2811 -0.4639 -0.5413
 1682SOL    HW116679   0.404   0.084  10.530  0.7149  0.4866 -1.2886
 1682SOL    HW216680   0.484   4.718  10.598  3.0410  0.5996  0.2892
 1683SOL     OW16681   2.890   0.766   1.073 -0.2163  0.0103  0.0901
 1683SOL    HW116682   2.875   0.832   1.005  0.6792  0.6953  0.5556
 1683SOL    HW216683   2.878   0.684   1.026  0.3060 -0.4795  0.8007
 1684SOL     OW16684   2.474   0.365   3.676  0.0102  0.4050 -0.1590
 1684SOL    HW116685   2.498   0.383   3.767 -1.6246  1.1440  0.1120
 1684SOL    HW216686   2.380   0.378   3.688  0.2669  1.1953  0.9782
 1685SOL     OW16687   2.818   4.234   8.466 -0.4422  0.0484  0.2632
 1685SOL    HW116688   2.817   4.319   8.512 -1.4067 -1.0593  2.3024
 1685SOL    HW216689   2.772   4.180   8.530 -2.7629  1.3675 -0.3081
 1686SOL     OW16690   4.540   3.108   8.501 -0.1140  0.1320  0.1059
 1686SOL    HW116691   4.590   3.134   8.579  2.9007 -1.8237 -1.1702
 1686SOL    HW216692   4.482   3.178   8.470 -1.7248 -0.7937  1.0213
 1687SOL     OW16693   2.509   2.140  12.774 -0.4510  0.1982  0.2490
 1687SOL    HW116694   2.481   2.102  12.690 -0.2110 -1.7419  1.0559
 1687SOL    HW216695   2.432   2.185  12.808 -0.3301  0.9312 -0.4269
 1688SOL     OW16696   4.732   3.587   3.341 -0.2736 -0.7098 -0.0399
 1688SOL    HW116697   4.690   3.611   3.424  0.4174  0.8990 -0.1688
 1688SOL    HW216698   0.088   3.569   3.365 -0.0720 -0.4353 -0.6079
 1689SOL     OW16699   1.978   3.270   9.228 -0.2127  0.3307  0.8151
 1689SOL    HW116700   2.062   3.289   9.186 -0.2933 -1.9207 -0.3898
 1689SOL    HW216701   1.992   3.177   9.212  1.8145  0.8450 -0.3285
 1690SOL     OW16702   1.120   2.167  10.043  0.2526  0.6580 -0.2887
 1690SOL    HW116703   1.109   2.137  10.134  0.9788 -0.5897 -0.6142
 1690SOL    HW216704   1.095   2.083  10.004 -1.7153  0.7193  0.8223
 1691SOL     OW16705   1.297   0.231   5.373 -0.1978 -0.1648  0.1759
 1691SOL    HW116706   1.253   0.191   5.448  0.4011  0.0992  0.6697
 1691SOL    HW216707   1.373   0.173   5.373 -0.3306 -0.3318 -1.7604
 1692SOL     OW16708   0.424   3.745   1.840 -0.3084  0.6773 -0.5350
 1692SOL    HW116709   0.370   3.688   1.784 -0.3468 -0.2883  0.4827
 1692SOL    HW216710   0.379   3.757   1.923  0.0189  2.8948 -0.7015
 1693SOL     OW16711   4.225   2.655  10.992  0.0804  0.2804 -0.5257
 1693SOL    HW116712   4.248   2.748  10.998 -1.4525  0.5102  1.4755
 1693SOL    HW216713   4.174   2.661  10.911  1.8931  0.3576 -1.6731
 1694SOL     OW16714   0.169   4.316   7.985  0.0716  0.0534  1.0237
 1694SOL    HW116715   0.210   4.347   7.904 -0.1700  0.7045  1.1469
 1694SOL    HW216716   0.126   4.240   7.946 -0.5144  0.4443  0.9188
 1695SOL     OW16717   2.792   4.057   6.579 -0.1339 -0.7051 -0.3716
 1695SOL    HW116718   2.870   4.001   6.582 -0.2503 -0.9120 -1.5216
 1695SOL    HW216719   2.728   3.986   6.575 -2.2673  1.2772 -1.2143
 1696SOL     OW16720   1.032   0.706  15.440  0.9213 -0.3649  0.5613
 1696SOL    HW116721   0.996   0.622  15.414  1.9587 -0.1293 -1.6277
 1696SOL    HW216722   1.002   0.711  15.531 -1.2223  1.5311 -0.2706
 1697SOL     OW16723   4.076   2.338  14.931  0.1498  0.1995 -0.0282
 1697SOL    HW116724   4.159   2.385  14.936 -0.0862  0.6900 -0.7534
 1697SOL    HW216725   4.113   2.250  14.941  0.3435  0.2900  0.0512
 1698SOL     OW16726   0.206   1.264  15.027  0.3345  0.2602  0.6305
 1698SOL    HW116727   0.244   1.255  14.940  0.9778  2.2236  0.7163
 1698SOL    HW216728   0.112   1.261  15.012  0.1081  1.0923  1.9188
 1699SOL     OW16729   3.848   3.842  12.145 -1.0391 -0.1168  0.1821
 1699SOL    HW116730   3.931   3.850  12.098 -2.0089  1.7162 -1.2082
 1699SOL    HW216731   3.805   3.784  12.082 -0.6186 -1.1127  0.8033
 1700SOL     OW16732   4.515   4.516  11.933  0.5577 -0.1619  0.0432
 1700SOL    HW116733   4.555   4.511  11.846  0.5678 -0.9122  0.0944
 1700SOL    HW216734   4.453   4.443  11.926 -1.1955  1.3040  0.1644
 1701SOL     OW16735   1.954   2.399   0.689  0.6818  0.0674 -0.3995
 1701SOL    HW116736   2.011   2.384   0.764  2.3220 -2.3251 -2.1151
 1701SOL    HW216737   2.013   2.436   0.623 -0.1023  1.2537 -0.4395
 1702SOL     OW16738   1.096   3.281  17.591  0.3487  0.2838  0.3030
 1702SOL    HW116739   1.143   3.365  17.596 -0.5335  0.7480  0.8661
 1702SOL    HW216740   1.090   3.267  17.497 -1.0808 -0.7631  0.5512
 1703SOL     OW16741   0.778   1.083   7.851  0.3054 -0.3883  0.0238
 1703SOL    HW116742   0.812   1.124   7.931 -0.2726 -0.8086  0.4924
 1703SOL    HW216743   0.760   1.166   7.807  0.6016 -0.5690 -0.4310
 1704SOL     OW16744   1.269   0.028   4.211  0.8283  0.0684  0.2157
 1704SOL    HW116745   1.273   0.092   4.139 -2.9978  0.2991  0.2345
 1704SOL    HW216746   1.195   0.064   4.259 -1.2658 -1.6849 -1.7037
 1705SOL     OW16747   0.529   3.191  15.720 -0.7763 -0.1733  0.1984
 1705SOL    HW116748   0.527   3.228  15.808  4.8974  1.1277 -0.2265
 1705SOL    HW216749   0.515   3.101  15.747 -0.3608 -0.5012 -0.6536
 1706SOL     OW16750   1.353   1.367  14.507  0.4379 -0.1107 -0.0584
 1706SOL    HW116751   1.315   1.368  14.420 -2.8527 -1.0607  1.3581
 1706SOL    HW216752   1.436   1.330  14.477  0.0664 -1.0995  0.1148
 1707SOL     OW16753   3.545   3.041  17.522 -0.0275 -0.2570 -0.2928
 1707SOL    HW116754   3.597   3.095  17.463  0.8060  0.5902  1.2410
 1707SOL    HW216755   3.549   2.961  17.470  0.4883  0.3566 -1.1994
 1708SOL     OW16756   2.677   0.544   7.942  0.1463  0.3888  0.3045
 1708SOL    HW116757   2.760   0.580   7.914  1.5225 -1.3086  2.1347
 1708SOL    HW216758   2.645   0.607   8.007  0.5892  1.4253 -0.4935
 1709SOL     OW16759   0.978   0.318   2.789 -0.1364  0.2832  0.2093
 1709SOL    HW116760   1.006   0.320   2.698  1.3329  0.1169  0.6597
 1709SOL    HW216761   0.918   0.392   2.789 -0.2111  0.2224  0.5942
 1710SOL     OW16762   0.269   3.698   4.513 -0.5506 -0.2269 -0.2651
 1710SOL    HW116763   0.225   3.628   4.466 -2.0879 -0.1665  1.0673
 1710SOL    HW216764   0.222   3.690   4.596 -0.1221 -0.6628 -0.0598
 1711SOL     OW16765   4.113   2.524   3.243 -0.1952 -0.6394 -0.6216
 1711SOL    HW116766   4.039   2.580   3.223  1.4917  1.6010 -0.6055
 1711SOL    HW216767   4.171   2.538   3.168  0.9303  0.8364  0.5211
 1712SOL     OW16768   1.624   1.205   3.339 -0.5216 -0.4037 -0.3278
 1712SOL    HW116769   1.688   1.184   3.407 -0.5233 -0.2514 -0.2796
 1712SOL    HW216770   1.622   1.123   3.290 -1.8349  1.4779 -3.4407
 1713SOL     OW16771   0.214   2.071   3.870  0.1272 -0.3483  0.6857
 1713SOL    HW116772   0.280   2.035   3.929  1.1842  1.8059  0.8146
 1713SOL    HW216773   0.268   2.056   3.792 -1.5716  0.5845 -0.6738
 1714SOL     OW16774   3.249   3.544   0.814 -0.2958 -0.1344 -0.1685
 1714SOL    HW116775   3.315   3.530   0.881 -0.1861  3.3692  0.4872
 1714SOL    HW216776   3.218   3.454   0.812 -2.9135  0.7476  0.2043
 1715SOL     OW16777   0.933   2.420   9.742  0.0282  0.1605  0.2858
 1715SOL    HW116778   0.881   2.340   9.738 -0.0129  0.0941  2.3354
 1715SOL    HW216779   0.862   2.484   9.743 -0.2246 -0.1225  0.3685
 1716SOL     OW16780   4.221   3.502  13.821  0.0340 -0.0636  0.0561
 1716SOL    HW116781   4.245   3.580  13.871  2.5960 -1.6314  1.3157
 1716SOL    HW216782   4.174   3.449  13.886 -0.0262  0.9807  0.8637
 1717SOL     OW16783   2.887   2.696   2.744 -0.0720  0.3870  0.0495
 1717SOL    HW116784   2.932   2.648   2.675  2.6961  0.6979  1.6370
 1717SOL    HW216785   2.821   2.748   2.697 -0.3645 -0.3680 -0.3724
 1718SOL     OW16786   4.164   0.380   7.309  0.2223  0.7189  1.2052
 1718SOL    HW116787   4.204   0.437   7.243  0.9587  0.7174  1.6436
 1718SOL    HW216788   4.210   0.400   7.390  1.4210 -0.9364  0.9358
 1719SOL     OW16789   3.402   4.070   0.927  0.4379 -0.5424 -0.2365
 1719SOL    HW116790   3.399   3.999   0.862 -0.6272  1.1826 -2.0752
 1719SOL    HW216791   3.448   4.146   0.892 -1.5857  1.5259  1.5534
 1720SOL     OW16792   0.700   2.717  17.293  0.0178 -0.3562  0.6487
 1720SOL    HW116793   0.625   2.660  17.278 -0.4315 -0.1031  1.9269
 1720SOL    HW216794   0.721   2.730  17.201 -0.5686 -0.4204  0.5084
 1721SOL     OW16795   0.207   0.983   9.735 -0.5679 -0.6544 -0.0164
 1721SOL    HW116796   0.115   0.958   9.729 -1.1064  1.1441  0.7598
 1721SOL    HW216797   0.216   1.001   9.828 -1.4397 -2.6596  0.4489
 1722SOL     OW16798   2.131   0.053   6.621  0.1478  0.2321  0.0935
 1722SOL    HW116799   2.142   0.142   6.655  1.5469  0.5656 -1.2384
 1722SOL    HW216800   2.072   0.015   6.687  0.1556  2.7218  1.5267
 1723SOL     OW16801   3.831   3.213   5.211 -0.0219 -0.7740 -0.6534
 1723SOL    HW116802   3.770   3.164   5.267  0.2254 -0.4330 -0.0765
 1723SOL    HW216803   3.844   3.156   5.136  1.1175  0.0210 -1.0606
 1724SOL     OW16804   1.560   4.125   5.691 -0.1341 -0.6616  0.2867
 1724SOL    HW116805   1.619   4.159   5.623 -2.9651 -0.0554 -1.8515
 1724SOL    HW216806   1.611   4.134   5.772  1.1951 -0.6865 -0.5380
 1725SOL     OW16807   1.081   0.980   8.818  0.0525 -0.0759  0.5094
 1725SOL    HW116808   1.015   0.923   8.857 -1.8872  1.2391 -0.8951
 1725SOL    HW216809   1.027   1.007   8.744 -0.6448 -2.0850  0.2916
 1726SOL     OW16810   0.700   2.198  14.601 -0.3441  0.1454  0.0945
 1726SOL    HW116811   0.643   2.275  14.594 -0.4615  0.0530  0.0188
 1726SOL    HW216812   0.762   2.238  14.541  1.2540 -0.5977  1.2670
 1727SOL     OW16813   3.031   0.976  10.128 -0.8259  0.2925 -0.0908
 1727SOL    HW116814   3.047   0.938  10.214 -0.6569 -0.1425 -0.3101
 1727SOL    HW216815   2.935   0.975  10.130 -0.8372  0.3277 -0.5684
 1728SOL     OW16816   2.705   2.014   6.409  0.2015 -0.0495 -0.4444
 1728SOL    HW116817   2.662   2.071   6.346 -1.4798 -0.7303  0.1110
 1728SOL    HW216818   2.791   2.055   6.421  0.6191 -1.0386  0.0220
 1729SOL     OW16819   1.372   0.314   3.300 -0.1535 -0.6018  0.1716
 1729SOL    HW116820   1.303   0.265   3.345 -0.1570 -0.6920  0.0675
 1729SOL    HW216821   1.331   0.333   3.216  0.0368  0.0930  0.2391
 1730SOL     OW16822   4.666   3.677   6.929 -0.3478 -0.8212  0.7669
 1730SOL    HW116823   4.620   3.760   6.945  2.4368  0.9505 -0.3171
 1730SOL    HW216824   4.684   3.675   6.835 -0.3163  0.8854  0.7395
 1731SOL     OW16825   0.189   2.080   7.717  0.5573 -0.3456  0.2451
 1731SOL    HW116826   0.109   2.058   7.669  0.0108  0.5094  0.7569
 1731SOL    HW216827   0.255   2.077   7.649  0.3688 -1.5994  0.1097
 1732SOL     OW16828   3.054   2.083   4.782 -0.3307  0.1750 -0.1448
 1732SOL    HW116829   3.006   2.123   4.855 -1.6856 -0.8674 -0.4724
 1732SOL    HW216830   3.080   2.002   4.825 -3.1968 -0.1886  0.9204
 1733SOL     OW16831   1.265   0.665  15.261  0.3690 -0.4093 -0.4057
 1733SOL    HW116832   1.243   0.595  15.199  2.3598  0.8648 -2.5708
 1733SOL    HW216833   1.176   0.669  15.296  0.6627 -0.7059  0.3748
 1734SOL     OW16834   2.237   1.405   3.838 -0.0245 -0.4021  0.1975
 1734SOL    HW116835   2.221   1.423   3.931 -1.8650 -4.3603  0.6176
 1734SOL    HW216836   2.317   1.353   3.834 -1.1906 -2.1332 -0.3245
 1735SOL     OW16837   0.948   4.370   0.096 -0.9425  0.1285  0.7223
 1735SOL    HW116838   0.953   4.277   0.116 -0.5624 -0.1687 -0.7326
 1735SOL    HW216839   0.889   4.385   0.022  1.1753 -2.6798 -1.5361
 1736SOL     OW16840   3.576   3.466   5.260  0.9772 -0.5613  0.2017
 1736SOL    HW116841   3.533   3.414   5.193  1.1072  1.0999 -1.1677
 1736SOL    HW216842   3.503   3.511   5.305  0.0151 -1.7299 -0.2104
 1737SOL     OW16843   4.453   0.028   2.916  0.4641  0.3258  0.2414
 1737SOL    HW116844   4.488   0.027   3.005  0.3628 -0.1128  0.2779
 1737SOL    HW216845   4.490   4.679   2.887 -0.9902 -0.9434  2.0210
 1738SOL     OW16846   2.097   1.891   5.685 -0.6331 -0.8073  0.9349
 1738SOL    HW116847   2.132   1.922   5.602 -0.6608 -0.2006  1.1531
 1738SOL    HW216848   2.167   1.906   5.748  0.1501 -0.4620 -0.0141
 1739SOL     OW16849   4.447   1.088   0.460 -0.3504  0.0966  0.5289
 1739SOL    HW116850   4.423   1.180   0.450 -1.3035 -0.5271 -2.5967
 1739SOL    HW216851   4.542   1.100   0.450 -0.4758  1.5733  1.0955
 1740SOL     OW16852   1.392   1.640  17.575 -0.2174  0.2118 -0.1682
 1740SOL    HW116853   1.345   1.597  17.647  3.2750  2.0388  3.2156
 1740SOL    HW216854   1.353   1.595  17.500  1.7214 -1.3214 -0.2562
 1741SOL     OW16855   0.814   2.110   8.173 -0.6244 -0.7107  0.1596
 1741SOL    HW116856   0.788   2.151   8.091  1.2343  0.9631  0.4102
 1741SOL    HW216857   0.870   2.183   8.198  2.0589 -2.6635 -0.1501
 1742SOL     OW16858   3.392   3.686   1.803 -0.2426 -0.0907  0.1986
 1742SOL    HW116859   3.329   3.686   1.876 -0.7990  3.0471 -0.2904
 1742SOL    HW216860   3.337   3.695   1.726  0.5081  1.7979 -0.1060
 1743SOL     OW16861   0.401   3.042   8.451  0.4458 -0.8377 -0.3919
 1743SOL    HW116862   0.311   3.071   8.465  1.0595 -0.2908  2.5133
 1743SOL    HW216863   0.426   3.043   8.543 -2.5695 -1.7609  0.4410
 1744SOL     OW16864   0.501   3.217   2.408  0.0642 -0.1509  0.0282
 1744SOL    HW116865   0.450   3.173   2.339  2.2714 -3.0770  0.3016
 1744SOL    HW216866   0.545   3.151   2.460 -1.8272 -0.4968  1.1842
 1745SOL     OW16867   4.554   2.465   1.829  0.5098  0.1371  0.1547
 1745SOL    HW116868   4.600   2.538   1.871 -0.5723  0.2867  1.0774
 1745SOL    HW216869   4.629   2.436   1.777 -1.1118 -0.4498 -1.8381
 1746SOL     OW16870   3.877   1.570  11.954  0.3120  0.1085  0.2487
 1746SOL    HW116871   3.958   1.535  11.915 -0.3225 -2.4349  1.2143
 1746SOL    HW216872   3.898   1.664  11.953 -1.9318  0.6022 -0.1461
 1747SOL     OW16873   4.622   0.027   3.133  0.0506  0.4110  0.4154
 1747SOL    HW116874   4.669   0.110   3.118  1.7169 -0.6788 -0.3968
 1747SOL    HW216875   4.697   4.702   3.131 -0.4308 -0.1675 -0.6183
 1748SOL     OW16876   1.477   2.509   4.410 -0.6601 -0.2665  0.4845
 1748SOL    HW116877   1.398   2.564   4.412 -0.1846  0.4728 -1.2107
 1748SOL    HW216878   1.432   2.425   4.418 -1.0615 -0.2724 -1.7525
 1749SOL     OW16879   2.940   1.326   4.269 -0.1591 -0.5688  0.0719
 1749SOL    HW116880   2.855   1.294   4.298 -0.1484  0.7743  1.6537
 1749SOL    HW216881   2.985   1.242   4.266 -3.0199 -1.9920 -1.5529
 1750SOL     OW16882   3.049   2.208   1.821  0.1428  0.0271  0.1027
 1750SOL    HW116883   3.053   2.291   1.773 -0.0886  0.2985  0.5517
 1750SOL    HW216884   3.022   2.235   1.908 -1.1622  0.0934 -0.3314
 1751SOL     OW16885   1.782   3.474   5.016  0.0578 -0.3223  0.2268
 1751SOL    HW116886   1.818   3.388   5.040  0.6391  0.4279  2.0072
 1751SOL    HW216887   1.689   3.478   5.037 -0.2940 -2.5390 -0.9112
 1752SOL     OW16888   1.271   2.012   8.595  0.6733  0.6527 -0.1553
 1752SOL    HW116889   1.338   2.068   8.634  0.4291  1.1932 -0.5195
 1752SOL    HW216890   1.241   2.058   8.517  3.7592  1.9489 -0.5947
 1753SOL     OW16891   2.560   0.335   4.945 -0.4516  0.5770  0.8530
 1753SOL    HW116892   2.471   0.307   4.967 -1.3551  1.7022 -1.4578
 1753SOL    HW216893   2.545   0.384   4.865  1.3247  0.3880  0.3984
 1754SOL     OW16894   3.020   0.200   6.043 -0.1693  1.1605  0.3686
 1754SOL    HW116895   2.938   0.217   5.997 -0.4766  1.6589  1.1036
 1754SOL    HW216896   3.039   0.287   6.076  0.7628  1.2184 -0.3244
 1755SOL     OW16897   2.547   1.591   2.974  0.2868  0.5825  0.5247
 1755SOL    HW116898   2.589   1.521   2.926 -0.3282  1.9390 -1.9702
 1755SOL    HW216899   2.547   1.555   3.063 -2.5285 -3.0607 -0.9681
 1756SOL     OW16900   2.836   3.829   5.206 -0.0764  0.4966 -0.4215
 1756SOL    HW116901   2.822   3.773   5.129  1.2995  0.0681 -0.3502
 1756SOL    HW216902   2.873   3.906   5.165  0.3711 -0.1235 -1.1874
 1757SOL     OW16903   0.638   3.357   8.580  0.1740  0.3796 -0.0305
 1757SOL    HW116904   0.543   3.361   8.565  0.2153 -1.4532 -0.7989
 1757SOL    HW216905   0.647   3.290   8.647  0.8241  0.3119 -0.1845
 1758SOL     OW16906   0.052   4.220   4.196  0.8335  0.4593  0.6387
 1758SOL    HW116907   0.091   4.140   4.161 -0.3730 -0.5994  1.7149
 1758SOL    HW216908   4.726   4.183   4.261  1.0539 -0.2936  0.4169
 1759SOL     OW16909   4.428   3.748   7.123  0.1858  0.0836  0.1509
 1759SOL    HW116910   4.482   3.678   7.087  0.3006  0.1075  0.2747
 1759SOL    HW216911   4.493   3.818   7.114 -0.1469  0.9094  3.8373
 1760SOL     OW16912   4.229   3.518   7.756 -0.0133  0.5426 -0.0682
 1760SOL    HW116913   4.270   3.539   7.672 -0.1041  0.1410 -0.2111
 1760SOL    HW216914   4.232   3.423   7.746 -0.3405  0.6304 -0.9794
 1761SOL     OW16915   3.739   2.170   5.321  0.4991  0.3415  0.0024
 1761SOL    HW116916   3.802   2.157   5.250  0.5582  0.2256  0.0769
 1761SOL    HW216917   3.792   2.209   5.390  1.0964  0.4469 -0.5208
 1762SOL     OW16918   0.224   1.771  11.864 -0.0385 -0.1367 -0.3666
 1762SOL    HW116919   0.278   1.782  11.942  0.1928 -2.6973 -0.1495
 1762SOL    HW216920   0.150   1.825  11.890 -0.1240 -0.6364  0.4265
 1763SOL     OW16921   1.471   0.152   2.837 -0.4275 -0.2270 -1.0601
 1763SOL    HW116922   1.503   0.108   2.759  0.2332  1.6857 -1.8763
 1763SOL    HW216923   1.379   0.162   2.812 -0.5622  0.5839 -0.2371
 1764SOL     OW16924   0.399   2.882   0.084  0.0801  0.1198  0.0034
 1764SOL    HW116925   0.415   2.828   0.007  0.8001  0.5372 -0.1454
 1764SOL    HW216926   0.342   2.826   0.135  0.8102 -1.7373 -1.2288
 1765SOL     OW16927   1.483   1.020   9.182 -0.0756  0.1807 -0.1134
 1765SOL    HW116928   1.492   0.925   9.192 -0.6008  0.0313 -1.0056
 1765SOL    HW216929   1.425   1.016   9.106  0.0203  0.2530 -0.1908
 1766SOL     OW16930   1.557   1.761   8.719  0.0948  0.3517 -0.2115
 1766SOL    HW116931   1.592   1.756   8.808 -0.8031  0.7451  0.1620
 1766SOL    HW216932   1.531   1.853   8.720 -0.5399  0.1535  1.0224
 1767SOL     OW16933   1.706   2.734   3.016 -0.2970 -0.2566  0.1952
 1767SOL    HW116934   1.752   2.704   2.938 -1.0443  2.3559 -1.2299
 1767SOL    HW216935   1.770   2.721   3.086  1.3667  2.8491 -0.7733
 1768SOL     OW16936   1.717   2.372   5.884  0.8623  0.0580  0.5843
 1768SOL    HW116937   1.730   2.280   5.909  0.1628 -0.7263 -1.8714
 1768SOL    HW216938   1.765   2.418   5.952  0.9846  3.8105 -2.0773
 1769SOL     OW16939   1.955   0.037   9.861 -0.1342 -0.3959  0.0520
 1769SOL    HW116940   1.920   4.704   9.919 -0.5419 -2.6032 -2.7087
 1769SOL    HW216941   1.886   0.102   9.853  0.6918  0.2433 -1.9775
 1770SOL     OW16942   3.863   3.510   4.460 -0.4807  0.1030  0.2205
 1770SOL    HW116943   3.785   3.546   4.417 -0.3505  1.2619  0.9499
 1770SOL    HW216944   3.911   3.469   4.388 -0.6684 -0.9367  0.6918
 1771SOL     OW16945   0.432   0.861   6.107  0.2808 -0.0495  0.3623
 1771SOL    HW116946   0.379   0.890   6.181 -1.5632 -1.4096 -0.4073
 1771SOL    HW216947   0.478   0.785   6.144  0.2421 -0.7423 -1.0112
 1772SOL     OW16948   2.374   2.240   3.250  0.4270 -0.5600  0.0508
 1772SOL    HW116949   2.415   2.182   3.186  1.0329 -1.0559  0.8787
 1772SOL    HW216950   2.379   2.319   3.197 -1.4495 -0.3223  0.2610
 1773SOL     OW16951   2.974   4.164  15.791  0.0318  0.3366  0.1161
 1773SOL    HW116952   2.904   4.120  15.838 -0.7620 -0.9305 -2.2585
 1773SOL    HW216953   2.920   4.212  15.727  1.7957  1.7454 -0.3260
 1774SOL     OW16954   2.919   3.570   6.332  0.1519  0.3679  0.7575
 1774SOL    HW116955   2.990   3.584   6.269  1.1244 -0.4240  1.6568
 1774SOL    HW216956   2.958   3.589   6.418 -0.1134  2.0314  0.4935
 1775SOL     OW16957   2.273   1.610   5.154 -0.3409  0.2326 -0.4065
 1775SOL    HW116958   2.322   1.531   5.134 -0.6544 -0.2185  0.6241
 1775SOL    HW216959   2.338   1.672   5.119 -0.2280 -0.3122 -1.1695
 1776SOL     OW16960   0.756   1.099  11.922  0.2030 -0.1583 -0.4020
 1776SOL    HW116961   0.667   1.105  11.889  0.0564 -0.0232  0.0169
 1776SOL    HW216962   0.736   1.034  11.990  1.3022  1.4131  1.4450
 1777SOL     OW16963   2.059   4.143   7.451 -0.1676 -0.0051  0.0347
 1777SOL    HW116964   2.031   4.213   7.509  0.4040 -0.3687  0.7449
 1777SOL    HW216965   2.141   4.115   7.492 -1.4275 -1.3042  1.6789
 1778SOL     OW16966   1.256   1.079   6.504 -0.0694  0.7180  0.5001
 1778SOL    HW116967   1.324   1.096   6.569  0.2415  0.2510  0.2991
 1778SOL    HW216968   1.286   1.135   6.433  1.0895 -0.0564  0.3668
 1779SOL     OW16969   0.796   3.131  15.572  0.6592  0.3980 -0.4588
 1779SOL    HW116970   0.762   3.119  15.483 -0.4973  0.5740 -0.0360
 1779SOL    HW216971   0.713   3.138  15.620  0.1973  0.4715 -1.2756
 1780SOL     OW16972   2.723   2.957   5.763  0.0391  0.2751  0.4231
 1780SOL    HW116973   2.659   2.962   5.834 -0.2649 -0.8347  0.2254
 1780SOL    HW216974   2.671   2.911   5.697 -0.8970  0.7056  0.8591
 1781SOL     OW16975   3.230   0.622  17.027 -0.1300  0.5959 -0.0633
 1781SOL    HW116976   3.141   0.588  17.021  0.9992 -2.4813  0.0825
 1781SOL    HW216977   3.219   0.681  17.101  2.7349  0.4563  0.4677
 1782SOL     OW16978   0.337   1.192   7.743 -0.0328 -0.2925  0.3056
 1782SOL    HW116979   0.390   1.267   7.769  0.1029 -0.4123  0.3818
 1782SOL    HW216980   0.260   1.205   7.799  0.0697 -0.6563  0.5363
 1783SOL     OW16981   1.143   2.578   0.851 -0.1284 -0.1085  0.8394
 1783SOL    HW116982   1.061   2.628   0.849 -0.2181 -0.2010  1.9416
 1783SOL    HW216983   1.200   2.644   0.813 -0.6630  1.0679  2.0789
 1784SOL     OW16984   1.578   3.902   9.519  0.0174  0.0892 -0.4415
 1784SOL    HW116985   1.633   3.979   9.532 -0.0210  0.3213 -1.6231
 1784SOL    HW216986   1.505   3.926   9.576  0.8712  1.0122  0.2758
 1785SOL     OW16987   2.486   1.296   6.492  0.5027 -0.3845 -0.0690
 1785SOL    HW116988   2.574   1.299   6.456  0.8219  0.3183  0.7667
 1785SOL    HW216989   2.486   1.361   6.562 -1.0823  0.1464 -0.5634
 1786SOL     OW16990   2.676   0.551   7.551  0.7568  0.3198 -0.1453
 1786SOL    HW116991   2.734   0.626   7.540  2.2204 -0.5688  1.4642
 1786SOL    HW216992   2.634   0.525   7.469  2.6491 -1.2717 -0.6017
 1787SOL     OW16993   0.499   4.718  14.250 -0.1601  0.6966 -0.0786
 1787SOL    HW116994   0.414   4.712  14.292 -0.0223  0.6395  0.1915
 1787SOL    HW216995   0.540   0.042  14.314 -0.8708  0.9088  0.1746
 1788SOL     OW16996   3.092   2.545   3.281 -1.0718 -0.3779 -0.1980
 1788SOL    HW116997   3.155   2.486   3.239 -0.2205  1.1965 -1.1517
 1788SOL    HW216998   3.064   2.478   3.344  1.1373  1.3426  2.6370
 1789SOL     OW16999   1.279   3.073   0.778  0.3040 -0.2036  0.3582
 1789SOL    HW117000   1.345   3.107   0.839  1.3201  0.4853 -1.1226
 1789SOL    HW217001   1.216   3.144   0.771  0.2555 -0.2001  0.8416
 1790SOL     OW17002   4.193   1.009   7.394 -0.0613  0.5122  0.4862
 1790SOL    HW117003   4.182   1.090   7.445  2.5088  1.3299 -0.2714
 1790SOL    HW217004   4.112   0.964   7.420 -0.0961 -0.7161 -1.7668
 1791SOL     OW17005   2.778   0.233   0.931  0.5551  0.0876  0.1808
 1791SOL    HW117006   2.849   0.170   0.938 -0.2588 -1.1989 -3.1875
 1791SOL    HW217007   2.825   0.315   0.951  1.4373 -0.6087  0.9743
 1792SOL     OW17008   1.879   1.934   7.606  0.0192  0.1883 -0.4921
 1792SOL    HW117009   1.901   1.899   7.520 -0.0927 -1.7589  0.2661
 1792SOL    HW217010   1.839   1.857   7.647  1.4920  0.7517  1.9749
 1793SOL     OW17011   1.792   4.579   6.370 -0.0584  0.5253 -0.0612
 1793SOL    HW117012   1.866   4.556   6.426 -1.3869 -2.9870  0.3152
 1793SOL    HW217013   1.806   4.654   6.313 -0.4935  1.1155  0.5978
 1794SOL     OW17014   0.076   0.520   4.623 -0.6120  0.7511  0.1948
 1794SOL    HW117015   4.718   0.544   4.618 -0.8777 -0.4853 -1.2023
 1794SOL    HW217016   0.066   0.425   4.620  1.1151  0.5189  1.6546
 1795SOL     OW17017   1.912   4.464  11.529  0.1240 -0.1320 -0.0225
 1795SOL    HW117018   1.962   4.384  11.544  1.7457  0.7150 -1.0025
 1795SOL    HW217019   1.949   4.522  11.596 -1.0726 -0.6919  1.1248
 1796SOL     OW17020   0.935   0.903  10.635  0.6535  0.2082 -0.1212
 1796SOL    HW117021   0.857   0.935  10.590  0.7190 -1.4872 -1.4610
 1796SOL    HW217022   0.903   0.878  10.722  2.3905  0.7536  0.6721
 1797SOL     OW17023   3.061   1.877   5.041  0.7648  0.6753 -0.3498
 1797SOL    HW117024   3.145   1.834   5.054 -0.2478 -0.3072  3.1153
 1797SOL    HW217025   3.055   1.932   5.120 -0.1089 -0.8547  0.6492
 1798SOL     OW17026   2.072   1.672   2.547 -0.2671 -0.2483  0.1326
 1798SOL    HW117027   1.982   1.683   2.515  0.6686  0.3883 -2.2977
 1798SOL    HW217028   2.072   1.734   2.620 -1.9622 -3.1174  2.5340
 1799SOL     OW17029   2.307   0.630  11.661  0.1232 -0.0322  0.2917
 1799SOL    HW117030   2.354   0.685  11.723 -1.1500  1.7018 -0.2785
 1799SOL    HW217031   2.215   0.642  11.685 -0.0897  0.1472 -0.6055
 1800SOL     OW17032   3.329   0.252  17.070 -0.2939  0.2772 -0.3124
 1800SOL    HW117033   3.253   0.269  17.126 -1.3189 -2.6841 -0.7767
 1800SOL    HW217034   3.387   0.217  17.138 -0.0412  1.4725  0.0807
 1801SOL     OW17035   3.062   3.806   7.266 -0.0556 -0.4688 -0.0438
 1801SOL    HW117036   3.141   3.753   7.256  0.9141  0.8011  1.0125
 1801SOL    HW217037   3.064   3.854   7.183  0.5541 -0.2085  0.1247
 1802SOL     OW17038   1.680   0.492   4.173 -0.2489 -0.4839  0.1014
 1802SOL    HW117039   1.706   0.543   4.250 -0.6766  1.4647 -1.0505
 1802SOL    HW217040   1.766   0.454   4.156 -1.3559 -2.0975 -1.9213
 1803SOL     OW17041   0.932   3.673   6.566 -0.0509  0.0397  0.3437
 1803SOL    HW117042   1.025   3.692   6.578 -0.1764  0.8577  0.0237
 1803SOL    HW217043   0.917   3.700   6.476 -0.1469  1.5058  0.7995
 1804SOL     OW17044   2.360   1.332   7.572  0.4302 -0.0053 -0.5014
 1804SOL    HW117045   2.418   1.316   7.498 -0.1798 -1.6684 -0.6276
 1804SOL    HW217046   2.417   1.316   7.646  1.5237 -3.5223 -2.0837
 1805SOL     OW17047   0.179   3.278   8.261 -0.0629 -0.1890  0.2348
 1805SOL    HW117048   0.159   3.264   8.168 -2.1370 -1.2245  0.8347
 1805SOL    HW217049   0.259   3.330   8.259  0.6091 -1.1776  1.6639
 1806SOL     OW17050   0.948   0.574   6.388 -0.7876 -0.1032  0.0435
 1806SOL    HW117051   1.023   0.582   6.447  1.4920  0.2748 -2.9097
 1806SOL    HW217052   0.908   0.661   6.395 -0.0548  0.3174 -1.0639
 1807SOL     OW17053   1.464   4.680  10.561  0.8350 -0.2218  0.5486
 1807SOL    HW117054   1.404   4.630  10.616  0.2038 -1.4349 -1.2307
 1807SOL    HW217055   1.409   4.710  10.489 -0.9583 -1.4170  1.4262
 1808SOL     OW17056   3.659   2.406  15.345  0.3328 -0.4404  0.1557
 1808SOL    HW117057   3.683   2.396  15.437  2.2941  2.8886 -0.0168
 1808SOL    HW217058   3.736   2.369  15.302 -0.5984  0.7844 -2.5612
 1809SOL     OW17059   2.850   2.888   5.422 -0.0770 -0.8704  0.2642
 1809SOL    HW117060   2.807   2.891   5.508 -0.3000 -1.2028  0.1635
 1809SOL    HW217061   2.776   2.850   5.375 -1.5876  2.4644 -0.0397
 1810SOL     OW17062   0.500   4.510  13.240  0.0453  0.1073  0.3730
 1810SOL    HW117063   0.444   4.476  13.171 -0.7507  0.3547  0.9054
 1810SOL    HW217064   0.510   4.603  13.221 -0.2332  0.2476  0.9226
 1811SOL     OW17065   0.258   2.516   6.043 -0.0403  0.1023 -0.2357
 1811SOL    HW117066   0.296   2.440   6.088 -0.4653 -0.4662 -0.8447
 1811SOL    HW217067   0.336   2.543   5.994 -0.3957  0.4547 -0.6049
 1812SOL     OW17068   4.258   3.960   7.723 -0.2758 -0.2223 -0.0178
 1812SOL    HW117069   4.211   3.988   7.801  0.9841 -3.4645  1.9084
 1812SOL    HW217070   4.232   3.868   7.727  1.7599 -0.7361  1.2959
 1813SOL     OW17071   4.170   1.294   2.430 -0.0560  0.0495  0.2380
 1813SOL    HW117072   4.179   1.352   2.506  0.0990 -1.1614  1.1326
 1813SOL    HW217073   4.076   1.302   2.415  0.0926 -0.7323 -1.0413
 1814SOL     OW17074   2.233   1.901   0.814 -0.4160  0.5790 -0.0953
 1814SOL    HW117075   2.138   1.910   0.805 -0.5137  0.5433  0.9752
 1814SOL    HW217076   2.255   1.810   0.832  1.2210  1.1054  0.5648
 1815SOL     OW17077   3.940   0.892   4.864 -0.0424  0.1383  0.4561
 1815SOL    HW117078   3.867   0.853   4.816  0.4787  2.2200 -2.0073
 1815SOL    HW217079   3.954   0.967   4.807  1.7588 -1.5769 -1.3519
 1816SOL     OW17080   3.530   3.294   4.409 -0.1461 -0.2140  0.7282
 1816SOL    HW117081   3.550   3.367   4.468  0.1189  0.6660 -0.4628
 1816SOL    HW217082   3.453   3.331   4.366  2.9277  3.3659 -1.6853
 1817SOL     OW17083   2.920   2.518   2.556  0.1431 -0.1955  0.5270
 1817SOL    HW117084   2.905   2.516   2.462 -0.8359 -0.5947  0.6958
 1817SOL    HW217085   2.931   2.424   2.570  1.5086 -0.2404 -0.8928
 1818SOL     OW17086   4.224   3.409   3.626 -0.5971 -0.0406 -0.1223
 1818SOL    HW117087   4.317   3.423   3.613 -0.9542  1.2560 -1.1976
 1818SOL    HW217088   4.196   3.360   3.549 -0.1615  0.2569 -0.4675
 1819SOL     OW17089   3.951   3.636   1.945 -0.1982 -0.2907 -0.1538
 1819SOL    HW117090   4.039   3.633   1.908  0.0663  0.7423  0.4031
 1819SOL    HW217091   3.964   3.606   2.035 -4.0065 -0.5383  0.3423
 1820SOL     OW17092   0.449   2.659   7.916  0.0843 -0.0801 -0.2173
 1820SOL    HW117093   0.358   2.684   7.930  0.8062  1.0053  2.6084
 1820SOL    HW217094   0.472   2.615   7.997  2.5209 -0.2036 -0.9633
 1821SOL     OW17095   2.961   2.911   4.659  0.2497  0.0158  0.2876
 1821SOL    HW117096   2.894   2.884   4.722 -0.7858 -1.1285 -1.2884
 1821SOL    HW217097   3.041   2.920   4.710  2.5022 -3.1405 -2.7064
 1822SOL     OW17098   2.625   3.955  15.151  0.1324 -0.0585 -0.2134
 1822SOL    HW117099   2.598   3.872  15.190  2.4110  0.2827  2.0994
 1822SOL    HW217100   2.675   3.924  15.075  0.2705  1.5355 -0.7802
 1823SOL     OW17101   4.224   3.868   5.126  0.1848 -0.2528 -0.1087
 1823SOL    HW117102   4.228   3.786   5.174  1.1076 -0.6606 -0.8781
 1823SOL    HW217103   4.315   3.881   5.097  0.4723 -2.3807 -0.1013
 1824SOL     OW17104   2.069   1.914   0.220  0.0269 -0.1433 -0.3894
 1824SOL    HW117105   2.094   1.968   0.146 -1.7249  2.0258  0.5979
 1824SOL    HW217106   2.006   1.974   0.261 -0.4566 -0.8911 -0.0369
 1825SOL     OW17107   0.395   0.831   9.544 -0.5737  0.3329 -0.4133
 1825SOL    HW117108   0.372   0.739   9.529  1.9188 -0.3376 -0.0985
 1825SOL    HW217109   0.345   0.844   9.625 -0.9244  1.2474 -0.7781
 1826SOL     OW17110   4.611   0.519   6.075 -0.1888  0.3380  0.4503
 1826SOL    HW117111   4.620   0.612   6.052  0.4454  0.1947  0.1269
 1826SOL    HW217112   4.528   0.491   6.037 -0.8689  0.7018  1.6778
 1827SOL     OW17113   0.743   3.028  16.265  0.5086 -0.6847  0.7811
 1827SOL    HW117114   0.776   3.010  16.353  0.0877  1.2477  1.3419
 1827SOL    HW217115   0.752   2.948  16.214 -3.3040 -1.3660  1.1524
 1828SOL     OW17116   3.630   3.277  15.162  0.0806 -0.4551 -0.5128
 1828SOL    HW117117   3.562   3.341  15.182 -0.8871 -0.9895 -2.1159
 1828SOL    HW217118   3.696   3.337  15.129  0.7027 -0.7865  0.1216
 1829SOL     OW17119   2.738   0.043   2.034  0.1154 -0.1705  0.2305
 1829SOL    HW117120   2.779   4.692   2.045 -0.9656 -0.8427 -0.9427
 1829SOL    HW217121   2.694   0.048   2.119 -0.3373  0.4329 -0.0336
 1830SOL     OW17122   1.102   1.796   9.144 -0.1239 -0.0350  0.0883
 1830SOL    HW117123   1.144   1.881   9.131  0.2691 -0.1338  0.7479
 1830SOL    HW217124   1.037   1.818   9.210 -0.9849 -1.3847 -0.3153
 1831SOL     OW17125   2.256   3.309   9.183  0.0822  0.2304 -0.4026
 1831SOL    HW117126   2.287   3.363   9.255 -2.1727  1.1907 -0.1524
 1831SOL    HW217127   2.318   3.238   9.197  0.7366  0.4390 -2.2259
 1832SOL     OW17128   2.154   2.179   1.863 -0.2216  0.2697 -0.4191
 1832SOL    HW117129   2.071   2.224   1.874 -1.0509 -1.6369  1.0631
 1832SOL    HW217130   2.183   2.209   1.949  1.4090 -1.0843 -0.4818
 1833SOL     OW17131   0.603   1.895   4.873  0.1092 -0.0308 -0.1079
 1833SOL    HW117132   0.563   1.855   4.950  1.9769  0.2737  1.0151
 1833SOL    HW217133   0.576   1.850   4.793 -3.4485  0.5014  0.7976
 1834SOL     OW17134   3.798   3.184   8.438  0.3186 -0.7801  0.1294
 1834SOL    HW117135   3.800   3.096   8.400 -0.7274 -0.9370  0.4534
 1834SOL    HW217136   3.756   3.159   8.520 -0.8217 -2.2405 -0.9078
 1835SOL     OW17137   2.298   2.476  13.826  0.1944  0.2151 -0.0087
 1835SOL    HW117138   2.278   2.548  13.766  3.0147  1.2051  0.2209
 1835SOL    HW217139   2.339   2.520  13.901 -1.1556  0.1399  0.7688
 1836SOL     OW17140   2.885   0.963   7.742  0.5445 -0.0156 -0.4283
 1836SOL    HW117141   2.884   1.055   7.766  0.6883 -0.0845 -0.1659
 1836SOL    HW217142   2.808   0.959   7.684  0.6762  0.7500 -0.6529
 1837SOL     OW17143   2.642   1.101   3.028 -0.2566 -0.0116  0.0690
 1837SOL    HW117144   2.686   1.180   2.995 -0.4161 -1.7996 -4.4334
 1837SOL    HW217145   2.702   1.034   2.995  2.3009  0.8125  2.9422
 1838SOL     OW17146   3.988   3.356   2.436 -0.1070 -0.4392 -0.0145
 1838SOL    HW117147   4.016   3.271   2.402  0.7730 -0.7369  1.4699
 1838SOL    HW217148   4.067   3.411   2.436 -0.6255  0.3122 -0.1654
 1839SOL     OW17149   1.158   1.705   2.847 -0.2642 -0.2418 -0.1418
 1839SOL    HW117150   1.074   1.722   2.889 -0.0391  0.0552  0.1841
 1839SOL    HW217151   1.169   1.610   2.846 -1.1394 -0.3354 -1.8116
 1840SOL     OW17152   3.004   3.890   3.793 -0.4848 -0.0144  1.1583
 1840SOL    HW117153   2.909   3.894   3.803 -0.3632  1.3208  1.6962
 1840SOL    HW217154   3.021   3.833   3.718 -1.1023 -0.3611  1.2745
 1841SOL     OW17155   3.661   4.123   3.709  0.0712 -0.2316  0.3033
 1841SOL    HW117156   3.600   4.169   3.651 -0.7965  1.0886  2.2772
 1841SOL    HW217157   3.742   4.154   3.669  0.8600 -3.6218 -0.7861
 1842SOL     OW17158   2.477   1.761   5.011  0.5448  0.6171  0.3082
 1842SOL    HW117159   2.466   1.821   4.938  0.6537 -0.6224 -0.7228
 1842SOL    HW217160   2.526   1.692   4.966 -0.9585  1.0368 -1.9516
 1843SOL     OW17161   4.254   2.818  11.269 -0.4165  0.0372  0.0634
 1843SOL    HW117162   4.336   2.796  11.224  0.3618 -0.1527  1.5654
 1843SOL    HW217163   4.209   2.735  11.287 -3.7454  2.0971  1.1397
 1844SOL     OW17164   2.407   2.054   6.701  0.1717 -0.3939  0.3625
 1844SOL    HW117165   2.379   1.978   6.650  0.3035  0.3618 -0.8531
 1844SOL    HW217166   2.323   2.099   6.702  1.2163  1.5559  0.6355
 1845SOL     OW17167   4.488   2.427   8.444 -0.2629  0.9755 -0.1965
 1845SOL    HW117168   4.577   2.423   8.411 -1.2750  1.2379 -2.9331
 1845SOL    HW217169   4.477   2.522   8.438  0.9750  1.2523  2.0453
 1846SOL     OW17170   1.212   1.035  16.716  0.5827 -0.2324 -0.0532
 1846SOL    HW117171   1.150   1.021  16.645  1.9202  1.5014 -1.5673
 1846SOL    HW217172   1.260   0.952  16.712  1.1962  0.1618 -0.9115
 1847SOL     OW17173   0.199   3.981  10.476 -0.3409 -0.1937 -0.4467
 1847SOL    HW117174   0.208   4.011  10.566  1.7078 -1.8970 -0.0826
 1847SOL    HW217175   0.110   3.946  10.480 -0.7937  0.9894 -0.2141
 1848SOL     OW17176   1.671   2.701   6.105  0.1385  0.1215 -0.6159
 1848SOL    HW117177   1.752   2.726   6.148 -0.4524  0.7701  0.1074
 1848SOL    HW217178   1.682   2.606   6.099  1.0372  0.2415 -0.8420
 1849SOL     OW17179   1.575   2.232   3.339  0.4879  0.3512 -0.4317
 1849SOL    HW117180   1.535   2.197   3.260  0.7542 -0.1779 -0.3312
 1849SOL    HW217181   1.663   2.200   3.320 -0.5565 -1.4051 -2.2877
 1850SOL     OW17182   1.107   3.221  17.319 -0.7720  0.3853  0.2422
 1850SOL    HW117183   1.096   3.127  17.302  2.1001  0.4424 -1.8694
 1850SOL    HW217184   1.199   3.231  17.297 -0.8304 -0.6054 -0.4312
 1851SOL     OW17185   4.143   0.141   9.016  0.3189 -0.0879 -0.5193
 1851SOL    HW117186   4.116   0.049   9.023 -0.4609  0.2056  0.3508
 1851SOL    HW217187   4.135   0.149   8.921 -2.7103  0.5122 -0.2196
 1852SOL     OW17188   2.458   4.536   2.929 -0.3361  0.1601 -0.4143
 1852SOL    HW117189   2.443   4.443   2.914  1.1236 -0.2926  0.9359
 1852SOL    HW217190   2.405   4.546   3.009  1.7949 -1.3536  1.1594
 1853SOL     OW17191   1.970   1.399   2.274  0.7121 -0.3527  0.0408
 1853SOL    HW117192   1.917   1.377   2.198  0.6213 -1.3702  0.3998
 1853SOL    HW217193   1.946   1.327   2.332 -0.8533  0.2895  0.2052
 1854SOL     OW17194   0.974   1.533   6.591  0.0920 -0.1619 -0.3527
 1854SOL    HW117195   1.027   1.509   6.514  0.4135  2.8631 -1.0631
 1854SOL    HW217196   0.885   1.535   6.557 -0.4045  2.6941  1.1119
 1855SOL     OW17197   2.439   1.846   3.076  0.3596  0.1088  0.4351
 1855SOL    HW117198   2.457   1.754   3.056 -0.4628  0.3791 -1.4864
 1855SOL    HW217199   2.357   1.862   3.029  0.3048  0.6111  0.7066
 1856SOL     OW17200   2.679   3.800   6.559  0.5058 -0.1124  0.6592
 1856SOL    HW117201   2.700   3.780   6.650 -0.6182  0.5607  1.0677
 1856SOL    HW217202   2.767   3.788   6.522  0.7934 -0.6309  1.5322
 1857SOL     OW17203   3.760   3.101   2.766  0.2009 -0.8822  0.5528
 1857SOL    HW117204   3.846   3.108   2.724  0.0286  0.8498  0.5223
 1857SOL    HW217205   3.769   3.010   2.795  2.6595 -0.4043  1.2228
 1858SOL     OW17206   2.395   4.518   3.183  0.1407 -0.1983  0.4778
 1858SOL    HW117207   2.483   4.535   3.217  1.4565 -2.9750 -1.5987
 1858SOL    HW217208   2.375   4.445   3.241 -2.4357 -0.6297 -0.9382
 1859SOL     OW17209   1.658   2.214   2.958 -0.4979  0.2887  0.1468
 1859SOL    HW117210   1.607   2.178   3.031 -0.9972 -0.5162 -0.5884
 1859SOL    HW217211   1.596   2.192   2.889 -0.6076 -1.7419  0.8847
 1860SOL     OW17212   4.024   3.386  11.365  0.1262 -0.7052  0.2219
 1860SOL    HW117213   3.931   3.362  11.364 -0.1406  0.3640 -1.2223
 1860SOL    HW217214   4.058   3.306  11.406 -0.2047 -0.7309  0.4454
 1861SOL     OW17215   2.781   0.121  13.006 -0.5199 -0.3129 -0.3125
 1861SOL    HW117216   2.712   0.135  12.941 -1.5513 -2.0574  0.3850
 1861SOL    HW217217   2.817   0.043  12.964 -1.5931 -1.2466  0.4817
 1862SOL     OW17218   1.785   2.560  12.188  0.0217  0.1879  0.5317
 1862SOL    HW117219   1.801   2.472  12.154  1.8025  0.7740 -0.1357
 1862SOL    HW217220   1.853   2.608  12.141 -1.4948  0.2887 -1.6026
 1863SOL     OW17221   3.794   0.113   8.589  0.3190 -0.0093  0.5323
 1863SOL    HW117222   3.809   0.195   8.637  1.4625  0.7124 -1.0179
 1863SOL    HW217223   3.886   0.092   8.573 -0.2486 -2.4184  0.5519
 1864SOL     OW17224   3.064   3.518   2.688 -0.0858  0.9534  0.0120
 1864SOL    HW117225   3.143   3.466   2.703  1.1652  2.3698 -1.5589
 1864SOL    HW217226   3.102   3.598   2.649  2.0565  0.2559  0.6539
 1865SOL     OW17227   0.257   2.676   2.881  0.0024  0.3941 -0.1735
 1865SOL    HW117228   0.229   2.757   2.923 -1.3351 -0.9342  1.5048
 1865SOL    HW217229   0.222   2.679   2.792 -1.8978 -1.7463  0.4922
 1866SOL     OW17230   1.077   2.155  15.092 -0.1582 -0.3215  0.4294
 1866SOL    HW117231   1.012   2.117  15.152  0.8375 -0.9430  1.1134
 1866SOL    HW217232   1.149   2.096  15.113 -0.0685 -0.6094 -0.6821
 1867SOL     OW17233   1.022   3.397  15.899  0.0547 -0.1928  0.3508
 1867SOL    HW117234   1.059   3.440  15.976 -0.2982  0.7576 -0.0107
 1867SOL    HW217235   1.014   3.476  15.846 -1.2003 -0.2785  0.4150
 1868SOL     OW17236   3.342   4.726  14.550 -0.6507  0.2689  0.2609
 1868SOL    HW117237   3.287   0.000  14.628 -0.0462  1.7361  0.5292
 1868SOL    HW217238   3.385   4.642  14.562 -0.6246  0.3180  0.5106
 1869SOL     OW17239   2.160   3.845   6.375  0.4629 -0.4326 -0.7425
 1869SOL    HW117240   2.154   3.758   6.416  0.0199  1.2383  2.8013
 1869SOL    HW217241   2.252   3.865   6.393  0.1974  0.7345 -0.6866
 1870SOL     OW17242   4.163   1.053   6.535  0.0790 -0.5002 -0.0948
 1870SOL    HW117243   4.220   0.981   6.509 -0.0088 -0.8390  0.6536
 1870SOL    HW217244   4.200   1.119   6.475 -1.6958  0.3960 -0.2168
 1871SOL     OW17245   3.277   2.026   1.801  0.4514 -0.3606  0.5867
 1871SOL    HW117246   3.218   2.102   1.799  1.1059  0.2065  2.3373
 1871SOL    HW217247   3.261   1.977   1.721 -0.2015  0.3238  0.2931
 1872SOL     OW17248   1.567   1.634  13.270 -0.3459  0.3744  0.2365
 1872SOL    HW117249   1.564   1.653  13.363 -1.1961  0.4989  0.1827
 1872SOL    HW217250   1.662   1.625  13.256  0.0783 -1.1958  4.2943
 1873SOL     OW17251   0.726   0.477  13.108 -0.0498  0.1003  0.1234
 1873SOL    HW117252   0.696   0.566  13.092  0.1556  0.8598  4.0429
 1873SOL    HW217253   0.804   0.498  13.159 -0.9594 -1.1199  2.0145
 1874SOL     OW17254   0.831   3.525   2.863 -0.1125 -0.2380  0.2300
 1874SOL    HW117255   0.864   3.439   2.834  1.1848  0.5409 -0.6206
 1874SOL    HW217256   0.875   3.538   2.947 -0.7222  0.9166  0.3623
 1875SOL     OW17257   1.199   3.648   3.293  0.1585  0.3136 -0.0011
 1875SOL    HW117258   1.255   3.725   3.302  0.4555  0.2651 -1.4186
 1875SOL    HW217259   1.257   3.572   3.298 -0.6586 -0.4334 -1.8165
 1876SOL     OW17260   4.632   1.998   3.383  0.3547  0.1228 -1.0474
 1876SOL    HW117261   4.633   2.030   3.473  2.6543 -2.0308 -0.3045
 1876SOL    HW217262   4.641   2.086   3.346  1.8735  0.5020  0.1960
 1877SOL     OW17263   1.466   0.276  11.084 -0.1569 -0.3175  0.2076
 1877SOL    HW117264   1.530   0.235  11.143 -0.0537  0.0469  0.3488
 1877SOL    HW217265   1.447   0.357  11.131  0.4547  0.3391 -0.6712
 1878SOL     OW17266   3.863   1.860   4.271 -0.6136 -0.3201 -0.0620
 1878SOL    HW117267   3.768   1.869   4.262 -0.3528  0.8606 -1.7616
 1878SOL    HW217268   3.888   1.952   4.278 -1.0905 -0.1575 -0.4707
 1879SOL     OW17269   2.897   2.448   5.572 -0.0299 -0.6766  0.0493
 1879SOL    HW117270   2.839   2.456   5.647 -1.1137  0.6700 -0.9608
 1879SOL    HW217271   2.976   2.490   5.607 -1.7964  1.4413  1.4457
 1880SOL     OW17272   0.617   1.276  15.850  0.2848  0.2758 -0.6589
 1880SOL    HW117273   0.592   1.192  15.811 -0.8996  0.1541  0.3858
 1880SOL    HW217274   0.711   1.258  15.850  0.2116 -0.1009 -0.4156
 1881SOL     OW17275   3.265   2.475  15.389  0.1637  0.4186  0.3981
 1881SOL    HW117276   3.317   2.519  15.322 -0.0063 -0.2913 -0.2043
 1881SOL    HW217277   3.328   2.420  15.435 -0.4961 -0.6738  0.0102
 1882SOL     OW17278   3.105   3.787   1.094 -0.4152  0.1686 -0.1393
 1882SOL    HW117279   3.108   3.764   1.186  1.7991 -1.9297 -0.7172
 1882SOL    HW217280   3.022   3.834   1.100 -0.1777  0.9247 -2.7066
 1883SOL     OW17281   4.687   3.314   1.965  0.2245 -0.0418  0.1587
 1883SOL    HW117282   4.617   3.255   1.939  1.6131 -2.0509  1.0046
 1883SOL    HW217283   4.669   3.315   2.059 -0.3860  1.6084  0.0337
 1884SOL     OW17284   3.405   1.337  13.260  0.6013  0.2402 -0.0897
 1884SOL    HW117285   3.333   1.304  13.205  1.5910 -0.3744 -1.0244
 1884SOL    HW217286   3.372   1.426  13.273  2.4249  1.2890 -2.5937
 1885SOL     OW17287   2.778   4.096  11.259  0.0457  0.2507  0.1297
 1885SOL    HW117288   2.709   4.159  11.236  0.2930  1.5495  2.9306
 1885SOL    HW217289   2.739   4.017  11.222  0.0897 -0.3821  1.4403
 1886SOL     OW17290   3.122   0.742  11.550 -0.5132 -0.3072  0.1149
 1886SOL    HW117291   3.165   0.778  11.627  0.1996  0.3577 -0.5848
 1886SOL    HW217292   3.104   0.826  11.508 -1.3147 -1.7377 -2.4104
 1887SOL     OW17293   0.977   0.068   2.872 -0.4571  0.6959 -0.0827
 1887SOL    HW117294   0.958   0.162   2.872 -1.3937  0.5278  2.6068
 1887SOL    HW217295   1.018   0.065   2.959 -0.3028  0.7603 -0.1549
 1888SOL     OW17296   2.869   0.670   8.571 -0.1973  0.4875  0.5568
 1888SOL    HW117297   2.953   0.673   8.615 -0.3907 -0.1108  0.9592
 1888SOL    HW217298   2.864   0.578   8.547  2.7536  0.2988  0.6776
 1889SOL     OW17299   2.480   0.532   7.312 -0.0218  0.6295  0.0650
 1889SOL    HW117300   2.512   0.622   7.309 -0.5158  0.7964 -0.2101
 1889SOL    HW217301   2.416   0.541   7.242 -1.3846 -0.1030  1.2211
 1890SOL     OW17302   0.068   1.952   4.219  0.5816 -0.4253 -0.0978
 1890SOL    HW117303   4.714   1.937   4.187  0.0967  0.7695  0.6810
 1890SOL    HW217304   0.118   1.910   4.149 -0.9000  0.2256 -1.5525
 1891SOL     OW17305   1.031   1.741  17.287 -0.1291 -0.0131  0.5910
 1891SOL    HW117306   1.082   1.753  17.207 -0.4495 -0.7063  0.2875
 1891SOL    HW217307   1.084   1.673  17.330 -0.1849  1.1834  2.5618
 1892SOL     OW17308   2.720   3.456   7.063  0.7382  0.0487 -0.1699
 1892SOL    HW117309   2.797   3.401   7.050  0.4896 -0.1486 -0.7924
 1892SOL    HW217310   2.761   3.538   7.092  1.4664 -0.4076  0.0963
 1893SOL     OW17311   2.685   4.502   2.589  0.4310 -0.4594 -0.3985
 1893SOL    HW117312   2.725   4.457   2.515 -2.1419 -0.7453 -1.5902
 1893SOL    HW217313   2.594   4.489   2.565  0.2042  0.4008 -0.0252
 1894SOL     OW17314   2.259   0.740  12.985 -0.4616  0.6639 -0.4818
 1894SOL    HW117315   2.286   0.683  13.057  0.9317 -0.2345 -1.7129
 1894SOL    HW217316   2.346   0.754  12.947 -0.0349  2.8760  1.3032
 1895SOL     OW17317   4.450   1.922   2.995  0.0433 -0.1748 -0.5930
 1895SOL    HW117318   4.415   1.978   3.064 -0.0610 -2.8231  1.4669
 1895SOL    HW217319   4.390   1.848   3.005 -0.7646  0.1714 -2.8809
 1896SOL     OW17320   1.085   2.593   7.364  0.2235 -0.4452 -0.6666
 1896SOL    HW117321   1.107   2.663   7.426  3.0785 -1.8923 -0.0797
 1896SOL    HW217322   1.023   2.550   7.423  1.6734 -0.9850  0.4474
 1897SOL     OW17323   3.412   2.793  12.022  0.4671  0.2812 -0.0998
 1897SOL    HW117324   3.400   2.844  11.943 -1.0919 -0.5433 -0.4098
 1897SOL    HW217325   3.507   2.790  12.024  0.4444  0.1829  1.1706
 1898SOL     OW17326   1.956   0.654   7.629 -0.0917 -0.3655 -0.0960
 1898SOL    HW117327   1.900   0.656   7.551 -0.1501  0.1913 -0.0449
 1898SOL    HW217328   1.944   0.562   7.650  1.3822 -0.1973  1.4196
 1899SOL     OW17329   3.529   3.363   6.361 -0.3003  0.3639  0.7451
 1899SOL    HW117330   3.570   3.358   6.447 -2.3803  2.1585  1.8153
 1899SOL    HW217331   3.453   3.417   6.381  0.1649  1.0536  0.6418
 1900SOL     OW17332   0.939   2.732   5.095 -0.3489  0.3173 -0.1048
 1900SOL    HW117333   0.911   2.713   5.006  3.0524 -3.3159 -0.4062
 1900SOL    HW217334   0.902   2.818   5.113  1.1441  0.6693  1.2852
 1901SOL     OW17335   4.448   2.406   2.797  0.5164 -0.0793  0.0117
 1901SOL    HW117336   4.426   2.476   2.735 -0.4594 -1.4252 -1.1550
 1901SOL    HW217337   4.484   2.340   2.737  0.3480  0.4410 -0.6566
 1902SOL     OW17338   1.622   3.745   2.064 -0.0553  0.1773 -0.6376
 1902SOL    HW117339   1.668   3.688   2.002  1.5001 -0.6174  1.2461
 1902SOL    HW217340   1.537   3.740   2.019  0.9370  0.4750 -2.5269
 1903SOL     OW17341   1.498   0.341   5.083  0.6417  0.0096 -0.3812
 1903SOL    HW117342   1.422   0.284   5.098  0.5937  0.4274  0.9816
 1903SOL    HW217343   1.481   0.420   5.135  0.0413  1.2773 -2.5326
 1904SOL     OW17344   4.011   3.579   1.575  0.1800  0.1617 -0.1844
 1904SOL    HW117345   4.080   3.637   1.543  0.2633 -0.4030 -1.0180
 1904SOL    HW217346   4.049   3.499   1.538 -1.5652 -0.4030 -0.7772
 1905SOL     OW17347   0.532   4.321   4.478  0.0275  0.9267 -0.1429
 1905SOL    HW117348   0.510   4.339   4.387  1.5451  0.2414 -0.6402
 1905SOL    HW217349   0.444   4.336   4.514  0.3677  1.6994  0.3793
 1906SOL     OW17350   1.144   0.045   7.860 -0.4516 -0.6782  0.0913
 1906SOL    HW117351   1.141   4.691   7.824  1.5513  0.2349 -2.3265
 1906SOL    HW217352   1.061   0.088   7.840  0.1346  0.1457 -0.5987
 1907SOL     OW17353   2.367   1.532   0.019  0.2551 -0.2403 -0.0947
 1907SOL    HW117354   2.409   1.513  17.672  0.5589 -0.2119  0.0535
 1907SOL    HW217355   2.348   1.626   0.016 -1.2205 -0.5029  0.8760
 1908SOL     OW17356   4.338   2.663  11.529  0.0187  0.1961 -0.3448
 1908SOL    HW117357   4.259   2.631  11.485 -0.3497 -0.2975  0.6687
 1908SOL    HW217358   4.409   2.657  11.465 -0.3649  0.6696 -0.8141
 1909SOL     OW17359   0.005   3.225  16.687  0.1522  0.1905 -0.3451
 1909SOL    HW117360   0.094   3.190  16.676 -0.3823 -1.2050 -0.1922
 1909SOL    HW217361   0.027   3.307  16.731  0.1047 -0.1466  0.3190
 1910SOL     OW17362   3.680   3.310   6.580 -0.5476  0.7850  0.7144
 1910SOL    HW117363   3.716   3.288   6.666  2.6554 -3.6222 -1.7703
 1910SOL    HW217364   3.759   3.331   6.530 -1.2033  1.1520 -0.1832
 1911SOL     OW17365   2.581   4.209  13.291  0.2367  0.0299  0.7402
 1911SOL    HW117366   2.670   4.174  13.286 -0.2344 -0.5657 -3.6921
 1911SOL    HW217367   2.603   4.301  13.308 -0.4252  0.6004 -1.4427
 1912SOL     OW17368   0.902   2.629   8.043 -0.6484  0.0577 -0.5343
 1912SOL    HW117369   0.886   2.581   7.962  1.4271 -1.7870  0.1168
 1912SOL    HW217370   0.978   2.581   8.078  0.2430 -0.3709 -3.0457
 1913SOL     OW17371   2.794   0.138   5.299 -0.0038  0.7581  0.2964
 1913SOL    HW117372   2.799   0.167   5.208  1.5542 -1.4937 -0.3409
 1913SOL    HW217373   2.729   0.197   5.337 -0.4463  0.2619  0.3225
 1914SOL     OW17374   0.588   1.334   5.466  0.4565 -0.5958  0.1860
 1914SOL    HW117375   0.661   1.303   5.412  0.0072 -2.2163  0.5075
 1914SOL    HW217376   0.578   1.423   5.430  1.1742 -1.2449 -1.6326
 1915SOL     OW17377   1.244   2.442  10.998  0.0519 -0.1193  0.0094
 1915SOL    HW117378   1.305   2.514  10.983  1.8112 -2.2298 -2.9816
 1915SOL    HW217379   1.204   2.434  10.912  1.0182  0.1188 -0.4626
 1916SOL     OW17380   3.573   0.493   0.059 -0.0249  0.3832  0.3063
 1916SOL    HW117381   3.664   0.480   0.087 -1.1944 -1.5293  3.1293
 1916SOL    HW217382   3.557   0.574   0.108 -1.0747 -0.3972  1.2264
 1917SOL     OW17383   2.858   0.519   2.677 -0.3831  0.3126  0.0706
 1917SOL    HW117384   2.922   0.586   2.652  1.0657 -1.6272 -1.4258
 1917SOL    HW217385   2.906   0.458   2.734 -0.5926 -1.8744 -2.0819
 1918SOL     OW17386   0.453   1.107  13.123  0.0691  0.8150  0.1700
 1918SOL    HW117387   0.444   1.187  13.175  0.8730  0.2247  1.2191
 1918SOL    HW217388   0.474   1.137  13.034  3.1991 -1.3558  0.1787
 1919SOL     OW17389   0.818   0.506   4.987 -0.0490  0.1709  0.0701
 1919SOL    HW117390   0.841   0.413   4.978 -0.8035 -0.0167  0.0677
 1919SOL    HW217391   0.859   0.520   5.073  0.2167 -3.1826  0.4929
 1920SOL     OW17392   1.670   1.502   4.162 -0.5049 -0.2369  0.1602
 1920SOL    HW117393   1.747   1.538   4.118  0.1699 -0.0095  1.5122
 1920SOL    HW217394   1.676   1.420   4.114 -1.0146 -0.1475 -0.0565
 1921SOL     OW17395   0.714   2.376   8.519  0.6488 -0.0969  0.1059
 1921SOL    HW117396   0.671   2.439   8.577  1.8879 -0.4062  1.3506
 1921SOL    HW217397   0.774   2.436   8.475  0.1979  0.3934  0.1572
 1922SOL     OW17398   0.941   1.992  17.375  0.3241  0.4130 -0.0647
 1922SOL    HW117399   0.999   1.925  17.337  0.7262  0.2498  0.8330
 1922SOL    HW217400   0.858   1.956  17.346  0.1897  0.6282  0.0555
 1923SOL     OW17401   3.761   0.073   9.896  0.2757 -0.4651 -0.3316
 1923SOL    HW117402   3.831   0.133   9.872  3.2058 -3.6422  0.1019
 1923SOL    HW217403   3.685   0.130   9.889  0.7406 -0.3545 -4.1073
 1924SOL     OW17404   0.320   2.867   3.287  0.7438  0.1259 -0.6223
 1924SOL    HW117405   0.339   2.773   3.281  0.3221  0.1561 -2.5059
 1924SOL    HW217406   0.381   2.913   3.230  1.4587  0.6774  0.6064
 1925SOL     OW17407   4.178   4.714   0.566  0.0464  0.1550 -0.1218
 1925SOL    HW117408   4.173   4.620   0.585  4.7458  0.1454  1.0614
 1925SOL    HW217409   4.111   4.732   0.500  0.5071  1.2526 -0.2907
 1926SOL     OW17410   2.586   2.852   5.290  0.7641 -0.1449 -0.1763
 1926SOL    HW117411   2.576   2.941   5.323 -0.2387 -0.3441  0.0611
 1926SOL    HW217412   2.518   2.848   5.223  0.3153  2.0687  0.1440
 1927SOL     OW17413   3.095   0.507   9.481 -0.2470 -0.0919 -0.1446
 1927SOL    HW117414   3.127   0.534   9.567 -1.0238 -2.8451  1.0128
 1927SOL    HW217415   3.080   0.586   9.429 -1.4161  1.4514  2.4953
 1928SOL     OW17416   1.595   0.049   9.050  0.1183 -0.1008  0.0691
 1928SOL    HW117417   1.606   4.701   9.099  0.9687 -0.0232  0.0145
 1928SOL    HW217418   1.518   0.031   8.996 -0.4151  0.0206  0.7954
 1929SOL     OW17419   4.685   3.948   7.116  0.8977 -0.5589 -0.1198
 1929SOL    HW117420   0.012   4.020   7.100 -1.2270  1.7081  1.9682
 1929SOL    HW217421   0.015   3.882   7.143 -2.6822 -3.2640  1.7808
 1930SOL     OW17422   3.574   3.697  16.822  0.2346 -0.4079  0.4308
 1930SOL    HW117423   3.505   3.688  16.757  0.8093 -1.0704 -0.0945
 1930SOL    HW217424   3.607   3.785  16.801 -0.0500 -0.7536 -1.4446
 1931SOL     OW17425   0.926   3.525   3.658  0.6041  0.1156 -0.6261
 1931SOL    HW117426   0.844   3.501   3.615  1.0565 -0.7346 -1.0218
 1931SOL    HW217427   0.889   3.584   3.724 -0.5337  0.0295 -1.1825
 1932SOL     OW17428   4.090   0.144   8.762  0.0046 -0.2344  1.1111
 1932SOL    HW117429   4.097   0.146   8.667  2.9484  1.8235  1.3764
 1932SOL    HW217430   4.029   0.217   8.773  0.4755  0.1543  1.1003
 1933SOL     OW17431   1.622   2.261   3.674 -0.2786 -0.0726 -0.0084
 1933SOL    HW117432   1.709   2.264   3.635  0.2668  0.8801  1.2653
 1933SOL    HW217433   1.625   2.173   3.710 -1.2582  0.0835  0.4454
 1934SOL     OW17434   3.397   4.234   6.386 -0.0724 -0.2030  0.4047
 1934SOL    HW117435   3.386   4.237   6.291  2.3536  1.6598  0.1632
 1934SOL    HW217436   3.378   4.324   6.414  1.7195  0.6314 -1.0534
 1935SOL     OW17437   0.703   1.893  13.384  0.3400 -0.0949  0.2867
 1935SOL    HW117438   0.731   1.883  13.475 -0.9281  0.5358  0.7564
 1935SOL    HW217439   0.784   1.879  13.337 -0.4583 -1.7690 -0.5851
 1936SOL     OW17440   4.486   2.016   2.135 -0.0790 -0.2439  0.1130
 1936SOL    HW117441   4.459   2.075   2.065 -0.0886  3.0713  2.9085
 1936SOL    HW217442   4.572   2.056   2.148 -0.3009  0.0450  0.6692
 1937SOL     OW17443   4.238   2.916  11.524  0.5727 -0.3407  0.1273
 1937SOL    HW117444   4.208   2.898  11.435 -1.9959  3.1133  0.3285
 1937SOL    HW217445   4.305   2.847  11.530  1.0291  0.0212 -0.8787
 1938SOL     OW17446   1.793   1.577  13.954  0.2225 -0.4756 -0.1762
 1938SOL    HW117447   1.818   1.608  14.041 -1.8216 -1.0007  0.5968
 1938SOL    HW217448   1.698   1.586  13.950  0.3738  1.0191 -0.6699
 1939SOL     OW17449   4.009   3.433   8.501  0.2665 -0.6273 -0.0899
 1939SOL    HW117450   4.039   3.433   8.410 -1.8884  0.3091 -0.8188
 1939SOL    HW217451   3.967   3.347   8.503 -0.5653 -0.1634  1.9719
 1940SOL     OW17452   0.846   4.080   7.365 -0.2005  0.1132  0.4183
 1940SOL    HW117453   0.801   4.163   7.357  0.5824  0.3184 -1.6454
 1940SOL    HW217454   0.876   4.079   7.456 -0.6686 -0.2326  0.5713
 1941SOL     OW17455   3.283   3.908   3.834 -0.0074  0.6027  0.2169
 1941SOL    HW117456   3.191   3.921   3.810 -0.1464  0.4521  0.6846
 1941SOL    HW217457   3.320   3.927   3.747 -1.9549  1.3915 -0.4396
 1942SOL     OW17458   3.534   3.493   9.932 -0.0251 -0.4750  0.0814
 1942SOL    HW117459   3.496   3.565   9.983  0.4790 -2.1258  2.7609
 1942SOL    HW217460   3.454   3.442   9.922  0.3814 -0.7124 -1.9264
 1943SOL     OW17461   1.481   1.082  12.850 -0.2310  0.4400 -0.0162
 1943SOL    HW117462   1.527   1.123  12.923 -0.8228  1.1171 -0.0230
 1943SOL    HW217463   1.550   1.078  12.784 -0.3996  0.0465 -0.1675
 1944SOL     OW17464   3.120   0.582   3.528 -0.5324 -0.5398 -0.4059
 1944SOL    HW117465   3.190   0.588   3.593 -0.6273  0.3429 -0.3783
 1944SOL    HW217466   3.151   0.520   3.462 -2.3602 -0.8207 -0.9991
 1945SOL     OW17467   3.991   2.345   2.943 -0.4853 -0.4725 -0.2026
 1945SOL    HW117468   3.936   2.316   2.870 -2.2730  1.2348  0.4578
 1945SOL    HW217469   4.040   2.420   2.908 -2.1930  1.5143  1.5801
 1946SOL     OW17470   4.076   0.119   1.798 -0.2617  0.3986  0.4555
 1946SOL    HW117471   4.017   0.056   1.839 -2.1119  0.3029 -2.3854
 1946SOL    HW217472   4.011   0.182   1.766 -0.0092 -0.3967 -1.5802
 1947SOL     OW17473   0.669   0.504   7.354  0.0113 -0.0943  0.3033
 1947SOL    HW117474   0.699   0.589   7.322 -0.1097 -0.0943  0.1899
 1947SOL    HW217475   0.744   0.449   7.335  1.4115  1.9899 -0.2169
 1948SOL     OW17476   4.532   0.690   2.346 -0.2025  0.0665 -0.1710
 1948SOL    HW117477   4.603   0.747   2.316  0.6434 -0.3289  1.0860
 1948SOL    HW217478   4.471   0.712   2.276 -1.3297  1.8327  1.3884
 1949SOL     OW17479   2.650   1.510   3.958  0.1668  0.0668  1.0797
 1949SOL    HW117480   2.644   1.601   3.930 -4.5924 -1.1104 -1.6086
 1949SOL    HW217481   2.713   1.524   4.029  0.2097  3.5353  0.3582
 1950SOL     OW17482   3.360   3.287   9.882 -0.2888 -0.1412  0.2061
 1950SOL    HW117483   3.330   3.249   9.964  0.0359  1.8008  1.2094
 1950SOL    HW217484   3.355   3.212   9.822 -0.4488  1.4791 -1.7804
 1951SOL     OW17485   1.002   2.904  15.120 -0.5010 -0.2637 -0.5090
 1951SOL    HW117486   0.972   2.821  15.083 -0.6904  0.6473 -2.3952
 1951SOL    HW217487   0.958   2.912  15.204  0.9444  2.4072 -0.0031
 1952SOL     OW17488   4.418   3.194   9.271 -0.0938 -0.9633 -0.1882
 1952SOL    HW117489   4.334   3.235   9.252 -0.7749 -2.3482 -0.1570
 1952SOL    HW217490   4.400   3.104   9.245  2.3459 -1.3070 -0.6643
 1953SOL     OW17491   3.714   4.170   9.608 -0.3674  0.1712  0.1389
 1953SOL    HW117492   3.801   4.129   9.606  0.1018  1.1313  1.0815
 1953SOL    HW217493   3.676   4.126   9.532 -2.0986  1.0387  0.5067
 1954SOL     OW17494   4.248   4.069   5.426  0.1458 -0.0708  0.1929
 1954SOL    HW117495   4.268   4.048   5.518  1.7616 -3.2089 -0.8841
 1954SOL    HW217496   4.298   4.003   5.379 -0.5873  0.2034 -0.9649
 1955SOL     OW17497   0.123   3.620  11.953 -0.1118 -0.1945 -0.3207
 1955SOL    HW117498   0.202   3.665  11.981  0.8850 -0.1572 -3.1628
 1955SOL    HW217499   0.097   3.674  11.878  1.1897  3.3794  1.8245
 1956SOL     OW17500   2.755   4.714   5.895  0.7588  0.0735 -0.1205
 1956SOL    HW117501   2.754   4.678   5.806  0.3125  1.5560 -0.7044
 1956SOL    HW217502   2.665   4.694   5.920  0.9786  2.5167  2.5982
 1957SOL     OW17503   4.132   4.511  14.876  0.0425 -0.1428  0.4030
 1957SOL    HW117504   4.116   4.424  14.913  1.4586 -1.4197 -2.0166
 1957SOL    HW217505   4.227   4.502  14.883  0.1899  0.3019 -1.1023
 1958SOL     OW17506   2.339   4.616  11.708 -0.1599  0.5907  0.0489
 1958SOL    HW117507   2.341   4.527  11.674  0.2550  1.5655 -2.4512
 1958SOL    HW217508   2.244   4.628  11.705 -0.5168 -3.0045 -1.6576
 1959SOL     OW17509   3.469   2.212   3.279 -0.2193 -0.0237  0.1041
 1959SOL    HW117510   3.409   2.221   3.353  1.1307  3.8456  0.7730
 1959SOL    HW217511   3.535   2.272   3.316  1.7485 -0.5138 -2.6329
 1960SOL     OW17512   1.294   0.007   9.676 -0.1376 -0.4248 -0.1597
 1960SOL    HW117513   1.258   4.675   9.735 -1.6164  0.2850 -0.2484
 1960SOL    HW217514   1.222   0.009   9.612  1.4304  3.4302 -1.8689
 1961SOL     OW17515   4.027   4.420   5.237  0.3079 -0.7001 -0.0946
 1961SOL    HW117516   3.980   4.391   5.159  1.2013  2.2393 -1.7075
 1961SOL    HW217517   4.100   4.359   5.227 -0.1451 -0.8628 -2.4236
 1962SOL     OW17518   2.829   3.948   6.198 -0.0585  0.0771  0.4053
 1962SOL    HW117519   2.856   3.959   6.289 -1.8349 -1.1284  1.0645
 1962SOL    HW217520   2.776   3.869   6.204 -1.2766  0.8471 -0.2099
 1963SOL     OW17521   1.478   2.689  16.983 -0.3428 -0.4114  0.0859
 1963SOL    HW117522   1.436   2.755  16.927 -0.7427 -1.7547 -1.2065
 1963SOL    HW217523   1.555   2.731  17.022 -0.0288 -1.6451  0.8063
 1964SOL     OW17524   3.634   1.556  10.713 -0.8136  0.0696  0.2234
 1964SOL    HW117525   3.638   1.489  10.645  0.6743 -0.2723  0.6392
 1964SOL    HW217526   3.685   1.516  10.783  0.1524  1.1409  0.1313
 1965SOL     OW17527   1.102   3.014   7.600 -0.2631 -0.0580 -0.3361
 1965SOL    HW117528   1.078   3.082   7.538 -0.2179  0.6679  0.4447
 1965SOL    HW217529   1.084   3.053   7.686 -1.7736  0.3969 -0.8634
 1966SOL     OW17530   3.610   4.416   3.440  0.1781  0.3743  0.3617
 1966SOL    HW117531   3.695   4.391   3.403 -0.4180  0.3888 -1.0076
 1966SOL    HW217532   3.592   4.495   3.389 -1.4392  0.3403  0.8813
 1967SOL     OW17533   2.513   1.422  15.178 -0.7347  0.6845  0.1777
 1967SOL    HW117534   2.574   1.496  15.176 -1.0594  0.9235 -1.1120
 1967SOL    HW217535   2.486   1.431  15.269  0.3131 -0.9211  0.6325
 1968SOL     OW17536   1.797   2.158  10.551 -0.2503 -0.2768  0.5506
 1968SOL    HW117537   1.869   2.110  10.590  0.3508  0.8002  0.7791
 1968SOL    HW217538   1.835   2.245  10.563  0.9318 -0.7275 -0.0170
 1969SOL     OW17539   0.583   2.475   4.509  0.4238  0.1043 -0.0533
 1969SOL    HW117540   0.641   2.473   4.433  1.7128 -1.0554  0.9618
 1969SOL    HW217541   0.498   2.498   4.471  0.4501  0.1255 -0.0991
 1970SOL     OW17542   2.804   4.286  15.569  0.0305 -0.1487 -0.2243
 1970SOL    HW117543   2.736   4.325  15.623 -0.5924 -0.6257 -0.6685
 1970SOL    HW217544   2.748   4.242  15.505  0.1075  0.1122 -0.4714
 1971SOL     OW17545   0.286   2.432  10.191  0.1236  0.5140 -0.5639
 1971SOL    HW117546   0.372   2.474  10.198  0.2310  0.1717  0.1538
 1971SOL    HW217547   0.275   2.399  10.281  0.5157  1.5917 -0.1207
 1972SOL     OW17548   3.176   3.158   4.192 -0.0372  0.2517  0.5454
 1972SOL    HW117549   3.099   3.120   4.151 -0.0013  1.4540 -0.6381
 1972SOL    HW217550   3.133   3.187   4.273  0.3072  3.0477 -0.2428
 1973SOL     OW17551   4.611   3.755   1.554  0.1465  0.0583  0.3447
 1973SOL    HW117552   4.634   3.672   1.596 -4.1485 -0.4378  1.7289
 1973SOL    HW217553   4.691   3.789   1.514  1.1125 -2.3804  0.2108
 1974SOL     OW17554   4.565   1.109  13.163  0.0627 -0.0564  0.4174
 1974SOL    HW117555   4.647   1.061  13.166  1.0008  1.4278 -1.3563
 1974SOL    HW217556   4.539   1.103  13.071 -1.1418  1.4907  0.6473
 1975SOL     OW17557   2.294   2.420   5.975 -0.2048 -0.4228 -0.1882
 1975SOL    HW117558   2.361   2.395   5.911 -0.2350 -0.8726 -0.0443
 1975SOL    HW217559   2.353   2.445   6.045  0.8882  0.6365 -1.4938
 1976SOL     OW17560   2.818   0.585   9.969 -0.5570  0.4472  0.3991
 1976SOL    HW117561   2.903   0.559  10.004 -0.0141 -0.3502 -1.5023
 1976SOL    HW217562   2.794   0.512   9.912 -2.4909 -0.0748  1.8778
 1977SOL     OW17563   1.235   3.261  11.986  0.3739  0.0462 -0.4870
 1977SOL    HW117564   1.153   3.227  11.952  0.1834  0.3785 -0.3614
 1977SOL    HW217565   1.291   3.215  11.923  0.5248 -2.9797  1.8531
 1978SOL     OW17566   1.168   0.642   3.951  0.2211  0.2917  0.2617
 1978SOL    HW117567   1.217   0.690   4.018 -0.7046  1.4936  0.0816
 1978SOL    HW217568   1.216   0.665   3.871  0.9510 -0.6305  0.4352
 1979SOL     OW17569   1.655   3.552   3.091  0.3605 -0.4762  0.3012
 1979SOL    HW117570   1.640   3.646   3.098 -1.1755 -0.5931 -1.3212
 1979SOL    HW217571   1.748   3.531   3.097  0.6146  0.2910 -0.9676
 1980SOL     OW17572   1.556   1.878   1.582  0.5631 -0.5603  0.0618
 1980SOL    HW117573   1.557   1.886   1.486 -1.6503 -0.1884  0.0629
 1980SOL    HW217574   1.649   1.864   1.598  0.6747 -1.1696 -1.1260
 1981SOL     OW17575   3.263   3.543   3.629 -0.1417  0.4392 -0.6479
 1981SOL    HW117576   3.311   3.625   3.640 -1.4160  1.4014 -2.2715
 1981SOL    HW217577   3.274   3.502   3.715 -2.3036 -1.7193 -1.3983
 1982SOL     OW17578   0.764   3.880   4.144  0.2796  0.7827  0.2033
 1982SOL    HW117579   0.787   3.949   4.206  2.2680 -1.3441  1.8635
 1982SOL    HW217580   0.788   3.917   4.059  0.8317 -1.9811 -0.8603
 1983SOL     OW17581   3.919   1.839  11.776  0.2470  0.8058 -0.3220
 1983SOL    HW117582   3.854   1.791  11.725  0.8760 -0.2043 -0.1915
 1983SOL    HW217583   3.997   1.809  11.729 -0.7612  0.1742 -1.6041
 1984SOL     OW17584   1.119   2.752   6.830  0.3729  0.0212 -0.7853
 1984SOL    HW117585   1.063   2.731   6.905 -0.5086  1.1569 -1.1383
 1984SOL    HW217586   1.199   2.707   6.858  0.1413  0.3039  0.3364
 1985SOL     OW17587   3.645   2.232   6.958  0.0886  0.3649  0.4222
 1985SOL    HW117588   3.644   2.189   6.872  0.8758  1.0602  0.0692
 1985SOL    HW217589   3.581   2.301   6.941 -1.2356 -0.9980 -0.1172
 1986SOL     OW17590   0.462   1.440   2.927  0.0137 -0.1931  0.3557
 1986SOL    HW117591   0.382   1.400   2.891  0.3631 -0.1313 -0.4888
 1986SOL    HW217592   0.469   1.394   3.010  0.2726 -2.0284 -0.6873
 1987SOL     OW17593   0.758   4.019   8.124 -0.2060  0.2652  0.0104
 1987SOL    HW117594   0.708   3.947   8.087 -2.1747  0.3227  2.5558
 1987SOL    HW217595   0.698   4.041   8.195 -0.0625 -1.0765  0.5422
 1988SOL     OW17596   1.632   0.314  17.587  0.3071 -0.0695  0.2440
 1988SOL    HW117597   1.708   0.262  17.563 -0.1824 -1.0821  0.8937
 1988SOL    HW217598   1.563   0.254  17.558 -0.0958  0.5354 -0.0555
 1989SOL     OW17599   1.485   2.153   8.672 -0.8330  0.2265  0.0382
 1989SOL    HW117600   1.563   2.105   8.699 -0.5524  1.5082  1.5506
 1989SOL    HW217601   1.455   2.204   8.748 -1.4238  3.2755 -2.2537
 1990SOL     OW17602   4.492   1.802   7.595  0.2634  0.6300 -0.2290
 1990SOL    HW117603   4.455   1.843   7.517 -3.8907 -0.8713  0.9493
 1990SOL    HW217604   4.417   1.744   7.612  1.1048 -0.0418  1.1540
 1991SOL     OW17605   0.990   0.122   7.569 -0.1091 -0.3195 -0.4822
 1991SOL    HW117606   0.898   0.144   7.582 -0.3694 -0.5713 -1.9382
 1991SOL    HW217607   1.027   0.199   7.527  0.6853 -0.2807  0.2861
 1992SOL     OW17608   3.007   0.145  10.127 -0.3063  0.0986  0.1818
 1992SOL    HW117609   3.101   0.143  10.146 -0.3626 -1.6973  0.3660
 1992SOL    HW217610   2.969   0.167  10.212  0.2552 -2.9135  1.2376
 1993SOL     OW17611   4.507   2.340   6.137 -0.5999 -0.3394 -0.9636
 1993SOL    HW117612   4.553   2.257   6.124 -1.6657 -0.8179 -1.6188
 1993SOL    HW217613   4.537   2.389   6.060 -0.8145 -0.8870 -1.3857
 1994SOL     OW17614   3.970   4.122   9.804 -0.1815 -0.5205  0.0010
 1994SOL    HW117615   4.003   4.157   9.721  0.6698  3.2487  1.9240
 1994SOL    HW217616   3.979   4.028   9.790 -1.5137 -0.2701 -2.6078
 1995SOL     OW17617   1.630   2.974   2.922 -0.2194 -0.2879 -0.3611
 1995SOL    HW117618   1.665   2.995   2.835  0.3411  0.7387  0.1122
 1995SOL    HW217619   1.674   2.891   2.939 -1.6288 -0.3183  3.1244
 1996SOL     OW17620   2.048   3.855   6.081  0.1135 -0.8122 -0.3944
 1996SOL    HW117621   2.117   3.903   6.035  0.2112 -0.1074  0.4819
 1996SOL    HW217622   2.089   3.850   6.167  2.3208 -1.4184 -1.4858
 1997SOL     OW17623   1.538   2.133   1.335  0.3678 -0.5096 -0.3426
 1997SOL    HW117624   1.577   2.056   1.294  1.3633  0.2266 -0.7886
 1997SOL    HW217625   1.447   2.114   1.312  0.0256 -0.3639  0.9091
 1998SOL     OW17626   1.457   3.569   7.715  0.0600  0.8302 -0.6195
 1998SOL    HW117627   1.373   3.523   7.717  0.2897  0.2504 -3.9052
 1998SOL    HW217628   1.442   3.635   7.648  0.5456  1.6570  0.0883
 1999SOL     OW17629   1.150   2.266  12.546  0.4009 -0.1463 -0.2199
 1999SOL    HW117630   1.081   2.242  12.485 -0.9587  1.7623  0.5655
 1999SOL    HW217631   1.155   2.196  12.611 -1.5491  1.7668  1.9603
 2000SOL     OW17632   1.354   1.383   8.596  0.1220  0.2598 -0.1341
 2000SOL    HW117633   1.281   1.378   8.536  0.3560 -0.5457 -0.3425
 2000SOL    HW217634   1.392   1.295   8.598 -3.1909 -1.1560 -0.4992
 2001SOL     OW17635   1.145   3.048   4.922  0.2145 -0.8820  0.6801
 2001SOL    HW117636   1.238   3.068   4.911  0.1718  0.3424  2.4549
 2001SOL    HW217637   1.127   2.957   4.901  1.6857 -1.0112  0.0454
 2002SOL     OW17638   0.185   2.093   8.527 -0.2561  0.1710 -0.4229
 2002SOL    HW117639   0.227   2.028   8.471 -3.8034 -0.8993 -1.8505
 2002SOL    HW217640   0.246   2.163   8.505 -0.8265  0.2821 -1.6097
 2003SOL     OW17641   3.298   2.297  13.518 -0.2354 -0.2407 -0.2442
 2003SOL    HW117642   3.348   2.293  13.436 -0.0621 -0.8383 -0.1109
 2003SOL    HW217643   3.367   2.259  13.574 -0.7542 -0.6341  0.1282
 2004SOL     OW17644   3.452   0.581   7.203 -0.0411 -0.5545 -0.1558
 2004SOL    HW117645   3.491   0.641   7.139 -0.3156 -0.0042  0.1944
 2004SOL    HW217646   3.457   0.502   7.149 -0.4327 -0.3647 -0.4758
 2005SOL     OW17647   0.344   1.708   6.848 -0.3276  0.8877 -0.6047
 2005SOL    HW117648   0.300   1.718   6.932  1.1703 -0.0835  0.3007
 2005SOL    HW217649   0.286   1.761   6.793 -1.3564  0.4463  0.0715
 2006SOL     OW17650   0.524   4.456   8.524 -0.1491 -0.2323  0.2434
 2006SOL    HW117651   0.488   4.481   8.439  0.1156 -0.7479 -0.0259
 2006SOL    HW217652   0.560   4.540   8.549 -1.1617  0.2792 -0.0059
 2007SOL     OW17653   4.348   0.416   9.186 -0.9488 -0.4614 -0.2202
 2007SOL    HW117654   4.400   0.422   9.266  1.9502 -1.1781 -2.0362
 2007SOL    HW217655   4.299   0.498   9.198  0.2265  0.3525 -0.9521
 2008SOL     OW17656   0.889   3.233   9.147 -0.2164  0.2220  0.3619
 2008SOL    HW117657   0.910   3.141   9.158 -0.6812 -0.0403 -0.9557
 2008SOL    HW217658   0.807   3.225   9.099 -0.2317  0.3095  0.3738
 2009SOL     OW17659   3.701   1.753   6.929 -0.0960  0.0761  0.6449
 2009SOL    HW117660   3.767   1.789   6.870  1.5559 -1.3594  1.5961
 2009SOL    HW217661   3.623   1.803   6.906 -0.1655 -0.0138  0.6869
 2010SOL     OW17662   2.109   3.951   4.490  0.3040 -0.5111 -0.1631
 2010SOL    HW117663   2.117   3.873   4.544  0.9425 -1.2737 -1.3634
 2010SOL    HW217664   2.192   3.961   4.444 -0.0518  0.3901 -0.6130
 2011SOL     OW17665   4.115   3.115   2.337  0.0423  0.0288  0.3825
 2011SOL    HW117666   4.202   3.152   2.322  0.1179  0.2509  1.3742
 2011SOL    HW217667   4.081   3.130   2.249 -0.0572  0.7468  0.5447
 2012SOL     OW17668   3.017   4.663   9.201 -0.2375 -0.0358  0.6941
 2012SOL    HW117669   3.081   4.732   9.182 -0.2835 -0.5838 -1.4271
 2012SOL    HW217670   3.069   4.608   9.259 -1.9134 -3.4777 -1.1157
 2013SOL     OW17671   2.977   2.556   6.182 -0.3819 -0.7942  0.0068
 2013SOL    HW117672   3.018   2.638   6.208  1.0788 -0.8807 -2.1144
 2013SOL    HW217673   2.885   2.577   6.199 -0.6813 -1.8469 -0.3156
 2014SOL     OW17674   2.440   0.270   7.984  0.5413  0.4179 -0.5617
 2014SOL    HW117675   2.399   0.231   7.907 -1.5444  0.5681  0.4573
 2014SOL    HW217676   2.367   0.282   8.045  1.0238 -0.9986  0.3193
 2015SOL     OW17677   2.119   1.390  13.441 -0.2416 -0.1655 -0.4599
 2015SOL    HW117678   2.097   1.302  13.472 -1.0154 -0.5931 -2.2145
 2015SOL    HW217679   2.144   1.356  13.355 -1.0815  0.6362 -1.0250
 2016SOL     OW17680   2.977   4.504   3.767 -0.4244 -0.1372 -0.2079
 2016SOL    HW117681   2.923   4.583   3.762 -0.2019  0.0829  0.8713
 2016SOL    HW217682   3.052   4.521   3.709 -0.3717  0.1139 -0.0698
 2017SOL     OW17683   1.904   1.679   2.343 -0.0891 -0.1236 -0.0361
 2017SOL    HW117684   1.905   1.598   2.292 -1.5281  0.8926 -1.6568
 2017SOL    HW217685   1.907   1.748   2.277  0.3412  0.5825  0.7112
 2018SOL     OW17686   1.373   3.553   8.248  0.2143  0.0277  0.5062
 2018SOL    HW117687   1.404   3.625   8.302  0.1153 -0.4529  1.1942
 2018SOL    HW217688   1.408   3.481   8.299  2.5671  0.4983 -0.4513
 2019SOL     OW17689   1.332   2.130   2.528  0.8147 -0.0002 -0.4842
 2019SOL    HW117690   1.245   2.161   2.550  2.1972  2.1711  1.8707
 2019SOL    HW217691   1.322   2.077   2.449  1.3513  1.8806 -1.7967
 2020SOL     OW17692   2.574   1.977   9.248 -0.2801  0.3443  0.0896
 2020SOL    HW117693   2.587   1.925   9.328  0.5999  0.7034  0.1760
 2020SOL    HW217694   2.482   1.968   9.224 -0.2169 -1.1185  0.4058
 2021SOL     OW17695   3.262   0.454   4.619 -0.3357  0.0625  0.0451
 2021SOL    HW117696   3.208   0.495   4.687 -1.0340  0.1932 -0.5822
 2021SOL    HW217697   3.283   0.375   4.667  0.0106 -0.5303 -1.0708
 2022SOL     OW17698   0.396   0.165   7.539  0.1164  0.4704 -0.0093
 2022SOL    HW117699   0.436   0.152   7.625 -2.4538 -2.0374  0.7995
 2022SOL    HW217700   0.322   0.105   7.547 -0.2797  1.1231  1.2691
 2023SOL     OW17701   4.087   1.490  11.805 -0.2281  0.5364  0.4219
 2023SOL    HW117702   4.149   1.432  11.761 -0.7256  1.7953 -1.9338
 2023SOL    HW217703   4.143   1.567  11.815  0.4645  0.1731 -0.6766
 2024SOL     OW17704   4.348   0.915  14.463 -0.5172 -0.5781  0.4389
 2024SOL    HW117705   4.261   0.897  14.498 -1.2667  0.1383 -1.0848
 2024SOL    HW217706   4.367   0.996  14.510  2.2310 -1.1944  0.4226
 2025SOL     OW17707   3.042   4.311   8.126  0.1574  0.1535  0.3973
 2025SOL    HW117708   3.093   4.291   8.047  1.0848 -2.0994  1.5550
 2025SOL    HW217709   2.999   4.227   8.143  1.1459 -0.3862  0.2551
 2026SOL     OW17710   0.844   2.512   2.458 -0.6350  0.2503 -0.4561
 2026SOL    HW117711   0.870   2.472   2.541  1.7845 -0.3376 -1.4914
 2026SOL    HW217712   0.895   2.593   2.456 -0.4633  0.1500  0.0198
 2027SOL     OW17713   1.436   2.038   7.288 -0.2227 -0.1883  0.0572
 2027SOL    HW117714   1.408   2.122   7.253  1.1537 -0.1319 -0.9110
 2027SOL    HW217715   1.347   2.014   7.313  0.0338 -2.2269 -0.9134
 2028SOL     OW17716   1.427   3.401   3.104  0.3341  0.0141 -0.2414
 2028SOL    HW117717   1.483   3.463   3.150 -1.6378  1.5011  0.1223
 2028SOL    HW217718   1.466   3.321   3.141 -0.5088  0.1659  0.9703
 2029SOL     OW17719   3.257   0.709   5.707 -0.6255 -0.3746  0.0100
 2029SOL    HW117720   3.245   0.796   5.668  2.8745  0.9721  1.8647
 2029SOL    HW217721   3.174   0.702   5.753 -0.9654 -0.1745 -0.5784
 2030SOL     OW17722   3.363   4.339   8.129 -0.4421 -0.3630  0.2193
 2030SOL    HW117723   3.382   4.430   8.107 -0.0719 -0.7752 -1.1536
 2030SOL    HW217724   3.316   4.306   8.053  0.1011 -0.5800 -0.0255
 2031SOL     OW17725   0.740   1.294  12.268 -0.4064  0.5930 -0.0839
 2031SOL    HW117726   0.802   1.303  12.196  0.6300  0.3713  0.7895
 2031SOL    HW217727   0.796   1.253  12.334 -1.2080 -2.1442 -1.0995
 2032SOL     OW17728   1.020   3.908   5.925 -0.7326 -0.1755 -0.4043
 2032SOL    HW117729   1.087   3.919   5.857 -0.3508  0.3615  0.0618
 2032SOL    HW217730   1.010   3.814   5.910 -0.9356 -0.4987  1.7600
 2033SOL     OW17731   3.575   2.778   9.218 -0.8402  0.0297 -0.0843
 2033SOL    HW117732   3.551   2.720   9.147 -0.5621 -0.5278  0.2782
 2033SOL    HW217733   3.513   2.851   9.217  0.1209  0.8762  0.4653
 2034SOL     OW17734   4.587   4.584   7.214 -0.0349  0.3134  0.3453
 2034SOL    HW117735   4.608   4.673   7.240 -1.5653  1.2502 -1.6847
 2034SOL    HW217736   4.515   4.603   7.155  1.5206  0.0858 -1.6212
 2035SOL     OW17737   1.608   4.313   4.416 -0.1559  0.8391  0.3301
 2035SOL    HW117738   1.663   4.362   4.478  2.4682 -1.2712 -0.3410
 2035SOL    HW217739   1.615   4.226   4.454  0.4760  0.5225 -0.5287
 2036SOL     OW17740   0.930   1.614   8.247 -0.3237 -0.4324  0.3738
 2036SOL    HW117741   0.887   1.537   8.209  1.9255 -0.4662 -2.1504
 2036SOL    HW217742   0.860   1.664   8.289  1.0083  1.1419  0.7122
 2037SOL     OW17743   0.496   1.049  15.732 -0.2693  0.2488 -0.0170
 2037SOL    HW117744   0.558   0.997  15.680  1.9590  1.5790  1.3007
 2037SOL    HW217745   0.416   1.001  15.709 -0.3847  0.2815  0.3269
 2038SOL     OW17746   1.733   4.667  13.351  0.1385  0.1627 -0.7443
 2038SOL    HW117747   1.771   4.622  13.426 -0.8386  0.8912  0.1940
 2038SOL    HW217748   1.685   4.734  13.400 -2.0978 -1.6827 -0.4117
 2039SOL     OW17749   0.052   2.428  16.298  0.0079  0.6584 -0.0429
 2039SOL    HW117750   0.128   2.372  16.318  1.4765  2.3688 -0.8628
 2039SOL    HW217751   4.711   2.369  16.297  0.1408  0.6041 -4.0198
 2040SOL     OW17752   3.361   2.825  15.254  0.8022  0.2263  0.0683
 2040SOL    HW117753   3.456   2.810  15.251  0.5276 -1.5467  0.5460
 2040SOL    HW217754   3.354   2.806  15.347  1.0744 -0.8043 -0.1137
 2041SOL     OW17755   0.669   2.926   3.525  0.1248  0.1456  0.2269
 2041SOL    HW117756   0.663   2.839   3.564 -3.5160  0.0024 -0.6936
 2041SOL    HW217757   0.669   2.905   3.432 -1.2436 -1.9009  0.6983
 2042SOL     OW17758   0.382   0.212  12.194  0.0745  0.0705  0.5572
 2042SOL    HW117759   0.470   0.178  12.210  0.1654  0.7764  1.5199
 2042SOL    HW217760   0.348   0.134  12.151  1.4001  1.1414 -2.4747
 2043SOL     OW17761   3.963   1.124   4.166 -0.0059 -0.6654  0.1987
 2043SOL    HW117762   4.027   1.090   4.103 -1.1027 -0.5730 -0.9609
 2043SOL    HW217763   3.932   1.203   4.122  0.5130 -0.3222  0.4382
 2044SOL     OW17764   0.868   4.434   5.221  0.4923 -0.1859 -0.0209
 2044SOL    HW117765   0.930   4.411   5.152  0.4248  0.5754 -0.3316
 2044SOL    HW217766   0.885   4.358   5.277  0.9506  0.9595  1.3862
 2045SOL     OW17767   1.746   3.207  12.372 -0.5956  0.2622 -0.0779
 2045SOL    HW117768   1.766   3.234  12.462  1.5287 -1.1621 -0.1367
 2045SOL    HW217769   1.667   3.154  12.377 -0.4325 -0.0806 -1.1447
 2046SOL     OW17770   1.569   0.874   4.622 -0.2187 -0.3993 -0.2992
 2046SOL    HW117771   1.596   0.865   4.713 -0.7520 -0.3644 -0.1357
 2046SOL    HW217772   1.541   0.966   4.622 -0.5375 -0.5093  1.1446
 2047SOL     OW17773   2.657   3.608   2.412 -0.1248  0.3837 -0.5461
 2047SOL    HW117774   2.646   3.614   2.317 -1.4609 -3.4365 -0.6264
 2047SOL    HW217775   2.592   3.541   2.430  2.4941 -1.7452  1.1150
 2048SOL     OW17776   0.692   2.399   3.604 -0.3088 -0.5027 -0.3307
 2048SOL    HW117777   0.777   2.413   3.647  0.1761 -0.7549 -1.2116
 2048SOL    HW217778   0.665   2.490   3.594  0.4974 -0.3469 -1.1128
 2049SOL     OW17779   3.309   1.760   5.067 -0.2806  0.0042  0.1196
 2049SOL    HW117780   3.381   1.743   5.127 -0.5200  2.0438  0.9845
 2049SOL    HW217781   3.331   1.836   5.014 -0.9813 -0.3991 -0.7551
 2050SOL     OW17782   0.198   4.437   4.233  0.3760  0.2638  0.0191
 2050SOL    HW117783   0.159   4.350   4.226  0.2583  0.3177  0.0038
 2050SOL    HW217784   0.139   4.494   4.184  1.1774  0.7781 -0.3553
 2051SOL     OW17785   2.857   4.415  12.084  0.2348 -0.7734 -0.1382
 2051SOL    HW117786   2.932   4.474  12.081  0.3527 -0.9888 -1.7084
 2051SOL    HW217787   2.799   4.463  12.024  0.0243  1.2075  1.6645
 2052SOL     OW17788   1.541   3.172   9.910 -0.0606  0.2682 -0.1411
 2052SOL    HW117789   1.591   3.245   9.872  2.3937 -1.6607 -0.5894
 2052SOL    HW217790   1.599   3.134   9.975  0.3624  2.4616  0.7697
 2053SOL     OW17791   4.420   1.344   0.371  0.2330  0.6659  0.1836
 2053SOL    HW117792   4.491   1.394   0.410  0.3811  0.2581  0.4457
 2053SOL    HW217793   4.461   1.330   0.286  0.4492  0.8271  0.2624
 2054SOL     OW17794   0.261   2.398  13.414 -0.2952  0.3211 -0.2646
 2054SOL    HW117795   0.339   2.445  13.385 -0.7381  0.7236 -0.8118
 2054SOL    HW217796   0.289   2.308  13.431 -0.6406 -0.1475 -2.2380
 2055SOL     OW17797   3.739   3.260   9.424  0.3447  0.2990 -0.8284
 2055SOL    HW117798   3.752   3.355   9.423 -2.8311  0.7559  0.1081
 2055SOL    HW217799   3.757   3.232   9.514 -3.1754  0.2115 -0.1187
 2056SOL     OW17800   0.877   3.421   5.466  0.4436  0.0012  0.0248
 2056SOL    HW117801   0.954   3.368   5.487 -0.4949 -1.0925  0.6836
 2056SOL    HW217802   0.811   3.356   5.443  0.4475  0.6279 -1.7586
 2057SOL     OW17803   3.484   4.312   3.034  0.3173  0.2203  0.3815
 2057SOL    HW117804   3.545   4.386   3.029 -2.3494  2.5300  2.2920
 2057SOL    HW217805   3.401   4.359   3.022 -0.0213 -0.0391  1.7584
 2058SOL     OW17806   4.617   1.703   8.940 -0.5961 -0.0018  1.0360
 2058SOL    HW117807   4.666   1.783   8.953 -1.5018  1.0129 -1.6974
 2058SOL    HW217808   4.685   1.636   8.944 -1.4317 -0.7385  2.5917
 2059SOL     OW17809   4.486   3.408   4.018 -0.4328 -0.6648 -0.0486
 2059SOL    HW117810   4.580   3.396   4.030 -0.1699  2.6006  1.0863
 2059SOL    HW217811   4.496   3.498   3.990  1.3016 -1.1680 -0.9853
 2060SOL     OW17812   0.037   2.917  17.123  0.2680 -0.2038  0.1763
 2060SOL    HW117813   4.713   2.980  17.082 -0.4800 -0.6205  0.5821
 2060SOL    HW217814   0.056   2.974  17.197 -1.6326  0.3500  0.2273
 2061SOL     OW17815   0.367   2.269   6.412  0.2645  0.5079  0.3213
 2061SOL    HW117816   0.418   2.201   6.367 -0.2326 -0.5775  1.4085
 2061SOL    HW217817   0.435   2.298   6.473  1.0457 -0.2036 -0.2105
 2062SOL     OW17818   3.783   2.136   3.320  0.3651 -0.1031 -0.1397
 2062SOL    HW117819   3.838   2.192   3.265  0.8763  1.2232  1.6986
 2062SOL    HW217820   3.711   2.112   3.262  0.5379  0.5800 -0.6423
 2063SOL     OW17821   3.501   2.010   7.446  0.1912 -0.1583 -0.2697
 2063SOL    HW117822   3.574   2.029   7.505  0.6547  2.8681 -1.8238
 2063SOL    HW217823   3.499   2.099   7.411 -0.5964 -0.3138 -0.6374
 2064SOL     OW17824   0.766   4.636   4.900 -0.2538  0.7025  0.0928
 2064SOL    HW117825   0.706   4.571   4.936  1.4655 -1.1676 -0.3548
 2064SOL    HW217826   0.735   4.718   4.939  0.0846 -0.4937  2.8810
 2065SOL     OW17827   2.071   0.034  11.409  0.1891 -0.7291  0.1598
 2065SOL    HW117828   2.062   0.058  11.501 -1.3474 -1.8078  0.2898
 2065SOL    HW217829   2.139   0.097  11.384 -1.1628  0.2285 -1.1310
 2066SOL     OW17830   3.251   0.924   4.305  0.1147 -0.1039 -0.2668
 2066SOL    HW117831   3.301   0.921   4.386  1.0631 -2.7321 -0.9282
 2066SOL    HW217832   3.222   1.015   4.311 -1.2368 -0.6263  1.0070
 2067SOL     OW17833   0.957   1.204  12.423  0.1209  0.3376  0.0582
 2067SOL    HW117834   1.016   1.280  12.421  1.6216 -0.8298 -0.5412
 2067SOL    HW217835   1.010   1.142  12.474  1.6412  0.4303 -1.3881
 2068SOL     OW17836   0.937   3.786   0.900  0.6344 -0.4405  0.1092
 2068SOL    HW117837   0.864   3.836   0.863  2.4287  0.5142 -2.0681
 2068SOL    HW217838   0.989   3.863   0.921 -1.8591  0.6931  2.0796
 2069SOL     OW17839   0.496   1.189   8.728 -0.0311  0.4248  0.4522
 2069SOL    HW117840   0.411   1.146   8.718 -0.4619  0.9444  1.9637
 2069SOL    HW217841   0.487   1.244   8.805  1.2063  1.0566  0.1482
 2070SOL     OW17842   4.008   1.967   7.283 -0.0977  0.6179 -0.1555
 2070SOL    HW117843   3.992   1.915   7.204  1.9557 -0.1058 -0.0831
 2070SOL    HW217844   3.952   1.932   7.352  1.1794 -3.1941 -1.0465
 2071SOL     OW17845   3.895   3.402  17.322 -0.0441 -0.3144  0.3855
 2071SOL    HW117846   3.847   3.485  17.324 -0.3268 -0.4309 -1.6169
 2071SOL    HW217847   3.978   3.431  17.285  1.0672 -1.2110  2.2227
 2072SOL     OW17848   4.235   3.679   8.032  0.5257 -0.8406 -0.2845
 2072SOL    HW117849   4.170   3.641   8.091  0.4600  0.3958  0.4486
 2072SOL    HW217850   4.198   3.643   7.952 -0.8201  1.9094 -0.9111
 2073SOL     OW17851   2.056   0.751   9.288  0.5205 -0.6882  0.0423
 2073SOL    HW117852   1.998   0.799   9.348  0.3685  0.2975 -0.8996
 2073SOL    HW217853   1.991   0.716   9.227  1.5557  1.2806 -2.1447
 2074SOL     OW17854   1.377   2.273   8.891 -0.0721  0.8562  0.2182
 2074SOL    HW117855   1.444   2.341   8.901  0.6871  0.0281  0.6456
 2074SOL    HW217856   1.306   2.321   8.847 -1.8746  0.1668  2.4492
 2075SOL     OW17857   0.969   4.689  15.974  0.4763  0.0023  0.8970
 2075SOL    HW117858   1.064   4.690  15.965  0.4693  0.5735  0.9118
 2075SOL    HW217859   0.961   4.722  16.063  0.7215  2.8418 -0.1292
 2076SOL     OW17860   0.748   4.138   5.181 -0.0929  0.5919  0.0908
 2076SOL    HW117861   0.789   4.153   5.266  0.7963  2.5883 -0.7076
 2076SOL    HW217862   0.816   4.133   5.114 -0.1865  0.1596  0.0257
 2077SOL     OW17863   1.671   0.680   6.234 -0.4841 -0.2423  0.4810
 2077SOL    HW117864   1.723   0.666   6.155  1.6877  0.2265  1.8232
 2077SOL    HW217865   1.585   0.664   6.195 -1.8780  3.7526  1.9803
 2078SOL     OW17866   0.634   2.782   2.949  0.1842  0.5082  0.2200
 2078SOL    HW117867   0.606   2.859   2.998 -3.7536 -0.1047 -1.0792
 2078SOL    HW217868   0.713   2.759   2.998 -1.3312  0.7735  2.7773
 2079SOL     OW17869   3.799   3.752   7.861  0.2872 -0.0657  0.3414
 2079SOL    HW117870   3.742   3.723   7.790  0.8844 -1.6797  0.5287
 2079SOL    HW217871   3.859   3.678   7.867  0.8702  0.3497 -0.4463
 2080SOL     OW17872   1.690   0.520   8.528  0.2225 -0.4481 -0.4679
 2080SOL    HW117873   1.750   0.488   8.595 -1.9205 -1.8404  0.7934
 2080SOL    HW217874   1.756   0.543   8.463  0.5994 -1.0400 -0.2902
 2081SOL     OW17875   3.560   0.282   8.800 -0.1323 -0.4903 -0.1421
 2081SOL    HW117876   3.494   0.217   8.776 -0.0846  0.3249 -2.4907
 2081SOL    HW217877   3.580   0.319   8.714 -1.6470  1.8417  0.5124
 2082SOL     OW17878   1.710   0.963   2.280  0.1472 -0.6937  0.8847
 2082SOL    HW117879   1.768   0.928   2.347  0.6834  1.8730  1.7584
 2082SOL    HW217880   1.669   0.882   2.250  1.6552 -0.6630 -1.2538
 2083SOL     OW17881   3.410   1.336   8.549 -0.3279 -0.3728 -0.1533
 2083SOL    HW117882   3.368   1.280   8.614  0.1689 -0.8193 -0.2210
 2083SOL    HW217883   3.394   1.417   8.597  0.0015 -1.2739  1.4902
 2084SOL     OW17884   4.246   0.613   7.151 -0.5936 -0.2234 -0.0873
 2084SOL    HW117885   4.223   0.704   7.131  0.8785  0.6280  2.0908
 2084SOL    HW217886   4.314   0.626   7.216 -0.7348  2.2824 -0.4343
 2085SOL     OW17887   0.096   2.771   0.182 -0.1392 -0.1255  0.1285
 2085SOL    HW117888   0.024   2.720   0.220 -1.8889  1.5248 -0.9615
 2085SOL    HW217889   0.174   2.736   0.225  1.1023  0.8240 -1.3694
 2086SOL     OW17890   3.567   2.488   7.028  0.5901  0.4942 -0.0241
 2086SOL    HW117891   3.517   2.470   7.107  2.2082  2.9645  1.5571
 2086SOL    HW217892   3.590   2.575   7.060  0.7011  0.8033 -0.9393
 2087SOL     OW17893   0.977   1.406   6.240 -0.3009  0.2785 -0.4237
 2087SOL    HW117894   0.902   1.390   6.183  0.1038 -1.0588 -0.5805
 2087SOL    HW217895   1.041   1.349   6.197 -0.3959 -0.9309  1.0719
 2088SOL     OW17896   3.397   1.134   9.966 -0.5222 -0.2010 -0.3726
 2088SOL    HW117897   3.474   1.175   9.925 -0.7333  0.1761 -0.3899
 2088SOL    HW217898   3.336   1.202   9.939  0.0603  0.5520  0.2311
 2089SOL     OW17899   3.000   1.278  16.773 -0.2486 -0.6262 -0.1383
 2089SOL    HW117900   3.068   1.236  16.826 -1.9060 -2.5821  0.4464
 2089SOL    HW217901   3.025   1.369  16.786  0.5946 -0.5081 -2.4414
 2090SOL     OW17902   1.181   4.256   9.748  0.4273 -0.3503  0.1750
 2090SOL    HW117903   1.150   4.193   9.812  1.9493 -0.2640  1.0039
 2090SOL    HW217904   1.201   4.201   9.672  2.2573 -0.1154  0.4785
 2091SOL     OW17905   3.116   2.076   9.730 -0.2760  0.5741 -0.0556
 2091SOL    HW117906   3.028   2.056   9.695 -0.0741  0.2736 -0.3994
 2091SOL    HW217907   3.155   2.096   9.645 -0.0085 -0.1021 -0.0964
 2092SOL     OW17908   4.366   2.818   1.801 -0.2673  0.0564 -0.1446
 2092SOL    HW117909   4.375   2.836   1.707  2.7130 -1.9340 -0.2691
 2092SOL    HW217910   4.287   2.764   1.803 -0.8569  0.8339 -2.4806
 2093SOL     OW17911   3.595   2.696   8.900  0.1518 -0.6163  0.1702
 2093SOL    HW117912   3.553   2.634   8.840 -1.7302 -0.1237  0.9990
 2093SOL    HW217913   3.687   2.668   8.893 -0.5077 -2.6235 -0.6093
 2094SOL     OW17914   4.148   2.624   4.650 -0.5826 -0.3335  0.5428
 2094SOL    HW117915   4.220   2.632   4.712 -0.2061 -1.1248  0.2059
 2094SOL    HW217916   4.080   2.640   4.714 -2.2947  0.1452 -1.3895
 2095SOL     OW17917   2.335   2.207   5.036 -0.3409 -0.4561 -0.8907
 2095SOL    HW117918   2.342   2.197   5.131  0.1887 -0.1414 -0.8988
 2095SOL    HW217919   2.247   2.177   5.012 -0.8297 -0.0242  0.3219
 2096SOL     OW17920   3.780   4.573   8.218 -0.2540 -0.5856 -0.1583
 2096SOL    HW117921   3.825   4.507   8.166  2.2893  0.7887  0.3007
 2096SOL    HW217922   3.740   4.520   8.287 -1.6871  1.1983  0.3738
 2097SOL     OW17923   4.470   1.384  13.231  0.1600  0.2144  0.0634
 2097SOL    HW117924   4.555   1.428  13.223 -2.0968  4.1332 -2.5360
 2097SOL    HW217925   4.481   1.295  13.199  0.7877  0.9262 -1.7048
 2098SOL     OW17926   1.179   0.459   3.541 -0.8215 -0.3097 -0.4823
 2098SOL    HW117927   1.142   0.491   3.459  0.8743 -0.1557 -1.1897
 2098SOL    HW217928   1.272   0.449   3.519 -0.3640  0.7224  0.9546
 2099SOL     OW17929   3.625   1.754   4.964  0.0739 -0.2081 -0.4680
 2099SOL    HW117930   3.585   1.736   5.049 -0.6767 -0.7002 -0.9281
 2099SOL    HW217931   3.666   1.668   4.951  0.8782 -0.0331  0.8969
 2100SOL     OW17932   3.414   2.047   5.351  0.3148 -0.0143  0.2731
 2100SOL    HW117933   3.330   2.007   5.375 -0.0011  0.6109  0.2315
 2100SOL    HW217934   3.432   2.011   5.264  2.2514  0.8556  0.3211
 2101SOL     OW17935   3.425   3.437  15.062  0.1908 -0.2034 -0.4031
 2101SOL    HW117936   3.361   3.369  15.084 -0.5307  0.6205  0.0609
 2101SOL    HW217937   3.452   3.397  14.979  0.9399 -0.4368 -0.0478
 2102SOL     OW17938   4.231   2.626   2.037 -0.0803 -0.4442  0.2317
 2102SOL    HW117939   4.293   2.696   2.057 -1.4343  0.4823  1.1274
 2102SOL    HW217940   4.251   2.607   1.945  1.1407 -2.0614  0.8380
 2103SOL     OW17941   1.895   2.400   3.694 -0.5996 -0.0275 -0.2025
 2103SOL    HW117942   1.826   2.402   3.760 -0.9885 -0.7116 -0.5835
 2103SOL    HW217943   1.973   2.402   3.750 -0.8806 -1.1312  0.2333
 2104SOL     OW17944   1.576   1.135  15.870 -0.5039 -0.1696 -0.4200
 2104SOL    HW117945   1.618   1.220  15.853 -0.1519 -0.6355 -1.8615
 2104SOL    HW217946   1.537   1.145  15.957  0.6874  2.4930 -0.1530
 2105SOL     OW17947   2.487   2.426  11.936 -0.7253 -0.3778 -0.3135
 2105SOL    HW117948   2.431   2.362  11.982 -0.5056 -1.1669 -1.1507
 2105SOL    HW217949   2.536   2.452  12.014 -1.3995  1.7666 -0.6178
 2106SOL     OW17950   2.858   1.937   4.466 -0.1972  0.6953  0.7870
 2106SOL    HW117951   2.881   1.850   4.497 -1.9851 -1.2048 -3.2403
 2106SOL    HW217952   2.938   1.988   4.480  1.0530 -0.8533 -0.8311
 2107SOL     OW17953   1.728   2.988   6.807  0.2181  0.3460  0.1055
 2107SOL    HW117954   1.814   3.022   6.779 -0.3109 -1.9478 -4.2917
 2107SOL    HW217955   1.711   3.048   6.879  0.6635 -0.1844  0.6461
 2108SOL     OW17956   4.134   2.067  14.950  0.0855  0.2010 -0.4056
 2108SOL    HW117957   4.211   2.072  14.893  1.2034 -1.0149  0.9700
 2108SOL    HW217958   4.098   1.982  14.926  2.0539 -0.4861 -0.9554
 2109SOL     OW17959   2.270   0.510   4.633  0.0691 -0.1442 -0.1689
 2109SOL    HW117960   2.179   0.515   4.605 -0.5983 -0.6873  1.8952
 2109SOL    HW217961   2.309   0.597   4.623  2.8203 -1.4559 -1.0315
 2110SOL     OW17962   1.463   2.122  10.324 -0.3339  0.5527 -0.0405
 2110SOL    HW117963   1.491   2.198  10.376 -1.3741  2.1565 -1.7999
 2110SOL    HW217964   1.429   2.154  10.241  0.1509  1.2436  0.0214
 2111SOL     OW17965   0.931   4.070   7.640 -0.4371  0.3679 -0.0805
 2111SOL    HW117966   0.962   4.142   7.694  1.0110  0.7200 -1.3845
 2111SOL    HW217967   0.989   4.008   7.684 -0.3646  1.4254  1.3000
 2112SOL     OW17968   0.264   0.900   4.811  0.2296 -0.2105 -0.1461
 2112SOL    HW117969   0.262   0.921   4.904 -1.7328  0.7032 -0.3847
 2112SOL    HW217970   0.342   0.845   4.809  0.0295 -0.4129 -2.5646
 2113SOL     OW17971   3.796   0.439   6.514 -0.1309 -0.2747  0.1904
 2113SOL    HW117972   3.773   0.396   6.431 -0.3370  0.5391 -0.1723
 2113SOL    HW217973   3.892   0.431   6.512 -0.1262 -0.4341  1.0900
 2114SOL     OW17974   4.140   0.815   5.960  0.6013  0.0993  0.4589
 2114SOL    HW117975   4.093   0.865   5.894  1.7305  0.3326 -0.1666
 2114SOL    HW217976   4.074   0.781   6.020  0.7951  0.7788  1.0474
 2115SOL     OW17977   2.104   0.745   9.620 -0.4741  0.5148  0.2656
 2115SOL    HW117978   2.013   0.776   9.627  0.1823  2.1372  1.5676
 2115SOL    HW217979   2.087   0.670   9.677  1.7089 -0.5024 -0.4226
 2116SOL     OW17980   1.382   1.982  16.062  0.4053 -0.4334  0.2455
 2116SOL    HW117981   1.323   1.954  15.993  1.6995 -2.3683 -0.0782
 2116SOL    HW217982   1.445   2.041  16.020 -3.7971  3.4781 -0.5856
 2117SOL     OW17983   3.909   1.669   7.297 -0.1327 -0.0091  0.6283
 2117SOL    HW117984   3.816   1.648   7.296 -0.3518  1.0730 -1.3970
 2117SOL    HW217985   3.914   1.736   7.365 -0.8931  0.8028 -0.1152
 2118SOL     OW17986   3.805   2.338   6.712  0.0410  0.2265  0.5783
 2118SOL    HW117987   3.845   2.275   6.652  0.2627 -1.3248  2.3428
 2118SOL    HW217988   3.812   2.292   6.796  0.4155  0.5242  0.7120
 2119SOL     OW17989   4.555   2.255  16.264  0.8201  0.6237 -0.2708
 2119SOL    HW117990   4.571   2.191  16.333 -2.3648  0.1326 -0.0346
 2119SOL    HW217991   4.521   2.205  16.190  0.7640 -1.3921  1.1226
 2120SOL     OW17992   0.452   2.176   2.141  0.0191  0.3670  0.0318
 2120SOL    HW117993   0.524   2.185   2.203  0.6079  1.0335 -0.7505
 2120SOL    HW217994   0.393   2.248   2.165 -1.2907 -0.4347 -0.7954
 2121SOL     OW17995   4.726   1.140  10.745  0.1379 -0.2091  0.0759
 2121SOL    HW117996   4.694   1.224  10.780  0.4198  0.3218 -0.9381
 2121SOL    HW217997   4.657   1.120  10.682  0.6857 -0.4732 -0.4374
 2122SOL     OW17998   0.065   1.245   8.888  0.6202  0.5840 -0.1611
 2122SOL    HW117999   0.149   1.198   8.881 -0.5765 -1.5240 -0.2765
 2122SOL    HW218000   0.104   1.328   8.916  0.2843  0.6549  0.0876
 2123SOL     OW18001   0.197   0.688   8.430 -0.7157 -0.0391  0.1571
 2123SOL    HW118002   0.263   0.753   8.450 -1.9914  0.7538  1.7082
 2123SOL    HW218003   0.149   0.728   8.357  0.6840 -1.0910 -1.3555
 2124SOL     OW18004   1.503   2.171  12.741  0.0079 -0.1461  0.0923
 2124SOL    HW118005   1.410   2.156  12.756  0.2163 -0.7431  0.8060
 2124SOL    HW218006   1.506   2.265  12.760 -1.5478 -0.4555  1.7797
 2125SOL     OW18007   1.661   2.881  12.748  0.0455  0.0091 -0.0180
 2125SOL    HW118008   1.629   2.792  12.734 -0.1589 -0.2017  1.7857
 2125SOL    HW218009   1.705   2.893  12.664  1.5890  2.7590  1.1724
 2126SOL     OW18010   0.319   2.612   3.932 -0.1699 -0.9416 -0.0050
 2126SOL    HW118011   0.266   2.691   3.935  1.7455  0.3895 -1.4121
 2126SOL    HW218012   0.351   2.623   3.842  0.9708  1.3094  0.6962
 2127SOL     OW18013   3.442   4.075   7.756  0.3688 -0.3931  0.7665
 2127SOL    HW118014   3.373   4.019   7.791 -0.3877 -1.2779 -2.0859
 2127SOL    HW218015   3.516   4.075   7.817  0.3669  1.0992  0.7705
 2128SOL     OW18016   1.933   4.030   9.129  0.2224  0.0923  0.1773
 2128SOL    HW118017   1.862   4.085   9.163  2.4603  1.9662  1.7897
 2128SOL    HW218018   1.905   3.944   9.160 -0.7575  0.2329 -0.2955
 2129SOL     OW18019   0.699   3.334   0.006  0.1113  0.1798  0.5401
 2129SOL    HW118020   0.634   3.290   0.061  0.3638  0.7403  1.2847
 2129SOL    HW218021   0.695   3.277  17.666  0.3733  1.4696 -0.4358
 2130SOL     OW18022   0.071   1.606   4.755 -0.5122  0.2180  0.1515
 2130SOL    HW118023   0.024   1.681   4.792 -0.2506 -0.3521  1.6315
 2130SOL    HW218024   0.155   1.647   4.734 -0.5044  0.9128  1.5737
 2131SOL     OW18025   1.780   1.422   0.724 -0.0822  0.4788 -0.2656
 2131SOL    HW118026   1.736   1.424   0.639 -0.1586  1.6514 -0.2073
 2131SOL    HW218027   1.739   1.341   0.752  0.9322  0.0398 -0.0352
 2132SOL     OW18028   1.462   3.592   5.722 -0.4010  0.8038 -0.0133
 2132SOL    HW118029   1.488   3.578   5.813 -2.8665  1.7322  0.8484
 2132SOL    HW218030   1.548   3.601   5.682 -0.1486  2.2266  0.8494
 2133SOL     OW18031   1.648   3.759   8.598 -0.1971  0.0559  0.0287
 2133SOL    HW118032   1.683   3.676   8.631  1.8859  0.2500 -1.7176
 2133SOL    HW218033   1.656   3.818   8.672  1.0370 -3.4520  2.6948
 2134SOL     OW18034   4.521   0.882   5.502  0.1025  0.0547 -0.3974
 2134SOL    HW118035   4.579   0.946   5.462 -1.3838  0.6154 -1.6340
 2134SOL    HW218036   4.575   0.803   5.507 -0.4365 -0.2862 -0.0428
 2135SOL     OW18037   3.128   2.639   1.181  1.0208 -0.3145  0.4111
 2135SOL    HW118038   3.177   2.596   1.110 -0.0094 -1.3153  0.3096
 2135SOL    HW218039   3.174   2.595   1.252 -1.0099 -3.5149 -0.2750
 2136SOL     OW18040   3.895   2.124   4.285  0.0897  0.6671 -0.7055
 2136SOL    HW118041   3.804   2.152   4.297 -0.1190  0.5868 -2.1396
 2136SOL    HW218042   3.936   2.195   4.235  0.6282  2.1075  1.7889
 2137SOL     OW18043   1.083   0.666   9.384  0.1741  0.0755  0.1761
 2137SOL    HW118044   1.122   0.754   9.386 -2.0090  1.0853 -0.9356
 2137SOL    HW218045   0.993   0.681   9.413  0.8286  1.7431  1.3688
 2138SOL     OW18046   4.621   4.394  13.712 -0.0902 -0.2642  0.1133
 2138SOL    HW118047   4.582   4.465  13.662 -1.4413 -0.5403  0.7918
 2138SOL    HW218048   4.696   4.434  13.755 -0.2926  0.9168 -0.6451
 2139SOL     OW18049   3.805   4.074  10.877 -0.1654 -0.2640  0.1042
 2139SOL    HW118050   3.890   4.071  10.920 -0.8367 -1.7016  1.3112
 2139SOL    HW218051   3.823   4.127  10.799 -1.8667  0.5937  0.2843
 2140SOL     OW18052   0.076   0.575   9.567  0.0661  0.0679 -0.0280
 2140SOL    HW118053   0.082   0.624   9.485  0.9581 -0.0812 -0.0546
 2140SOL    HW218054   0.169   0.554   9.578  0.4158  1.5394 -0.1312
 2141SOL     OW18055   3.835   0.366   8.342  0.6618  0.0235 -0.1290
 2141SOL    HW118056   3.782   0.289   8.362  0.7713  0.0124  0.1275
 2141SOL    HW218057   3.800   0.386   8.256  0.8142  1.5626  0.1583
 2142SOL     OW18058   1.064   4.374   1.296  0.3439  0.3090 -0.7703
 2142SOL    HW118059   1.023   4.457   1.272 -1.5676 -0.0321  1.3008
 2142SOL    HW218060   1.039   4.320   1.221 -1.8703 -0.3649  0.4584
 2143SOL     OW18061   2.444   0.891   5.214  0.0073  0.5860 -0.5418
 2143SOL    HW118062   2.531   0.853   5.225 -1.1755 -1.7664  0.7700
 2143SOL    HW218063   2.445   0.967   5.272  0.1705 -1.3275  1.9491
 2144SOL     OW18064   2.629   2.734   7.678 -0.0561  0.4817  0.2058
 2144SOL    HW118065   2.592   2.662   7.626  2.6835 -0.9360  0.1878
 2144SOL    HW218066   2.550   2.787   7.678  0.9652  1.9904  0.9553
 2145SOL     OW18067   4.518   1.404   4.508 -0.5799  0.7104  0.7372
 2145SOL    HW118068   4.601   1.440   4.476 -0.3756  1.7769  2.4157
 2145SOL    HW218069   4.536   1.393   4.602 -0.2662 -0.9662  0.4813
 2146SOL     OW18070   3.049   1.157   3.799  0.1540  0.0076  0.3067
 2146SOL    HW118071   3.027   1.070   3.767  0.5412  1.0357 -2.7650
 2146SOL    HW218072   3.039   1.145   3.894 -2.0088 -0.4508  0.0217
 2147SOL     OW18073   1.717   3.534   8.730 -0.3077  0.4864  0.6131
 2147SOL    HW118074   1.731   3.588   8.808  0.3564 -0.2615  1.0133
 2147SOL    HW218075   1.798   3.483   8.725 -0.9696 -0.5929  0.7533
 2148SOL     OW18076   4.517   3.035  14.799 -0.6462  0.4147  0.5209
 2148SOL    HW118077   4.545   2.979  14.871 -1.7924 -0.2720  0.4232
 2148SOL    HW218078   4.424   3.014  14.792 -0.2393 -1.3469  0.5532
 2149SOL     OW18079   3.999   2.819   8.600 -0.3454  0.2365  0.5020
 2149SOL    HW118080   4.071   2.879   8.582  1.4413 -1.4250  2.0798
 2149SOL    HW218081   3.995   2.816   8.695  1.9309 -2.8871  0.5054
 2150SOL     OW18082   2.873   1.057   8.860 -0.1180 -0.3178 -0.7230
 2150SOL    HW118083   2.884   0.994   8.931 -1.1195  0.5298  0.1914
 2150SOL    HW218084   2.960   1.067   8.823 -0.0708 -1.6231 -0.9775
 2151SOL     OW18085   0.411   0.111  13.997  0.0981  0.0801 -0.0960
 2151SOL    HW118086   0.454   0.045  14.051 -0.4683 -0.1577  0.0679
 2151SOL    HW218087   0.387   0.174  14.065  1.2792  1.1841 -0.6992
 2152SOL     OW18088   2.333   4.005   8.629 -0.6789 -0.8348  0.1307
 2152SOL    HW118089   2.320   4.022   8.536  1.2488 -2.0018 -0.3421
 2152SOL    HW218090   2.257   3.962   8.669 -1.9862  0.6377 -0.7671
 2153SOL     OW18091   4.656   4.196   3.011  0.3165  0.4281 -0.5232
 2153SOL    HW118092   0.013   4.194   2.985  0.0435 -3.3064 -1.2089
 2153SOL    HW218093   4.657   4.115   3.063  2.3794  2.3429  2.4234
 2154SOL     OW18094   3.836   0.345   4.377 -0.5143 -0.6026  0.2114
 2154SOL    HW118095   3.845   0.327   4.470 -1.0398  1.7876  0.7229
 2154SOL    HW218096   3.873   0.262   4.347 -1.3180 -0.6723 -0.6081
 2155SOL     OW18097   0.851   1.859   4.498 -0.6270  0.3478 -0.0715
 2155SOL    HW118098   0.901   1.912   4.436  1.1657  0.0321  1.1077
 2155SOL    HW218099   0.873   1.908   4.578 -1.0349  0.5600 -0.0907
 2156SOL     OW18100   2.113   2.164  15.051 -0.4329  0.4359  0.0221
 2156SOL    HW118101   2.027   2.180  15.089 -0.2118 -2.5282  1.7693
 2156SOL    HW218102   2.100   2.074  15.020 -4.0368  1.9505 -2.7781
 2157SOL     OW18103   3.904   3.482   6.431 -0.3085 -0.1708 -0.3322
 2157SOL    HW118104   3.987   3.440   6.452 -0.0980  0.5319  0.2509
 2157SOL    HW218105   3.909   3.566   6.478 -0.7745 -1.0679  1.3292
 2158SOL     OW18106   1.293   1.211  10.606  0.2760  0.5594  0.3149
 2158SOL    HW118107   1.324   1.149  10.672 -0.4906 -0.1296  0.0205
 2158SOL    HW218108   1.293   1.291  10.659 -0.4421 -0.2869  1.5831
 2159SOL     OW18109   3.269   3.380   4.787  0.1290 -0.4334  0.4827
 2159SOL    HW118110   3.290   3.439   4.715  0.5369 -0.8328  0.2715
 2159SOL    HW218111   3.330   3.421   4.848 -1.0826  0.8426  0.8212
 2160SOL     OW18112   1.444   0.065  12.506  0.3188 -0.2799  0.2086
 2160SOL    HW118113   1.369   0.079  12.564 -1.4650 -0.7537 -2.0015
 2160SOL    HW218114   1.409   0.104  12.426  0.7508 -0.1819  0.0672
 2161SOL     OW18115   3.789   3.798   8.410  0.7242  0.6485  0.1992
 2161SOL    HW118116   3.729   3.723   8.405  1.4968  0.2155 -2.6455
 2161SOL    HW218117   3.737   3.872   8.378  0.2920  0.6353  0.8782
 2162SOL     OW18118   3.671   2.017   3.043  0.5745 -0.2078  0.0571
 2162SOL    HW118119   3.627   1.987   2.963 -0.3070  0.9897  0.0805
 2162SOL    HW218120   3.690   2.109   3.024  0.1486 -0.1546 -0.1094
 2163SOL     OW18121   3.673   0.360   5.680  0.1019 -0.5826 -0.6272
 2163SOL    HW118122   3.751   0.306   5.667  1.7122  1.5777  0.0084
 2163SOL    HW218123   3.705   0.408   5.757  2.6145 -1.7273 -0.9508
 2164SOL     OW18124   3.340   2.337   2.117 -0.4257 -0.1573  0.5981
 2164SOL    HW118125   3.295   2.255   2.097 -2.3718  1.2680 -0.9512
 2164SOL    HW218126   3.274   2.407   2.117  0.6628  0.8554  1.0427
 2165SOL     OW18127   2.280   4.183   6.497 -0.0582 -0.5103 -0.1342
 2165SOL    HW118128   2.212   4.128   6.459 -0.7574  1.2930 -1.5301
 2165SOL    HW218129   2.355   4.123   6.493 -2.1345 -2.9568 -2.1192
 2166SOL     OW18130   4.328   4.626   3.604 -0.0935 -0.1161 -0.3322
 2166SOL    HW118131   4.367   4.570   3.537  0.5606 -0.6926  0.5257
 2166SOL    HW218132   4.351   4.718   3.593  1.5905 -0.6211 -0.9839
 2167SOL     OW18133   1.873   0.389   9.256  0.3157 -0.5516  0.0427
 2167SOL    HW118134   1.796   0.333   9.264  0.4913 -0.9498 -1.0321
 2167SOL    HW218135   1.952   0.336   9.268  1.2217  0.9979  0.9390
 2168SOL     OW18136   2.216   2.470  11.349 -0.3593  0.7626 -0.5552
 2168SOL    HW118137   2.286   2.498  11.408  1.0906 -0.5932 -1.6008
 2168SOL    HW218138   2.157   2.545  11.354 -0.0184  0.8539  2.1968
 2169SOL     OW18139   0.788   1.688   5.141 -0.1757 -0.1830 -0.4629
 2169SOL    HW118140   0.697   1.706   5.119 -0.7540  1.3609  3.2020
 2169SOL    HW218141   0.814   1.645   5.060  0.4535  1.9296 -1.3578
 2170SOL     OW18142   2.460   2.576   7.530  0.2517  0.5909 -0.1992
 2170SOL    HW118143   2.420   2.551   7.447 -1.6783 -0.0192  0.9234
 2170SOL    HW218144   2.382   2.586   7.584  0.2272 -0.1592 -0.1064
 2171SOL     OW18145   0.535   0.895  10.627 -0.1546 -0.3542  0.0902
 2171SOL    HW118146   0.444   0.922  10.631 -0.5521 -2.0069  2.1639
 2171SOL    HW218147   0.585   0.976  10.617  0.8160 -0.7707  1.4954
 2172SOL     OW18148   4.586   3.455   1.345  0.0595  0.0232  0.2617
 2172SOL    HW118149   4.675   3.424   1.359 -0.5086 -1.5229  0.5115
 2172SOL    HW218150   4.535   3.379   1.374  2.0915  0.2348  4.4141
 2173SOL     OW18151   2.138   2.101   5.525  0.0110  0.0574 -0.3581
 2173SOL    HW118152   2.118   2.191   5.500  0.5459  0.0817 -0.6882
 2173SOL    HW218153   2.194   2.122   5.599 -0.8019 -0.0171  0.2744
 2174SOL     OW18154   0.582   3.279   1.766  0.7687  0.1853 -0.5136
 2174SOL    HW118155   0.634   3.343   1.716  1.2092 -0.1912 -0.5396
 2174SOL    HW218156   0.652   3.217   1.788 -0.2795 -0.9896 -0.5191
 2175SOL     OW18157   2.764   1.302   6.420 -0.4246  0.0779  0.0828
 2175SOL    HW118158   2.770   1.209   6.439  0.7304  0.2052  0.3032
 2175SOL    HW218159   2.797   1.297   6.330 -1.2976  0.0363 -0.2332
 2176SOL     OW18160   0.767   2.705  15.193  0.4441  0.4770  0.3637
 2176SOL    HW118161   0.778   2.740  15.281 -1.4521 -0.2706  0.9065
 2176SOL    HW218162   0.839   2.647  15.169  0.3373  0.3077  0.4515
 2177SOL     OW18163   4.063   3.652  17.089  0.0909 -0.4590 -0.0006
 2177SOL    HW118164   4.093   3.567  17.123  1.1808  0.4633  1.3129
 2177SOL    HW218165   3.969   3.644  17.072  0.3807 -0.7608 -1.5477
 2178SOL     OW18166   4.486   4.228   0.725  0.4045  0.4287  0.2536
 2178SOL    HW118167   4.455   4.173   0.797 -0.3408 -2.0196 -1.9406
 2178SOL    HW218168   4.487   4.171   0.649 -2.5541  1.4076 -0.5086
 2179SOL     OW18169   2.822   0.275  11.245 -0.0020 -0.0222 -0.1690
 2179SOL    HW118170   2.785   0.276  11.156 -0.4222  0.9389  0.0175
 2179SOL    HW218171   2.877   0.353  11.241  3.2033 -2.2398  1.3585
 2180SOL     OW18172   4.309   1.131   6.309 -0.2307 -0.3970 -0.0035
 2180SOL    HW118173   4.321   1.061   6.245 -1.2009 -0.1109 -0.5010
 2180SOL    HW218174   4.400   1.152   6.327 -0.5712  1.5348 -0.5135
 2181SOL     OW18175   4.694   2.611   5.243  0.3264 -0.6084  0.1356
 2181SOL    HW118176   4.643   2.545   5.197 -0.2771 -2.5041  3.5117
 2181SOL    HW218177   4.686   2.684   5.182 -2.3896  1.0754  2.4687
 2182SOL     OW18178   0.568   3.257   7.780 -0.1388 -0.2169  0.5247
 2182SOL    HW118179   0.597   3.251   7.871 -1.0640 -0.5772  0.7895
 2182SOL    HW218180   0.506   3.330   7.782  2.0379  1.6670 -0.5810
 2183SOL     OW18181   1.771   1.115  10.562  0.0414  0.1972 -0.1105
 2183SOL    HW118182   1.684   1.100  10.524  0.3943  0.5017 -1.0399
 2183SOL    HW218183   1.792   1.194  10.513 -2.9770  0.7189 -0.5700
 2184SOL     OW18184   1.267   1.665   5.556 -0.0347  0.4976  0.2204
 2184SOL    HW118185   1.250   1.731   5.489 -0.6562 -0.5525 -0.6533
 2184SOL    HW218186   1.359   1.687   5.573  0.6293 -2.2539  0.2901
 2185SOL     OW18187   2.258   1.679   8.904  0.0059 -0.2101 -0.0384
 2185SOL    HW118188   2.237   1.603   8.850 -1.7657 -0.0029  0.3517
 2185SOL    HW218189   2.179   1.686   8.957 -1.5125  1.6388 -2.5314
 2186SOL     OW18190   4.587   1.558   7.619 -0.2041  0.2759  0.2376
 2186SOL    HW118191   4.576   1.654   7.621  0.2109  0.3874 -1.8973
 2186SOL    HW218192   4.542   1.522   7.695 -0.0119  2.6118  1.4714
 2187SOL     OW18193   2.613   0.202  12.798  0.0157  0.2258 -0.1433
 2187SOL    HW118194   2.550   0.263  12.837  1.9496  1.0048  1.6893
 2187SOL    HW218195   2.599   0.219  12.704 -0.0955  3.0574  0.3940
 2188SOL     OW18196   1.773   3.022   5.636 -0.3622 -0.2895  0.0218
 2188SOL    HW118197   1.702   3.018   5.572  0.0691 -0.3856 -0.4480
 2188SOL    HW218198   1.724   3.001   5.716 -0.8932 -2.8585 -0.9721
 2189SOL     OW18199   1.016   3.438   9.547  0.3142 -0.4362 -0.6936
 2189SOL    HW118200   1.011   3.496   9.472  1.7328 -0.4515 -0.7931
 2189SOL    HW218201   1.078   3.486   9.602  0.9963  0.6170 -2.4170
 2190SOL     OW18202   4.043   2.977   0.625  0.3772 -0.3639  0.0074
 2190SOL    HW118203   4.051   2.950   0.533  0.3633  0.1319 -0.1413
 2190SOL    HW218204   3.954   3.014   0.624 -0.4177 -2.2638  1.2428
 2191SOL     OW18205   1.146   2.105  14.106  0.1600 -0.3305 -0.1026
 2191SOL    HW118206   1.105   2.188  14.128 -0.1238 -0.2328 -1.0040
 2191SOL    HW218207   1.212   2.141  14.046 -2.0668  2.2110 -1.0554
 2192SOL     OW18208   2.949   1.300  12.538  0.4844  0.4964  0.1756
 2192SOL    HW118209   2.901   1.221  12.563 -0.9102  1.2087 -0.2769
 2192SOL    HW218210   2.888   1.363  12.576 -1.9717 -2.3975  1.0126
 2193SOL     OW18211   3.980   1.680   3.916  0.4918  0.1290 -0.3067
 2193SOL    HW118212   3.887   1.705   3.913  0.2673 -0.5557  1.0611
 2193SOL    HW218213   3.994   1.701   4.009  0.4658  0.0133 -0.2767
 2194SOL     OW18214   1.652   1.878   8.468 -0.7654  0.8653 -0.1036
 2194SOL    HW118215   1.561   1.849   8.473 -1.3826  2.8707  0.1849
 2194SOL    HW218216   1.661   1.924   8.551 -1.7256  2.2464 -0.7637
 2195SOL     OW18217   1.141   2.122   4.330 -0.4309 -0.0170 -0.4644
 2195SOL    HW118218   1.066   2.118   4.272 -0.3627 -3.0799 -0.3533
 2195SOL    HW218219   1.204   2.085   4.268 -0.3146 -0.5795 -0.0166
 2196SOL     OW18220   2.458   4.441   4.348  0.2299  0.8942 -0.1085
 2196SOL    HW118221   2.454   4.491   4.430  0.8778 -0.6052  0.8371
 2196SOL    HW218222   2.497   4.505   4.288  3.8528 -0.2952  0.9716
 2197SOL     OW18223   2.137   2.658   2.962  0.0430 -0.5775  0.6798
 2197SOL    HW118224   2.215   2.697   2.924 -0.7970  0.5565  0.1247
 2197SOL    HW218225   2.085   2.631   2.886  0.7318  0.2163 -0.0726
 2198SOL     OW18226   4.365   3.143  13.916  0.7912 -0.2146 -0.3157
 2198SOL    HW118227   4.439   3.093  13.882 -1.1102 -3.5902  0.5212
 2198SOL    HW218228   4.284   3.096  13.895 -0.1278  0.8941  0.7028
 2199SOL     OW18229   1.091   1.340   6.764 -0.5730 -0.4949  0.0758
 2199SOL    HW118230   1.081   1.430   6.732 -1.3578 -0.1373  1.3390
 2199SOL    HW218231   1.174   1.339   6.811  0.8539 -0.7195 -2.4159
 2200SOL     OW18232   2.789   0.241   0.290 -0.2509 -0.1245  0.3116
 2200SOL    HW118233   2.772   0.148   0.296 -0.3390 -0.1899 -0.9358
 2200SOL    HW218234   2.807   0.247   0.196  1.9293  3.4347  0.9497
 2201SOL     OW18235   0.001   0.990   5.097  0.2319 -0.1709  0.1148
 2201SOL    HW118236   0.091   0.966   5.117  0.3055 -0.7861 -0.9624
 2201SOL    HW218237   4.701   0.902   5.083 -1.5990  0.9109 -2.1596
 2202SOL     OW18238   4.525   4.286   2.541 -0.3891 -0.1100 -0.8253
 2202SOL    HW118239   4.432   4.275   2.522 -0.1091 -1.1169 -1.5636
 2202SOL    HW218240   4.521   4.261   2.634 -0.9639 -0.7353 -1.0189
 2203SOL     OW18241   4.398   0.872  10.397 -0.5820  0.7091 -0.0825
 2203SOL    HW118242   4.416   0.786  10.437  0.3718  0.6462 -0.6673
 2203SOL    HW218243   4.481   0.912  10.423  0.0243 -0.2290 -0.5512
 2204SOL     OW18244   2.309   3.508   3.755 -0.0707 -0.5425  0.5480
 2204SOL    HW118245   2.275   3.448   3.821 -0.5955 -1.7263 -0.8153
 2204SOL    HW218246   2.396   3.469   3.749  0.7044  1.4538 -1.3504
 2205SOL     OW18247   0.775   1.534  12.586 -0.2806 -0.4303  0.5220
 2205SOL    HW118248   0.778   1.465  12.652  0.7651 -0.0019  0.9149
 2205SOL    HW218249   0.680   1.531  12.577 -0.3618  0.3785  1.1182
 2206SOL     OW18250   3.258   3.819   0.869  0.3265  0.2018  0.0098
 2206SOL    HW118251   3.222   3.815   0.957  1.6578 -2.1561  0.4202
 2206SOL    HW218252   3.241   3.728   0.847 -1.1195  0.5396 -0.2673
 2207SOL     OW18253   2.196   3.953   3.606  0.2531 -0.0439  0.0523
 2207SOL    HW118254   2.155   3.902   3.676 -1.4678  1.1431 -0.0836
 2207SOL    HW218255   2.139   4.030   3.600  0.2585  0.2728  3.5043
 2208SOL     OW18256   1.498   2.036   1.964 -0.3036 -0.0419 -0.0256
 2208SOL    HW118257   1.500   1.942   1.944  1.4997 -0.5253  2.4585
 2208SOL    HW218258   1.407   2.056   1.941  0.5165  1.0369 -2.2954
 2209SOL     OW18259   2.498   0.248   3.409  0.3692 -0.0002 -0.1005
 2209SOL    HW118260   2.492   0.288   3.496 -1.0445 -1.4932  0.4870
 2209SOL    HW218261   2.420   0.290   3.371  1.0920 -0.8403 -2.4926
 2210SOL     OW18262   4.537   4.004   5.380 -0.0649  0.5361  0.3172
 2210SOL    HW118263   4.628   3.997   5.351  0.4505  0.6692  1.9413
 2210SOL    HW218264   4.539   3.973   5.470 -1.3566 -0.1739  0.1068
 2211SOL     OW18265   3.190   3.260   9.083  0.0790 -0.4875 -0.5112
 2211SOL    HW118266   3.199   3.348   9.047  0.8347  0.3208  1.6548
 2211SOL    HW218267   3.245   3.262   9.161 -1.6087 -0.9728  0.6884
 2212SOL     OW18268   1.384   2.790   8.031  0.3410 -0.4150 -0.0190
 2212SOL    HW118269   1.465   2.744   8.050 -0.6012 -1.0008  2.6830
 2212SOL    HW218270   1.341   2.798   8.116 -0.6582 -0.8470 -0.4836
 2213SOL     OW18271   0.326   1.580   5.042  0.4350  0.6961 -0.9856
 2213SOL    HW118272   0.263   1.526   4.996 -0.2277 -0.2237  1.0106
 2213SOL    HW218273   0.388   1.515   5.074 -0.9538 -1.1109 -1.9954
 2214SOL     OW18274   4.434   2.646  10.561  0.1543  0.2370 -0.3157
 2214SOL    HW118275   4.342   2.666  10.545  0.9424  1.5523 -3.1281
 2214SOL    HW218276   4.441   2.597  10.643 -2.7160 -0.4753 -0.4993
 2215SOL     OW18277   1.061   3.704   3.058 -0.3516 -0.1225  0.2194
 2215SOL    HW118278   1.119   3.673   2.988  1.5930  0.0529  1.7539
 2215SOL    HW218279   1.103   3.655   3.130 -1.2938 -1.1869  0.0459
 2216SOL     OW18280   1.731   2.481  16.304 -0.4368  0.3392  0.0340
 2216SOL    HW118281   1.673   2.443  16.370 -0.7705 -0.4238 -0.7088
 2216SOL    HW218282   1.715   2.420  16.233  1.4035 -0.3269  0.1841
 2217SOL     OW18283   2.140   4.733  16.192  0.1885 -0.1435  0.0077
 2217SOL    HW118284   2.069   4.674  16.165  0.6100 -0.3299 -0.6845
 2217SOL    HW218285   2.222   4.698  16.156 -0.2326  1.4034 -2.4483
 2218SOL     OW18286   1.014   3.294  15.612 -0.4213 -0.3485 -0.3352
 2218SOL    HW118287   1.078   3.245  15.664  1.1347  0.9697 -0.9890
 2218SOL    HW218288   0.951   3.224  15.595 -0.0845 -0.8111  0.3167
 2219SOL     OW18289   0.167   0.721   6.929  0.3892 -0.3652 -0.1178
 2219SOL    HW118290   0.087   0.718   6.877 -0.4376  1.6386  1.0317
 2219SOL    HW218291   0.238   0.690   6.872 -0.0333 -2.6210  0.5691
 2220SOL     OW18292   1.812   3.571   5.667 -0.1728  0.0018 -0.4916
 2220SOL    HW118293   1.892   3.612   5.699 -0.8619  1.0702 -0.1153
 2220SOL    HW218294   1.850   3.488   5.694 -1.4834 -0.9240 -1.4863
 2221SOL     OW18295   0.702   0.782   2.418  0.8478 -0.1110  0.0803
 2221SOL    HW118296   0.644   0.742   2.353  0.5036  1.2564 -0.4359
 2221SOL    HW218297   0.679   0.875   2.418  2.4974  0.2970  1.4182
 2222SOL     OW18298   3.481   1.557   2.278  0.0373  0.2409 -0.3451
 2222SOL    HW118299   3.401   1.595   2.316 -0.2701 -0.2796 -0.4753
 2222SOL    HW218300   3.545   1.556   2.349 -0.5551  1.7090  0.2206
 2223SOL     OW18301   3.190   4.232   3.775 -0.2594  0.1943  0.9470
 2223SOL    HW118302   3.149   4.265   3.694 -2.2649  0.4106  2.0658
 2223SOL    HW218303   3.284   4.244   3.757 -0.5735  1.3787  0.1071
 2224SOL     OW18304   4.006   0.849   2.814  0.4611 -0.0794 -0.1081
 2224SOL    HW118305   4.034   0.758   2.814  0.8477  0.0411 -1.4649
 2224SOL    HW218306   4.090   0.890   2.835  1.6901 -2.7345  0.1133
 2225SOL     OW18307   3.038   1.058  11.795  0.5457 -0.3429  0.3658
 2225SOL    HW118308   3.050   1.098  11.709  3.7094  1.5589  1.7034
 2225SOL    HW218309   2.948   1.086  11.814  0.8332 -0.1664  1.4402
 2226SOL     OW18310   0.285   0.607   3.926  0.3160  0.1416  0.2800
 2226SOL    HW118311   0.262   0.582   3.837  0.1972  1.9941 -0.2052
 2226SOL    HW218312   0.323   0.524   3.955  1.1533  0.0073 -1.2266
 2227SOL     OW18313   0.909   1.853   4.192 -0.2905 -0.2502 -0.2026
 2227SOL    HW118314   0.941   1.825   4.106  0.9826  0.1672  0.1428
 2227SOL    HW218315   0.987   1.833   4.244 -0.5575 -0.1582  0.2320
 2228SOL     OW18316   0.483   2.947  14.142  0.6899 -0.7890 -0.3310
 2228SOL    HW118317   0.466   2.902  14.225  1.3038 -0.0183  0.2188
 2228SOL    HW218318   0.551   3.011  14.164 -0.1541  0.6023 -1.7875
 2229SOL     OW18319   1.984   1.013  10.887  0.5421  0.0786  0.3092
 2229SOL    HW118320   1.993   1.062  10.805  1.7028  1.5100  1.3135
 2229SOL    HW218321   1.961   1.080  10.951  0.7861  1.2934 -0.8798
 2230SOL     OW18322   0.163   3.856   2.388 -0.0133 -0.3368  0.7122
 2230SOL    HW118323   0.248   3.818   2.408  0.4020  0.0428 -0.3480
 2230SOL    HW218324   0.163   3.919   2.460  0.2205  0.8615 -0.3387
 2231SOL     OW18325   1.726   3.572   6.725 -0.0826  0.1943  0.3519
 2231SOL    HW118326   1.639   3.538   6.703  0.9674 -2.6376  0.6645
 2231SOL    HW218327   1.734   3.567   6.820 -1.8456 -1.9668  0.3880
 2232SOL     OW18328   3.586   2.996   4.342 -0.1482 -0.2073  0.0902
 2232SOL    HW118329   3.613   2.976   4.432 -1.6754  0.9612  0.8073
 2232SOL    HW218330   3.538   3.079   4.339  0.1629  0.0262  1.3029
 2233SOL     OW18331   1.835   1.719   7.757  0.5087  0.7332  0.1864
 2233SOL    HW118332   1.914   1.704   7.809 -1.4978 -2.1550  2.4736
 2233SOL    HW218333   1.817   1.629   7.731 -0.0150  1.1012 -0.7548
 2234SOL     OW18334   0.768   3.961  17.019 -0.1082 -0.1444 -0.0709
 2234SOL    HW118335   0.789   4.054  17.020  0.8580 -0.3614  0.7592
 2234SOL    HW218336   0.701   3.954  17.087 -1.1079 -0.2166 -1.0718
 2235SOL     OW18337   3.780   4.417  15.468 -0.2930 -0.4626 -0.0631
 2235SOL    HW118338   3.851   4.375  15.517 -0.5821 -0.9751 -0.0814
 2235SOL    HW218339   3.710   4.406  15.533 -1.5205  2.6760 -0.8965
 2236SOL     OW18340   3.531   2.316   5.201  0.1987  0.0077  0.1918
 2236SOL    HW118341   3.589   2.268   5.260  1.9939  2.2838  0.2631
 2236SOL    HW218342   3.558   2.283   5.115 -0.2055  0.9629 -0.3001
 2237SOL     OW18343   2.216   0.107   9.426  0.0069 -0.2077 -0.3933
 2237SOL    HW118344   2.182   0.152   9.348 -1.5332 -3.0714 -1.3597
 2237SOL    HW218345   2.164   0.147   9.496  1.7438 -1.8676  1.8457
 2238SOL     OW18346   1.985   2.556   7.507  0.5142 -0.1783 -0.6527
 2238SOL    HW118347   2.005   2.619   7.438  1.2160 -1.1866 -1.3823
 2238SOL    HW218348   2.072   2.544   7.545  0.4076  0.7901 -0.0976
 2239SOL     OW18349   0.157   3.612   2.904  0.6370 -0.1726 -0.7232
 2239SOL    HW118350   0.156   3.518   2.925 -0.1484  0.0941  0.4144
 2239SOL    HW218351   0.065   3.637   2.904  0.3730 -1.1317  0.2815
 2240SOL     OW18352   3.765   0.713  14.465  0.0288 -0.1875 -0.6473
 2240SOL    HW118353   3.779   0.668  14.382  0.5356  1.3734 -1.4169
 2240SOL    HW218354   3.670   0.722  14.462  0.1148  0.2683 -2.0607
 2241SOL     OW18355   0.208   2.864   1.423 -0.6201 -0.3627  0.1148
 2241SOL    HW118356   0.279   2.925   1.402  0.5109 -1.6378  0.3035
 2241SOL    HW218357   0.147   2.863   1.349 -0.7621 -0.0743  0.2266
 2242SOL     OW18358   1.986   0.667  10.079 -0.5607  0.2696 -0.2686
 2242SOL    HW118359   2.004   0.582  10.118 -0.7822 -0.3692 -1.5685
 2242SOL    HW218360   2.045   0.725  10.128 -0.8065  0.6161 -0.3826
 2243SOL     OW18361   4.051   2.906   9.199 -0.1539 -0.0643 -0.0740
 2243SOL    HW118362   4.020   2.996   9.207  0.4920  0.1809 -0.4038
 2243SOL    HW218363   4.141   2.932   9.182 -0.2924 -0.7774 -1.9303
 2244SOL     OW18364   0.595   3.800   4.379 -0.0552 -0.0282 -0.2878
 2244SOL    HW118365   0.667   3.806   4.317  2.8052 -1.4571  2.8555
 2244SOL    HW218366   0.629   3.728   4.432  0.2710 -0.1142 -0.6163
 2245SOL     OW18367   1.499   4.215  13.245 -0.2390  0.1621 -0.5995
 2245SOL    HW118368   1.493   4.216  13.341  1.5381  1.1872 -0.4997
 2245SOL    HW218369   1.411   4.242  13.220 -0.7088 -3.4245 -2.7391
 2246SOL     OW18370   4.624   4.230  15.939  0.5041  0.6403  0.4516
 2246SOL    HW118371   4.573   4.149  15.951  1.0009 -0.0337 -1.9942
 2246SOL    HW218372   4.580   4.283  16.005  1.8260 -0.4091  2.1570
 2247SOL     OW18373   3.256   0.897   4.013 -0.4760  0.4391  0.1238
 2247SOL    HW118374   3.263   0.892   4.108 -0.9183 -1.6757  0.0458
 2247SOL    HW218375   3.332   0.954   4.002  0.1198 -0.1672  1.0825
 2248SOL     OW18376   2.596   1.479   2.103  1.2397 -0.3603  0.5181
 2248SOL    HW118377   2.684   1.468   2.067  0.5827  2.7835 -1.9791
 2248SOL    HW218378   2.602   1.438   2.190 -0.2373 -1.6913 -0.0057
 2249SOL     OW18379   3.325   3.536   5.756  0.0966  0.1619 -0.0556
 2249SOL    HW118380   3.267   3.563   5.685 -0.1901 -0.9265 -0.2431
 2249SOL    HW218381   3.373   3.464   5.713  2.2472  1.5068  0.1041
 2250SOL     OW18382   4.161   0.646   9.244 -0.2318  0.3785 -0.4364
 2250SOL    HW118383   4.207   0.683   9.169  0.4739 -0.4645 -0.4220
 2250SOL    HW218384   4.174   0.711   9.313  0.6522  0.6603 -0.8651
 2251SOL     OW18385   0.691   0.837   5.285  0.4980 -0.4447 -0.2831
 2251SOL    HW118386   0.681   0.744   5.303  1.0594 -0.2690  0.9833
 2251SOL    HW218387   0.738   0.824   5.203  1.0364 -1.3470  0.1694
 2252SOL     OW18388   2.618   1.778   7.305  0.1507 -0.0384 -0.3909
 2252SOL    HW118389   2.681   1.709   7.324 -0.0922 -0.0580  0.3632
 2252SOL    HW218390   2.536   1.744   7.342 -0.1649  0.7822 -0.3285
 2253SOL     OW18391   3.989   4.682   6.908  0.1723 -0.1623  0.4515
 2253SOL    HW118392   3.975   4.590   6.885 -2.1908 -0.0844  1.5940
 2253SOL    HW218393   4.016   4.691   6.999 -0.5514  0.1428  0.6390
 2254SOL     OW18394   0.906   0.463  15.161  0.5808 -0.1317  0.1906
 2254SOL    HW118395   0.849   0.500  15.229  0.3726 -0.1840  0.0448
 2254SOL    HW218396   0.972   0.438  15.226  1.3422  0.4092 -0.3762
 2255SOL     OW18397   2.654   0.596   5.054 -0.2005  0.7147 -0.3485
 2255SOL    HW118398   2.640   0.589   5.149  0.1292  1.8841 -0.2180
 2255SOL    HW218399   2.620   0.511   5.028  4.7608 -1.3514 -0.1380
 2256SOL     OW18400   1.337   1.159   3.077  0.5026  0.5867  0.0278
 2256SOL    HW118401   1.319   1.078   3.029  0.8910  0.3477  0.2869
 2256SOL    HW218402   1.427   1.174   3.050  0.7569 -0.8208  0.1145
 2257SOL     OW18403   4.727   2.943   4.325  0.2736  0.3634 -0.7066
 2257SOL    HW118404   0.042   2.899   4.394  2.8148  2.3817 -1.2265
 2257SOL    HW218405   4.672   2.877   4.283 -1.3372  1.0876  0.2463
 2258SOL     OW18406   1.411   3.961   1.118 -0.4370 -0.0338  0.2489
 2258SOL    HW118407   1.368   4.040   1.152 -0.6361 -0.4673  1.0056
 2258SOL    HW218408   1.436   3.925   1.203  1.0997  1.2715  0.3552
 2259SOL     OW18409   0.689   3.135  17.536  0.4230  0.6785 -0.1398
 2259SOL    HW118410   0.735   3.076  17.596 -2.2492 -0.5834  0.6412
 2259SOL    HW218411   0.727   3.115  17.451  0.4129  1.6500 -0.3785
 2260SOL     OW18412   1.302   0.249  15.159  0.1790 -0.1450 -1.0320
 2260SOL    HW118413   1.390   0.285  15.167  0.2341 -0.8460  1.3184
 2260SOL    HW218414   1.296   0.207  15.244 -0.8367  0.8798 -0.6072
 2261SOL     OW18415   0.973   3.875  16.426 -0.5974  0.6953 -0.1086
 2261SOL    HW118416   1.036   3.904  16.491  2.7130  0.0875 -3.0643
 2261SOL    HW218417   1.009   3.899  16.341  1.9029 -1.8481  0.2441
 2262SOL     OW18418   3.071   1.849   8.746 -0.3830  0.1715  0.3581
 2262SOL    HW118419   3.003   1.840   8.813 -0.6046  1.2142  0.2647
 2262SOL    HW218420   3.154   1.852   8.794  1.2428 -0.3047 -2.3958
 2263SOL     OW18421   2.075   1.102  16.515 -0.1676  0.0419  0.2619
 2263SOL    HW118422   2.078   1.135  16.425 -0.0184 -0.6370  0.0205
 2263SOL    HW218423   2.046   1.012  16.504 -0.2769  0.4922 -2.9905
 2264SOL     OW18424   1.074   1.461   3.797  0.2963 -0.3838  0.2384
 2264SOL    HW118425   1.122   1.396   3.745 -0.7696  0.6240 -1.9946
 2264SOL    HW218426   1.010   1.402   3.837 -0.0616 -1.2451 -1.6205
 2265SOL     OW18427   1.136   1.731   6.786  0.0326  0.4531  0.0130
 2265SOL    HW118428   1.086   1.765   6.860 -2.2568 -0.8513 -0.9331
 2265SOL    HW218429   1.187   1.803   6.750  1.5637  0.0096  1.3131
 2266SOL     OW18430   3.252   2.276   5.066  0.3498  0.2878 -0.5209
 2266SOL    HW118431   3.226   2.196   5.110  0.5920 -0.4997 -1.8181
 2266SOL    HW218432   3.339   2.295   5.102  1.6901 -2.8841 -2.1369
 2267SOL     OW18433   2.790   2.823   6.472 -0.7550  0.3917 -0.3487
 2267SOL    HW118434   2.716   2.802   6.529  0.2712 -0.6339  0.5951
 2267SOL    HW218435   2.757   2.784   6.391  0.3748  0.8971 -1.0511
 2268SOL     OW18436   0.666   1.963  16.953 -0.1062 -0.3332 -0.2787
 2268SOL    HW118437   0.735   1.921  17.004 -1.0094 -1.2214  0.2257
 2268SOL    HW218438   0.600   1.894  16.957  0.4633 -0.7588  1.8957
 2269SOL     OW18439   0.928   2.304   6.785  0.4243 -0.4323  0.4545
 2269SOL    HW118440   0.922   2.389   6.742  1.3498 -0.3888  0.4091
 2269SOL    HW218441   0.856   2.308   6.849 -1.9163 -1.7975 -2.0997
 2270SOL     OW18442   2.875   1.232   7.767 -0.2714  0.2940 -0.6208
 2270SOL    HW118443   2.825   1.280   7.701  1.5780 -0.0481 -2.2815
 2270SOL    HW218444   2.837   1.266   7.848  2.5207  2.4498 -0.2233
 2271SOL     OW18445   2.428   0.894   4.952 -0.2247 -0.3793 -0.3440
 2271SOL    HW118446   2.418   0.897   5.047  0.3185 -0.1970 -0.2939
 2271SOL    HW218447   2.389   0.810   4.928  0.2912 -1.0064  1.0378
 2272SOL     OW18448   3.458   0.997   5.328  0.1631 -0.3871 -0.0790
 2272SOL    HW118449   3.456   0.902   5.317 -1.1025 -0.2950 -0.7633
 2272SOL    HW218450   3.533   1.004   5.387  0.3870 -2.0350 -0.1697
 2273SOL     OW18451   2.612   3.353  11.882  0.1267 -0.1809  0.1936
 2273SOL    HW118452   2.627   3.372  11.975  1.3990  1.4401 -0.3394
 2273SOL    HW218453   2.702   3.334  11.856  0.1880  2.0473 -1.2929
 2274SOL     OW18454   0.195   0.563   2.984 -0.2833 -0.1204 -0.0655
 2274SOL    HW118455   0.106   0.541   2.957  0.1555 -2.1195  0.0784
 2274SOL    HW218456   0.221   0.484   3.031  0.1615 -1.1532 -2.0383
 2275SOL     OW18457   0.966   0.947  14.633  0.1262 -0.1042  0.0982
 2275SOL    HW118458   0.962   0.886  14.559  0.4962  0.4017 -0.3363
 2275SOL    HW218459   1.020   0.890  14.688 -1.7989  0.6861  2.8385
 2276SOL     OW18460   1.552   1.033   8.315  0.4910 -0.3240  0.1744
 2276SOL    HW118461   1.523   1.058   8.403  0.4105 -2.3784  0.7441
 2276SOL    HW218462   1.616   0.968   8.345  0.2275  0.2241  1.9051
 2277SOL     OW18463   4.420   2.925  10.739 -0.0227  0.4780 -0.8748
 2277SOL    HW118464   4.383   2.922  10.651  0.3929 -0.5424 -1.0156
 2277SOL    HW218465   4.346   2.905  10.796 -0.0332  0.8036 -0.7726
 2278SOL     OW18466   2.279   1.531  16.351  0.1169  0.1978  0.6838
 2278SOL    HW118467   2.347   1.587  16.388  1.8728 -1.7021  0.3578
 2278SOL    HW218468   2.244   1.576  16.274 -0.6716 -0.8765  0.4112
 2279SOL     OW18469   2.396   2.323   0.403  0.0405  0.4054 -0.4048
 2279SOL    HW118470   2.394   2.389   0.333  2.7522  2.5399  1.5330
 2279SOL    HW218471   2.407   2.245   0.348 -2.4352  0.3030 -0.7440
 2280SOL     OW18472   4.325   1.195   1.815 -0.6686 -0.0232 -0.1035
 2280SOL    HW118473   4.247   1.184   1.869 -1.2311  0.5956 -0.7922
 2280SOL    HW218474   4.297   1.152   1.734 -0.7695 -0.0434 -0.0572
 2281SOL     OW18475   1.914   4.085   3.301  0.0232 -0.1111  1.0528
 2281SOL    HW118476   1.819   4.070   3.299 -0.2063  1.6356 -1.6077
 2281SOL    HW218477   1.923   4.164   3.246  2.5991  0.2206  1.9510
 2282SOL     OW18478   1.004   1.348   9.322  0.8027  0.2651 -0.2987
 2282SOL    HW118479   0.981   1.340   9.230  1.2567 -0.5124 -0.3442
 2282SOL    HW218480   0.994   1.255   9.341  0.7922  0.5366  1.0752
 2283SOL     OW18481   3.701   3.331   7.351 -0.3108 -0.6914  0.4739
 2283SOL    HW118482   3.731   3.308   7.263  1.0900  0.3608  0.6755
 2283SOL    HW218483   3.648   3.406   7.323 -0.1782 -0.2035  1.5563
 2284SOL     OW18484   1.603   0.261   8.511  0.6008 -0.4927 -0.0617
 2284SOL    HW118485   1.543   0.237   8.581  0.5867 -1.0735 -0.2717
 2284SOL    HW218486   1.605   0.356   8.516 -0.3912 -0.5004  0.4450
 2285SOL     OW18487   0.158   1.426   8.160 -0.4535  0.4205 -0.1364
 2285SOL    HW118488   0.096   1.489   8.123  0.9638  0.2225 -2.8563
 2285SOL    HW218489   0.176   1.375   8.081 -3.5440  0.7490 -1.0329
 2286SOL     OW18490   2.773   2.725   4.298  0.4845  0.0372 -0.3496
 2286SOL    HW118491   2.817   2.707   4.382  3.3669  0.9548 -1.6793
 2286SOL    HW218492   2.685   2.738   4.332  0.7078 -1.4967  0.8660
 2287SOL     OW18493   0.635   0.767   8.149  0.0108  0.3889  0.2641
 2287SOL    HW118494   0.569   0.707   8.114  0.6349 -0.3315  0.3215
 2287SOL    HW218495   0.598   0.847   8.110  0.9716  2.8668  4.3950
 2288SOL     OW18496   4.631   0.910  11.271  0.2650  0.7829  0.2315
 2288SOL    HW118497   4.538   0.932  11.263 -0.1326 -0.4837  1.3555
 2288SOL    HW218498   4.635   0.845  11.341 -1.4501 -0.7967 -1.1595
 2289SOL     OW18499   0.912   2.550   2.043 -0.5652  0.3394 -0.1156
 2289SOL    HW118500   0.816   2.556   2.048 -0.5221 -0.1891  1.4532
 2289SOL    HW218501   0.911   2.458   2.018 -3.2837  0.7974 -1.6670
 2290SOL     OW18502   3.500   0.686   8.692  0.1226  0.7042 -0.2846
 2290SOL    HW118503   3.514   0.704   8.785 -2.2539 -0.6107  0.3281
 2290SOL    HW218504   3.582   0.647   8.660 -0.9661 -4.4853  3.2545
 2291SOL     OW18505   1.297   1.015   1.891 -0.1984  0.1930  0.3091
 2291SOL    HW118506   1.374   1.002   1.947 -0.1576 -1.8066 -0.2193
 2291SOL    HW218507   1.264   0.926   1.880  1.2135 -0.1553 -1.0531
 2292SOL     OW18508   2.018   3.621   5.887 -0.6881 -0.1689  0.2961
 2292SOL    HW118509   2.040   3.629   5.979  1.3805 -0.0257 -0.1941
 2292SOL    HW218510   1.969   3.539   5.885 -1.1560  0.0592  3.0891
 2293SOL     OW18511   2.615   0.123   6.851 -0.1279 -0.1767 -0.2902
 2293SOL    HW118512   2.628   0.164   6.937 -1.7828 -0.4640  0.1027
 2293SOL    HW218513   2.579   0.192   6.796  0.7239  0.1996 -0.3823
 2294SOL     OW18514   0.200   1.131   0.527  0.2335  0.1651 -0.9025
 2294SOL    HW118515   0.206   1.038   0.549 -0.9709  0.2966 -0.0125
 2294SOL    HW218516   0.279   1.150   0.477 -0.2331 -1.4068 -2.2718
 2295SOL     OW18517   2.372   1.369   9.117  0.5742 -0.1849 -0.0946
 2295SOL    HW118518   2.370   1.400   9.027  0.4047 -1.9016 -0.6819
 2295SOL    HW218519   2.464   1.387   9.136  0.4971  0.5176 -0.4040
 2296SOL     OW18520   3.734   3.061   2.357  0.1649  0.8379  0.1382
 2296SOL    HW118521   3.756   3.153   2.347  0.9877  0.4937 -1.2068
 2296SOL    HW218522   3.724   3.016   2.273  2.3135  1.2236 -0.3342
 2297SOL     OW18523   1.369   0.399   3.035  0.1714  0.4434  0.1091
 2297SOL    HW118524   1.303   0.426   2.972 -0.8246 -0.6179  0.6874
 2297SOL    HW218525   1.442   0.378   2.977 -0.2429 -0.8713  0.0511
 2298SOL     OW18526   2.068   1.675  13.514  0.1571 -0.1460 -0.0722
 2298SOL    HW118527   2.063   1.596  13.568  1.2816 -0.5697 -0.6054
 2298SOL    HW218528   2.147   1.659  13.463 -0.2351 -4.4475  0.6655
 2299SOL     OW18529   3.267   0.673   2.624  0.1455 -0.2701 -0.4333
 2299SOL    HW118530   3.332   0.603   2.633  1.9119  1.6339  1.6383
 2299SOL    HW218531   3.320   0.732   2.570  1.1150 -0.9551 -0.2283
 2300SOL     OW18532   4.704   1.126   0.407 -0.1957 -0.6947 -0.2839
 2300SOL    HW118533   0.051   1.137   0.456 -1.2416 -1.1729  1.5619
 2300SOL    HW218534   0.000   1.109   0.318  1.0546  0.0289  0.0155
 2301SOL     OW18535   3.070   1.479   7.583 -1.1117 -0.5123 -0.1445
 2301SOL    HW118536   3.034   1.487   7.671  1.4615  1.1814  0.7605
 2301SOL    HW218537   3.147   1.534   7.596 -0.5358 -0.5256 -3.4238
 2302SOL     OW18538   1.058   4.269   9.291 -0.0988 -0.8521 -0.4214
 2302SOL    HW118539   1.084   4.309   9.373  0.2469 -1.0407 -0.4377
 2302SOL    HW218540   1.017   4.344   9.248  0.0741  0.5643  1.9062
 2303SOL     OW18541   1.303   3.394  13.136  0.1126 -0.1095  0.0916
 2303SOL    HW118542   1.351   3.476  13.126  0.1394 -0.3681 -1.9820
 2303SOL    HW218543   1.325   3.352  13.052 -0.6525 -1.2776  0.4723
 2304SOL     OW18544   3.331   4.385   4.038  0.2135 -0.1783  0.4312
 2304SOL    HW118545   3.356   4.477   4.041  0.5484 -0.1498 -2.6576
 2304SOL    HW218546   3.236   4.380   4.036  0.2564 -0.6789 -0.8124
 2305SOL     OW18547   1.469   0.072   6.780  0.3889 -0.9764 -0.6013
 2305SOL    HW118548   1.496   0.011   6.848 -2.3769 -3.0793 -1.4045
 2305SOL    HW218549   1.457   0.153   6.829 -0.9320 -1.7005  0.2769
 2306SOL     OW18550   4.606   4.700   5.593  0.4063  0.5303 -0.1425
 2306SOL    HW118551   4.553   4.713   5.514 -0.8938 -0.1247  0.6082
 2306SOL    HW218552   4.665   4.634   5.559  0.9611  0.6278  0.6288
 2307SOL     OW18553   2.396   3.112   9.472 -0.1698 -0.4614  0.0785
 2307SOL    HW118554   2.363   3.059   9.400  0.2269 -2.3269  1.2634
 2307SOL    HW218555   2.336   3.095   9.544 -0.8500  1.2445 -0.0867
 2308SOL     OW18556   4.724   2.551   6.045  0.0573  0.6226 -0.2193
 2308SOL    HW118557   0.085   2.547   6.037  0.1243  1.0340  0.3305
 2308SOL    HW218558   4.687   2.501   5.972  1.0544 -2.2336  1.2257
 2309SOL     OW18559   2.383   1.581   6.210  0.0294 -0.3484 -0.0497
 2309SOL    HW118560   2.392   1.599   6.117  2.3839 -0.9489  0.0645
 2309SOL    HW218561   2.471   1.609   6.234 -1.3438  1.9441  2.3024
 2310SOL     OW18562   1.780   2.581   2.018 -0.0745  0.2884  0.0084
 2310SOL    HW118563   1.781   2.503   2.073 -1.1423  0.0947 -0.2399
 2310SOL    HW218564   1.786   2.536   1.934  1.4118  1.2753 -0.4032
 2311SOL     OW18565   0.403   0.399   3.458  0.0092 -0.0950  0.5258
 2311SOL    HW118566   0.482   0.452   3.457 -0.1240  0.0871 -0.0645
 2311SOL    HW218567   0.413   0.354   3.542  0.2708 -1.9826 -0.4978
 2312SOL     OW18568   1.253   2.665  12.705  0.4514  0.0001  0.3440
 2312SOL    HW118569   1.188   2.644  12.638 -0.2170  1.8694  0.4195
 2312SOL    HW218570   1.282   2.752  12.679 -1.4864  0.9238  1.3052
 2313SOL     OW18571   1.789   2.702  16.781  0.6830  0.1422 -0.2090
 2313SOL    HW118572   1.750   2.788  16.792  1.6015  0.6650 -1.0739
 2313SOL    HW218573   1.796   2.683  16.688 -5.2687 -2.2542 -0.1918
 2314SOL     OW18574   2.636   1.419   9.166 -0.4106 -0.3213  0.1381
 2314SOL    HW118575   2.714   1.364   9.167 -0.5186 -0.4802 -0.8411
 2314SOL    HW218576   2.655   1.492   9.226 -0.6198 -0.5739  0.5164
 2315SOL     OW18577   1.016   3.988   2.206  0.3235  0.4409  0.4489
 2315SOL    HW118578   0.940   3.991   2.148 -0.1342 -1.8446  0.9218
 2315SOL    HW218579   1.074   3.930   2.157 -1.8694 -0.8968 -0.5453
 2316SOL     OW18580   1.413   2.938   6.847  0.0542 -0.6008  0.0969
 2316SOL    HW118581   1.334   2.897   6.812 -0.5834  0.0843  0.7388
 2316SOL    HW218582   1.451   2.855   6.876  0.7257  0.6728  2.8011
 2317SOL     OW18583   4.251   1.345   4.679 -0.2778  0.5869  0.0465
 2317SOL    HW118584   4.164   1.337   4.720 -0.2916 -0.5339 -0.1873
 2317SOL    HW218585   4.225   1.370   4.590 -0.1905  0.0215 -0.1378
 2318SOL     OW18586   4.506   2.537   7.319 -0.2274  0.4744  0.5174
 2318SOL    HW118587   4.426   2.567   7.362  1.0611  1.4431  2.2339
 2318SOL    HW218588   4.470   2.507   7.235 -3.8251  0.8170  1.9464
 2319SOL     OW18589   1.591   3.593   4.547 -0.2320 -0.3916 -0.6031
 2319SOL    HW118590   1.525   3.661   4.562  1.4933  1.1631 -0.0887
 2319SOL    HW218591   1.557   3.533   4.613  1.0535  3.6136  3.6321
 2320SOL     OW18592   3.998   2.335   8.099 -0.4022  0.4839 -0.0079
 2320SOL    HW118593   4.004   2.344   8.194 -0.5050  2.6548 -0.2048
 2320SOL    HW218594   4.061   2.265   8.084  0.1936  0.9698  0.2387
 2321SOL     OW18595   0.287   2.856   4.623  0.3855 -0.4295 -0.7790
 2321SOL    HW118596   0.273   2.812   4.540 -0.7388  2.1269 -1.9566
 2321SOL    HW218597   0.335   2.929   4.584  0.0444  1.6353  2.6262
 2322SOL     OW18598   3.856   4.423   4.584 -0.0235 -0.4749 -0.2674
 2322SOL    HW118599   3.934   4.389   4.629 -0.7440 -1.7004  0.0616
 2322SOL    HW218600   3.781   4.373   4.616  0.1531 -0.6471 -0.1191
 2323SOL     OW18601   0.037   3.691   4.036  0.1160 -0.2417 -0.6662
 2323SOL    HW118602   4.686   3.660   4.005  0.6966  0.2873 -2.7298
 2323SOL    HW218603   0.060   3.764   3.979 -0.4649  1.0318  0.7273
 2324SOL     OW18604   0.534   2.760   6.219 -0.0001 -0.2097  0.2396
 2324SOL    HW118605   0.481   2.838   6.207  0.2995  0.0169  0.3938
 2324SOL    HW218606   0.471   2.689   6.231 -1.2022  1.3319  3.0327
 2325SOL     OW18607   2.907   3.894   9.754  0.2088  1.3203 -0.5632
 2325SOL    HW118608   2.967   3.912   9.682  0.4761  0.6164 -0.5126
 2325SOL    HW218609   2.904   3.799   9.749  1.1012  1.2902 -0.5184
 2326SOL     OW18610   2.227   2.253   2.931  0.0010 -0.1921  0.3514
 2326SOL    HW118611   2.178   2.246   2.849  1.1292  0.5109 -0.3821
 2326SOL    HW218612   2.172   2.191   2.980  0.4864  0.2252  1.4208
 2327SOL     OW18613   3.977   1.418  15.342 -0.1053  0.1316 -0.1058
 2327SOL    HW118614   3.926   1.491  15.376  0.5609  1.0569 -1.0949
 2327SOL    HW218615   3.915   1.385  15.277 -0.2261  1.2637 -0.5534
 2328SOL     OW18616   4.544   4.059  17.565 -0.2120  0.6364 -0.0640
 2328SOL    HW118617   4.561   4.006  17.487  0.4439  0.3920  0.2455
 2328SOL    HW218618   4.630   4.051  17.606 -0.1946  0.4517 -0.1366
 2329SOL     OW18619   4.015   3.233   5.587  0.2851 -0.0301  0.0144
 2329SOL    HW118620   3.996   3.305   5.648 -0.0791 -0.3537  0.2834
 2329SOL    HW218621   3.944   3.171   5.606 -1.4072  2.1311  0.7576
 2330SOL     OW18622   1.154   3.760   1.233  0.1537 -0.1457  0.0709
 2330SOL    HW118623   1.133   3.851   1.254 -2.5185 -1.2693  2.1926
 2330SOL    HW218624   1.075   3.720   1.268  0.1102  0.6732  0.9187
 2331SOL     OW18625   0.378   3.445   8.451 -0.1508  0.0631 -0.1994
 2331SOL    HW118626   0.414   3.446   8.363  0.1800 -2.1801 -0.0911
 2331SOL    HW218627   0.330   3.527   8.455 -0.6882 -0.2242 -0.7683
 2332SOL     OW18628   2.268   1.373   0.274  0.1187 -0.2734  0.2689
 2332SOL    HW118629   2.310   1.296   0.314 -0.5742 -1.1491 -0.6738
 2332SOL    HW218630   2.302   1.367   0.185 -1.2543 -3.0846 -0.1004
 2333SOL     OW18631   3.977   4.608   1.866 -1.1553 -0.8265 -0.0244
 2333SOL    HW118632   3.910   4.626   1.800 -1.1272  2.4339  0.8106
 2333SOL    HW218633   4.038   4.550   1.822  0.4994 -0.7505  2.2148
 2334SOL     OW18634   3.693   2.456   7.427  0.0010 -0.1941 -0.8019
 2334SOL    HW118635   3.699   2.425   7.337 -2.3562  1.5619 -1.5895
 2334SOL    HW218636   3.615   2.409   7.456 -0.1964  1.1338  0.7895
 2335SOL     OW18637   1.398   4.313  16.954  0.4008  0.7094 -0.6657
 2335SOL    HW118638   1.449   4.240  16.918 -2.4005 -1.9295  0.6679
 2335SOL    HW218639   1.353   4.338  16.874 -0.0223 -0.5256 -0.8214
 2336SOL     OW18640   3.030   1.864   1.947  0.5375 -0.1854 -0.4920
 2336SOL    HW118641   3.085   1.836   1.874  0.5347  2.5889 -1.5744
 2336SOL    HW218642   3.058   1.952   1.972 -0.4721  0.3965 -1.4475
 2337SOL     OW18643   1.336   2.493  11.827 -0.2531 -0.8991 -0.7143
 2337SOL    HW118644   1.264   2.537  11.782 -0.3684 -0.0053  0.3373
 2337SOL    HW218645   1.408   2.496  11.764  1.3311  3.1349  1.2575
 2338SOL     OW18646   2.874   2.026   1.676  0.1180  0.5563  0.7428
 2338SOL    HW118647   2.939   2.084   1.714  0.5340  0.4568  0.1777
 2338SOL    HW218648   2.828   1.997   1.755  0.7629 -1.5744  0.3267
 2339SOL     OW18649   3.401   2.149  12.467 -0.1393 -0.1242  0.2925
 2339SOL    HW118650   3.385   2.235  12.507 -1.1404 -0.3421  0.3479
 2339SOL    HW218651   3.486   2.161  12.425 -0.0950 -1.2211  0.0817
 2340SOL     OW18652   2.620   3.804   4.319 -0.4039 -0.2594  0.2695
 2340SOL    HW118653   2.655   3.721   4.287  2.4851  0.7266  0.8647
 2340SOL    HW218654   2.696   3.835   4.369  0.1931 -0.6548 -0.3823
 2341SOL     OW18655   0.523   4.151  17.083  0.4565  0.0426 -0.2728
 2341SOL    HW118656   0.433   4.141  17.050 -0.4035 -0.7873  2.2676
 2341SOL    HW218657   0.548   4.242  17.068 -2.3226  0.7270 -0.8611
 2342SOL     OW18658   4.053   0.124   8.500  0.3182  0.3397 -0.1127
 2342SOL    HW118659   4.069   0.212   8.467 -0.8162  1.0378  1.2029
 2342SOL    HW218660   4.082   0.073   8.425  0.7021 -0.7853  0.7960
 2343SOL     OW18661   3.086   3.400   5.900 -0.1968 -0.0981  0.4412
 2343SOL    HW118662   3.061   3.323   5.849  4.2848 -0.6408 -0.8908
 2343SOL    HW218663   3.151   3.454   5.854 -1.1957  0.9981  0.3049
 2344SOL     OW18664   0.122   4.214   6.673  0.6490 -0.5466 -0.1925
 2344SOL    HW118665   0.155   4.280   6.734  1.4108 -1.9911  0.9412
 2344SOL    HW218666   0.195   4.154   6.686  2.0035  0.6533 -2.3099
 2345SOL     OW18667   2.705   2.026   7.380 -0.2873 -0.2012  0.4091
 2345SOL    HW118668   2.708   1.984   7.466  2.7993 -1.3882 -0.2788
 2345SOL    HW218669   2.700   1.960   7.311 -0.9196 -0.4529  0.6957
 2346SOL     OW18670   1.904   1.694   5.543 -0.3405 -0.0544 -0.1761
 2346SOL    HW118671   1.937   1.769   5.593 -0.3095  1.7535 -2.9031
 2346SOL    HW218672   1.812   1.679   5.567 -0.6259  1.0542 -0.5688
 2347SOL     OW18673   2.301   1.192  12.002 -0.2559  0.0853 -0.0199
 2347SOL    HW118674   2.211   1.221  11.988 -0.4350 -0.4710  0.0011
 2347SOL    HW218675   2.348   1.274  11.987 -0.2948 -0.1561 -1.4561
 2348SOL     OW18676   1.055   2.769   3.611  0.2312  0.2639 -0.6278
 2348SOL    HW118677   1.015   2.683   3.605  1.2727 -0.4601  3.2083
 2348SOL    HW218678   1.124   2.730   3.664 -1.4590  0.1892  1.5105
 2349SOL     OW18679   0.893   4.349   7.485 -0.4716 -0.0563 -0.6863
 2349SOL    HW118680   0.900   4.436   7.523  1.0441 -0.7926  0.7403
 2349SOL    HW218681   0.825   4.316   7.543 -0.0110  0.7200  0.3019
 2350SOL     OW18682   4.668   1.927   8.414  0.0674 -0.5876  0.0174
 2350SOL    HW118683   4.584   1.888   8.439 -1.0996  0.9287 -1.5778
 2350SOL    HW218684   4.681   1.973   8.497 -3.9532 -1.2833  1.0574
 2351SOL     OW18685   1.724   2.854   2.371 -0.4152 -0.0933  0.0848
 2351SOL    HW118686   1.712   2.840   2.277  1.3742 -1.5976  0.0785
 2351SOL    HW218687   1.802   2.803   2.392 -1.1672 -2.1481 -2.1026
 2352SOL     OW18688   1.030   1.124   2.092  0.3495 -0.1324 -0.5704
 2352SOL    HW118689   0.993   1.110   2.005  0.6828 -0.4786 -0.6569
 2352SOL    HW218690   1.089   1.198   2.075  1.1593 -0.6013  0.1982
 2353SOL     OW18691   0.166   1.159  15.509 -0.2730  1.0084 -0.0169
 2353SOL    HW118692   0.188   1.084  15.564 -2.8141  0.7915  0.6931
 2353SOL    HW218693   0.133   1.226  15.569 -1.4387  0.4897 -0.0802
 2354SOL     OW18694   3.544   1.750   5.214  0.5694  0.3449 -0.3854
 2354SOL    HW118695   3.542   1.669   5.265  1.9685  2.1569  2.6015
 2354SOL    HW218696   3.609   1.796   5.268  0.6060  2.2277 -2.0687
 2355SOL     OW18697   1.348   3.149  13.625  0.0499  0.6206 -0.2174
 2355SOL    HW118698   1.344   3.162  13.531  1.0500  2.4125 -0.0077
 2355SOL    HW218699   1.261   3.112  13.634  0.4846 -0.5333 -0.7407
 2356SOL     OW18700   2.889   3.957   0.749  0.4618  1.0207  0.3965
 2356SOL    HW118701   2.976   3.993   0.730 -0.1625  1.6858 -1.2057
 2356SOL    HW218702   2.911   3.872   0.786  0.6245  1.2581  0.8451
 2357SOL     OW18703   3.436   0.284   3.555  0.9132 -0.3250  0.7370
 2357SOL    HW118704   3.414   0.270   3.647 -1.2384  0.6866  0.3908
 2357SOL    HW218705   3.405   0.201   3.519  0.1512  0.5809 -0.7184
 2358SOL     OW18706   2.483   3.804   1.384  0.2290 -0.4147 -0.2765
 2358SOL    HW118707   2.432   3.884   1.398 -2.5090 -1.8111 -2.2062
 2358SOL    HW218708   2.573   3.835   1.379 -0.3233  1.5584  2.4915
 2359SOL     OW18709   2.135   2.069  17.736  0.3915  0.1726  0.8801
 2359SOL    HW118710   2.109   2.005  17.670 -2.8540  1.0128  1.3670
 2359SOL    HW218711   2.214   2.104  17.693 -0.1015  1.2260  0.8427
 2360SOL     OW18712   1.216   3.006   5.519  0.0182  0.0034 -0.2440
 2360SOL    HW118713   1.169   2.993   5.601  0.0188 -0.9909 -0.4009
 2360SOL    HW218714   1.225   3.101   5.512  1.2048  0.0693  2.2983
 2361SOL     OW18715   1.157   2.448   8.392 -0.3633  0.3809  0.0374
 2361SOL    HW118716   1.233   2.389   8.395 -0.9975 -0.5414 -1.9844
 2361SOL    HW218717   1.153   2.463   8.298 -0.3250 -0.3380 -0.0829
 2362SOL     OW18718   0.685   2.941  12.676 -0.3363 -0.4089  0.2681
 2362SOL    HW118719   0.672   2.847  12.688 -1.9814 -0.2749 -0.5805
 2362SOL    HW218720   0.708   2.963  12.767 -1.2977 -0.7362  0.5824
 2363SOL     OW18721   3.856   3.398  15.055 -0.0079  0.8837  0.1059
 2363SOL    HW118722   3.901   3.339  14.994  1.2043  1.3120  0.5789
 2363SOL    HW218723   3.927   3.460  15.070  1.9671 -1.6513  1.2213
 2364SOL     OW18724   2.191   3.044  14.388  0.4191 -0.0116 -0.8067
 2364SOL    HW118725   2.191   3.081  14.477  2.6673 -0.8826 -0.4319
 2364SOL    HW218726   2.279   3.064  14.356  0.3523  0.9536 -0.4085
 2365SOL     OW18727   1.234   4.068   8.068 -0.2125  0.2842 -0.0938
 2365SOL    HW118728   1.313   4.099   8.113  0.9302 -3.5334  0.5743
 2365SOL    HW218729   1.261   4.070   7.976 -0.2577 -3.6346 -0.1760
 2366SOL     OW18730   3.638   2.350   3.428  0.6606 -0.4134 -0.0837
 2366SOL    HW118731   3.730   2.328   3.414  0.8049  0.5088 -0.6314
 2366SOL    HW218732   3.628   2.359   3.522  2.9628 -0.0539  0.1261
 2367SOL     OW18733   1.764   2.325   0.925 -0.3334  0.3869  0.1370
 2367SOL    HW118734   1.847   2.373   0.918  1.0241 -1.7638  1.4576
 2367SOL    HW218735   1.708   2.371   0.863 -0.7562  1.0365  1.0044
 2368SOL     OW18736   1.978   4.356   2.512 -0.1037 -0.4474 -0.1955
 2368SOL    HW118737   2.062   4.333   2.473  0.7420  1.5064  0.4722
 2368SOL    HW218738   1.994   4.363   2.606 -1.3296 -4.2180  0.2924
 2369SOL     OW18739   0.100   2.990   5.610  0.4276  0.6436 -0.2614
 2369SOL    HW118740   0.077   3.082   5.598 -1.1168  0.5327  1.8137
 2369SOL    HW218741   0.071   2.980   5.701  2.5765 -2.8553  0.0565
 2370SOL     OW18742   2.970   3.237  11.432  0.4408  0.0303  0.0132
 2370SOL    HW118743   2.959   3.268  11.343  2.0577  0.0549 -0.1732
 2370SOL    HW218744   3.054   3.277  11.456  0.1295 -0.5517  2.0592
 2371SOL     OW18745   1.378   0.815   5.858 -0.4713 -0.0417 -0.0557
 2371SOL    HW118746   1.379   0.817   5.762 -1.2054  1.4394 -0.0295
 2371SOL    HW218747   1.341   0.899   5.884  1.1327  0.5061  0.4335
 2372SOL     OW18748   1.578   3.664  10.814 -0.0917  0.3672 -0.4247
 2372SOL    HW118749   1.671   3.649  10.795 -0.0609 -1.5113  1.1510
 2372SOL    HW218750   1.553   3.591  10.870 -0.9082 -0.2885 -1.6395
 2373SOL     OW18751   3.285   1.076   6.308 -0.0121 -0.2636  0.2155
 2373SOL    HW118752   3.215   1.068   6.373 -0.0108  3.7501  0.7154
 2373SOL    HW218753   3.233   1.027   6.244  0.7094 -0.8556  0.0830
 2374SOL     OW18754   2.416   4.249   9.091  0.0911 -0.1850 -0.2681
 2374SOL    HW118755   2.442   4.214   9.006 -3.2315 -1.3671 -0.7744
 2374SOL    HW218756   2.324   4.225   9.090  0.5625 -2.0082 -0.2765
 2375SOL     OW18757   0.222   2.541   5.290 -0.3627  0.0782  0.0870
 2375SOL    HW118758   0.139   2.513   5.250 -0.2090  0.1746 -0.3054
 2375SOL    HW218759   0.198   2.617   5.343  0.4025 -0.9093  1.8411
 2376SOL     OW18760   0.244   3.055   3.762 -0.0843  0.2945 -0.1690
 2376SOL    HW118761   0.314   3.058   3.697 -0.4236 -0.4661 -0.5682
 2376SOL    HW218762   0.236   3.150   3.775 -2.1386  0.5527 -3.4382
 2377SOL     OW18763   1.171   1.188  13.144  0.0392  0.5993 -0.2691
 2377SOL    HW118764   1.260   1.164  13.171 -1.1295 -3.2491  0.1263
 2377SOL    HW218765   1.162   1.274  13.185  0.0403  0.4100  0.1306
 2378SOL     OW18766   0.550   4.016   6.905 -0.1503  0.1335 -0.3758
 2378SOL    HW118767   0.552   3.921   6.891 -1.9058  0.0687 -0.2417
 2378SOL    HW218768   0.643   4.032   6.916 -0.3860  1.0439  0.2892
 2379SOL     OW18769   3.302   1.643   8.506 -0.1312 -0.4477 -0.4379
 2379SOL    HW118770   3.224   1.595   8.478 -0.4529  0.2023 -0.6691
 2379SOL    HW218771   3.357   1.649   8.428 -0.1684 -0.5058 -0.4684
 2380SOL     OW18772   0.341   3.576   7.057  0.0683 -0.1213  0.0769
 2380SOL    HW118773   0.422   3.563   7.107  0.2959 -0.7979 -0.4716
 2380SOL    HW218774   0.325   3.485   7.033  0.8300 -0.2833  0.1681
 2381SOL     OW18775   4.027   0.717  11.703 -0.1884 -0.3197  0.4355
 2381SOL    HW118776   4.081   0.784  11.744  0.1809 -0.3653  0.0233
 2381SOL    HW218777   4.091   0.646  11.692  1.7220  1.2179  1.5302
 2382SOL     OW18778   1.754   0.872  16.547 -0.0730  0.7286  0.1906
 2382SOL    HW118779   1.706   0.945  16.510  1.4674  1.7079  0.1137
 2382SOL    HW218780   1.837   0.881  16.499 -0.5945  3.8980 -0.1031
 2383SOL     OW18781   3.111   2.028   7.353 -0.5936  0.1321 -0.2905
 2383SOL    HW118782   3.189   1.978   7.376  0.1121  1.1432 -0.5294
 2383SOL    HW218783   3.070   1.964   7.294 -2.0899  1.1346 -0.3312
 2384SOL     OW18784   2.424   1.693   7.916 -1.0387 -0.4006  0.2026
 2384SOL    HW118785   2.402   1.786   7.909  0.2536 -0.2703 -2.2612
 2384SOL    HW218786   2.401   1.656   7.831  0.5000 -0.9953  0.0501
 2385SOL     OW18787   1.396   0.686  16.937  0.3301  0.4636 -0.1594
 2385SOL    HW118788   1.481   0.648  16.962 -1.2332 -1.3503  2.4387
 2385SOL    HW218789   1.333   0.615  16.949  2.1070 -1.0245  0.4776
 2386SOL     OW18790   1.182   3.417   2.730  0.5242  1.0187  0.5974
 2386SOL    HW118791   1.258   3.428   2.673  0.3849  0.6057  0.3313
 2386SOL    HW218792   1.107   3.406   2.671  0.2811  1.4660  0.8275
 2387SOL     OW18793   2.520   2.628   2.223  0.0411 -0.1444  0.4556
 2387SOL    HW118794   2.611   2.643   2.196 -0.0533  3.4614  2.1909
 2387SOL    HW218795   2.505   2.533   2.223 -0.7534 -0.0356 -2.2500
 2388SOL     OW18796   1.363   4.109   1.546 -0.2674 -0.0949  0.5863
 2388SOL    HW118797   1.402   4.125   1.632  0.3910 -1.7411  0.5851
 2388SOL    HW218798   1.313   4.190   1.534  1.7873  1.6881  4.0924
 2389SOL     OW18799   1.658   3.471   9.213  0.7056 -0.2493 -0.4750
 2389SOL    HW118800   1.625   3.560   9.221 -0.2185 -0.6442  0.0422
 2389SOL    HW218801   1.668   3.452   9.306  0.9975 -1.6234 -0.7888
 2390SOL     OW18802   0.087   2.611  10.514 -0.0805 -0.1875 -0.7156
 2390SOL    HW118803   0.153   2.679  10.527 -1.3900  0.6072  1.8583
 2390SOL    HW218804   0.043   2.605  10.599  0.1873 -0.4727 -0.5946
 2391SOL     OW18805   0.400   2.887  16.094  0.6218 -0.7269  0.0236
 2391SOL    HW118806   0.363   2.804  16.125 -0.6090 -0.8650 -1.8049
 2391SOL    HW218807   0.314   2.926  16.079 -0.4160 -3.1843 -0.4462
 2392SOL     OW18808   1.748   2.918  12.033  1.0094 -0.0284  0.1318
 2392SOL    HW118809   1.776   2.921  12.124 -1.4985 -2.0154  0.9538
 2392SOL    HW218810   1.719   3.009  12.035  0.2199 -0.2579 -1.2977
 2393SOL     OW18811   0.384   0.858   8.522 -0.4370  0.6859 -0.5981
 2393SOL    HW118812   0.419   0.850   8.611 -1.2211 -0.4443 -0.3961
 2393SOL    HW218813   0.382   0.954   8.516 -2.0479  0.5900 -1.4905
 2394SOL     OW18814   3.102   4.182   4.654 -0.0804  0.0344  0.2993
 2394SOL    HW118815   3.043   4.162   4.727  1.5722  0.2443  1.6828
 2394SOL    HW218816   3.180   4.127   4.664 -1.3535 -1.8854 -0.3188
 2395SOL     OW18817   2.823   1.820  16.540 -0.1850 -1.2099 -0.6054
 2395SOL    HW118818   2.754   1.754  16.552  0.7827 -2.3692 -1.3734
 2395SOL    HW218819   2.897   1.759  16.537  0.9160  0.1199 -0.4072
 2396SOL     OW18820   3.713   1.386  17.218  0.6221  0.4899  0.2882
 2396SOL    HW118821   3.716   1.391  17.313 -0.2483  1.8951  0.2463
 2396SOL    HW218822   3.788   1.439  17.192  2.6192 -2.1599  0.6718
 2397SOL     OW18823   3.262   0.613   3.124  0.3676  0.2759 -0.1669
 2397SOL    HW118824   3.237   0.543   3.064 -2.1353  1.3914 -0.4292
 2397SOL    HW218825   3.176   0.655   3.125 -0.6207 -1.8120  2.3165
 2398SOL     OW18826   3.421   3.993  16.794  0.3577  0.2875 -0.5099
 2398SOL    HW118827   3.400   3.911  16.749 -2.7255  0.0051  1.4196
 2398SOL    HW218828   3.517   3.985  16.797  0.3242  0.5355  1.5438
 2399SOL     OW18829   0.340   0.562   9.501  0.2218 -0.0389 -0.4295
 2399SOL    HW118830   0.421   0.554   9.551 -0.9508  1.4749  1.6902
 2399SOL    HW218831   0.365   0.532   9.413  0.0690 -0.4542 -0.3333
 2400SOL     OW18832   3.762   3.769   6.861 -0.2172  0.0007 -0.4444
 2400SOL    HW118833   3.800   3.682   6.850 -1.9637 -0.6509 -1.2125
 2400SOL    HW218834   3.682   3.750   6.908 -1.3940 -1.2140 -2.9887
 2401SOL     OW18835   1.361   1.772  11.182 -0.3000  0.0641  0.3987
 2401SOL    HW118836   1.311   1.854  11.178 -1.5288 -0.7596 -1.1482
 2401SOL    HW218837   1.388   1.766  11.273 -1.7005 -0.8806  0.7512
 2402SOL     OW18838   1.240   0.782   4.183  0.1381 -0.0464 -0.1809
 2402SOL    HW118839   1.190   0.837   4.243  0.6577  0.6938 -0.4261
 2402SOL    HW218840   1.331   0.793   4.211 -0.3321  0.3302  1.1837
 2403SOL     OW18841   0.891   0.869   7.022 -0.6398 -0.3174 -0.6589
 2403SOL    HW118842   0.897   0.949   7.074 -0.3495  0.7001 -2.2718
 2403SOL    HW218843   0.983   0.874   6.998 -0.3524 -0.9703  0.2908
 2404SOL     OW18844   2.439   1.561   1.233  0.3718  0.2814  0.5886
 2404SOL    HW118845   2.519   1.599   1.269  0.4817  0.9043 -0.3481
 2404SOL    HW218846   2.467   1.472   1.213 -0.6313  0.3701 -1.1484
 2405SOL     OW18847   1.822   4.148   8.886  0.2575  0.0942 -0.4240
 2405SOL    HW118848   1.826   4.242   8.906  1.9830  0.2788 -1.5986
 2405SOL    HW218849   1.893   4.112   8.940  1.0572  0.9386 -0.9031
 2406SOL     OW18850   3.366   3.070   9.732 -0.3130  0.4828 -0.0920
 2406SOL    HW118851   3.422   2.995   9.709 -0.8943  0.2046 -0.6120
 2406SOL    HW218852   3.280   3.031   9.717 -0.0101 -0.2398  0.0340
 2407SOL     OW18853   4.689   1.600   5.417 -0.2595  0.3207  0.0780
 2407SOL    HW118854   0.038   1.606   5.370 -0.4656 -1.6805 -0.5468
 2407SOL    HW218855   4.657   1.518   5.379 -0.4594 -0.2690  1.5158
 2408SOL     OW18856   0.491   4.469   9.334  0.3912  0.0444 -0.3652
 2408SOL    HW118857   0.492   4.396   9.396  2.6066  0.7417  0.4217
 2408SOL    HW218858   0.456   4.426   9.256 -0.1577  0.7662 -0.5154
 2409SOL     OW18859   1.513   1.424   2.073  0.1210  0.2026 -0.6102
 2409SOL    HW118860   1.589   1.481   2.083 -0.3241  1.1155 -2.3869
 2409SOL    HW218861   1.549   1.345   2.031  1.2609  0.0627  0.6377
 2410SOL     OW18862   1.066   3.175   3.353 -0.0304 -0.5560 -0.0805
 2410SOL    HW118863   1.095   3.210   3.268  1.2344 -1.0209  0.1515
 2410SOL    HW218864   1.096   3.084   3.344  0.7782 -0.1437 -1.7155
 2411SOL     OW18865   0.963   4.101   5.624 -0.0999  0.1723  0.6431
 2411SOL    HW118866   0.937   4.153   5.700  2.0225  0.5769  1.1099
 2411SOL    HW218867   1.053   4.075   5.646  0.6111  2.4511  0.4940
 2412SOL     OW18868   1.478   4.295   6.926  0.0452 -0.2051 -0.3096
 2412SOL    HW118869   1.382   4.298   6.928  0.1627  3.9323 -0.1709
 2412SOL    HW218870   1.492   4.389   6.916 -0.2044 -0.3084 -1.7245
 2413SOL     OW18871   1.451   1.120   2.642 -0.3440 -0.1958 -0.5668
 2413SOL    HW118872   1.417   1.176   2.573  1.1579  1.1894 -0.1839
 2413SOL    HW218873   1.488   1.047   2.592  3.7362 -1.6718  4.5132
 2414SOL     OW18874   3.343   0.231   4.773 -0.1418 -0.0691  0.3976
 2414SOL    HW118875   3.334   0.136   4.782  2.6543 -0.1149  2.8168
 2414SOL    HW218876   3.347   0.261   4.864 -0.5407 -1.5363  0.9041
 2415SOL     OW18877   2.306   2.071   9.231  0.9345 -0.1238 -0.3307
 2415SOL    HW118878   2.318   2.156   9.274  0.6510  0.2121 -0.9216
 2415SOL    HW218879   2.242   2.029   9.288  0.4899 -0.5009 -1.1170
 2416SOL     OW18880   2.039   1.473   4.786 -0.5141 -0.6793  0.0635
 2416SOL    HW118881   1.987   1.540   4.741  0.6619  1.1501  1.4025
 2416SOL    HW218882   2.017   1.502   4.875  2.5219 -0.9908  0.8937
 2417SOL     OW18883   1.594   0.946  14.295 -0.2749  0.0002  0.6071
 2417SOL    HW118884   1.652   0.916  14.364 -1.2959  1.6102  2.1533
 2417SOL    HW218885   1.663   0.954  14.228 -1.3039 -2.9232 -0.8079
 2418SOL     OW18886   3.914   4.659   0.453 -0.3251 -0.0075  0.4510
 2418SOL    HW118887   3.876   4.589   0.401 -1.4299  0.5454  0.5223
 2418SOL    HW218888   3.974   4.697   0.389 -1.5828 -1.0387 -1.3331
 2419SOL     OW18889   0.991   3.108   2.554 -0.2187  0.3302 -0.4991
 2419SOL    HW118890   1.003   3.121   2.460  1.1603 -0.8762 -0.4827
 2419SOL    HW218891   0.962   3.196   2.579  1.6657  0.8716 -0.2145
 2420SOL     OW18892   1.592   1.356   5.027  0.1110  0.1103  0.2475
 2420SOL    HW118893   1.559   1.364   5.117 -0.9133  1.2331 -0.2308
 2420SOL    HW218894   1.616   1.263   5.024 -0.5808  0.0014 -1.7942
 2421SOL     OW18895   0.110   2.799  14.510 -0.0838  0.0363  0.4899
 2421SOL    HW118896   0.087   2.756  14.427 -0.2259  0.1015  0.4945
 2421SOL    HW218897   0.020   2.807  14.543 -0.7451 -1.1133 -1.0503
 2422SOL     OW18898   2.452   0.406   9.405  0.5342 -0.0507  0.2910
 2422SOL    HW118899   2.397   0.484   9.408  0.4229 -0.0784 -1.0290
 2422SOL    HW218900   2.453   0.374   9.495  1.6176  0.5918  0.5087
 2423SOL     OW18901   1.195   0.919   3.702  0.1444  0.3839  0.3703
 2423SOL    HW118902   1.260   0.854   3.726  0.9693 -0.1833 -3.3387
 2423SOL    HW218903   1.249   0.987   3.660 -1.8901 -1.1724 -4.7782
 2424SOL     OW18904   0.538   2.280   7.168 -0.4980  0.4483 -0.7862
 2424SOL    HW118905   0.447   2.302   7.147 -0.4375  1.6002  0.1972
 2424SOL    HW218906   0.576   2.365   7.191  0.5690  0.3092 -2.0159
 2425SOL     OW18907   2.086   4.400  17.491  0.1153  0.4996 -0.0929
 2425SOL    HW118908   2.113   4.414  17.582  0.4877  2.0410 -0.4399
 2425SOL    HW218909   2.018   4.465  17.472  2.9969  3.7814  0.8343
 2426SOL     OW18910   1.435   2.530  16.711 -0.5395 -0.7450 -0.2661
 2426SOL    HW118911   1.467   2.576  16.789 -1.4328 -1.9498  0.8170
 2426SOL    HW218912   1.345   2.561  16.698 -1.1496 -3.3196 -2.1608
 2427SOL     OW18913   4.571   2.017  16.364 -0.0531 -0.2918 -0.3833
 2427SOL    HW118914   4.526   1.932  16.362  1.3085 -0.9876 -1.8868
 2427SOL    HW218915   4.664   1.995  16.356  0.2711  0.5239  1.1608
 2428SOL     OW18916   4.234   0.539  15.721 -0.1546 -0.3018  0.0403
 2428SOL    HW118917   4.327   0.522  15.738 -0.3148  0.1130  1.3269
 2428SOL    HW218918   4.200   0.462  15.766  0.5150 -0.8210 -0.3373
 2429SOL     OW18919   1.134   2.304  17.487  0.4731 -0.0825 -0.2045
 2429SOL    HW118920   1.124   2.397  17.464  0.4456  0.5254  2.2775
 2429SOL    HW218921   1.070   2.263  17.429 -0.6687  0.5910  0.5708
 2430SOL     OW18922   0.462   2.700   4.806  0.1611 -0.0324  0.3460
 2430SOL    HW118923   0.414   2.761   4.749  1.3412  1.2600  0.7289
 2430SOL    HW218924   0.466   2.754   4.885 -0.5197 -0.0728  0.4076
 2431SOL     OW18925   1.280   4.184   1.220  0.6066  0.1270 -0.1490
 2431SOL    HW118926   1.259   4.246   1.150 -1.0128  0.3534  0.5287
 2431SOL    HW218927   1.356   4.218   1.267  2.2431 -2.9890 -0.5514
 2432SOL     OW18928   2.768   3.818  14.939  0.5544  0.0282 -0.0438
 2432SOL    HW118929   2.799   3.858  14.858 -1.3254  0.4478 -0.5328
 2432SOL    HW218930   2.687   3.777  14.910  0.0503 -0.3363  1.8952
 2433SOL     OW18931   3.223   0.641  15.086  0.0991 -0.0336  0.3467
 2433SOL    HW118932   3.188   0.582  15.153  0.9607 -0.7944  0.1201
 2433SOL    HW218933   3.300   0.593  15.057  0.8375  0.8418  0.8750
 2434SOL     OW18934   3.251   0.173   8.441 -0.5685 -0.3607 -0.1934
 2434SOL    HW118935   3.344   0.151   8.448 -0.6992 -1.0382 -0.5649
 2434SOL    HW218936   3.227   0.113   8.370 -1.8895 -0.8588  0.6793
 2435SOL     OW18937   2.228   2.521   1.742 -0.4800  0.0357  0.0749
 2435SOL    HW118938   2.262   2.504   1.654  1.0898 -0.1623  0.7252
 2435SOL    HW218939   2.314   2.530   1.783 -0.3191  1.8214 -0.6634
 2436SOL     OW18940   2.191   0.813   7.766 -0.2280 -0.0112 -0.7471
 2436SOL    HW118941   2.161   0.806   7.857  0.1904  0.2041 -0.5937
 2436SOL    HW218942   2.109   0.785   7.724 -0.5235 -0.1246 -0.0985
 2437SOL     OW18943   3.005   1.850   9.127 -0.2617 -0.2776 -0.8851
 2437SOL    HW118944   2.958   1.862   9.045 -1.9519  1.5591  0.3465
 2437SOL    HW218945   2.984   1.760   9.153 -0.7276 -0.2461 -1.1542
 2438SOL     OW18946   0.275   1.135   8.388 -0.3368 -0.3073  0.2204
 2438SOL    HW118947   0.368   1.148   8.371 -0.3313  0.5114  0.8932
 2438SOL    HW218948   0.230   1.204   8.341 -1.8391 -1.1626  0.3966
 2439SOL     OW18949   1.678   4.515  16.309 -0.0023  0.3640  0.3396
 2439SOL    HW118950   1.639   4.428  16.298 -0.1065  0.3917  0.4846
 2439SOL    HW218951   1.595   4.557  16.284 -1.0335 -1.6511  0.3583
 2440SOL     OW18952   2.608   0.478   8.698 -0.6754 -0.4796  0.1869
 2440SOL    HW118953   2.606   0.522   8.784  0.4879 -0.3440  0.1440
 2440SOL    HW218954   2.642   0.391   8.722  1.0612 -0.2891 -1.6214
 2441SOL     OW18955   3.384   3.631   5.333  0.2992 -0.2342  0.8188
 2441SOL    HW118956   3.300   3.595   5.361  0.5055 -1.7429 -0.5112
 2441SOL    HW218957   3.393   3.699   5.400 -2.1981  0.4854  0.4033
 2442SOL     OW18958   1.120   2.560   0.476  0.3662 -0.6214  0.4382
 2442SOL    HW118959   1.098   2.634   0.533 -0.3663  0.3637 -1.1298
 2442SOL    HW218960   1.213   2.539   0.484  0.1151 -1.0539  2.1991
 2443SOL     OW18961   0.517   3.023   3.200 -0.1963  0.3682 -0.9880
 2443SOL    HW118962   0.604   3.062   3.189  0.5277 -1.5918 -2.2998
 2443SOL    HW218963   0.478   3.070   3.273 -0.0768 -1.6297  0.3625
 2444SOL     OW18964   4.168   3.238   0.447 -0.1407  0.4277 -0.3543
 2444SOL    HW118965   4.120   3.161   0.478 -0.2339 -0.1229 -1.8722
 2444SOL    HW218966   4.092   3.283   0.409  0.0208  1.3387  0.4126
 2445SOL     OW18967   0.653   1.672   9.943  0.0218 -0.4091 -0.3497
 2445SOL    HW118968   0.720   1.692   9.878  0.1114 -0.6751 -0.3378
 2445SOL    HW218969   0.683   1.729  10.014 -0.2187 -0.9235  0.1642
 2446SOL     OW18970   2.460   3.876   3.676 -0.0144  0.2923 -0.9447
 2446SOL    HW118971   2.436   3.784   3.664  0.7078  0.0520 -0.5428
 2446SOL    HW218972   2.374   3.917   3.663 -1.0230 -1.4068  0.3194
 2447SOL     OW18973   2.733   3.096   6.402  0.5360  0.2878 -0.0695
 2447SOL    HW118974   2.708   3.069   6.491  2.4127  0.2529  0.4531
 2447SOL    HW218975   2.752   3.190   6.409 -0.8097  0.5097  0.7015
 2448SOL     OW18976   2.578   3.834   0.378  0.0287 -0.4473 -0.1875
 2448SOL    HW118977   2.491   3.848   0.416  1.0610 -1.6397  2.6031
 2448SOL    HW218978   2.633   3.880   0.442  0.7400 -0.0100 -1.1044
 2449SOL     OW18979   0.365   3.918   4.383  0.0216 -0.4067  0.1093
 2449SOL    HW118980   0.454   3.887   4.397 -0.9496 -2.8102  0.9604
 2449SOL    HW218981   0.315   3.849   4.427 -3.1365  2.2125  0.6446
 2450SOL     OW18982   1.126   2.450  10.747  0.0935 -0.0086 -0.0325
 2450SOL    HW118983   1.051   2.509  10.757 -0.1957 -0.5082  0.7396
 2450SOL    HW218984   1.082   2.367  10.767  2.4994 -1.8282 -2.2286
 2451SOL     OW18985   4.721   3.513   1.096  0.4879  0.1648  0.4301
 2451SOL    HW118986   4.639   3.512   1.146  0.8115  3.2985  1.0287
 2451SOL    HW218987   0.001   3.608   1.099 -1.9313  0.4928  1.8797
 2452SOL     OW18988   0.229   3.757   8.024  0.2413  0.0143 -0.6338
 2452SOL    HW118989   0.257   3.672   7.990  0.2025  0.1370 -0.9754
 2452SOL    HW218990   0.141   3.759   7.986 -0.6141 -1.4909  1.2533
 2453SOL     OW18991   2.199   4.477  10.906 -0.5782  0.3157  0.1557
 2453SOL    HW118992   2.116   4.470  10.859  1.0332 -1.6749 -2.4249
 2453SOL    HW218993   2.182   4.558  10.955 -1.1277 -0.2948  0.9808
 2454SOL     OW18994   4.277   1.727   2.384 -0.0654 -0.2736 -0.3543
 2454SOL    HW118995   4.364   1.766   2.383 -0.5950  0.8975 -0.9143
 2454SOL    HW218996   4.270   1.696   2.293 -0.7327  0.8631 -0.6792
 2455SOL     OW18997   4.293   2.898   9.991 -0.4779 -0.2332 -0.3524
 2455SOL    HW118998   4.275   2.992   9.981  2.1545  0.4047  0.8743
 2455SOL    HW218999   4.358   2.885  10.059  0.6762 -1.7547 -1.7497
 2456SOL     OW19000   0.847   4.381   9.485 -0.0706  0.3471  0.2309
 2456SOL    HW119001   0.941   4.395   9.494 -0.3405  1.6197  1.0443
 2456SOL    HW219002   0.816   4.471   9.490  0.5096  0.6009 -0.6238
 2457SOL     OW19003   3.756   2.462   6.256  0.1665  0.2019 -0.1829
 2457SOL    HW119004   3.803   2.384   6.286 -0.6404  0.7913  2.6014
 2457SOL    HW219005   3.726   2.488   6.344 -0.1459  0.6268 -0.4168
 2458SOL     OW19006   4.192   3.235   8.555  0.1321  0.4216 -0.3513
 2458SOL    HW119007   4.131   3.306   8.537 -0.8576  0.2630  2.2634
 2458SOL    HW219008   4.279   3.267   8.531  0.1017 -1.7873 -3.3352
 2459SOL     OW19009   2.962   0.200   8.133 -0.0894 -0.1749  0.2964
 2459SOL    HW119010   2.870   0.227   8.134 -0.0245  0.1516 -2.4532
 2459SOL    HW219011   2.986   0.274   8.077 -0.4490 -0.9213 -0.8564
 2460SOL     OW19012   1.964   3.923   7.854 -0.5578  0.6719 -0.0943
 2460SOL    HW119013   1.943   3.911   7.947  0.7270  0.9745  0.2336
 2460SOL    HW219014   2.053   3.888   7.855 -0.7241  0.2096 -1.3431
 2461SOL     OW19015   0.462   0.874  12.274  0.7483 -0.3347 -0.5049
 2461SOL    HW119016   0.430   0.958  12.242 -1.6176 -1.0337  0.0401
 2461SOL    HW219017   0.424   0.867  12.361 -0.5330  3.4043 -0.7510
 2462SOL     OW19018   0.919   2.303   7.555  0.0635 -0.3133 -0.0050
 2462SOL    HW119019   0.853   2.320   7.623 -0.5646  0.4611 -0.7989
 2462SOL    HW219020   0.870   2.326   7.476 -0.2576 -2.2772 -0.3650
 2463SOL     OW19021   4.662   2.696   9.868 -0.2745 -0.1763 -0.9056
 2463SOL    HW119022   4.701   2.651   9.793  3.4358  1.8505 -0.1602
 2463SOL    HW219023   4.714   2.663   9.941  0.4769 -0.4503 -1.5796
 2464SOL     OW19024   1.086   3.252   7.431 -0.6632 -0.7090  0.2610
 2464SOL    HW119025   1.107   3.345   7.438  0.5160 -0.9796  0.3156
 2464SOL    HW219026   1.122   3.230   7.345  2.0276  2.3555  0.6157
 2465SOL     OW19027   3.630   0.326   6.719 -0.1198 -0.2891 -0.4372
 2465SOL    HW119028   3.692   0.283   6.779  0.4949  0.7511 -0.3337
 2465SOL    HW219029   3.695   0.357   6.657  0.8197  1.8231  1.5979
 2466SOL     OW19030   0.606   1.651   6.840  0.2579  0.1775  0.2855
 2466SOL    HW119031   0.515   1.680   6.828  0.3013 -0.2511 -1.1365
 2466SOL    HW219032   0.651   1.684   6.762  0.0420 -1.3241 -0.4735
 2467SOL     OW19033   0.697   4.262   2.631 -0.4251 -0.7138  0.4335
 2467SOL    HW119034   0.737   4.204   2.696 -1.5200 -0.2982  1.4693
 2467SOL    HW219035   0.625   4.202   2.612 -0.3572  0.1216 -2.4450
 2468SOL     OW19036   1.168   3.374   0.625 -0.4829 -0.3391  0.0334
 2468SOL    HW119037   1.199   3.464   0.636 -0.2206 -0.4857  0.5129
 2468SOL    HW219038   1.250   3.329   0.602 -1.2633 -3.0130  2.5542
 2469SOL     OW19039   0.206   3.221  17.007  0.4931  0.2525  0.0239
 2469SOL    HW119040   0.167   3.299  16.968  0.1767 -0.7709 -1.6916
 2469SOL    HW219041   0.214   3.163  16.932  0.0929 -2.2450  1.8901
 2470SOL     OW19042   2.064   2.069   3.050 -0.0541  0.3677 -0.3780
 2470SOL    HW119043   2.077   2.022   3.132 -1.0617 -2.1192 -1.6535
 2470SOL    HW219044   1.968   2.064   3.044  0.0369 -0.7143 -0.9304
 2471SOL     OW19045   2.398   3.363   2.824 -0.4382 -0.1648 -0.0071
 2471SOL    HW119046   2.395   3.342   2.918  1.1872  1.0051  0.3022
 2471SOL    HW219047   2.341   3.440   2.823 -1.1395 -0.6911 -0.7911
 2472SOL     OW19048   2.125   4.273   3.033 -0.2518 -0.0385  0.2052
 2472SOL    HW119049   2.129   4.248   3.126  2.2741  0.2872  0.1653
 2472SOL    HW219050   2.209   4.241   3.002 -0.7904 -0.1318 -1.1705
 2473SOL     OW19051   2.436   2.633  15.846  0.5535 -0.0473 -0.8209
 2473SOL    HW119052   2.524   2.598  15.837  0.9075  0.5778  0.1638
 2473SOL    HW219053   2.378   2.559  15.829  0.0599  0.7673 -2.6389
 2474SOL     OW19054   4.297   3.850   8.312  0.7092  0.3938  0.0914
 2474SOL    HW119055   4.305   3.890   8.398  5.2337  1.4844 -0.8248
 2474SOL    HW219056   4.202   3.862   8.301  0.6969  2.6337  2.6081
 2475SOL     OW19057   3.599   3.963   6.465  0.9252  0.3525  0.3304
 2475SOL    HW119058   3.590   3.937   6.374  1.8270 -0.0844  0.3764
 2475SOL    HW219059   3.687   3.930   6.481  0.2192 -0.8302  1.8232
 2476SOL     OW19060   3.315   3.047   0.840 -0.4673 -0.8536  0.0754
 2476SOL    HW119061   3.243   3.109   0.852  1.1753  0.9705  0.3296
 2476SOL    HW219062   3.393   3.090   0.873 -2.9964  0.6120  4.1800
 2477SOL     OW19063   1.848   1.744   3.900 -0.4090 -0.3250  0.6211
 2477SOL    HW119064   1.868   1.663   3.946  0.1987  0.2801  1.4222
 2477SOL    HW219065   1.776   1.715   3.844 -0.1934 -1.6040  0.9999
 2478SOL     OW19066   0.700   1.024   2.960  0.2215 -0.1028 -0.5183
 2478SOL    HW119067   0.769   1.060   2.904  0.8525 -1.1595 -0.4189
 2478SOL    HW219068   0.744   0.952   3.006  3.2381  1.9119 -0.2154
 2479SOL     OW19069   4.306   4.461   4.491 -0.0783 -0.1732  0.1296
 2479SOL    HW119070   4.380   4.521   4.498 -0.5957  0.3968  0.7320
 2479SOL    HW219071   4.278   4.482   4.580 -1.1331 -0.7141 -0.0687
 2480SOL     OW19072   0.390   3.309   7.091  0.0951  0.2764  0.5239
 2480SOL    HW119073   0.414   3.265   7.010  0.5186  1.2714  0.1194
 2480SOL    HW219074   0.309   3.271   7.126  1.1612 -0.4217  2.2864
 2481SOL     OW19075   3.377   4.619   8.969 -0.2208 -0.0649 -0.7620
 2481SOL    HW119076   3.380   4.524   8.971 -1.0836 -0.0029  4.2086
 2481SOL    HW219077   3.382   4.636   9.063 -0.0224 -0.6046 -0.6752
 2482SOL     OW19078   3.118   2.546   4.900 -0.5554  0.0242  0.1033
 2482SOL    HW119079   3.136   2.634   4.869 -2.1564 -0.1474 -1.2936
 2482SOL    HW219080   3.161   2.551   4.985 -0.2370 -2.3028  0.0994
 2483SOL     OW19081   1.769   0.796   3.671 -0.1144  0.5164  0.0478
 2483SOL    HW119082   1.681   0.762   3.653 -0.0374 -0.0999  0.8718
 2483SOL    HW219083   1.791   0.813   3.579 -0.6809 -0.8300 -0.3367
 2484SOL     OW19084   4.545   4.464  13.244  0.2440 -0.3339  0.4592
 2484SOL    HW119085   4.505   4.529  13.301 -0.8573 -0.1114 -0.5662
 2484SOL    HW219086   4.465   4.418  13.219 -0.5692  0.0545  2.3735
 2485SOL     OW19087   2.329   0.729   3.593  0.4240  0.0832 -0.4320
 2485SOL    HW119088   2.353   0.806   3.542 -0.5923  1.1635  0.7300
 2485SOL    HW219089   2.410   0.680   3.578  1.9502  2.7223 -0.8401
 2486SOL     OW19090   0.726   1.491  12.933 -0.3920 -0.7522  0.1060
 2486SOL    HW119091   0.641   1.459  12.905 -1.2184  1.0663  0.4857
 2486SOL    HW219092   0.724   1.578  12.893  0.5267 -0.1418  1.3652
 2487SOL     OW19093   3.934   3.159   9.194 -0.1051 -0.5066  0.0560
 2487SOL    HW119094   3.897   3.190   9.111  3.1337  0.8163 -0.9147
 2487SOL    HW219095   3.864   3.180   9.256 -1.4477 -1.4011 -1.1492
 2488SOL     OW19096   0.351   3.948   0.768 -0.4504 -0.0763  0.2684
 2488SOL    HW119097   0.334   3.998   0.689 -0.1910 -2.2190 -1.1273
 2488SOL    HW219098   0.354   3.854   0.748  0.5718  0.7698 -3.3961
 2489SOL     OW19099   2.157   1.961  16.658 -0.4794  0.2440 -0.1045
 2489SOL    HW119100   2.244   1.999  16.651 -0.1908 -0.4244 -0.1899
 2489SOL    HW219101   2.148   1.913  16.576 -3.5491  1.5482 -0.5612
 2490SOL     OW19102   4.540   0.236   7.647 -0.0556  0.1088  0.2073
 2490SOL    HW119103   4.628   0.206   7.624  0.2065  0.0403  1.2958
 2490SOL    HW219104   4.478   0.168   7.620 -0.8780  0.1546  1.9905
 2491SOL     OW19105   0.559   1.433  14.678  0.2288 -0.1058  0.3288
 2491SOL    HW119106   0.543   1.519  14.718  0.2722  0.9625 -1.9649
 2491SOL    HW219107   0.555   1.449  14.584  0.6540 -0.1266  0.3073
 2492SOL     OW19108   3.000   1.875   7.970  0.0301  0.2772  0.0938
 2492SOL    HW119109   2.928   1.880   8.032 -1.0259  2.3103 -1.3151
 2492SOL    HW219110   2.974   1.947   7.913  0.8979  0.9705  0.5674
 2493SOL     OW19111   1.603   3.799   3.028 -0.5180  0.3478  0.4259
 2493SOL    HW119112   1.642   3.886   3.037 -0.6089  0.3839  0.4770
 2493SOL    HW219113   1.565   3.809   2.941 -0.1676 -3.0625 -0.1132
 2494SOL     OW19114   3.668   1.336   3.810  0.1893 -0.7897  0.0299
 2494SOL    HW119115   3.737   1.362   3.749 -0.6614  2.1510  0.3066
 2494SOL    HW219116   3.595   1.366   3.755 -0.3821 -0.7704  0.7965
 2495SOL     OW19117   2.140   3.069  12.555 -0.0979 -0.4349 -0.2513
 2495SOL    HW119118   2.110   2.988  12.597 -0.0581 -0.2823  0.0728
 2495SOL    HW219119   2.227   3.055  12.516 -1.3253 -1.0210 -2.7825
 2496SOL     OW19120   0.537   4.519   7.747  0.2591  0.8481 -0.2011
 2496SOL    HW119121   0.449   4.557   7.741 -0.7208 -1.5742 -0.9980
 2496SOL    HW219122   0.556   4.528   7.840 -1.5846 -0.9283  0.3269
 2497SOL     OW19123   2.156   3.303   6.359  0.6908  0.5636  0.1054
 2497SOL    HW119124   2.162   3.232   6.421 -1.9489 -0.3129 -0.6565
 2497SOL    HW219125   2.061   3.314   6.360  0.2558 -3.4318 -0.2804
 2498SOL     OW19126   1.435   3.256  11.814 -0.1045  0.0681  0.2051
 2498SOL    HW119127   1.445   3.201  11.736  0.2297  1.1408 -0.4974
 2498SOL    HW219128   1.482   3.336  11.793 -2.2019  1.7240  1.8588
 2499SOL     OW19129   2.581   1.100   8.041  0.2230  0.6137 -0.3149
 2499SOL    HW119130   2.628   1.153   7.977  0.5382  0.6920 -0.0171
 2499SOL    HW219131   2.543   1.160   8.105 -1.2444  2.2233 -2.6671
 2500SOL     OW19132   0.480   0.329   9.271  0.1705 -0.0354  0.1505
 2500SOL    HW119133   0.409   0.267   9.282 -0.5241  0.3678 -2.1637
 2500SOL    HW219134   0.501   0.316   9.179 -0.1786  0.5550 -0.0103
 2501SOL     OW19135   1.124   1.757   8.655  0.8200 -0.2781 -0.1546
 2501SOL    HW119136   1.150   1.754   8.747  1.0420  1.3071 -0.1540
 2501SOL    HW219137   1.155   1.844   8.628 -1.0747  1.4212  3.0952
 2502SOL     OW19138   3.807   1.355  10.523 -0.2719 -0.0672  0.4818
 2502SOL    HW119139   3.851   1.415  10.463  0.3424 -2.2319 -1.1956
 2502SOL    HW219140   3.719   1.347  10.485 -0.0829  1.3898 -0.2589
 2503SOL     OW19141   1.345   1.601   1.897  0.1985 -0.2589 -0.0377
 2503SOL    HW119142   1.349   1.639   1.984 -0.8298 -0.9568  0.3128
 2503SOL    HW219143   1.340   1.679   1.842  0.3175 -2.3423 -3.0664
 2504SOL     OW19144   0.752   2.097   7.294 -0.2679  0.0255 -0.3300
 2504SOL    HW119145   0.666   2.055   7.291  0.5496 -1.8252  1.6577
 2504SOL    HW219146   0.733   2.190   7.284 -1.6972 -0.2063  0.2177
 2505SOL     OW19147   3.286   4.651   5.765 -0.9417 -0.0733 -0.3975
 2505SOL    HW119148   3.233   4.723   5.798  0.3526  0.8943 -0.4617
 2505SOL    HW219149   3.358   4.652   5.829 -0.5196  1.4878 -0.9009
 2506SOL     OW19150   4.248   3.134   6.583 -0.0504  0.2030 -0.2798
 2506SOL    HW119151   4.273   3.049   6.621  0.0415  0.8137  1.0072
 2506SOL    HW219152   4.208   3.174   6.660  0.5438  0.8370 -0.3085
 2507SOL     OW19153   2.083   4.349   2.134  0.4114  0.3228 -0.0486
 2507SOL    HW119154   2.094   4.340   2.229  0.7617  0.7764 -0.0501
 2507SOL    HW219155   1.988   4.347   2.129  0.5208 -1.2916 -1.4966
 2508SOL     OW19156   3.523   0.858  14.407 -0.0454 -0.2192  0.8418
 2508SOL    HW119157   3.429   0.850  14.419 -0.0764 -0.7096  0.2614
 2508SOL    HW219158   3.538   0.835  14.315  0.1286 -1.9773  1.2921
 2509SOL     OW19159   4.273   2.896  14.725 -0.1644 -0.2486  0.0966
 2509SOL    HW119160   4.261   2.847  14.644 -0.6606 -1.4186  0.8853
 2509SOL    HW219161   4.182   2.918  14.743  0.4955  2.2191  0.4441
 2510SOL     OW19162   2.171   3.200   5.929 -0.4141  0.1322 -0.0590
 2510SOL    HW119163   2.084   3.184   5.892 -0.2528  0.3789 -0.5415
 2510SOL    HW219164   2.199   3.262   5.862  0.2657  0.4219  0.4916
 2511SOL     OW19165   0.249   4.232  17.463  0.2636  0.4140  0.3690
 2511SOL    HW119166   0.179   4.213  17.401 -0.7260 -0.0157  1.6048
 2511SOL    HW219167   0.211   4.265  17.544  0.8088  2.5136 -0.2224
 2512SOL     OW19168   3.154   2.078  12.193  0.6354 -0.0976  0.5235
 2512SOL    HW119169   3.098   2.038  12.260  0.7110 -0.0029  0.6441
 2512SOL    HW219170   3.171   2.161  12.238 -1.6881  0.2729  0.7564
 2513SOL     OW19171   2.471   1.663  12.825  0.0249 -0.4058 -0.1683
 2513SOL    HW119172   2.500   1.573  12.831 -2.5792 -1.2199  0.3467
 2513SOL    HW219173   2.435   1.670  12.914  0.2599 -1.3125 -0.0047
 2514SOL     OW19174   4.353   3.614   1.289  0.0028 -0.0737 -0.4656
 2514SOL    HW119175   4.327   3.603   1.198  1.5542 -0.6054 -0.8463
 2514SOL    HW219176   4.410   3.538   1.298 -0.8859 -0.4299  2.2572
 2515SOL     OW19177   3.552   3.169   5.905  0.1901  0.1010  0.2469
 2515SOL    HW119178   3.477   3.110   5.915 -1.1626  1.0534 -4.1719
 2515SOL    HW219179   3.621   3.111   5.937 -0.0955 -0.0912  0.5186
 2516SOL     OW19180   0.925   0.275  13.733  0.1675 -0.0399 -0.4716
 2516SOL    HW119181   0.831   0.270  13.720 -0.2128  0.5573  1.9915
 2516SOL    HW219182   0.954   0.333  13.663  0.8632  0.3514  0.1400
 2517SOL     OW19183   2.617   2.609   9.888 -0.3378 -0.2747  0.0548
 2517SOL    HW119184   2.693   2.619   9.944 -0.0713 -2.0675  0.0119
 2517SOL    HW219185   2.655   2.657   9.814 -0.6730  0.3130  0.2645
 2518SOL     OW19186   1.844   0.356   2.247 -0.0669 -0.5854  0.0785
 2518SOL    HW119187   1.758   0.313   2.245  0.1616 -1.0729  0.7097
 2518SOL    HW219188   1.824   0.448   2.264 -0.4430 -0.1440 -2.6877
 2519SOL     OW19189   4.326   1.101   3.913 -0.2192  0.7307 -0.3360
 2519SOL    HW119190   4.412   1.062   3.929 -1.4382 -0.5783  2.9721
 2519SOL    HW219191   4.329   1.130   3.822  0.2332  2.3666  0.2069
 2520SOL     OW19192   0.573   1.941  11.063  0.3527  0.3371 -0.2150
 2520SOL    HW119193   0.501   1.880  11.079  0.0923  0.3797 -1.2414
 2520SOL    HW219194   0.557   2.006  11.131 -0.2745 -1.3535  1.2477
 2521SOL     OW19195   2.301   1.198   4.633 -0.6709 -0.7407 -0.5660
 2521SOL    HW119196   2.277   1.118   4.586 -1.7281  0.4372 -1.9889
 2521SOL    HW219197   2.313   1.262   4.563  0.5227  0.6865  0.9574
 2522SOL     OW19198   3.677   1.418   8.930  0.4407 -0.5919 -0.7601
 2522SOL    HW119199   3.640   1.452   9.011  2.8959  2.4978 -0.8969
 2522SOL    HW219200   3.769   1.437   8.950  0.6329 -3.3812  0.9944
 2523SOL     OW19201   3.532   0.259   9.805 -0.6652 -0.4805  0.1365
 2523SOL    HW119202   3.485   0.339   9.830  2.3679  1.0328  1.0438
 2523SOL    HW219203   3.603   0.301   9.757  0.0539 -2.1374 -0.2293
 2524SOL     OW19204   0.074   1.651   1.767 -0.0378  0.2790  0.1501
 2524SOL    HW119205   0.102   1.722   1.710 -1.3389  0.1899 -0.6150
 2524SOL    HW219206   0.126   1.666   1.845  1.0606 -3.1576  0.0982
 2525SOL     OW19207   3.245   4.222  10.202  0.4715  0.4202 -0.6865
 2525SOL    HW119208   3.223   4.287  10.268 -1.2951  0.5257 -1.3615
 2525SOL    HW219209   3.322   4.178  10.239  0.9208  3.4115  1.9178
 2526SOL     OW19210   2.930   1.226   4.825 -0.0059  0.4377 -0.4397
 2526SOL    HW119211   2.920   1.136   4.857 -0.4820  0.8328  0.5218
 2526SOL    HW219212   2.958   1.274   4.903 -1.0224 -2.4170  1.6684
 2527SOL     OW19213   1.353   1.134   9.839  0.2454  0.0671 -0.2814
 2527SOL    HW119214   1.317   1.222   9.851  1.5690  0.6338 -0.3870
 2527SOL    HW219215   1.278   1.079   9.819 -0.5536  1.4200 -1.0276
 2528SOL     OW19216   1.665   1.073   5.681 -0.0758  0.0136 -0.4474
 2528SOL    HW119217   1.690   0.981   5.680 -1.2196 -0.2860 -1.8351
 2528SOL    HW219218   1.732   1.112   5.624 -0.0884  1.2828  0.4173
 2529SOL     OW19219   1.202   4.358   1.014 -0.1215 -0.5572  0.3541
 2529SOL    HW119220   1.109   4.379   1.011  0.1601  0.5463 -0.7626
 2529SOL    HW219221   1.206   4.284   0.953 -1.7367 -0.9009  0.6659
 2530SOL     OW19222   0.445   3.360   0.467  0.1064  0.4879  0.2029
 2530SOL    HW119223   0.422   3.303   0.540 -1.3906  1.8836  0.8371
 2530SOL    HW219224   0.356   3.368   0.433  0.6214  1.3542 -0.9653
 2531SOL     OW19225   0.596   2.175  12.600  0.2264 -0.2387  0.5556
 2531SOL    HW119226   0.564   2.084  12.603 -0.9000  0.1594  0.7076
 2531SOL    HW219227   0.584   2.204  12.690  1.4432  1.3645  0.1967
 2532SOL     OW19228   1.354   2.285  10.121  0.5709  0.3136  0.0273
 2532SOL    HW119229   1.295   2.361  10.118 -1.6484 -1.3505  1.2878
 2532SOL    HW219230   1.324   2.236  10.044  1.4771  1.0763 -0.8173
 2533SOL     OW19231   3.286   2.844   5.626  0.3829 -0.3781 -0.2898
 2533SOL    HW119232   3.278   2.854   5.721 -1.7556 -0.3258 -0.4800
 2533SOL    HW219233   3.211   2.786   5.610 -1.0764  1.5667 -0.4412
 2534SOL     OW19234   1.829   3.917   1.984 -0.4256 -0.3102 -0.4012
 2534SOL    HW119235   1.745   3.881   2.012 -0.7594 -0.0487 -1.0660
 2534SOL    HW219236   1.809   3.926   1.891 -1.3357 -0.8107 -0.2533
 2535SOL     OW19237   2.952   0.134   5.560 -0.2766 -0.0950 -0.3600
 2535SOL    HW119238   2.967   0.199   5.492 -2.6031 -0.5344 -1.2966
 2535SOL    HW219239   2.867   0.100   5.533  0.8343 -2.4547 -0.8934
 2536SOL     OW19240   0.862   2.616  11.390 -0.2905 -0.6386  0.4810
 2536SOL    HW119241   0.819   2.681  11.335 -1.4103 -1.0309  0.8896
 2536SOL    HW219242   0.912   2.672  11.450 -0.3164 -1.9894  1.7669
 2537SOL     OW19243   0.097   1.378  15.705 -0.3777 -0.3977  0.7122
 2537SOL    HW119244   0.071   1.470  15.708  0.5419 -0.1244  0.1296
 2537SOL    HW219245   0.191   1.377  15.688 -0.7558  1.9888 -1.3687
 2538SOL     OW19246   0.851   1.601  12.276 -0.0382  0.7478  0.1835
 2538SOL    HW119247   0.822   1.651  12.353  0.8118  0.8408  0.4369
 2538SOL    HW219248   0.780   1.537  12.270  0.7790 -0.0643 -0.7629
 2539SOL     OW19249   3.478   1.492   5.356 -0.1530  0.8133 -0.2004
 2539SOL    HW119250   3.548   1.435   5.325  1.0802  1.3167  1.6885
 2539SOL    HW219251   3.461   1.471   5.448 -0.0096  0.5531 -0.2334
 2540SOL     OW19252   2.074   0.168  13.860 -0.3281 -0.2240 -0.1911
 2540SOL    HW119253   2.135   0.141  13.928  1.3961  0.7787 -1.3527
 2540SOL    HW219254   2.092   0.110  13.786 -1.4235  0.3793 -0.9257
 2541SOL     OW19255   1.718   0.323   6.165  0.0591  0.5881  0.2895
 2541SOL    HW119256   1.643   0.351   6.217  1.5467  1.6456  1.8769
 2541SOL    HW219257   1.689   0.363   6.083 -1.2857 -0.8467  0.0534
 2542SOL     OW19258   2.483   0.867  12.880  0.0167  0.3005 -0.1576
 2542SOL    HW119259   2.502   0.918  12.801 -1.5261 -0.6857 -1.1789
 2542SOL    HW219260   2.538   0.909  12.946 -0.5801  0.3372  0.3127
 2543SOL     OW19261   1.016   4.243  11.409  0.4311 -0.5638 -0.3995
 2543SOL    HW119262   1.066   4.324  11.395 -1.1064 -0.0266 -2.8297
 2543SOL    HW219263   0.990   4.264  11.499 -1.6943 -0.7635 -0.9501
 2544SOL     OW19264   3.347   2.792   6.698  0.3328 -0.3919  0.2186
 2544SOL    HW119265   3.336   2.748   6.614 -0.6198  1.8357 -0.8294
 2544SOL    HW219266   3.336   2.885   6.677 -2.2585 -0.8466 -0.4075
 2545SOL     OW19267   0.160   0.343   6.790 -0.3512  0.2205 -0.9135
 2545SOL    HW119268   0.237   0.314   6.741  0.8852  1.0407  0.5176
 2545SOL    HW219269   0.191   0.387   6.869 -0.8048  1.8289 -1.6293
 2546SOL     OW19270   4.686   1.422   1.862  0.1899  0.1473  0.0454
 2546SOL    HW119271   4.725   1.358   1.802 -2.0857  0.0237 -1.2685
 2546SOL    HW219272   4.720   1.504   1.825  0.3395 -0.1941 -0.5670
 2547SOL     OW19273   1.993   0.582   0.692  0.3610 -0.4469  0.0238
 2547SOL    HW119274   1.953   0.564   0.777  1.2536 -0.2871  0.4703
 2547SOL    HW219275   1.954   0.664   0.663 -0.1674 -1.5348 -2.3867
 2548SOL     OW19276   0.538   2.147   5.072 -0.2034  0.1699  0.5080
 2548SOL    HW119277   0.502   2.209   5.136 -0.2874  0.6907 -0.0341
 2548SOL    HW219278   0.556   2.069   5.124 -1.6114  0.4135  1.3565
 2549SOL     OW19279   1.743   3.631   2.507 -0.2899 -1.0520  0.1757
 2549SOL    HW119280   1.823   3.675   2.534 -0.8177  0.9796 -1.6014
 2549SOL    HW219281   1.726   3.555   2.563 -2.0331 -0.4430  0.4630
 2550SOL     OW19282   0.644   1.931   4.160  0.0804 -0.0070  0.2073
 2550SOL    HW119283   0.735   1.901   4.159  0.3434  0.6857  2.7100
 2550SOL    HW219284   0.645   1.980   4.243  0.3515 -0.3256  0.3926
 2551SOL     OW19285   0.813   0.924   5.533 -0.6495  0.3799 -0.3831
 2551SOL    HW119286   0.784   1.015   5.539 -0.6640  0.5141 -2.2258
 2551SOL    HW219287   0.807   0.906   5.439  2.3051  1.1366 -0.7223
 2552SOL     OW19288   0.095   1.280   1.704  0.2327  0.2913  0.1254
 2552SOL    HW119289   0.060   1.194   1.725 -1.4342  0.7768 -0.6565
 2552SOL    HW219290   0.049   1.303   1.623 -0.5744  2.9725  1.3221
 2553SOL     OW19291   2.611   3.688   2.683  0.5575  0.1995 -1.0751
 2553SOL    HW119292   2.701   3.694   2.714 -0.0598  0.5597  0.6314
 2553SOL    HW219293   2.625   3.645   2.599 -1.3256 -1.7762 -0.3837
 2554SOL     OW19294   1.651   4.529   9.701 -0.0617 -0.1463 -0.0250
 2554SOL    HW119295   1.583   4.472   9.736 -1.2913  0.5327 -1.2656
 2554SOL    HW219296   1.704   4.562   9.773  2.7206 -2.1192 -1.1856
 2555SOL     OW19297   2.702   0.626   6.509  0.3010 -1.0650  0.1012
 2555SOL    HW119298   2.618   0.645   6.552  0.3494  0.3424 -0.4420
 2555SOL    HW219299   2.680   0.652   6.419  0.9890  1.0460  0.5437
 2556SOL     OW19300   0.340   0.263  16.846  0.4426 -0.0803 -0.1669
 2556SOL    HW119301   0.353   0.335  16.907 -0.2611 -0.6779  0.6966
 2556SOL    HW219302   0.392   0.285  16.769  3.5560  1.0737  2.2992
 2557SOL     OW19303   1.383   3.490  16.222 -0.0336 -0.8207 -0.4361
 2557SOL    HW119304   1.330   3.412  16.240 -1.5439  0.5431  1.0565
 2557SOL    HW219305   1.396   3.515  16.314 -0.0365  0.9012 -0.9020
 2558SOL     OW19306   3.063   1.035   2.640 -0.2341  0.1353 -0.4418
 2558SOL    HW119307   3.060   0.995   2.553  0.1865  0.0765 -0.4303
 2558SOL    HW219308   3.149   1.076   2.632  0.4251 -1.1977 -0.1555
 2559SOL     OW19309   1.403   3.213  12.307  0.0798  0.2085  0.1174
 2559SOL    HW119310   1.341   3.286  12.297 -3.1874 -2.4247  1.3934
 2559SOL    HW219311   1.353   3.145  12.262 -0.3936  2.9369 -3.5760
 2560SOL     OW19312   4.341   3.535   2.669  0.7184  0.1167  0.1462
 2560SOL    HW119313   4.410   3.575   2.722 -1.4454  0.8673  2.3948
 2560SOL    HW219314   4.342   3.446   2.705  1.8088  0.2449  0.4307
 2561SOL     OW19315   4.499   1.796   4.976 -0.3093 -0.1957 -0.0138
 2561SOL    HW119316   4.498   1.700   4.980  0.4927 -0.1584  1.0691
 2561SOL    HW219317   4.554   1.805   4.898 -1.0213  1.2191 -0.3498
 2562SOL     OW19318   2.537   0.030   4.443  0.0602 -0.0815 -0.1142
 2562SOL    HW119319   2.477   0.104   4.445 -1.1125 -1.0571  0.8788
 2562SOL    HW219320   2.479   4.698   4.482  0.0406  1.3205  2.2292
 2563SOL     OW19321   0.390   3.924   6.507  0.3999 -0.1970  0.4484
 2563SOL    HW119322   0.484   3.921   6.494  0.2767  1.6370 -0.8378
 2563SOL    HW219323   0.380   4.017   6.526  1.6159 -0.2724  1.4379
 2564SOL     OW19324   2.967   2.961  11.396 -0.1993 -0.5656  0.0679
 2564SOL    HW119325   2.979   3.055  11.409 -0.0896 -0.4944 -0.5705
 2564SOL    HW219326   2.975   2.962  11.301  0.8089 -2.6568  0.1226
 2565SOL     OW19327   2.221   1.708   4.801 -0.3916 -0.2834 -0.0426
 2565SOL    HW119328   2.231   1.619   4.835  1.3574  0.0436  0.3081
 2565SOL    HW219329   2.165   1.753   4.864 -2.1753 -3.1898  0.4652
 2566SOL     OW19330   3.537   1.514   8.219  0.3854 -0.1681 -0.0683
 2566SOL    HW119331   3.533   1.604   8.249 -0.6439  0.5354 -2.3397
 2566SOL    HW219332   3.619   1.527   8.172  0.8790 -0.1329  0.8058
 2567SOL     OW19333   3.767   0.093  15.904 -0.7406  0.2436  0.4789
 2567SOL    HW119334   3.769   0.118  15.812 -2.3616  0.4196  0.4897
 2567SOL    HW219335   3.678   0.112  15.933 -0.5759  1.1013  0.4189
 2568SOL     OW19336   4.427   4.272  12.449  0.1600 -0.1016  0.2772
 2568SOL    HW119337   4.516   4.245  12.472  0.5388  1.4112  0.5667
 2568SOL    HW219338   4.394   4.279  12.538 -0.7820  2.4185 -0.2631
 2569SOL     OW19339   2.270   4.562   3.909  0.5677 -0.2984  0.1967
 2569SOL    HW119340   2.245   4.588   3.821  2.5503 -0.2624 -0.3549
 2569SOL    HW219341   2.194   4.576   3.966  1.7497 -0.9752  1.9256
 2570SOL     OW19342   0.992   2.112   5.858  0.2844  0.1933  0.1907
 2570SOL    HW119343   0.923   2.062   5.815  1.5720 -0.6646 -0.8528
 2570SOL    HW219344   1.071   2.071   5.824 -0.0803  2.0234 -2.9021
 2571SOL     OW19345   3.143   0.153   3.112  0.3844  0.3379 -0.4805
 2571SOL    HW119346   3.142   0.117   3.024  1.9428 -1.3364  0.1764
 2571SOL    HW219347   3.234   0.177   3.128 -0.4684  1.3191  2.9363
 2572SOL     OW19348   3.224   4.632   6.419 -0.3342  0.3319 -0.1766
 2572SOL    HW119349   3.218   4.685   6.498  3.6314  0.6770 -0.1017
 2572SOL    HW219350   3.291   4.570   6.447  0.4432  1.3135  0.1288
 2573SOL     OW19351   3.143   1.798  13.188  0.0454  0.4744  0.4049
 2573SOL    HW119352   3.201   1.761  13.122 -1.8120 -1.9411  0.1158
 2573SOL    HW219353   3.133   1.718  13.240  3.2520 -0.1199  0.0986
 2574SOL     OW19354   2.396   0.975   7.765 -0.2773 -0.4597 -0.6234
 2574SOL    HW119355   2.356   1.035   7.702  1.0454  1.4961  0.3840
 2574SOL    HW219356   2.317   0.925   7.784 -0.6427  0.3347 -0.0414
 2575SOL     OW19357   0.874   4.354   4.690 -0.1382 -0.7241  0.0984
 2575SOL    HW119358   0.839   4.278   4.643 -0.9316 -0.8614  0.9236
 2575SOL    HW219359   0.806   4.373   4.754  1.9964  0.6714  1.9598
 2576SOL     OW19360   3.183   3.127   3.520  0.1596  0.4075  0.3625
 2576SOL    HW119361   3.176   3.128   3.425  0.9627 -0.6694  0.2991
 2576SOL    HW219362   3.119   3.066   3.556  0.7018 -0.6012 -0.3793
 2577SOL     OW19363   3.401   4.488   0.513  0.1037  0.3594  0.2705
 2577SOL    HW119364   3.434   4.537   0.588  1.8309 -0.5027  0.0706
 2577SOL    HW219365   3.316   4.532   0.511 -0.2706 -0.3991 -0.6644
 2578SOL     OW19366   0.996   2.291   6.492  0.1910 -0.3036 -0.4966
 2578SOL    HW119367   0.978   2.371   6.542  0.4188 -1.5024  1.5333
 2578SOL    HW219368   0.975   2.222   6.555 -0.0821 -0.4157 -0.7148
 2579SOL     OW19369   2.001   3.181   0.703  0.2420  0.6773 -0.4765
 2579SOL    HW119370   1.931   3.208   0.644 -0.5079  0.5869  0.3763
 2579SOL    HW219371   1.961   3.104   0.743  1.0395  0.8292  0.6224
 2580SOL     OW19372   1.669   2.005   8.789  0.0625 -0.4299  0.0877
 2580SOL    HW119373   1.745   2.059   8.810 -1.3536  0.9295  1.8072
 2580SOL    HW219374   1.667   1.941   8.861  0.0414 -0.8508 -0.2903
 2581SOL     OW19375   2.428   3.104   6.127  0.1847  0.5777  0.6704
 2581SOL    HW119376   2.371   3.179   6.111  0.7734  1.0570  0.8081
 2581SOL    HW219377   2.417   3.085   6.220 -0.5339  1.6339  0.7899
 2582SOL     OW19378   2.409   1.116   1.128 -0.2578 -0.5912  0.2626
 2582SOL    HW119379   2.403   1.036   1.075  2.0841 -0.9196  0.5135
 2582SOL    HW219380   2.377   1.082   1.211  0.6357 -1.4577  0.2478
 2583SOL     OW19381   1.517   4.268   8.835 -0.4834 -0.5687  0.0769
 2583SOL    HW119382   1.451   4.226   8.891  1.1446 -0.3555  2.1660
 2583SOL    HW219383   1.600   4.235   8.869 -0.9447 -1.2877  0.4991
 2584SOL     OW19384   3.084   2.043  17.609 -0.1643 -0.4403  0.0428
 2584SOL    HW119385   3.064   2.106  17.540  2.4801 -1.6046 -1.7390
 2584SOL    HW219386   3.171   2.017  17.579  0.2235  1.1774 -0.2073
 2585SOL     OW19387   2.124   2.720  12.761 -0.0614  0.1947  0.1081
 2585SOL    HW119388   2.061   2.719  12.833 -0.8840  0.2307 -0.6147
 2585SOL    HW219389   2.078   2.667  12.695  1.4055 -1.6814  0.5765
 2586SOL     OW19390   0.330   0.444  17.037 -0.2487 -0.0109  0.8070
 2586SOL    HW119391   0.377   0.402  17.109  0.0310 -0.1729  0.5281
 2586SOL    HW219392   0.264   0.496  17.083 -0.4109  1.2416 -0.8523
 2587SOL     OW19393   0.176   3.310   7.500 -0.4628 -0.0723 -0.0252
 2587SOL    HW119394   0.229   3.388   7.487 -2.2860  0.9346 -1.5294
 2587SOL    HW219395   0.184   3.274   7.412 -0.1847 -0.3217  0.1022
 2588SOL     OW19396   1.511   1.866  12.568  0.2370  0.0400  0.3201
 2588SOL    HW119397   1.507   1.772  12.550  1.9525  0.1743 -0.8067
 2588SOL    HW219398   1.429   1.878  12.616 -0.4817 -0.7888 -0.6886
 2589SOL     OW19399   1.494   2.937  13.815  0.1753 -0.7134 -0.4956
 2589SOL    HW119400   1.438   3.014  13.825  0.0490 -1.0001  1.0967
 2589SOL    HW219401   1.551   2.955  13.740  1.1644 -0.4982  0.2921
 2590SOL     OW19402   3.217   2.676   3.685 -0.2159 -0.0194  0.3916
 2590SOL    HW119403   3.135   2.630   3.706 -0.3594 -1.5430 -3.4508
 2590SOL    HW219404   3.264   2.704   3.763 -0.2457 -0.0458  0.4192
 2591SOL     OW19405   3.547   3.924  10.514 -0.3751 -0.3807 -0.0970
 2591SOL    HW119406   3.603   3.994  10.546  1.4033 -1.4204 -0.9379
 2591SOL    HW219407   3.497   3.900  10.593  0.1308 -0.3406  0.2372
 2592SOL     OW19408   3.470   2.611   5.270 -0.0379  0.1613  0.2237
 2592SOL    HW119409   3.479   2.526   5.314 -1.9069 -1.2321 -2.0642
 2592SOL    HW219410   3.377   2.604   5.245  0.3709 -1.6006 -0.7856
 2593SOL     OW19411   1.418   1.097   2.352 -0.3845 -0.6752 -0.4130
 2593SOL    HW119412   1.349   1.058   2.297 -1.0129  0.5330 -0.4834
 2593SOL    HW219413   1.434   1.018   2.404 -0.5009 -1.6666 -1.8841
 2594SOL     OW19414   0.927   0.330   2.504  0.3252 -0.2081  0.1423
 2594SOL    HW119415   0.860   0.329   2.436  1.3601  0.0019 -0.8796
 2594SOL    HW219416   0.893   0.255   2.553  1.7292 -2.4530 -2.3288
 2595SOL     OW19417   4.258   4.278   3.088  0.1375  0.2881 -0.2712
 2595SOL    HW119418   4.205   4.210   3.129  1.3979 -0.0847  0.7253
 2595SOL    HW219419   4.349   4.283   3.116  0.5273 -0.1740 -1.4565
 2596SOL     OW19420   1.385   1.836   4.394  0.0058 -0.2415 -0.0302
 2596SOL    HW119421   1.446   1.831   4.468 -0.4434 -1.4485  0.2550
 2596SOL    HW219422   1.435   1.793   4.324 -1.1041 -0.6001 -0.5940
 2597SOL     OW19423   2.309   1.574   7.148  0.4571 -0.4767  0.3565
 2597SOL    HW119424   2.344   1.652   7.105 -1.0969  0.2370  0.3861
 2597SOL    HW219425   2.360   1.515   7.093 -2.5633 -0.4950 -2.4394
 2598SOL     OW19426   0.360   0.208  11.766 -0.0253 -0.4792 -0.0277
 2598SOL    HW119427   0.394   0.228  11.854 -0.6993 -3.0225  0.8128
 2598SOL    HW219428   0.349   0.298  11.734 -3.4231 -1.4424 -1.5386
 2599SOL     OW19429   0.188   3.739   1.266  0.1826 -0.2719 -0.3181
 2599SOL    HW119430   0.111   3.744   1.209  0.3518  0.2583 -0.5091
 2599SOL    HW219431   0.242   3.686   1.207  0.8321 -0.5630  0.5434
 2600SOL     OW19432   3.595   1.138  13.416 -0.3231  0.6353  0.0197
 2600SOL    HW119433   3.617   1.221  13.372 -2.2578  0.0336 -2.0581
 2600SOL    HW219434   3.549   1.092  13.346  1.4200  2.4467 -2.3409
 2601SOL     OW19435   0.607   2.188   4.604  0.4300 -0.1182  0.1958
 2601SOL    HW119436   0.607   2.283   4.594  0.4094 -0.1886 -0.4723
 2601SOL    HW219437   0.551   2.177   4.681  0.0183  1.4867  0.1263
 2602SOL     OW19438   3.224   4.503   8.508 -0.0351  0.0095 -0.1013
 2602SOL    HW119439   3.284   4.465   8.572  0.0193  1.2864  0.5880
 2602SOL    HW219440   3.197   4.420   8.467  0.4960  0.2130 -0.8640
 2603SOL     OW19441   4.506   0.420   9.430  0.2162  0.1439  0.0648
 2603SOL    HW119442   4.467   0.391   9.512  0.5431 -0.9362 -0.1668
 2603SOL    HW219443   4.505   0.515   9.443 -2.0088  0.0014  0.9029
 2604SOL     OW19444   1.563   2.437   6.124 -0.2729  0.2828 -0.6915
 2604SOL    HW119445   1.612   2.368   6.079  1.5319  1.0264  0.1483
 2604SOL    HW219446   1.482   2.431   6.074 -0.4621  0.1694 -0.3728
 2605SOL     OW19447   1.770   1.993   4.003  0.2396 -0.7708  0.7425
 2605SOL    HW119448   1.730   2.009   4.088 -0.2709 -1.7112  0.6873
 2605SOL    HW219449   1.792   1.900   3.995 -0.8900 -0.8893 -1.0452
 2606SOL     OW19450   2.286   0.541  13.159  0.1493  0.5441 -0.1678
 2606SOL    HW119451   2.216   0.504  13.212  0.8976 -0.5059  0.0891
 2606SOL    HW219452   2.356   0.477  13.173 -0.9272 -0.6616 -0.2248
 2607SOL     OW19453   3.601   2.177   4.678 -0.0471 -0.0212 -0.5681
 2607SOL    HW119454   3.598   2.271   4.693  0.3856 -0.3213  1.4276
 2607SOL    HW219455   3.696   2.166   4.690 -0.1062  0.1561  0.0279
 2608SOL     OW19456   3.119   2.336   8.165  0.1503  0.7439  1.4378
 2608SOL    HW119457   3.054   2.403   8.146 -1.7165 -2.0604 -2.0644
 2608SOL    HW219458   3.082   2.304   8.248  0.2713  1.3281  1.7164
 2609SOL     OW19459   1.846   4.696   3.585 -0.0611 -0.3569 -0.4261
 2609SOL    HW119460   1.757   4.700   3.550  0.5396  0.7793 -1.8586
 2609SOL    HW219461   1.880   0.051   3.580 -0.5798 -0.1376 -0.0403
 2610SOL     OW19462   0.343   4.318   4.844 -0.6140  0.4866 -0.0893
 2610SOL    HW119463   0.297   4.239   4.872  4.4323 -2.7868 -0.9349
 2610SOL    HW219464   0.314   4.318   4.753 -0.1131  1.4218 -0.2540
 2611SOL     OW19465   4.615   4.070   5.822  0.4241 -0.3145 -0.3096
 2611SOL    HW119466   4.708   4.049   5.813  0.5152  1.1365 -2.6995
 2611SOL    HW219467   4.609   4.166   5.824  2.7737 -0.2307  2.5945
 2612SOL     OW19468   3.609   3.258   8.149 -0.2991  0.5577  0.1558
 2612SOL    HW119469   3.687   3.313   8.159  1.3191 -1.5968 -0.8587
 2612SOL    HW219470   3.652   3.181   8.113  0.8621  0.8351  0.9519
 2613SOL     OW19471   2.169   3.537   2.808  0.0182 -0.3340 -0.4428
 2613SOL    HW119472   2.223   3.616   2.803 -0.6542  0.1581  0.1479
 2613SOL    HW219473   2.088   3.559   2.854  0.8008 -0.7373  1.1251
 2614SOL     OW19474   3.423   1.094  14.676 -0.1409 -0.3286  0.8291
 2614SOL    HW119475   3.495   1.155  14.685  1.3233 -2.0174  0.4439
 2614SOL    HW219476   3.392   1.105  14.586  0.6091  2.5086  0.9187
 2615SOL     OW19477   4.643   3.364   9.139  0.2808 -0.0981 -0.0188
 2615SOL    HW119478   4.618   3.455   9.159  0.1571 -0.0128 -0.5626
 2615SOL    HW219479   4.561   3.315   9.151 -1.0945  1.7148 -1.9028
 2616SOL     OW19480   0.436   4.154   7.621  0.2997  0.3165  0.1662
 2616SOL    HW119481   0.498   4.081   7.616 -1.3153 -1.0837  0.5148
 2616SOL    HW219482   0.374   4.119   7.557  1.0345 -3.3377  1.4956
 2617SOL     OW19483   4.222   2.275   6.726 -0.6924  0.1572 -0.1922
 2617SOL    HW119484   4.285   2.206   6.746  0.1209  0.4966 -1.5887
 2617SOL    HW219485   4.265   2.350   6.769  1.3663 -0.0767 -1.8155
 2618SOL     OW19486   3.383   4.418  10.087 -0.8051  0.5619 -0.0889
 2618SOL    HW119487   3.464   4.445  10.132 -1.7959 -0.7634  2.5220
 2618SOL    HW219488   3.350   4.355  10.151  0.9441  0.6781  0.9519
 2619SOL     OW19489   1.611   3.149  15.467  0.6543  0.5137  0.2318
 2619SOL    HW119490   1.600   3.055  15.458  0.2324  0.4420  1.5414
 2619SOL    HW219491   1.625   3.164  15.560  1.7117  0.3521  0.0985
 2620SOL     OW19492   2.567   1.381   8.187  0.3001  0.2477 -0.3068
 2620SOL    HW119493   2.489   1.432   8.165  0.9966  1.3901 -0.1259
 2620SOL    HW219494   2.600   1.438   8.256  0.9522  1.7798 -1.8923
 2621SOL     OW19495   0.539   1.542  12.188  0.2091 -0.3187 -0.1253
 2621SOL    HW119496   0.515   1.451  12.172 -0.9232 -0.1504  0.6469
 2621SOL    HW219497   0.542   1.572  12.097 -1.4888  0.6259  0.1271
 2622SOL     OW19498   1.360   4.226   9.347  0.2845  0.4385 -0.2754
 2622SOL    HW119499   1.349   4.179   9.429  0.2732 -1.7056 -1.5103
 2622SOL    HW219500   1.294   4.295   9.354 -1.4323 -1.0443 -1.9296
 2623SOL     OW19501   0.024   2.568   7.215 -0.0281  0.2015  0.6200
 2623SOL    HW119502   4.722   2.525   7.138  0.2180  1.3929 -0.1680
 2623SOL    HW219503   4.676   2.592   7.257 -0.2878  0.2904  0.0631
 2624SOL     OW19504   2.916   1.239  16.470  0.2748 -0.3976 -0.1993
 2624SOL    HW119505   2.983   1.307  16.459 -0.4608  0.2375 -0.7391
 2624SOL    HW219506   2.939   1.177  16.402 -0.3674 -0.2433 -0.5489
 2625SOL     OW19507   2.960   1.030   9.609 -0.1338 -0.0940  0.5968
 2625SOL    HW119508   2.912   1.028   9.692  0.8848 -0.0858  1.1779
 2625SOL    HW219509   2.955   1.125   9.594 -2.4917 -0.2281  0.5268
 2626SOL     OW19510   4.532   2.558  15.505  0.0067 -0.2690  0.1761
 2626SOL    HW119511   4.462   2.510  15.460 -1.1962  1.0509  0.6229
 2626SOL    HW219512   4.474   2.600  15.569  1.2678  1.5719  0.0908
 2627SOL     OW19513   0.577   2.280   6.614 -0.0663  0.1873  0.0298
 2627SOL    HW119514   0.623   2.350   6.659 -0.0644 -0.5653  1.2288
 2627SOL    HW219515   0.618   2.196   6.636  1.0444  0.5166 -0.8248
 2628SOL     OW19516   3.075   0.565   4.037 -0.2639 -0.1142  0.3297
 2628SOL    HW119517   3.012   0.495   4.023 -1.9134  1.2956  0.6755
 2628SOL    HW219518   3.039   0.644   3.996 -1.5110 -0.9627 -0.2146
 2629SOL     OW19519   1.276   0.744   9.010 -0.4141  0.3732  0.4593
 2629SOL    HW119520   1.289   0.762   9.104 -0.4115 -3.4670  1.1947
 2629SOL    HW219521   1.369   0.734   8.988 -1.0325 -0.9641 -1.5061
 2630SOL     OW19522   4.392   1.917   8.854 -0.0046  0.3811  0.4204
 2630SOL    HW119523   4.485   1.910   8.830 -0.5425 -1.9086 -0.9593
 2630SOL    HW219524   4.379   2.011   8.841  2.5679  0.3755 -2.1991
 2631SOL     OW19525   1.765   2.354   6.324  0.1342  0.3689  0.2411
 2631SOL    HW119526   1.718   2.413   6.266 -0.7446 -0.0220  0.5547
 2631SOL    HW219527   1.747   2.270   6.283  0.3601 -1.7040  4.3398
 2632SOL     OW19528   1.680   3.475   4.091 -0.2940 -0.2182 -0.6975
 2632SOL    HW119529   1.624   3.402   4.063 -2.0318  1.4003 -1.4051
 2632SOL    HW219530   1.632   3.509   4.166  0.7451  2.1181 -1.1178
 2633SOL     OW19531   1.836   3.536   6.208  0.3559 -0.1630 -0.3199
 2633SOL    HW119532   1.929   3.556   6.201  0.6109 -0.4858  2.0065
 2633SOL    HW219533   1.816   3.629   6.216  1.8183  0.1264 -0.0747
 2634SOL     OW19534   2.160   4.282   9.187  0.2185  0.0377  0.0902
 2634SOL    HW119535   2.069   4.288   9.214 -0.1091  1.1614 -1.3180
 2634SOL    HW219536   2.170   4.361   9.134  1.6229 -0.4136 -0.3344
 2635SOL     OW19537   1.795   0.484   5.542 -0.5194  0.3028 -0.0970
 2635SOL    HW119538   1.822   0.409   5.489  1.3329 -0.3252  1.7412
 2635SOL    HW219539   1.756   0.540   5.475 -1.0820  0.3013  0.2250
 2636SOL     OW19540   4.470   0.897   5.784 -0.3156 -0.2299 -0.0223
 2636SOL    HW119541   4.475   0.883   5.690  0.8156 -0.7285  0.1195
 2636SOL    HW219542   4.409   0.971   5.788  1.1127  0.9854 -0.6823
 2637SOL     OW19543   4.209   0.741   3.821  0.0577  0.1779 -0.2717
 2637SOL    HW119544   4.187   0.686   3.897  0.3480  1.4399  0.7406
 2637SOL    HW219545   4.145   0.811   3.807  1.2357  1.5110  1.0887
 2638SOL     OW19546   3.494   0.831   5.001 -0.6115  0.3745  0.6967
 2638SOL    HW119547   3.571   0.825   4.945 -0.3707 -0.1332  1.0785
 2638SOL    HW219548   3.466   0.918   4.974 -0.0141  0.6284  0.9076
 2639SOL     OW19549   3.557   0.721   0.189  0.2482  0.8914 -0.1333
 2639SOL    HW119550   3.504   0.761   0.120  0.3073 -1.3716 -1.5021
 2639SOL    HW219551   3.493   0.733   0.259 -0.6370 -0.5782 -0.6880
 2640SOL     OW19552   0.268   3.870   7.026 -0.1516  0.2109  0.3031
 2640SOL    HW119553   0.293   3.881   6.934  1.5665  0.1231  0.7625
 2640SOL    HW219554   0.286   3.776   7.031  0.7846  0.3802  0.0071
 2641SOL     OW19555   0.139   2.482  16.624  0.1151  0.2723  0.1281
 2641SOL    HW119556   0.192   2.428  16.565 -2.0894 -1.3721 -0.3470
 2641SOL    HW219557   0.085   2.416  16.668 -0.7559  0.3958 -0.7560
 2642SOL     OW19558   2.148   2.038   3.640 -0.0243  0.2892  0.0762
 2642SOL    HW119559   2.194   2.087   3.708  1.3702 -3.5254  1.8355
 2642SOL    HW219560   2.201   2.066   3.565  1.5031  0.5488  1.2680
 2643SOL     OW19561   0.408   0.267   8.598  0.1802 -0.1029 -0.0782
 2643SOL    HW119562   0.334   0.327   8.595  0.1954 -0.2509 -3.5357
 2643SOL    HW219563   0.388   0.215   8.520  0.5150  1.1482 -1.0007
 2644SOL     OW19564   2.123   0.833   4.800 -0.1098 -0.0781 -0.2358
 2644SOL    HW119565   2.067   0.775   4.748 -0.6279  0.0843  0.1514
 2644SOL    HW219566   2.189   0.768   4.826  0.7769  0.1574 -1.8448
 2645SOL     OW19567   0.801   2.363   7.315  0.8469  0.2205 -0.4810
 2645SOL    HW119568   0.794   2.404   7.228  4.8207 -0.3420 -1.0544
 2645SOL    HW219569   0.742   2.419   7.366 -1.1885 -1.5604 -0.8872
 2646SOL     OW19570   4.695   4.696   5.069 -0.2462 -0.1510  0.1666
 2646SOL    HW119571   0.021   0.025   5.029 -1.0012 -0.1387 -0.9559
 2646SOL    HW219572   4.649   0.014   5.134  0.4081 -0.4069  0.8394
 2647SOL     OW19573   0.048   3.713  12.577  0.4372  0.5877 -0.1012
 2647SOL    HW119574   0.100   3.677  12.505  2.8400  1.7375  1.0515
 2647SOL    HW219575   0.082   3.666  12.654  2.5895  1.0692 -0.7534
 2648SOL     OW19576   2.595   2.885   3.723  0.1467 -0.9508  0.1482
 2648SOL    HW119577   2.585   2.971   3.682 -0.7901 -1.2970 -0.3261
 2648SOL    HW219578   2.536   2.834   3.668 -0.5598 -1.4180  1.3585
 2649SOL     OW19579   3.652   3.388   7.844 -0.2261  0.0097  0.2340
 2649SOL    HW119580   3.723   3.400   7.907 -1.5890  1.2122  1.5330
 2649SOL    HW219581   3.684   3.303   7.812 -0.8896 -0.0602 -0.2411
 2650SOL     OW19582   1.427   3.621   1.342 -0.0615 -0.2360  0.2786
 2650SOL    HW119583   1.422   3.699   1.287 -0.6817  0.2948  1.0854
 2650SOL    HW219584   1.416   3.556   1.272 -0.6139  0.1576 -0.0028
 2651SOL     OW19585   1.119   2.603   4.317  0.0954  0.2028 -0.0043
 2651SOL    HW119586   1.152   2.615   4.229 -0.7035 -0.4540 -0.3963
 2651SOL    HW219587   1.158   2.679   4.360 -2.9710  0.3951  2.4674
 2652SOL     OW19588   4.317   2.636   8.343  0.1718 -0.4269 -0.2061
 2652SOL    HW119589   4.269   2.595   8.416  1.4964  0.5199  1.2025
 2652SOL    HW219590   4.275   2.586   8.273  1.8089  0.8524 -2.0834
 2653SOL     OW19591   3.973   4.620   0.900 -0.5769  0.1001 -0.3882
 2653SOL    HW119592   3.995   4.602   0.991  0.9790  1.3432 -0.5266
 2653SOL    HW219593   3.929   4.705   0.909 -2.2992 -0.6130 -1.9448
 2654SOL     OW19594   3.325   3.730   6.259  0.5452 -0.6300 -0.3985
 2654SOL    HW119595   3.362   3.687   6.182  0.4767  1.0400 -1.3889
 2654SOL    HW219596   3.381   3.808   6.264  1.8162 -1.6050  0.3009
 2655SOL     OW19597   2.824   4.605   7.778  0.4842  0.1234  0.3091
 2655SOL    HW119598   2.857   4.694   7.793 -3.2154  1.8358 -1.7133
 2655SOL    HW219599   2.861   4.575   7.695  0.2590 -0.4742  0.4247
 2656SOL     OW19600   0.688   4.616  17.124  0.2333 -0.0757 -0.3925
 2656SOL    HW119601   0.638   4.682  17.171 -0.9791 -0.8023 -0.6698
 2656SOL    HW219602   0.762   4.598  17.182  0.0441  0.9112  0.1585
 2657SOL     OW19603   2.275   1.625   0.419  0.4940  0.5492 -0.0326
 2657SOL    HW119604   2.183   1.639   0.442  0.0270 -3.0366  0.2605
 2657SOL    HW219605   2.251   1.542   0.378 -0.1151 -1.2297  3.9908
 2658SOL     OW19606   3.280   3.354  11.060 -0.0563 -0.1512 -0.4274
 2658SOL    HW119607   3.305   3.375  11.150  0.4328  0.1714 -0.6324
 2658SOL    HW219608   3.364   3.362  11.014  1.2993 -0.8600  1.9069
 2659SOL     OW19609   3.623   4.364   4.770  0.2153  0.3142 -0.3610
 2659SOL    HW119610   3.561   4.370   4.842 -0.5019 -1.1798 -0.8680
 2659SOL    HW219611   3.708   4.393   4.805 -0.1900  0.2204  0.6841
 2660SOL     OW19612   2.190   4.348   5.245 -0.2634  0.0172  0.4717
 2660SOL    HW119613   2.155   4.262   5.221 -1.9612  1.1382 -1.0463
 2660SOL    HW219614   2.124   4.408   5.212 -2.3965 -2.1402  0.8050
 2661SOL     OW19615   3.564   1.699   3.627  0.1318  0.1601 -0.2045
 2661SOL    HW119616   3.637   1.709   3.566  1.3065 -1.7878  0.8749
 2661SOL    HW219617   3.524   1.612   3.618 -1.5338  0.6093  2.8795
 2662SOL     OW19618   2.389   3.566   8.956  0.6079 -0.2490  0.0286
 2662SOL    HW119619   2.391   3.659   8.932  1.1376 -0.1945  0.2646
 2662SOL    HW219620   2.298   3.540   8.944  0.4905  0.4900 -0.7115
 2663SOL     OW19621   2.044   0.707  10.788  0.8108  0.2932  0.1710
 2663SOL    HW119622   2.052   0.802  10.799  1.9575  0.6311 -3.5809
 2663SOL    HW219623   2.054   0.686  10.695 -1.9367 -0.6917  0.0985
 2664SOL     OW19624   3.262   4.718   7.527 -0.4105 -0.1411 -0.4231
 2664SOL    HW119625   3.297   4.714   7.615 -0.1233  0.7932 -0.4884
 2664SOL    HW219626   3.247   0.077   7.511  1.6108  0.3403  0.6016
 2665SOL     OW19627   2.442   2.013   3.487 -0.2951  0.0638 -0.1780
 2665SOL    HW119628   2.474   1.947   3.548  3.7600  1.6931 -0.5822
 2665SOL    HW219629   2.504   2.016   3.415  0.8138  0.7893  0.7951
 2666SOL     OW19630   3.219   4.029   9.720  0.6043 -0.2736 -0.4629
 2666SOL    HW119631   3.198   4.053   9.810  0.2892 -2.0872 -0.0426
 2666SOL    HW219632   3.307   4.064   9.709  0.9073 -0.4659  1.5247
 2667SOL     OW19633   1.038   2.046   2.506 -0.4412  0.5773 -0.6402
 2667SOL    HW119634   1.048   2.126   2.455  2.3633 -0.4836 -1.7869
 2667SOL    HW219635   1.008   1.984   2.439 -1.1770  1.2450 -0.9216
 2668SOL     OW19636   0.299   2.440  13.000  0.2570  1.0030 -0.0199
 2668SOL    HW119637   0.288   2.513  13.061 -2.3526 -0.3138  1.0491
 2668SOL    HW219638   0.254   2.370  13.046 -0.2865 -0.2029 -2.4219
 2669SOL     OW19639   1.644   2.190   2.519 -0.1035  0.1408 -1.2843
 2669SOL    HW119640   1.605   2.111   2.481  0.7383 -0.4084 -1.0165
 2669SOL    HW219641   1.707   2.147   2.577 -1.2667 -0.6856 -0.6166
 2670SOL     OW19642   0.316   0.222  14.226  0.1037  0.2631 -0.8283
 2670SOL    HW119643   0.362   0.257  14.302  0.8905 -1.6255 -0.4125
 2670SOL    HW219644   0.231   0.194  14.259 -0.1797  2.5894  0.4191
 2671SOL     OW19645   4.586   2.358   5.155 -0.2485  0.1029  0.3283
 2671SOL    HW119646   4.646   2.287   5.180  0.4850  1.1510  1.4800
 2671SOL    HW219647   4.506   2.348   5.207 -0.6258  1.2638 -0.0192
 2672SOL     OW19648   0.821   2.105   3.129 -0.4162 -0.2297  0.2177
 2672SOL    HW119649   0.858   2.124   3.215 -1.9275  3.7725 -0.0009
 2672SOL    HW219650   0.752   2.041   3.149 -1.1065  0.9750  1.7158
 2673SOL     OW19651   0.227   4.418  10.952 -0.0866 -0.4592 -0.1856
 2673SOL    HW119652   0.190   4.363  10.884  1.8384 -2.4265  0.3621
 2673SOL    HW219653   0.157   4.479  10.977  0.0716 -0.0682 -0.7037
 2674SOL     OW19654   0.300   1.869   8.999  0.0113 -0.5162 -0.0280
 2674SOL    HW119655   0.206   1.868   8.984  0.1126 -2.8847 -0.5780
 2674SOL    HW219656   0.332   1.946   8.952 -1.6916  1.6422  2.3197
 2675SOL     OW19657   1.087   1.279   5.803  0.0844  0.0821  0.0849
 2675SOL    HW119658   1.055   1.265   5.892  0.5263  3.3777  0.7441
 2675SOL    HW219659   1.006   1.311   5.762  0.3164 -0.8644 -1.1187
 2676SOL     OW19660   4.537   3.919   9.499  1.0458  0.7391 -0.5427
 2676SOL    HW119661   4.530   3.906   9.593 -0.4302 -1.2790 -0.9235
 2676SOL    HW219662   4.506   3.838   9.457 -0.5347  2.2157 -2.2515
 2677SOL     OW19663   1.726   0.160   4.293 -0.1812  0.0290 -0.0906
 2677SOL    HW119664   1.633   0.157   4.311 -0.0838  0.0348  0.4100
 2677SOL    HW219665   1.733   0.147   4.198 -0.7462  0.6794 -0.2165
 2678SOL     OW19666   1.713   4.466   6.648  0.2431 -0.0946 -0.2808
 2678SOL    HW119667   1.808   4.472   6.636  0.3454 -0.5247  0.3620
 2678SOL    HW219668   1.715   4.504   6.735  2.9262  1.5974 -1.0593
 2679SOL     OW19669   4.658   3.056   1.508 -0.2512 -0.1357  0.0070
 2679SOL    HW119670   4.585   3.109   1.475 -0.2015 -0.4032 -0.5342
 2679SOL    HW219671   4.728   3.081   1.448 -1.6198  1.8607 -0.7504
 2680SOL     OW19672   1.439   2.722  13.568  0.3191  0.3725 -0.4937
 2680SOL    HW119673   1.494   2.644  13.567  0.2850  0.3459 -0.2845
 2680SOL    HW219674   1.505   2.792  13.573 -0.2719  0.9345 -0.5992
 2681SOL     OW19675   0.939   1.364  13.717 -0.5278  0.1180  0.8112
 2681SOL    HW119676   0.924   1.271  13.732 -0.2476 -0.1198 -0.3462
 2681SOL    HW219677   0.930   1.366  13.622 -2.1003 -1.0166  0.9340
 2682SOL     OW19678   1.459   3.937   1.371  0.0387 -0.2250  0.4900
 2682SOL    HW119679   1.415   4.009   1.416  1.6844 -0.3229  2.2642
 2682SOL    HW219680   1.523   3.916   1.439 -0.9355 -1.1026  1.1424
 2683SOL     OW19681   3.841   0.035  12.315 -0.2039 -0.4837  0.1777
 2683SOL    HW119682   3.834   4.727  12.230 -0.9142 -0.9035  0.4433
 2683SOL    HW219683   3.768   4.724  12.358 -0.1869 -1.6402 -1.0032
 2684SOL     OW19684   2.682   4.418  10.136  0.1564 -0.1136 -0.2076
 2684SOL    HW119685   2.614   4.419  10.068  1.5460  1.0344 -1.5951
 2684SOL    HW219686   2.674   4.510  10.159 -0.7127  0.3521 -2.3364
 2685SOL     OW19687   3.820   4.082   6.139  0.1975  0.1180 -0.8046
 2685SOL    HW119688   3.911   4.109   6.132  0.1359  1.2007  2.6859
 2685SOL    HW219689   3.822   3.986   6.145  0.4855  0.0920 -1.2982
 2686SOL     OW19690   1.252   1.638   1.524 -0.0706  0.1940 -0.0324
 2686SOL    HW119691   1.237   1.593   1.441 -1.9363 -1.5898  1.2899
 2686SOL    HW219692   1.168   1.621   1.566  1.2674 -0.7327  2.2369
 2687SOL     OW19693   2.166   1.076  13.305 -0.0397 -0.1772  0.0331
 2687SOL    HW119694   2.189   1.055  13.215  3.3731  0.7989  0.6457
 2687SOL    HW219695   2.086   1.027  13.324  0.4635 -0.0952  2.3830
 2688SOL     OW19696   1.770   3.807   6.279  0.1775 -0.1226  0.4896
 2688SOL    HW119697   1.783   3.788   6.371  0.6808 -1.6709  0.0992
 2688SOL    HW219698   1.812   3.893   6.277 -1.3112  0.6005  0.1284
 2689SOL     OW19699   1.045   0.257  15.850  0.3405 -0.7660 -0.5233
 2689SOL    HW119700   1.098   0.179  15.836  2.8257  1.0805 -1.4342
 2689SOL    HW219701   1.081   0.281  15.936 -0.3717 -0.7732 -0.2269
 2690SOL     OW19702   2.525   1.015   6.956 -0.3536 -0.6896  0.2492
 2690SOL    HW119703   2.447   1.054   6.916  0.4787 -0.5518 -1.2161
 2690SOL    HW219704   2.579   1.024   6.878 -0.0178 -0.5871  0.4922
 2691SOL     OW19705   3.396   0.319   5.763  0.2387 -0.0126  0.3605
 2691SOL    HW119706   3.486   0.345   5.745  1.1622 -1.8129  2.4391
 2691SOL    HW219707   3.400   0.232   5.722 -1.3379  0.3604 -0.5766
 2692SOL     OW19708   4.703   0.848   6.288  0.1056  0.0771  0.0220
 2692SOL    HW119709   4.650   0.866   6.211  0.3993  1.6221  0.1781
 2692SOL    HW219710   4.734   0.761   6.265 -0.0602  0.1153 -0.3408
 2693SOL     OW19711   3.962   2.133   6.171  0.1163 -0.9351 -0.3027
 2693SOL    HW119712   4.049   2.171   6.159 -0.0459 -0.9244 -1.4557
 2693SOL    HW219713   3.936   2.178   6.251  0.9549 -0.2949 -0.3901
 2694SOL     OW19714   1.416   4.125  11.986  0.4627  0.0875  0.3411
 2694SOL    HW119715   1.334   4.080  12.007  1.4297 -1.3910  0.9336
 2694SOL    HW219716   1.425   4.088  11.898  0.3821 -0.1334  0.4241
 2695SOL     OW19717   2.492   3.197  13.460 -0.2379  0.1635  0.1090
 2695SOL    HW119718   2.540   3.115  13.453 -1.5165 -0.6909  1.4384
 2695SOL    HW219719   2.560   3.260  13.484  1.6405 -2.4554  1.4895
 2696SOL     OW19720   3.035   3.185   6.599  0.2940  0.0484  0.0851
 2696SOL    HW119721   2.972   3.255   6.616  0.1446 -0.3282  1.0293
 2696SOL    HW219722   3.081   3.221   6.523  2.1685  1.5008  1.9017
 2697SOL     OW19723   4.299   4.031  14.797 -0.6034  0.0003  0.1597
 2697SOL    HW119724   4.231   3.982  14.843  0.6204 -0.0607  1.9222
 2697SOL    HW219725   4.260   4.045  14.711  0.4726 -1.3625 -0.5402
 2698SOL     OW19726   3.326   3.371   3.406 -0.1989 -0.2242  0.1105
 2698SOL    HW119727   3.290   3.401   3.322 -0.4823  2.0605  1.0539
 2698SOL    HW219728   3.278   3.423   3.471  1.0352 -0.6889  1.3817
 2699SOL     OW19729   1.414   2.871  16.809 -0.1214  0.5358 -0.2918
 2699SOL    HW119730   1.350   2.925  16.761  1.0725  3.6026  1.5071
 2699SOL    HW219731   1.490   2.929  16.808 -0.3985  0.9117  0.2024
 2700SOL     OW19732   4.507   1.161  12.517  0.5103 -0.2161  0.3547
 2700SOL    HW119733   4.592   1.203  12.503 -0.0565  1.1537  1.0276
 2700SOL    HW219734   4.505   1.171  12.612  0.6209  0.1594  0.3173
 2701SOL     OW19735   2.385   0.666   3.278  0.2212 -0.2074  0.0574
 2701SOL    HW119736   2.333   0.586   3.264  2.9865 -2.0561  0.3016
 2701SOL    HW219737   2.463   0.650   3.225  0.1536 -0.6912  0.1027
 2702SOL     OW19738   1.847   1.048  12.122 -0.4135 -0.0543  0.3102
 2702SOL    HW119739   1.940   1.026  12.130 -0.6483 -0.7701  1.1457
 2702SOL    HW219740   1.818   0.977  12.066  2.5081 -1.8804  1.0824
 2703SOL     OW19741   3.897   3.806   0.099  0.5366 -0.1885 -0.5600
 2703SOL    HW119742   3.959   3.763   0.040 -0.1561 -3.8915  1.4717
 2703SOL    HW219743   3.957   3.838   0.166 -1.7886  0.8611  1.0326
 2704SOL     OW19744   1.731   4.353  10.441  0.7181 -0.0368 -0.2231
 2704SOL    HW119745   1.702   4.437  10.407 -1.9676 -1.0044 -0.3855
 2704SOL    HW219746   1.741   4.379  10.533 -1.1458 -0.7990  0.2156
 2705SOL     OW19747   2.918   4.137  10.970 -0.2978 -0.4511 -0.1653
 2705SOL    HW119748   2.955   4.181  11.046 -0.8033 -1.3179  0.5912
 2705SOL    HW219749   2.926   4.207  10.906 -0.9600  1.4847  1.8878
 2706SOL     OW19750   4.069   0.777  15.361  0.7957 -0.3167  0.5790
 2706SOL    HW119751   3.988   0.792  15.410 -0.2397  0.3484 -1.3306
 2706SOL    HW219752   4.126   0.849  15.388  0.8076  0.2054 -0.8548
 2707SOL     OW19753   1.561   1.608   6.402 -0.3150 -0.2414  0.4744
 2707SOL    HW119754   1.555   1.515   6.424  2.1896 -0.2076  1.3454
 2707SOL    HW219755   1.471   1.635   6.421 -0.3109  0.8249 -0.9966
 2708SOL     OW19756   2.976   2.869   2.912  0.2889 -0.2007 -0.0916
 2708SOL    HW119757   2.941   2.810   2.978 -1.1850 -0.7919 -1.3785
 2708SOL    HW219758   2.946   2.809   2.843  1.3848 -0.5072 -0.3027
 2709SOL     OW19759   0.722   1.013  14.311 -0.0474 -0.1629  0.0622
 2709SOL    HW119760   0.792   1.070  14.342  1.2866 -1.5174 -0.4789
 2709SOL    HW219761   0.641   1.064  14.319  0.4372  0.4224  1.2110
 2710SOL     OW19762   4.586   1.029   3.946 -0.4623  0.7174 -0.2014
 2710SOL    HW119763   4.651   0.966   3.914 -1.3156  1.6522 -3.7882
 2710SOL    HW219764   4.585   1.008   4.039 -2.4167  1.6206 -0.0318
 2711SOL     OW19765   2.490   3.580   9.890  0.6360  0.1707 -0.1196
 2711SOL    HW119766   2.469   3.630   9.968  2.4599  2.7928 -1.3249
 2711SOL    HW219767   2.458   3.635   9.819 -1.2556 -3.0690 -1.7778
 2712SOL     OW19768   2.562   3.184   2.371 -0.7208  0.3147 -0.0797
 2712SOL    HW119769   2.605   3.167   2.287 -1.5558 -1.5404 -0.1469
 2712SOL    HW219770   2.499   3.111   2.375  0.2093 -0.4995 -0.2368
 2713SOL     OW19771   3.203   2.756   3.410  0.1074  0.0219  0.8637
 2713SOL    HW119772   3.154   2.692   3.359  0.6704  2.0667 -2.2261
 2713SOL    HW219773   3.236   2.708   3.486  1.4143  0.7647  0.7724
 2714SOL     OW19774   1.404   3.313   5.980  0.2855  0.4999 -0.2097
 2714SOL    HW119775   1.459   3.286   5.906  0.1458 -0.0178 -0.1240
 2714SOL    HW219776   1.476   3.302   6.041  0.2633 -0.0037 -0.2802
 2715SOL     OW19777   4.599   1.749   4.538  0.2103  0.8795  0.6473
 2715SOL    HW119778   4.662   1.757   4.466  0.6797 -2.6410  0.6588
 2715SOL    HW219779   4.528   1.728   4.476 -0.6902  1.4706  1.4727
 2716SOL     OW19780   1.108   2.259  15.956  0.2601 -0.1533  0.2500
 2716SOL    HW119781   1.191   2.277  16.000  0.5990 -0.1564 -0.3825
 2716SOL    HW219782   1.123   2.165  15.951  0.6957 -0.0419 -0.6455
 2717SOL     OW19783   3.665   1.472   9.603  0.0865 -0.1143  1.0993
 2717SOL    HW119784   3.747   1.489   9.649  1.0764 -0.5360 -0.5174
 2717SOL    HW219785   3.613   1.552   9.610 -0.7954 -0.7729  2.3372
 2718SOL     OW19786   3.557   3.905   1.794  0.3600  0.0003  0.0832
 2718SOL    HW119787   3.517   3.819   1.804 -1.7724  0.8150 -1.2806
 2718SOL    HW219788   3.489   3.960   1.834  1.4902 -0.2700  2.4003
 2719SOL     OW19789   3.801   0.666   8.793  0.1264 -0.6752  0.3199
 2719SOL    HW119790   3.761   0.746   8.827 -1.0927 -1.8174  1.5742
 2719SOL    HW219791   3.768   0.646   8.706 -1.0712 -1.4486  0.9450
 2720SOL     OW19792   3.969   3.575   8.128  0.2112 -0.1205 -0.1712
 2720SOL    HW119793   3.931   3.527   8.054 -0.8407 -2.2364  1.7523
 2720SOL    HW219794   3.932   3.520   8.197  0.8122 -0.0499  0.2101
 2721SOL     OW19795   1.866   2.408   7.167 -1.1705  0.1915 -0.1459
 2721SOL    HW119796   1.798   2.381   7.105  0.5180 -3.0501 -0.6080
 2721SOL    HW219797   1.936   2.441   7.111  0.0535 -0.4399  1.0020
 2722SOL     OW19798   2.240   1.158   9.215  0.0647  0.2740  0.8275
 2722SOL    HW119799   2.307   1.107   9.169 -0.5471 -0.5614  0.8643
 2722SOL    HW219800   2.276   1.243   9.189 -1.8876  0.4157 -1.4442
 2723SOL     OW19801   1.137   0.972   4.321 -0.2001 -0.1828  0.0672
 2723SOL    HW119802   1.181   1.039   4.373 -0.8476  0.6353 -0.4486
 2723SOL    HW219803   1.090   1.021   4.254 -1.8068 -1.8812 -0.0597
 2724SOL     OW19804   0.715   0.212  16.238  0.4694 -0.3868 -0.3342
 2724SOL    HW119805   0.620   0.222  16.247  0.7684  1.1615  1.0436
 2724SOL    HW219806   0.723   0.282  16.173 -0.7798  0.7571  0.7526
 2725SOL     OW19807   0.310   4.006   8.094 -0.3459 -0.3522 -0.0461
 2725SOL    HW119808   0.327   3.914   8.076  0.8081  0.0925 -1.1918
 2725SOL    HW219809   0.352   4.050   8.020  0.2491 -1.4861 -0.3691
 2726SOL     OW19810   3.332   3.717   9.733 -0.5415 -0.3320 -0.3487
 2726SOL    HW119811   3.380   3.705   9.815  0.9927  0.2993 -1.1337
 2726SOL    HW219812   3.287   3.793   9.770 -1.5606 -1.1889  0.1734
 2727SOL     OW19813   3.348   0.986   8.897 -0.6176  0.1601  0.3246
 2727SOL    HW119814   3.430   1.005   8.943 -0.7109  1.1561  0.0729
 2727SOL    HW219815   3.338   0.892   8.909  0.5611  0.1162  0.9406
 2728SOL     OW19816   3.847   3.813   9.120  0.0893  0.3816 -0.6326
 2728SOL    HW119817   3.855   3.806   9.025  0.1342  2.6599 -0.7939
 2728SOL    HW219818   3.843   3.908   9.133 -1.9201  0.1596  0.4185
 2729SOL     OW19819   0.105   1.941   1.678 -0.1473  0.2055 -0.2136
 2729SOL    HW119820   0.107   2.029   1.640  1.6037  0.4873  0.5209
 2729SOL    HW219821   0.179   1.922   1.736 -0.9450  0.5556  0.9154
 2730SOL     OW19822   0.830   3.730   3.827  0.4280 -0.1776  0.0739
 2730SOL    HW119823   0.769   3.786   3.778  1.1808  0.1323 -0.5028
 2730SOL    HW219824   0.867   3.802   3.880  0.7879 -0.3026 -0.0089
 2731SOL     OW19825   1.917   3.531   2.985  0.0270  0.0600 -0.2322
 2731SOL    HW119826   1.971   3.483   3.048 -2.5354 -1.4689  0.8316
 2731SOL    HW219827   1.908   3.456   2.926 -1.6748 -0.4819  0.7124
 2732SOL     OW19828   1.299   3.721   7.490  0.2148 -0.2761  0.2599
 2732SOL    HW119829   1.388   3.728   7.456  0.1251 -2.1756 -0.3684
 2732SOL    HW219830   1.248   3.695   7.414  0.0511 -2.4318  1.0992
 2733SOL     OW19831   2.526   1.226   5.871 -0.3203 -0.0950 -0.0614
 2733SOL    HW119832   2.566   1.201   5.954 -0.3967 -2.9170 -0.8713
 2733SOL    HW219833   2.463   1.155   5.856 -2.3884  1.5425  0.7313
 2734SOL     OW19834   4.527   4.262   3.246  0.1085 -0.3310  0.5977
 2734SOL    HW119835   4.596   4.307   3.295 -0.0502  2.0401 -1.3383
 2734SOL    HW219836   4.577   4.218   3.178 -0.6220  1.9743 -1.4381
 2735SOL     OW19837   3.347   0.910   3.656  0.2290 -0.0259 -0.3619
 2735SOL    HW119838   3.318   0.821   3.672  0.6732 -0.0838  0.1080
 2735SOL    HW219839   3.427   0.906   3.603  1.2740  0.7014  1.1577
 2736SOL     OW19840   2.211   2.636   5.682 -0.2171  0.8027 -0.6902
 2736SOL    HW119841   2.224   2.704   5.615 -4.1467  0.7517 -1.4977
 2736SOL    HW219842   2.293   2.586   5.683 -0.6869  0.0572  0.0107
 2737SOL     OW19843   3.620   2.929   3.050 -0.3699  0.4336 -0.0399
 2737SOL    HW119844   3.592   2.925   3.141 -1.6002  0.2290 -0.4212
 2737SOL    HW219845   3.686   2.859   3.043  0.6483  1.3929 -0.0541
 2738SOL     OW19846   2.888   2.978  11.125 -0.2430 -0.4764 -0.2603
 2738SOL    HW119847   2.864   2.901  11.074  2.3305 -1.4643  0.0473
 2738SOL    HW219848   2.881   3.046  11.058  0.9240  0.5921  0.6909
 2739SOL     OW19849   2.234   1.902   2.936  0.4571  0.5384 -0.3551
 2739SOL    HW119850   2.167   1.959   2.974  2.4082  2.1579  0.6600
 2739SOL    HW219851   2.186   1.872   2.859  0.7041  1.2880 -0.8103
 2740SOL     OW19852   2.729   2.914   9.424  0.1379 -0.0149 -0.3922
 2740SOL    HW119853   2.693   2.869   9.347 -2.5591 -2.4752  2.3022
 2740SOL    HW219854   2.672   2.867   9.485 -0.7516  1.2762 -0.2249
 2741SOL     OW19855   4.447   2.420   7.064 -0.0810 -0.9344  0.1804
 2741SOL    HW119856   4.537   2.415   7.031 -0.8487  0.5293 -2.0840
 2741SOL    HW219857   4.397   2.428   6.983 -0.5209  0.6776  0.6081
 2742SOL     OW19858   0.899   4.602   8.414 -0.0837  0.3414  0.1755
 2742SOL    HW119859   0.964   4.579   8.347  2.2533 -1.7186  3.1472
 2742SOL    HW219860   0.906   4.525   8.470  0.5846 -0.9280 -1.6544
 2743SOL     OW19861   0.732   1.053  10.463  0.4970  0.6809  0.5476
 2743SOL    HW119862   0.683   0.988  10.413  1.6180  0.1491  0.1225
 2743SOL    HW219863   0.757   1.109  10.390  0.3133  0.8461  0.6122
 2744SOL     OW19864   1.043   4.270   6.451 -0.0651  0.9433  0.3083
 2744SOL    HW119865   0.984   4.282   6.376  0.1957 -0.6188 -0.1552
 2744SOL    HW219866   0.986   4.214   6.503 -0.7043  1.7531  0.4801
 2745SOL     OW19867   2.534   0.610   4.357 -0.0818 -0.3481 -0.0000
 2745SOL    HW119868   2.541   0.647   4.269 -0.7422 -1.7670 -0.6465
 2745SOL    HW219869   2.481   0.532   4.340 -1.0877 -0.0389  1.7132
 2746SOL     OW19870   1.350   2.752  16.449 -0.7221 -0.9396  0.2454
 2746SOL    HW119871   1.310   2.668  16.425  1.0240 -1.4477 -0.8874
 2746SOL    HW219872   1.443   2.728  16.452 -0.1789  0.9633 -1.2953
 2747SOL     OW19873   1.817   3.117  14.817  0.3093 -0.2358  0.1645
 2747SOL    HW119874   1.811   3.197  14.765 -2.1365  0.1864  1.0996
 2747SOL    HW219875   1.751   3.069  14.768 -0.0351 -1.7738  2.1369
 2748SOL     OW19876   2.977   3.350   7.028 -0.2721 -0.0177 -0.0500
 2748SOL    HW119877   3.047   3.383   7.083 -1.4833  1.0461  0.8657
 2748SOL    HW219878   2.977   3.256   7.044 -0.3259 -0.0450 -0.2060
 2749SOL     OW19879   2.134   3.041   4.027  0.4363  0.5438  0.0433
 2749SOL    HW119880   2.189   2.974   3.987 -2.6841 -1.2563 -1.3080
 2749SOL    HW219881   2.059   2.985   4.047  0.7042 -0.0050 -0.4977
 2750SOL     OW19882   2.655   1.763   3.875 -0.5091 -0.3903  0.6027
 2750SOL    HW119883   2.607   1.820   3.934 -1.6624 -0.3047 -0.4090
 2750SOL    HW219884   2.744   1.790   3.897 -0.1297 -1.2020  0.0868
 2751SOL     OW19885   2.238   2.907  13.056  0.1174 -0.5227  0.3998
 2751SOL    HW119886   2.149   2.870  13.058 -0.1517  0.0892  0.0489
 2751SOL    HW219887   2.227   2.955  13.138 -1.0330  0.0278 -0.0696
 2752SOL     OW19888   2.275   2.798   6.267  0.3024  0.2737 -0.3978
 2752SOL    HW119889   2.238   2.855   6.199  2.6888  0.9777 -1.0897
 2752SOL    HW219890   2.308   2.863   6.328 -0.2612  0.8797 -0.7341
 2753SOL     OW19891   0.104   0.430   7.815  0.1091  0.1218 -0.0520
 2753SOL    HW119892   0.197   0.455   7.823 -0.2824  1.0868  1.6248
 2753SOL    HW219893   0.121   0.338   7.799 -2.9442 -0.5167  0.3681
 2754SOL     OW19894   1.194   2.819   4.518 -0.3053 -0.3475  0.1692
 2754SOL    HW119895   1.127   2.887   4.515 -0.2854 -0.2911  0.8817
 2754SOL    HW219896   1.277   2.867   4.523  0.2627 -0.9781 -3.3743
 2755SOL     OW19897   1.916   3.599   7.254 -0.1277  0.0168 -0.1707
 2755SOL    HW119898   1.935   3.690   7.229  0.4727 -0.6130 -2.0651
 2755SOL    HW219899   2.000   3.579   7.296 -0.7762 -0.3173  0.9537
 2756SOL     OW19900   4.338   2.463   7.656 -0.0256  0.5644  0.5293
 2756SOL    HW119901   4.307   2.487   7.568 -0.5876 -0.1785  0.5306
 2756SOL    HW219902   4.282   2.386   7.664 -0.8096  0.9555 -1.0075
 2757SOL     OW19903   4.529   2.725   2.371 -0.1735 -0.4054 -0.1309
 2757SOL    HW119904   4.487   2.744   2.287 -1.3914 -1.6947  0.1964
 2757SOL    HW219905   4.591   2.656   2.348 -0.3154  0.5955 -3.4722
 2758SOL     OW19906   3.762   2.230  14.215 -0.5652 -0.9591  0.5146
 2758SOL    HW119907   3.748   2.162  14.149 -0.3857 -2.2776  1.8468
 2758SOL    HW219908   3.690   2.285  14.183  0.0817  0.2314  1.1004
 2759SOL     OW19909   0.942   1.609   5.909 -0.1650 -0.5796  0.5855
 2759SOL    HW119910   0.881   1.678   5.934  1.5650  0.5144  1.7485
 2759SOL    HW219911   1.007   1.621   5.978 -0.9949  0.5247  1.1777
 2760SOL     OW19912   0.412   4.116   4.196  0.4950  0.1084 -0.3744
 2760SOL    HW119913   0.320   4.114   4.170 -0.0650 -0.2139  1.6089
 2760SOL    HW219914   0.408   4.049   4.263 -1.5346  1.2584  0.6501
 2761SOL     OW19915   3.582   3.803  16.342  0.4706 -0.1195  0.1390
 2761SOL    HW119916   3.658   3.752  16.315  0.2096  0.0231 -0.8944
 2761SOL    HW219917   3.633   3.884  16.352  2.8725 -1.6455  0.2957
 2762SOL     OW19918   2.652   2.561   7.239 -0.2933 -0.1013 -0.6863
 2762SOL    HW119919   2.570   2.575   7.191 -0.7377 -0.3956 -0.0213
 2762SOL    HW219920   2.629   2.496   7.306  0.8379 -0.2001 -0.3968
 2763SOL     OW19921   1.671   0.723   9.795 -0.3884  0.3505 -0.1379
 2763SOL    HW119922   1.580   0.704   9.773  0.7468 -0.0105 -4.5858
 2763SOL    HW219923   1.698   0.636   9.822  1.1997  1.2720  1.2911
 2764SOL     OW19924   2.683   1.054   8.650  0.2583  0.1842 -0.2096
 2764SOL    HW119925   2.761   1.077   8.700 -1.5245  1.8732  1.8090
 2764SOL    HW219926   2.675   0.958   8.647  1.3400  0.1379 -2.0385
 2765SOL     OW19927   2.857   3.618   5.722 -0.5472  0.7638  0.0955
 2765SOL    HW119928   2.877   3.655   5.636  0.1390  0.2725  0.0436
 2765SOL    HW219929   2.842   3.533   5.681  0.9039 -0.0925  1.3303
 2766SOL     OW19930   0.042   0.923   6.557 -0.2785  0.2081 -0.0046
 2766SOL    HW119931   4.728   0.844   6.582 -0.3139 -0.6253 -2.7693
 2766SOL    HW219932   0.012   0.931   6.467 -2.4539  5.4651  1.1558
 2767SOL     OW19933   1.277   2.727   1.926 -0.0084 -0.1016 -0.2743
 2767SOL    HW119934   1.264   2.637   1.955  0.1703 -0.5251 -1.5170
 2767SOL    HW219935   1.190   2.766   1.911 -0.3257 -1.1526 -1.1034
 2768SOL     OW19936   3.097   0.896   2.400 -0.2823 -0.2171 -0.0396
 2768SOL    HW119937   3.072   0.936   2.316 -1.7145  1.8162  1.3771
 2768SOL    HW219938   3.050   0.814   2.384 -0.4087 -0.0860 -0.3489
 2769SOL     OW19939   0.697   0.031  17.536  0.6107  0.1317 -0.7228
 2769SOL    HW119940   0.721   0.069  17.621  0.8838  0.7254 -1.0645
 2769SOL    HW219941   0.653   4.688  17.571  2.9854 -0.4988  0.8649
 2770SOL     OW19942   0.195   4.659  16.415 -0.0260 -0.2203 -0.2808
 2770SOL    HW119943   0.222   4.660  16.507 -1.0871  0.4715  0.0228
 2770SOL    HW219944   0.143   4.578  16.412  1.8940 -1.3866 -2.0589
 2771SOL     OW19945   2.801   4.605   5.646 -0.0910  0.2743 -0.0547
 2771SOL    HW119946   2.823   4.603   5.553 -0.6391  1.3474 -0.2093
 2771SOL    HW219947   2.788   4.510   5.652  2.2437 -0.0062  0.7384
 2772SOL     OW19948   0.372   1.660   7.552  0.0954 -0.0004 -0.0278
 2772SOL    HW119949   0.290   1.620   7.582  0.1744  1.0019  1.5159
 2772SOL    HW219950   0.426   1.585   7.526 -0.3277 -0.1007 -0.6234
 2773SOL     OW19951   1.551   0.077   2.580 -0.4821 -0.3650 -0.2374
 2773SOL    HW119952   1.488   0.017   2.540  0.3074  0.9395 -3.4245
 2773SOL    HW219953   1.627   0.029   2.548  0.1106  0.5597 -0.1889
 2774SOL     OW19954   0.086   2.789   6.705  0.5771 -0.0644 -0.2778
 2774SOL    HW119955   0.141   2.835   6.769  0.7232  1.7534 -1.6973
 2774SOL    HW219956   0.139   2.812   6.628 -0.8928 -0.8435 -1.5195
 2775SOL     OW19957   4.189   1.186  13.342  0.4626  0.1975 -0.3066
 2775SOL    HW119958   4.197   1.269  13.388 -0.2083 -1.2560  2.4615
 2775SOL    HW219959   4.094   1.173  13.342  0.7895 -2.3853  1.1752
 2776SOL     OW19960   3.072   4.265   5.484  0.0238 -0.1459  0.2179
 2776SOL    HW119961   3.097   4.318   5.559 -0.7012 -0.3904  0.6273
 2776SOL    HW219962   3.044   4.187   5.531  0.2439 -0.7493 -0.6421
 2777SOL     OW19963   4.098   0.111  13.789  0.1836  0.0929  0.2118
 2777SOL    HW119964   4.100   0.169  13.864  1.1781  2.1827 -1.4269
 2777SOL    HW219965   4.127   0.169  13.719 -1.6958  0.2974 -0.3932
 2778SOL     OW19966   0.040   0.253   3.876 -0.0879 -0.1838  0.3135
 2778SOL    HW119967   0.042   0.331   3.932  2.5039 -0.4793  0.6464
 2778SOL    HW219968   0.017   0.288   3.790  3.0885 -0.8896 -0.8287
 2779SOL     OW19969   4.577   0.070   3.990  0.3530 -0.1155  0.1124
 2779SOL    HW119970   4.640   0.140   3.971 -2.9657  1.9719 -3.1965
 2779SOL    HW219971   4.568   0.020   3.909  1.5167  1.6391 -1.0916
 2780SOL     OW19972   2.384   0.591   7.695 -0.2542  0.7636 -0.0499
 2780SOL    HW119973   2.343   0.669   7.731 -0.5599 -0.4028  2.1569
 2780SOL    HW219974   2.450   0.569   7.761 -2.1081 -0.2120  1.4677
 2781SOL     OW19975   0.337   4.076   9.262  0.1498 -0.1009  0.4397
 2781SOL    HW119976   0.401   4.006   9.247 -0.8546 -0.6393 -1.2899
 2781SOL    HW219977   0.308   4.088   9.172 -0.0302 -0.2298  0.4829
 2782SOL     OW19978   1.064   3.564   6.172 -0.2050 -0.1496 -0.2373
 2782SOL    HW119979   1.159   3.559   6.177 -0.2586 -0.2592  0.8050
 2782SOL    HW219980   1.059   3.596   6.082  1.9956  1.1019  0.1019
 2783SOL     OW19981   2.184   3.057  14.670 -0.0561  0.4453  0.4743
 2783SOL    HW119982   2.192   3.078  14.763  1.1870 -0.5062  0.5808
 2783SOL    HW219983   2.099   3.014  14.666  0.2203  0.0362 -0.9032
 2784SOL     OW19984   4.600   3.144   4.584  0.0456 -0.0523  0.6715
 2784SOL    HW119985   4.560   3.121   4.500 -0.2933  2.8842 -0.0000
 2784SOL    HW219986   4.688   3.111   4.567  0.6002  1.5292  0.4720
 2785SOL     OW19987   1.422   3.493   2.518  0.5206  0.1741 -0.4103
 2785SOL    HW119988   1.491   3.542   2.562  0.5528  2.0833 -2.6068
 2785SOL    HW219989   1.476   3.431   2.468 -1.6680 -1.2003 -1.0995
 2786SOL     OW19990   1.507   3.387   8.450  0.2413  0.2150 -0.3690
 2786SOL    HW119991   1.582   3.406   8.507 -0.5691  0.3116  0.6470
 2786SOL    HW219992   1.441   3.442   8.491  0.9074  0.2134  0.7069
 2787SOL     OW19993   3.207   4.209   7.937 -0.0317  0.2156  0.6561
 2787SOL    HW119994   3.205   4.277   7.870  0.1526 -0.6683 -0.2455
 2787SOL    HW219995   3.212   4.132   7.880 -1.0943  0.4770  0.1992
 2788SOL     OW19996   2.226   3.539   4.102  0.2971  0.1833  0.1596
 2788SOL    HW119997   2.153   3.535   4.165  0.9725 -1.5067  0.8355
 2788SOL    HW219998   2.226   3.447   4.075 -1.6982  0.6194 -1.3410
 2789SOL     OW19999   0.721   0.417   0.327 -0.4039 -0.2888  0.1717
 2789SOL    HW120000   0.761   0.503   0.342  1.4879 -1.2799  0.7673
 2789SOL    HW220001   0.668   0.403   0.405 -2.8240 -2.8365 -1.9365
 2790SOL     OW20002   4.334   1.796  14.637 -0.5050 -0.0213  0.3577
 2790SOL    HW120003   4.349   1.751  14.720 -0.9281 -1.5898 -0.4301
 2790SOL    HW220004   4.326   1.885  14.672  1.0548 -0.2258  1.2220
 2791SOL     OW20005   3.699   0.295  12.230  0.6426 -0.1801 -0.0581
 2791SOL    HW120006   3.749   0.215  12.245 -1.0491 -1.7001 -2.4295
 2791SOL    HW220007   3.766   0.363  12.236  0.8379 -0.3123 -0.7843
 2792SOL     OW20008   1.895   3.472   2.311  0.5268  0.2997 -0.4955
 2792SOL    HW120009   1.887   3.429   2.396 -1.5500  0.5371 -0.5831
 2792SOL    HW220010   1.801   3.479   2.294  0.2632 -0.0624  0.8026
 2793SOL     OW20011   4.004   2.280   3.255  0.1794  0.0316  0.5930
 2793SOL    HW120012   4.010   2.374   3.266 -1.1219  0.2838 -0.8596
 2793SOL    HW220013   3.988   2.282   3.161 -2.4399  2.4619  1.0940
 2794SOL     OW20014   3.804   0.110   2.288  0.1251 -0.8657  0.2010
 2794SOL    HW120015   3.814   0.016   2.275  0.7937 -0.8713  0.7636
 2794SOL    HW220016   3.708   0.115   2.290  0.4135  4.7908  0.5208
 2795SOL     OW20017   3.715   0.516  10.591  0.0863 -0.0647 -0.6689
 2795SOL    HW120018   3.731   0.422  10.576 -1.5582 -0.2024 -1.4995
 2795SOL    HW220019   3.766   0.554  10.519 -0.9144  0.8550 -0.8794
 2796SOL     OW20020   0.172   4.113   5.853 -0.3418 -0.2966 -0.2473
 2796SOL    HW120021   0.212   4.161   5.925  0.2181 -2.8342  1.1373
 2796SOL    HW220022   0.209   4.161   5.779  1.2958 -0.8027  0.2317
 2797SOL     OW20023   2.252   2.509   2.607 -0.1754  0.5084 -0.3539
 2797SOL    HW120024   2.202   2.581   2.645  1.9161  0.3395  2.7004
 2797SOL    HW220025   2.337   2.546   2.631  0.0972 -0.9205  0.8839
 2798SOL     OW20026   1.385   4.114   8.613  0.1765  0.3904 -0.2093
 2798SOL    HW120027   1.338   4.089   8.692  0.7220 -2.4329 -0.7815
 2798SOL    HW220028   1.464   4.159   8.644  0.5901 -0.0560 -0.6026
 2799SOL     OW20029   3.260   3.468  14.154 -0.3430  0.5692 -0.2273
 2799SOL    HW120030   3.286   3.505  14.239 -2.7465  3.5252 -0.7938
 2799SOL    HW220031   3.175   3.435  14.181 -0.3212  1.0207  0.3922
 2800SOL     OW20032   0.545   1.361  13.272  0.4660 -0.0086 -0.0252
 2800SOL    HW120033   0.513   1.392  13.357 -1.0797 -0.2369 -0.5220
 2800SOL    HW220034   0.614   1.424  13.251 -0.3506  1.5426  1.9250
 2801SOL     OW20035   3.615   0.480   9.042 -0.1883  0.2822 -0.3776
 2801SOL    HW120036   3.702   0.482   9.002 -0.1632 -0.3500 -0.3480
 2801SOL    HW220037   3.564   0.444   8.970  0.2934  1.1125 -1.1313
 2802SOL     OW20038   1.583   1.217   2.978 -0.2149 -0.1344  0.2288
 2802SOL    HW120039   1.611   1.291   2.925 -0.6326  0.1666  0.4241
 2802SOL    HW220040   1.664   1.211   3.029 -1.3372  0.7744  2.1233
 2803SOL     OW20041   4.309   4.371  13.126  0.3166 -0.2093 -0.2509
 2803SOL    HW120042   4.256   4.398  13.202  0.9432 -0.5541  0.3049
 2803SOL    HW220043   4.262   4.297  13.089 -0.3844  0.7611 -1.2972
 2804SOL     OW20044   3.489   0.490  14.398  0.1309  0.3786  0.1726
 2804SOL    HW120045   3.450   0.527  14.478 -0.9174  1.4932 -0.8559
 2804SOL    HW220046   3.407   0.484  14.349  1.5720  1.4435 -2.3225
 2805SOL     OW20047   4.566   0.455   8.244  0.2322  0.2748 -0.5854
 2805SOL    HW120048   4.650   0.430   8.205 -0.1896 -0.3072 -1.1169
 2805SOL    HW220049   4.585   0.545   8.271  1.3125  1.0853 -3.9876
 2806SOL     OW20050   0.661   3.499   1.609  0.4553  0.5337  0.1604
 2806SOL    HW120051   0.708   3.497   1.525 -1.2428  1.2971 -0.8082
 2806SOL    HW220052   0.682   3.580   1.655  1.0804  2.2363 -3.1193
 2807SOL     OW20053   3.109   0.060   6.965  0.1205  0.9485  0.2409
 2807SOL    HW120054   3.145   0.149   6.969 -0.4198  1.0247  3.6056
 2807SOL    HW220055   3.029   0.075   7.016 -1.6721 -0.8596 -2.0445
 2808SOL     OW20056   2.350   3.721   2.763 -0.5356 -0.0064 -0.2773
 2808SOL    HW120057   2.433   3.687   2.730 -1.3609 -0.7528 -1.5986
 2808SOL    HW220058   2.338   3.798   2.707  0.1053  0.5848  0.3965
 2809SOL     OW20059   3.565   1.076   0.200  0.0995  0.0428  0.4004
 2809SOL    HW120060   3.618   1.034   0.268 -1.1017  0.2591  1.4566
 2809SOL    HW220061   3.501   1.126   0.250 -2.4134 -1.6915 -1.0138
 2810SOL     OW20062   3.445   3.530   1.494 -0.2265  0.0689 -0.4680
 2810SOL    HW120063   3.536   3.556   1.509 -0.2204 -0.7097  0.8135
 2810SOL    HW220064   3.420   3.476   1.569  1.5670  0.9618  0.7662
 2811SOL     OW20065   0.312   1.432   8.811  0.1532  0.3941  0.2828
 2811SOL    HW120066   0.380   1.474   8.758 -0.7273  0.2545 -0.9537
 2811SOL    HW220067   0.364   1.405   8.886  1.6943 -1.5925 -1.5256
 2812SOL     OW20068   0.923   1.176   7.606 -0.2609 -0.1419 -0.4278
 2812SOL    HW120069   0.973   1.210   7.680  0.6137 -2.8608  0.2506
 2812SOL    HW220070   0.898   1.086   7.630  0.5912 -0.6619 -1.4742
 2813SOL     OW20071   3.498   4.561   1.732 -1.1791 -0.4223 -0.0799
 2813SOL    HW120072   3.554   4.494   1.772  1.0736  0.9713 -0.9313
 2813SOL    HW220073   3.558   4.636   1.731 -2.0886  0.2905 -0.7559
 2814SOL     OW20074   2.681   1.578   8.348  0.5504 -0.4738  0.2569
 2814SOL    HW120075   2.718   1.660   8.314  0.3799  0.6002  2.6152
 2814SOL    HW220076   2.722   1.576   8.435  0.8255 -2.4709  0.0640
 2815SOL     OW20077   2.421   2.306   3.562 -0.2971  0.1677 -0.8428
 2815SOL    HW120078   2.435   2.234   3.499 -2.6704  0.1027 -1.3045
 2815SOL    HW220079   2.489   2.365   3.530  0.9118 -2.0052 -2.2824
 2816SOL     OW20080   2.573   4.027   5.517  0.2878 -0.7045 -0.2140
 2816SOL    HW120081   2.551   4.120   5.517  2.0277 -0.2950 -0.2994
 2816SOL    HW220082   2.514   3.995   5.585  0.8919  3.9914  2.5381
 2817SOL     OW20083   3.482   0.545   4.822  0.0646 -0.4345 -0.1230
 2817SOL    HW120084   3.415   0.612   4.835  0.1097 -0.1709 -1.1993
 2817SOL    HW220085   3.468   0.473   4.883 -0.1395 -0.7496 -0.5367
 2818SOL     OW20086   0.141   2.335   1.296  0.1390 -0.0210 -0.2791
 2818SOL    HW120087   0.113   2.427   1.296  0.6790  0.1645  2.5326
 2818SOL    HW220088   0.222   2.347   1.346 -1.1509  1.6132  1.4189
 2819SOL     OW20089   0.503   2.199   0.751 -0.3327  0.1371 -0.7022
 2819SOL    HW120090   0.549   2.116   0.758 -1.3902 -0.4978 -1.2074
 2819SOL    HW220091   0.555   2.262   0.801 -0.9227  1.4355 -1.7368
 2820SOL     OW20092   2.873   1.199   9.943 -0.5689 -0.0667  0.2506
 2820SOL    HW120093   2.861   1.160  10.030 -0.6841  2.3759  1.3323
 2820SOL    HW220094   2.792   1.178   9.896  0.7301 -2.0758 -1.1046
 2821SOL     OW20095   1.153   4.280   1.547  0.7681 -0.1840 -0.2506
 2821SOL    HW120096   1.142   4.338   1.472  3.0297 -1.5071 -1.5961
 2821SOL    HW220097   1.074   4.226   1.548 -0.5174  1.7182  0.9253
 2822SOL     OW20098   1.519   1.537   1.554  0.1906  0.2623  0.1547
 2822SOL    HW120099   1.428   1.559   1.570  0.6141  3.0547 -1.3898
 2822SOL    HW220100   1.544   1.485   1.631 -1.3148 -2.2305 -1.0574
 2823SOL     OW20101   2.158   1.651  16.145 -0.1363  0.6195  0.2603
 2823SOL    HW120102   2.159   1.630  16.052 -1.2195 -0.4438  0.4929
 2823SOL    HW220103   2.071   1.690  16.143 -0.1333  0.6962  1.5289
 2824SOL     OW20104   3.392   3.204  15.713 -0.4505 -0.4880  0.0178
 2824SOL    HW120105   3.445   3.279  15.739 -0.4682 -0.1857 -0.8192
 2824SOL    HW220106   3.407   3.208  15.618 -0.7361 -2.5706 -0.1218
 2825SOL     OW20107   4.004   2.193  11.154 -0.1834  0.4778  0.7747
 2825SOL    HW120108   4.078   2.157  11.203 -0.5954  1.2694  1.9850
 2825SOL    HW220109   4.002   2.122  11.090  0.1050  0.6739  0.5457
 2826SOL     OW20110   2.060   1.478   0.772 -0.1790 -0.0008 -0.1195
 2826SOL    HW120111   2.090   1.399   0.727 -2.1911 -1.7793  1.6348
 2826SOL    HW220112   1.966   1.483   0.758  0.0227  1.4543 -0.9115
 2827SOL     OW20113   0.179   2.804   1.123 -0.6596  0.2151 -0.0082
 2827SOL    HW120114   0.182   2.899   1.112 -0.4133  0.2685  0.5130
 2827SOL    HW220115   0.115   2.782   1.055 -1.5185  1.1019  0.5085
 2828SOL     OW20116   4.528   4.210   3.732 -0.0413 -0.4309  0.0157
 2828SOL    HW120117   4.487   4.290   3.766 -0.5094 -2.3300  3.9270
 2828SOL    HW220118   4.612   4.248   3.707 -1.4271  2.6610 -0.0354
 2829SOL     OW20119   3.959   3.046   2.541  0.1042 -0.1682 -0.2088
 2829SOL    HW120120   3.877   3.044   2.492  0.0919  0.3837 -0.2121
 2829SOL    HW220121   4.032   3.063   2.482  0.5306 -1.1466  0.0251
 2830SOL     OW20122   0.795   3.176   8.433  0.0065 -0.5530 -0.3171
 2830SOL    HW120123   0.732   3.242   8.463 -0.3445 -0.3247 -1.5615
 2830SOL    HW220124   0.880   3.217   8.445  0.0958 -0.6355 -0.6894
 2831SOL     OW20125   4.486   2.608  11.199  0.3253  0.4865 -0.6322
 2831SOL    HW120126   4.526   2.561  11.126 -2.3626  0.3504 -2.0561
 2831SOL    HW220127   4.553   2.632  11.263 -0.4670  1.9050 -0.3321
 2832SOL     OW20128   1.817   3.860  14.269 -0.5996 -0.0438 -0.5110
 2832SOL    HW120129   1.843   3.769  14.257 -2.3943 -0.3612 -2.0465
 2832SOL    HW220130   1.816   3.856  14.364 -1.2552 -1.9515 -0.6036
 2833SOL     OW20131   4.054   4.349  15.848  0.0243 -0.5104 -0.4403
 2833SOL    HW120132   4.083   4.280  15.907  1.4970 -0.9253 -1.6339
 2833SOL    HW220133   4.139   4.394  15.841 -0.6367  0.9943  1.2243
 2834SOL     OW20134   1.910   0.044   8.217 -0.0494 -0.0104  0.1011
 2834SOL    HW120135   1.870   0.131   8.213 -1.1299 -0.4295  2.1493
 2834SOL    HW220136   1.976   0.050   8.286  0.1532 -1.7784  0.0610
 2835SOL     OW20137   2.110   1.636  12.242 -0.1191  0.0669 -0.0470
 2835SOL    HW120138   2.119   1.699  12.171  0.4693 -1.5580 -1.4197
 2835SOL    HW220139   2.138   1.560  12.192  0.5974 -0.1571  0.6933
 2836SOL     OW20140   2.759   3.364   6.394  1.1228 -0.1103 -0.3750
 2836SOL    HW120141   2.770   3.372   6.489  0.8916  2.0227 -0.5167
 2836SOL    HW220142   2.806   3.443   6.366 -2.6646  1.7282 -1.5438
 2837SOL     OW20143   1.525   1.226  14.341 -0.1407  0.2056  0.2421
 2837SOL    HW120144   1.558   1.137  14.333  0.8951  0.6868 -0.7012
 2837SOL    HW220145   1.587   1.275  14.287 -2.4223  2.2160 -0.5396
 2838SOL     OW20146   0.132   4.090  15.912 -0.1226  0.6795 -0.0769
 2838SOL    HW120147   0.153   4.156  15.846  0.1323  0.6888  0.0144
 2838SOL    HW220148   0.044   4.118  15.937  0.2482  2.0158 -0.2788
 2839SOL     OW20149   2.713   3.459  14.521 -0.2598 -0.6484  0.3583
 2839SOL    HW120150   2.668   3.482  14.603 -0.9124  1.6146 -0.6462
 2839SOL    HW220151   2.798   3.500  14.510  0.1691 -2.3617 -2.5659
 2840SOL     OW20152   0.580   4.093   4.648  0.2505  0.4954 -0.2054
 2840SOL    HW120153   0.592   4.152   4.574 -0.5828 -0.2749 -0.9606
 2840SOL    HW220154   0.486   4.080   4.659  0.4934 -1.6890 -0.7279
 2841SOL     OW20155   0.143   2.175   9.001 -0.0487  0.0302 -0.2376
 2841SOL    HW120156   0.099   2.257   8.979 -1.3797 -0.1995  1.5431
 2841SOL    HW220157   0.170   2.188   9.092 -0.3386  2.4739 -0.5156
 2842SOL     OW20158   2.147   3.287   6.784  0.0389 -0.2164 -0.2716
 2842SOL    HW120159   2.115   3.316   6.869  1.2779 -2.6852  1.0224
 2842SOL    HW220160   2.085   3.333   6.728  0.5633  1.8501  0.8555
 2843SOL     OW20161   1.786   0.259   1.153  0.2089 -0.3718  0.8989
 2843SOL    HW120162   1.700   0.225   1.179  0.4511 -0.0739  2.1030
 2843SOL    HW220163   1.816   0.249   1.243 -0.1360  1.0656  1.1765
 2844SOL     OW20164   3.042   4.733  13.902  0.1784 -0.4746 -0.2158
 2844SOL    HW120165   3.001   4.676  13.838 -2.0540  0.4031  0.4300
 2844SOL    HW220166   3.036   4.688  13.986  1.7615 -2.8283 -1.3697
 2845SOL     OW20167   0.478   3.995  14.817  0.2551  0.3729 -0.2088
 2845SOL    HW120168   0.450   3.969  14.730  0.3979  0.8170 -0.3912
 2845SOL    HW220169   0.398   4.041  14.844 -0.7786 -1.4837 -0.1452
 2846SOL     OW20170   4.390   1.378  12.302 -0.0455 -0.2504  0.6668
 2846SOL    HW120171   4.349   1.323  12.369  0.5030 -1.1642  0.2453
 2846SOL    HW220172   4.435   1.314  12.247  0.0169  0.8640 -0.5726
 2847SOL     OW20173   4.222   1.528   2.138  0.6919  0.1095 -0.1413
 2847SOL    HW120174   4.286   1.460   2.117  0.4776  0.6526 -2.4987
 2847SOL    HW220175   4.262   1.605   2.098 -0.5318  1.2115  0.7739
 2848SOL     OW20176   1.713   4.130  16.568 -0.2778 -0.1535 -1.0355
 2848SOL    HW120177   1.722   4.047  16.520 -0.4634 -0.5730 -0.3311
 2848SOL    HW220178   1.796   4.127  16.616 -0.5640  0.6832 -0.5010
 2849SOL     OW20179   3.330   0.301   3.854 -0.2229 -0.1568  0.2064
 2849SOL    HW120180   3.327   0.387   3.895  0.8277 -1.2730  2.5940
 2849SOL    HW220181   3.372   0.249   3.922  0.3997  2.0292  1.4920
 2850SOL     OW20182   0.782   1.824   3.509 -0.0413 -0.0943  0.1898
 2850SOL    HW120183   0.800   1.739   3.549 -0.2580 -1.0469 -1.7496
 2850SOL    HW220184   0.869   1.838   3.470 -0.4934 -1.5740 -1.3278
 2851SOL     OW20185   0.191   2.536   0.072  0.3494 -0.6379 -0.1094
 2851SOL    HW120186   0.233   2.454   0.100  0.5504 -0.8046 -0.9197
 2851SOL    HW220187   0.271   2.569   0.031 -2.1108  1.7554 -2.9642
 2852SOL     OW20188   1.886   4.668   2.207 -0.3839 -0.1313  0.5092
 2852SOL    HW120189   1.890   0.016   2.158 -0.0449 -0.6597 -0.3517
 2852SOL    HW220190   1.974   4.655   2.242 -0.4209 -1.0740  0.2374
 2853SOL     OW20191   3.125   1.990   6.940  0.1016 -0.5018 -0.0209
 2853SOL    HW120192   3.102   1.897   6.939  1.5998 -0.8745 -0.1015
 2853SOL    HW220193   3.093   2.005   6.851  0.4134  0.9680  0.1250
 2854SOL     OW20194   2.085   1.212  11.671 -0.0354  0.4463  0.1971
 2854SOL    HW120195   2.021   1.224  11.600 -1.8114  3.2332  2.2621
 2854SOL    HW220196   2.028   1.205  11.747  1.0527  2.1163  1.1803
 2855SOL     OW20197   3.113   4.288   0.728 -0.3640  0.0424 -0.6849
 2855SOL    HW120198   3.177   4.349   0.691  1.9176 -1.5887  0.5399
 2855SOL    HW220199   3.128   4.202   0.689  0.8463  0.5528 -1.3503
 2856SOL     OW20200   4.127   2.596   2.467 -0.0485  0.5657 -0.3466
 2856SOL    HW120201   4.103   2.659   2.399 -0.2410  0.8579 -0.0060
 2856SOL    HW220202   4.056   2.609   2.530  1.1604  1.1876  0.8596
 2857SOL     OW20203   1.385   1.492   3.523  0.2210  0.1652 -0.0425
 2857SOL    HW120204   1.330   1.551   3.472 -1.1473 -0.1144  1.1142
 2857SOL    HW220205   1.441   1.456   3.455  1.0361  0.4001  0.5043
 2858SOL     OW20206   1.350   0.837  13.091 -0.2544 -0.0757 -0.4677
 2858SOL    HW120207   1.293   0.817  13.017 -1.4466  1.9061 -0.0919
 2858SOL    HW220208   1.385   0.924  13.068  0.6062 -0.4075 -0.4012
 2859SOL     OW20209   2.896   1.559   8.088 -0.3264 -0.0493 -0.0386
 2859SOL    HW120210   2.903   1.543   8.182  0.4249  0.2216 -0.0511
 2859SOL    HW220211   2.809   1.599   8.084  0.4203  1.6570  0.8470
 2860SOL     OW20212   0.810   4.661   8.723  0.1922 -0.1807 -0.4576
 2860SOL    HW120213   0.776   4.669   8.812  2.1147  0.9620  0.1604
 2860SOL    HW220214   0.720   4.665   8.692 -0.5246 -2.8048  1.2449
 2861SOL     OW20215   0.392   0.179   3.311  0.4120  0.4592  0.8416
 2861SOL    HW120216   0.477   0.161   3.350  0.1750  0.0486  1.1680
 2861SOL    HW220217   0.370   0.249   3.373  0.4792  0.1113  1.2518
 2862SOL     OW20218   3.385   0.316   3.132  0.4118 -0.0245 -0.1494
 2862SOL    HW120219   3.452   0.248   3.126 -0.0752 -0.6853  1.8746
 2862SOL    HW220220   3.367   0.350   3.044 -2.5527  2.4749  1.4235
 2863SOL     OW20221   4.259   2.592   5.588  0.1588 -0.0191  0.1855
 2863SOL    HW120222   4.250   2.509   5.635 -1.1158  0.0029 -0.0362
 2863SOL    HW220223   4.339   2.624   5.631  2.0012 -0.9810 -2.5352
 2864SOL     OW20224   0.254   1.238   3.586  0.6833 -0.2554 -0.2322
 2864SOL    HW120225   0.158   1.242   3.582  0.6899 -1.2540 -1.6995
 2864SOL    HW220226   0.276   1.145   3.598 -0.8502 -0.6510 -0.4716
 2865SOL     OW20227   0.098   0.235   7.428  0.2081  0.4970 -0.0314
 2865SOL    HW120228   0.170   0.252   7.367  0.0644 -0.0137 -0.3361
 2865SOL    HW220229   0.144   0.209   7.508 -0.9307 -0.5723  0.2691
 2866SOL     OW20230   1.859   4.422  16.946  0.4260  0.7677  0.4694
 2866SOL    HW120231   1.813   4.382  17.020  1.7300 -0.8965  0.3767
 2866SOL    HW220232   1.795   4.491  16.927  0.1833 -0.3530 -2.6829
 2867SOL     OW20233   1.175   3.802   0.534  0.0677 -0.0987  0.3610
 2867SOL    HW120234   1.117   3.778   0.462 -2.5646 -0.3504  2.5819
 2867SOL    HW220235   1.162   3.738   0.604 -0.8751 -0.0369  0.2423
 2868SOL     OW20236   2.086   3.001  13.281 -0.4570  0.3544  0.0492
 2868SOL    HW120237   2.017   3.064  13.300 -1.5669 -0.6529 -0.6632
 2868SOL    HW220238   2.045   2.917  13.262  0.4209  0.1611 -1.0021
 2869SOL     OW20239   2.924   2.239   2.737  0.6618  0.1000  0.1030
 2869SOL    HW120240   2.828   2.239   2.727  0.6910 -1.3594 -0.1006
 2869SOL    HW220241   2.940   2.163   2.793  1.3009  1.5865  1.9540
 2870SOL     OW20242   4.316   3.497   2.119  0.0591  0.0880 -0.4483
 2870SOL    HW120243   4.337   3.580   2.163  0.5682 -0.9718  1.3161
 2870SOL    HW220244   4.388   3.512   2.057  0.4431 -0.4599 -0.1358
 2871SOL     OW20245   4.313   0.941  17.260 -0.1003 -0.6451 -0.1803
 2871SOL    HW120246   4.271   0.861  17.294 -0.6056 -0.2678  0.0959
 2871SOL    HW220247   4.243   1.000  17.290 -1.0040 -1.0040 -1.6207
 2872SOL     OW20248   4.412   2.989   4.075 -0.4425 -0.2645  0.1157
 2872SOL    HW120249   4.370   3.018   3.994 -0.6126  1.3772  0.7942
 2872SOL    HW220250   4.337   3.008   4.131  0.5197  0.5256  1.1231
 2873SOL     OW20251   3.783   3.395   9.923 -0.6756  0.9835  0.3856
 2873SOL    HW120252   3.771   3.300   9.929  1.4363  0.4442 -4.1669
 2873SOL    HW220253   3.693   3.424   9.939 -0.3075  1.9891  0.6575
 2874SOL     OW20254   2.546   3.801   3.402  0.5205 -0.3809 -0.0178
 2874SOL    HW120255   2.546   3.724   3.459  0.7392  0.6076  1.3066
 2874SOL    HW220256   2.605   3.857   3.453 -2.7740  2.6178  0.4747
 2875SOL     OW20257   1.883   4.611  10.476 -0.0260 -0.0678  0.3015
 2875SOL    HW120258   1.895   4.685  10.417 -1.8339 -2.3482 -2.8974
 2875SOL    HW220259   1.906   4.536  10.420  0.2470 -2.0880  3.1011
 2876SOL     OW20260   1.240   2.601  16.092 -0.6097  0.3192 -0.1927
 2876SOL    HW120261   1.322   2.602  16.043 -0.7429 -2.8958 -0.4916
 2876SOL    HW220262   1.274   2.574  16.177  2.8163 -0.3571 -1.7745
 2877SOL     OW20263   0.592   0.311   9.856  0.1140 -0.1577  0.0076
 2877SOL    HW120264   0.560   0.224   9.878 -0.6668  0.0011 -0.5253
 2877SOL    HW220265   0.680   0.299   9.892  0.0063 -0.3315  0.2132
 2878SOL     OW20266   3.975   2.799  12.695  0.2967 -0.7351  0.6211
 2878SOL    HW120267   3.964   2.765  12.783 -0.6262 -2.9659 -0.3599
 2878SOL    HW220268   3.963   2.891  12.718 -0.9896 -0.2567 -1.9503
 2879SOL     OW20269   3.016   2.058   6.098 -0.3531 -0.2944  0.3933
 2879SOL    HW120270   2.986   2.003   6.025 -1.6260  1.0019 -0.0609
 2879SOL    HW220271   2.977   2.142   6.076 -1.9159 -1.7506 -2.4036
 2880SOL     OW20272   1.132   1.891  12.084  0.2464 -0.4997 -0.2663
 2880SOL    HW120273   1.127   1.834  12.161  0.1230 -1.1271 -0.7415
 2880SOL    HW220274   1.223   1.877  12.059 -0.1615 -0.5654 -1.7241
 2881SOL     OW20275   1.548   3.224   9.169 -0.8838  0.6651  0.1331
 2881SOL    HW120276   1.528   3.261   9.083  0.4263  1.7185  0.2858
 2881SOL    HW220277   1.622   3.277   9.197  0.5340 -1.4188  0.3217
 2882SOL     OW20278   0.286   2.997  11.736 -0.2205 -0.1548  0.2147
 2882SOL    HW120279   0.363   3.046  11.708 -2.0551  3.0223  0.7880
 2882SOL    HW220280   0.236   3.057  11.791 -3.7166 -2.4909 -0.3607
 2883SOL     OW20281   1.422   4.064  16.086  0.5375 -0.1820 -0.0011
 2883SOL    HW120282   1.345   4.023  16.047 -0.3298 -1.5608  3.1734
 2883SOL    HW220283   1.476   3.985  16.095  1.1652  0.0923 -1.4262
 2884SOL     OW20284   1.699   0.077  12.640 -0.1287 -0.2219  0.1844
 2884SOL    HW120285   1.658   0.081  12.727 -1.0586  1.8522 -0.3342
 2884SOL    HW220286   1.623   0.049  12.588 -0.7857  0.7870  0.5908
 2885SOL     OW20287   1.657   2.683   8.613  0.1950 -0.4644  0.1122
 2885SOL    HW120288   1.618   2.621   8.675  1.0201 -1.4263 -0.3315
 2885SOL    HW220289   1.603   2.670   8.535  2.9127 -0.9667 -1.6805
 2886SOL     OW20290   2.506   1.191   2.182 -0.2892 -0.0466  0.4495
 2886SOL    HW120291   2.528   1.249   2.255  1.2460  1.3514 -1.1242
 2886SOL    HW220292   2.414   1.213   2.168 -0.2693  0.3519  0.9607
 2887SOL     OW20293   3.595   1.325   2.120 -0.1231  0.3214  0.2870
 2887SOL    HW120294   3.630   1.414   2.113 -0.9793  0.7340  1.1914
 2887SOL    HW220295   3.540   1.349   2.195 -2.5008 -4.2148 -0.0002
 2888SOL     OW20296   1.684   3.379   9.465  0.0072 -0.1671  0.1441
 2888SOL    HW120297   1.675   3.456   9.522  1.3069  0.3454 -0.3325
 2888SOL    HW220298   1.629   3.312   9.504  1.2732  0.2904  2.7433
 2889SOL     OW20299   1.878   2.951   3.317  0.4773 -0.1338 -0.4131
 2889SOL    HW120300   1.796   2.901   3.318  0.3146  0.1685  0.8842
 2889SOL    HW220301   1.932   2.883   3.276  1.4496 -0.4310  1.3667
 2890SOL     OW20302   0.017   2.163   5.611 -0.9248 -0.1319 -0.1012
 2890SOL    HW120303   4.678   2.223   5.601 -0.3467  0.3302 -1.7046
 2890SOL    HW220304   0.049   2.165   5.520  2.5112 -1.3690  1.0595
 2891SOL     OW20305   3.935   3.330   4.241 -0.8248 -0.0018  0.2328
 2891SOL    HW120306   3.854   3.306   4.196 -0.4168  1.2574 -1.1601
 2891SOL    HW220307   3.975   3.247   4.268 -1.2275  0.3190  1.7969
 2892SOL     OW20308   2.449   4.542   7.506  0.1707  0.0866  0.3377
 2892SOL    HW120309   2.386   4.476   7.476 -2.5970  2.7105  0.3113
 2892SOL    HW220310   2.446   4.537   7.602  1.5795 -0.5871  0.3402
 2893SOL     OW20311   4.597   0.467  12.512 -0.4463  0.0183 -0.1048
 2893SOL    HW120312   4.575   0.532  12.579 -0.8133  1.1780 -1.3546
 2893SOL    HW220313   4.692   0.479  12.517 -0.4799  0.5445 -0.8509
 2894SOL     OW20314   1.442   3.358  13.789 -0.1775 -0.1703 -0.3363
 2894SOL    HW120315   1.507   3.311  13.841  0.5274 -1.3320 -2.2480
 2894SOL    HW220316   1.413   3.287  13.731 -0.8263  0.5158 -0.8447
 2895SOL     OW20317   0.340   3.676   3.861 -0.0642  0.1537  0.2016
 2895SOL    HW120318   0.299   3.596   3.893 -0.1495  0.3787  0.6484
 2895SOL    HW220319   0.368   3.721   3.940  0.2213 -0.3572  0.3952
 2896SOL     OW20320   0.700   3.783   6.922  0.0815 -0.4599  0.7798
 2896SOL    HW120321   0.662   3.797   6.836 -0.5185 -0.1610  1.0885
 2896SOL    HW220322   0.774   3.843   6.917 -0.3334  0.1233  1.3643
 2897SOL     OW20323   2.582   0.519   4.746 -0.3938 -0.0896  0.1118
 2897SOL    HW120324   2.539   0.537   4.663  0.9296 -0.9901 -0.7633
 2897SOL    HW220325   2.618   0.604   4.771 -2.1198  1.1472 -1.6429
 2898SOL     OW20326   2.970   3.866   6.491  0.5703 -0.1890 -0.1817
 2898SOL    HW120327   3.008   3.795   6.541  0.8098  0.6884  0.8941
 2898SOL    HW220328   3.044   3.900   6.440 -0.1653  0.3058 -0.9268
 2899SOL     OW20329   0.168   1.503   7.027  0.1926 -0.0561 -0.2324
 2899SOL    HW120330   0.135   1.593   7.037  1.7768  0.6184 -1.0570
 2899SOL    HW220331   0.117   1.482   6.949 -0.7490  1.2215  0.0328
 2900SOL     OW20332   3.551   2.921   6.900 -0.4747 -0.5922  0.1485
 2900SOL    HW120333   3.622   2.914   6.836  0.0036 -0.0380  0.6234
 2900SOL    HW220334   3.465   2.921   6.858 -0.3531 -0.0612 -0.0948
 2901SOL     OW20335   2.214   2.320   7.881  0.7766  0.1418  0.0104
 2901SOL    HW120336   2.151   2.286   7.817 -1.6041  2.6346  1.0096
 2901SOL    HW220337   2.152   2.320   7.954  1.1019 -0.9974  0.2991
 2902SOL     OW20338   4.103   2.921   4.593  0.2844  0.6887 -0.1940
 2902SOL    HW120339   4.119   2.874   4.512 -0.6183 -0.3792  0.2549
 2902SOL    HW220340   4.014   2.892   4.613  1.4147 -1.2695  2.0788
 2903SOL     OW20341   3.818   0.930   7.796  0.4152 -0.3418  0.3878
 2903SOL    HW120342   3.779   0.853   7.755 -2.8409  0.4901  1.8732
 2903SOL    HW220343   3.819   0.980   7.715 -1.3807 -0.8083  0.0839
 2904SOL     OW20344   4.482   0.625  16.571  0.3322 -0.4355 -0.6381
 2904SOL    HW120345   4.458   0.718  16.564  0.1861 -0.6062 -2.4652
 2904SOL    HW220346   4.398   0.583  16.551 -0.5370  0.8682  0.2418
 2905SOL     OW20347   0.375   2.375   9.121  0.1117 -0.1035  0.0616
 2905SOL    HW120348   0.360   2.362   9.028  2.0617  1.2536 -0.4468
 2905SOL    HW220349   0.467   2.349   9.125 -0.3475 -1.7532 -0.1901
 2906SOL     OW20350   3.599   1.675  17.193  0.6492  0.2917  0.4541
 2906SOL    HW120351   3.584   1.686  17.099 -1.5761  0.4474  0.8318
 2906SOL    HW220352   3.649   1.593  17.193 -0.3231 -0.3035  1.8288
 2907SOL     OW20353   0.348   2.492   4.928  0.1827 -0.5846  0.1212
 2907SOL    HW120354   0.406   2.552   4.880 -1.3211 -1.5866 -2.9792
 2907SOL    HW220355   0.284   2.561   4.941 -2.0356 -2.8345  1.0520
 2908SOL     OW20356   3.145   2.978   3.798  0.1147  0.6026  0.6140
 2908SOL    HW120357   3.072   2.920   3.773  0.7605  0.2117 -0.3903
 2908SOL    HW220358   3.209   2.916   3.833 -0.2740  1.1033  2.2013
 2909SOL     OW20359   4.337   3.139   7.582  0.8939 -0.8451  0.4464
 2909SOL    HW120360   4.258   3.187   7.608 -0.0313 -0.9981 -2.0733
 2909SOL    HW220361   4.366   3.105   7.666  2.6023 -2.8134 -0.9470
 2910SOL     OW20362   1.481   3.542   4.943  0.1642  0.4664  0.1544
 2910SOL    HW120363   1.418   3.588   4.999  0.5962  0.8295  0.3436
 2910SOL    HW220364   1.429   3.533   4.864 -0.7074  1.0963  0.6510
 2911SOL     OW20365   2.290   1.174   9.852 -0.0771  0.2558 -0.1253
 2911SOL    HW120366   2.214   1.224   9.820 -0.6577  1.7029  3.5098
 2911SOL    HW220367   2.269   1.085   9.826  1.3239  0.0119 -0.3982
 2912SOL     OW20368   2.065   0.545   7.199 -0.3140  0.5035  0.0491
 2912SOL    HW120369   2.100   0.467   7.156  0.0010  0.8141 -0.2716
 2912SOL    HW220370   2.040   0.510   7.284  1.1957  1.6432  0.9712
 2913SOL     OW20371   2.067   3.022   7.766  0.2120  0.4373 -0.1533
 2913SOL    HW120372   2.079   3.043   7.673 -0.9981  0.1597 -0.3667
 2913SOL    HW220373   1.974   3.002   7.774  0.4574 -1.3042 -1.6281
 2914SOL     OW20374   2.465   1.389   7.012  0.2427  0.2673  0.1510
 2914SOL    HW120375   2.504   1.339   7.084  1.7736 -3.2082 -3.1150
 2914SOL    HW220376   2.529   1.449   6.973 -1.1067  1.0790 -0.8089
 2915SOL     OW20377   4.627   0.167   7.940 -0.1181 -0.1685 -0.5149
 2915SOL    HW120378   4.721   0.179   7.950 -0.1813  0.2792 -0.4321
 2915SOL    HW220379   4.603   0.198   7.852 -1.0602 -1.1625 -0.6086
 2916SOL     OW20380   2.798   2.013   0.013 -0.2907  0.2073 -0.1449
 2916SOL    HW120381   2.891   2.018   0.036 -0.1372  0.6172 -0.8714
 2916SOL    HW220382   2.778   2.103   0.040 -0.6886  0.0437  0.0968
 2917SOL     OW20383   2.742   1.083   2.105 -0.7871  0.4829 -0.3496
 2917SOL    HW120384   2.670   1.144   2.122 -0.8923  0.5652 -1.0700
 2917SOL    HW220385   2.744   1.101   2.011 -2.1064  0.8676 -0.2972
 2918SOL     OW20386   1.863   1.646  13.343  0.1772  1.0192 -0.0180
 2918SOL    HW120387   1.857   1.552  13.358  0.8911  1.3397  2.1723
 2918SOL    HW220388   1.912   1.666  13.422  0.6620  0.0169 -0.0696
 2919SOL     OW20389   1.143   1.412  12.418  0.2954  0.0113  0.5927
 2919SOL    HW120390   1.104   1.458  12.343  0.0636 -0.5685  0.3545
 2919SOL    HW220391   1.232   1.446  12.418  1.2724 -2.5564  1.7122
 2920SOL     OW20392   2.545   4.178   5.082 -0.2082 -0.1581 -0.5989
 2920SOL    HW120393   2.633   4.180   5.044 -0.4770 -1.8090 -1.3145
 2920SOL    HW220394   2.555   4.111   5.149  1.7773 -0.1118 -0.8440
 2921SOL     OW20395   0.280   3.340   6.760 -0.0735  0.2792 -0.2865
 2921SOL    HW120396   0.354   3.398   6.739 -0.1224  0.5267  0.2315
 2921SOL    HW220397   0.208   3.400   6.742  0.3154 -0.0699 -3.0535
 2922SOL     OW20398   3.829   4.547   9.947 -0.3204  0.5668  0.4343
 2922SOL    HW120399   3.795   4.627   9.907 -0.6460 -0.6774 -1.7795
 2922SOL    HW220400   3.804   4.480   9.884  1.6182 -0.1352  0.4218
 2923SOL     OW20401   1.499   1.116   8.569 -0.7305 -0.0897 -0.5283
 2923SOL    HW120402   1.418   1.066   8.575 -1.0548  0.2792 -1.9377
 2923SOL    HW220403   1.540   1.123   8.655 -0.3670 -1.1806 -0.6126
 2924SOL     OW20404   1.762   2.501   8.232  0.7058  0.1523  0.1574
 2924SOL    HW120405   1.738   2.409   8.248 -0.8787  0.4250 -0.6548
 2924SOL    HW220406   1.696   2.513   8.163 -2.3673 -2.1007  2.7006
 2925SOL     OW20407   2.974   3.532   8.558  0.2888  0.3950  0.3568
 2925SOL    HW120408   2.900   3.540   8.619 -0.9082  0.2816 -1.0688
 2925SOL    HW220409   3.046   3.563   8.613 -1.4928  1.3997  2.1268
 2926SOL     OW20410   4.113   1.387   8.739 -0.3054  0.2053 -0.2871
 2926SOL    HW120411   4.183   1.374   8.675 -0.8451 -0.8606 -0.6515
 2926SOL    HW220412   4.076   1.299   8.736  0.5532 -0.0778 -2.2830
 2927SOL     OW20413   3.146   2.058   5.247  0.0411 -0.5694  0.2078
 2927SOL    HW120414   3.157   1.989   5.312  1.9463 -2.2146 -1.8864
 2927SOL    HW220415   3.110   2.128   5.302 -1.6935 -0.3132 -1.2354
 2928SOL     OW20416   3.460   4.415   5.435 -0.5416  0.1551 -0.1936
 2928SOL    HW120417   3.403   4.342   5.409  1.9187 -1.7036 -0.3563
 2928SOL    HW220418   3.522   4.419   5.363 -0.0890  1.0027  0.2406
 2929SOL     OW20419   2.984   3.176   8.906 -0.0754 -0.1741  0.1603
 2929SOL    HW120420   3.027   3.217   8.981  1.8905 -0.9769 -0.5043
 2929SOL    HW220421   3.048   3.174   8.834 -0.2458  3.7205 -0.1205
 2930SOL     OW20422   4.296   4.573  14.173  0.6234  0.5293 -0.7876
 2930SOL    HW120423   4.228   4.531  14.121 -1.2012  0.6320  1.4952
 2930SOL    HW220424   4.255   4.562  14.259  0.3044 -0.1699 -1.0225
 2931SOL     OW20425   0.111   1.066   4.657 -0.0718 -0.3900 -0.6484
 2931SOL    HW120426   0.036   1.086   4.713 -0.6640  0.8495 -1.8927
 2931SOL    HW220427   0.167   1.021   4.721 -1.6089 -1.1705  0.1363
 2932SOL     OW20428   3.140   4.121   0.988 -0.3485 -0.0822  0.5054
 2932SOL    HW120429   3.109   4.174   0.915  0.0370  0.1040  0.4747
 2932SOL    HW220430   3.231   4.101   0.969 -0.7343 -1.0117 -0.3189
 2933SOL     OW20431   4.039   3.627   8.977  0.3189 -0.4802 -0.3120
 2933SOL    HW120432   4.018   3.654   9.066 -0.3162  0.2418 -0.6728
 2933SOL    HW220433   3.989   3.681   8.916 -2.4435 -2.1063  0.5128
 2934SOL     OW20434   2.180   3.124   2.815  0.1612  0.4833  0.1301
 2934SOL    HW120435   2.191   3.038   2.856  1.3861 -0.6199 -2.5421
 2934SOL    HW220436   2.258   3.171   2.846 -0.2429 -0.7042  2.9002
 2935SOL     OW20437   2.413   3.234   6.707  0.3667  0.6471  0.1853
 2935SOL    HW120438   2.420   3.329   6.696 -2.6044  0.5476 -2.5443
 2935SOL    HW220439   2.321   3.232   6.736 -0.3920  0.3118 -2.2782
 2936SOL     OW20440   4.545   2.216   2.643 -0.0050 -0.0670 -0.6954
 2936SOL    HW120441   4.640   2.229   2.642  0.0295 -0.2205  0.3788
 2936SOL    HW220442   4.539   2.126   2.675  0.7311  0.0876 -0.1345
 2937SOL     OW20443   2.666   3.576   9.534  0.0424  0.8022 -0.6381
 2937SOL    HW120444   2.589   3.521   9.517  1.1367  0.1837 -3.5654
 2937SOL    HW220445   2.627   3.661   9.513 -0.6027  0.8277  0.6376
 2938SOL     OW20446   2.588   0.422   0.094 -0.5668 -0.2751  0.0609
 2938SOL    HW120447   2.582   0.435   0.189  1.2754 -0.8623  0.2626
 2938SOL    HW220448   2.528   0.486   0.057  0.7723 -0.2962 -2.1194
 2939SOL     OW20449   4.325   3.310  16.021 -0.0739  0.1202 -0.2966
 2939SOL    HW120450   4.329   3.334  15.929  1.7526  2.2128  0.3146
 2939SOL    HW220451   4.235   3.328  16.047  0.1459 -0.9274  1.1886
 2940SOL     OW20452   0.474   2.603   2.485 -0.3672 -0.2799  0.1753
 2940SOL    HW120453   0.466   2.686   2.438  0.5407 -0.9430 -1.1463
 2940SOL    HW220454   0.499   2.631   2.572 -0.5270 -0.2898  0.2253
 2941SOL     OW20455   4.341   0.927  14.193 -0.5255 -0.4693  0.0196
 2941SOL    HW120456   4.402   1.000  14.179  0.7330 -1.9433 -2.1614
 2941SOL    HW220457   4.348   0.930  14.288  1.9383 -1.4794 -0.1155
 2942SOL     OW20458   4.191   1.542   6.513  0.4965 -0.4355 -0.3431
 2942SOL    HW120459   4.213   1.604   6.443  0.1244  0.0275 -0.0556
 2942SOL    HW220460   4.161   1.472   6.456  1.6437  1.0515 -2.8144
 2943SOL     OW20461   1.353   1.561  12.025  0.3782  0.1308 -0.2369
 2943SOL    HW120462   1.296   1.518  12.088  0.2519  1.0959  0.3058
 2943SOL    HW220463   1.430   1.504  12.025  0.8729  0.7928 -1.6515
 2944SOL     OW20464   3.721   4.486   8.916  0.4331 -0.5742 -0.1651
 2944SOL    HW120465   3.709   4.575   8.882 -2.3716 -0.6889  0.4959
 2944SOL    HW220466   3.753   4.507   9.003 -1.0900  1.6268 -0.1359
 2945SOL     OW20467   3.056   3.599   6.567 -0.3208  0.7024  0.0631
 2945SOL    HW120468   3.148   3.584   6.547  0.1481  0.5855  2.3928
 2945SOL    HW220469   3.045   3.590   6.661 -2.9057  1.6600 -0.1347
 2946SOL     OW20470   4.426   4.439  11.490  0.0197 -0.0714 -0.3893
 2946SOL    HW120471   4.490   4.387  11.441 -0.5528  0.0784 -1.3173
 2946SOL    HW220472   4.419   4.511  11.427 -1.1391 -0.3496 -0.5789
 2947SOL     OW20473   1.697   4.177   9.221 -0.3318 -0.0338  0.0727
 2947SOL    HW120474   1.616   4.194   9.268  0.1478  0.5597  0.6867
 2947SOL    HW220475   1.745   4.259   9.231  0.5477 -0.6543  0.9494
 2948SOL     OW20476   0.348   4.439   2.863 -0.5361  0.5095  0.4258
 2948SOL    HW120477   0.313   4.512   2.913 -1.1152  0.0917  0.6401
 2948SOL    HW220478   0.324   4.470   2.775 -1.0064  0.6151  0.5895
 2949SOL     OW20479   2.998   4.088   1.368  0.0817 -0.0805  0.4290
 2949SOL    HW120480   2.913   4.081   1.411 -0.6267  1.5055 -0.7176
 2949SOL    HW220481   3.057   4.052   1.435 -2.5437 -2.7921  1.2837
 2950SOL     OW20482   3.331   1.755   3.145 -0.0395 -0.2315  0.1192
 2950SOL    HW120483   3.425   1.738   3.132 -0.4050 -1.2559 -1.1169
 2950SOL    HW220484   3.348   1.810   3.222  0.5259 -0.2332  0.0013
 2951SOL     OW20485   3.198   1.766   7.625 -0.1643 -0.1173 -0.1704
 2951SOL    HW120486   3.197   1.853   7.665  0.1575  0.2059 -0.8565
 2951SOL    HW220487   3.106   1.749   7.607 -0.8393  1.2190  2.0802
 2952SOL     OW20488   2.028   4.099  14.432 -0.1191 -0.4377  0.0044
 2952SOL    HW120489   1.969   4.083  14.358  1.4043 -0.3369 -1.2338
 2952SOL    HW220490   2.107   4.062  14.393 -0.4339 -0.0385 -1.0248
 2953SOL     OW20491   3.762   1.091   2.928 -0.1094  0.0879 -0.1481
 2953SOL    HW120492   3.690   1.039   2.964 -1.5034  1.2048 -1.3819
 2953SOL    HW220493   3.744   1.081   2.835  1.0945 -0.9990 -0.2782
 2954SOL     OW20494   4.566   1.253  12.149  0.5607  0.5498 -0.0714
 2954SOL    HW120495   4.639   1.218  12.099 -0.4581 -1.0791 -0.4311
 2954SOL    HW220496   4.510   1.176  12.151  3.1548 -1.3562 -1.7822
 2955SOL     OW20497   0.781   4.625   5.463 -0.4021 -0.0826  0.3707
 2955SOL    HW120498   0.746   4.572   5.534  0.7973 -0.6225  0.5718
 2955SOL    HW220499   0.806   4.558   5.398  1.1748 -0.7284  1.6263
 2956SOL     OW20500   1.445   1.673   6.011 -0.0190  0.1576 -0.2799
 2956SOL    HW120501   1.525   1.648   6.057  0.9797  1.9168 -1.0778
 2956SOL    HW220502   1.422   1.747   6.066  3.9055  2.0471 -1.1844
 2957SOL     OW20503   0.512   0.328   1.189 -0.4259 -0.6662  0.6716
 2957SOL    HW120504   0.479   0.272   1.119 -1.7971  2.0097 -0.8148
 2957SOL    HW220505   0.471   0.412   1.169  1.0569  0.2514  1.4528
 2958SOL     OW20506   1.813   1.467   7.690  0.3348 -0.0542 -0.2720
 2958SOL    HW120507   1.896   1.429   7.660 -0.6092 -2.5002  0.2154
 2958SOL    HW220508   1.777   1.399   7.746  3.0923  1.8312  3.7651
 2959SOL     OW20509   3.689   3.927   5.853  0.4423  0.0826  0.4625
 2959SOL    HW120510   3.646   3.917   5.768 -0.8373 -2.0643  1.3635
 2959SOL    HW220511   3.654   3.859   5.910 -0.8052  1.4268  1.3038
 2960SOL     OW20512   2.184   2.048   7.796 -0.4193 -0.2792 -0.9496
 2960SOL    HW120513   2.131   2.001   7.732 -0.8376  1.3342 -1.7804
 2960SOL    HW220514   2.127   2.050   7.873 -0.8422 -0.1382 -1.2677
 2961SOL     OW20515   3.318   3.984   6.009  0.4168 -0.1286 -0.1188
 2961SOL    HW120516   3.223   3.982   6.018  0.5824 -0.7954  1.5671
 2961SOL    HW220517   3.329   3.940   5.925 -3.3915  0.1745 -0.7635
 2962SOL     OW20518   2.927   1.859  12.944  0.1010 -0.3619 -0.5329
 2962SOL    HW120519   2.862   1.912  12.991 -2.1736 -1.6807 -2.1600
 2962SOL    HW220520   3.007   1.889  12.987 -0.1294  1.5356 -1.4248
 2963SOL     OW20521   0.385   0.562   2.366 -0.2629 -0.2565  0.2898
 2963SOL    HW120522   0.450   0.518   2.422  0.3468  0.4273  0.1315
 2963SOL    HW220523   0.309   0.567   2.423 -0.2199 -0.9730  0.4005
 2964SOL     OW20524   3.628   4.634   6.947 -0.1029 -0.3813 -0.1975
 2964SOL    HW120525   3.546   4.681   6.936  1.2270  1.2468 -3.0910
 2964SOL    HW220526   3.665   4.638   6.859 -0.1713 -2.2032 -0.2986
 2965SOL     OW20527   3.169   4.461  11.570 -0.8806 -0.8347 -0.0827
 2965SOL    HW120528   3.200   4.384  11.523 -1.2519 -1.7803  1.2244
 2965SOL    HW220529   3.093   4.428  11.617  1.5911 -1.8652  3.2296
 2966SOL     OW20530   1.344   3.667   5.134  0.1157  0.4539  0.0283
 2966SOL    HW120531   1.276   3.717   5.089  0.1699  1.1214  0.6717
 2966SOL    HW220532   1.362   3.721   5.212  1.7996  0.9600 -0.7085
 2967SOL     OW20533   2.290   2.067  16.908  0.6713 -0.1033  0.2961
 2967SOL    HW120534   2.253   2.019  16.834 -0.1347 -1.2476  1.4335
 2967SOL    HW220535   2.313   1.988  16.957  0.4468  0.5278  1.4334
 2968SOL     OW20536   4.663   2.020   6.613  0.3727  0.3234 -0.0315
 2968SOL    HW120537   4.716   2.018   6.534 -0.2398 -1.7935 -0.4096
 2968SOL    HW220538   4.621   1.934   6.609  1.2837 -0.1028 -0.3833
 2969SOL     OW20539   0.900   2.113   4.685  0.2255 -0.3426  0.8647
 2969SOL    HW120540   0.897   2.080   4.776  2.1231 -0.2709  0.9355
 2969SOL    HW220541   0.814   2.154   4.677  0.2211 -0.0993  2.0467
 2970SOL     OW20542   4.106   3.244   7.685 -0.3184  0.0132  0.0823
 2970SOL    HW120543   4.059   3.314   7.640 -0.0454 -0.2163 -0.5644
 2970SOL    HW220544   4.040   3.181   7.713 -0.1114 -0.1547  0.1949
 2971SOL     OW20545   2.151   4.321   7.090  0.2322  0.1108  0.3179
 2971SOL    HW120546   2.195   4.364   7.163  0.6852  0.7170 -0.3227
 2971SOL    HW220547   2.064   4.359   7.096  0.5399  0.8289  0.1506
 2972SOL     OW20548   4.090   2.269   7.621 -0.7816  0.0818 -0.1437
 2972SOL    HW120549   4.027   2.341   7.633  0.4910  0.9647  1.2876
 2972SOL    HW220550   4.065   2.218   7.698  0.0355  0.9450  0.6914
 2973SOL     OW20551   2.030   2.687   2.624 -0.1399 -0.2286 -0.1501
 2973SOL    HW120552   2.026   2.783   2.618  0.9178 -0.1007  1.2133
 2973SOL    HW220553   1.972   2.673   2.699  0.6795 -0.0531  0.5120
 2974SOL     OW20554   1.383   2.793   5.526  0.0386 -0.3275 -0.8632
 2974SOL    HW120555   1.313   2.857   5.536  0.1090 -0.5256  0.9235
 2974SOL    HW220556   1.329   2.716   5.543  0.1994 -0.2934 -0.1878
 2975SOL     OW20557   0.658   1.954   8.562  0.4164  0.5252 -0.1881
 2975SOL    HW120558   0.728   2.009   8.596  0.4675 -1.1786  2.5059
 2975SOL    HW220559   0.620   1.911   8.639  2.9939 -1.2077  0.1223
 2976SOL     OW20560   3.176   4.411   7.761 -0.3262 -0.9461  0.1627
 2976SOL    HW120561   3.250   4.389   7.704  0.2447 -0.5645  0.7512
 2976SOL    HW220562   3.201   4.493   7.804  2.6191 -3.1870  2.7063
 2977SOL     OW20563   0.467   1.086   5.149  0.7282  0.1268  0.3354
 2977SOL    HW120564   0.481   1.054   5.238 -0.0555  0.3014  0.5277
 2977SOL    HW220565   0.556   1.091   5.116  0.6772  0.1733  0.2030
 2978SOL     OW20566   0.498   3.489   6.676 -0.0341 -0.1104 -0.2056
 2978SOL    HW120567   0.586   3.459   6.699  0.0333  2.6131  2.9939
 2978SOL    HW220568   0.532   3.574   6.645 -2.1828  1.1475  0.9027
 2979SOL     OW20569   1.588   0.915  10.312 -0.1716  0.4262 -0.5405
 2979SOL    HW120570   1.655   0.966  10.358 -2.1557  1.8919  0.7122
 2979SOL    HW220571   1.525   0.986  10.301 -0.2224  0.2800 -1.1941
 2980SOL     OW20572   4.471   3.342   6.325 -0.6579 -0.3537  0.0639
 2980SOL    HW120573   4.522   3.388   6.392 -2.0793  1.8983 -0.4093
 2980SOL    HW220574   4.451   3.258   6.367 -1.4133 -0.1393  0.1350
 2981SOL     OW20575   1.005   3.857   6.984 -0.2773 -0.1671 -0.3091
 2981SOL    HW120576   0.975   3.769   7.007  0.0922 -0.3338 -0.4665
 2981SOL    HW220577   1.084   3.829   6.938 -0.8395 -1.4217 -0.5115
 2982SOL     OW20578   2.371   1.612   9.369  0.1322 -0.1405 -0.3506
 2982SOL    HW120579   2.369   1.546   9.300 -1.2130  0.0134 -0.4608
 2982SOL    HW220580   2.335   1.561   9.441 -2.4865  0.3275 -1.3152
 2983SOL     OW20581   2.618   4.108  11.535 -0.0140  0.5296 -0.5929
 2983SOL    HW120582   2.585   4.194  11.511 -0.0504  0.8433  0.5891
 2983SOL    HW220583   2.599   4.050  11.462  0.3483  1.5286 -1.4728
 2984SOL     OW20584   2.507   1.113  10.056 -0.2075  0.0964  0.0183
 2984SOL    HW120585   2.490   1.094   9.963 -0.6108  0.3730  0.0349
 2984SOL    HW220586   2.595   1.081  10.074 -0.0614  0.6863  0.3354
 2985SOL     OW20587   4.615   4.667   5.883  0.0016 -0.1072 -0.5499
 2985SOL    HW120588   4.618   4.670   5.787  1.8470  1.1467 -0.4481
 2985SOL    HW220589   4.663   4.587   5.904  1.7222  1.0327 -0.1370
 2986SOL     OW20590   2.416   3.560   5.160  0.2138  0.5055 -0.3108
 2986SOL    HW120591   2.432   3.640   5.110  0.6428  0.6373  0.0474
 2986SOL    HW220592   2.339   3.527   5.112 -0.2381 -0.9980  1.4250
 2987SOL     OW20593   3.806   1.190  14.428  0.0855 -0.0090 -0.0330
 2987SOL    HW120594   3.841   1.128  14.364 -1.5764 -0.3688 -0.5769
 2987SOL    HW220595   3.886   1.189  14.482 -0.8215 -2.4289  1.2573
 2988SOL     OW20596   2.948   0.646  17.294 -0.2322 -0.3113 -0.6375
 2988SOL    HW120597   3.023   0.689  17.253  1.3586 -1.1321  1.4053
 2988SOL    HW220598   2.944   0.703  17.371  0.0216 -1.2925  0.1099
 2989SOL     OW20599   2.636   4.663   3.256  0.4280 -0.5033  0.0019
 2989SOL    HW120600   2.701   4.632   3.193  0.9572  1.8328 -0.5930
 2989SOL    HW220601   2.614   0.016   3.224  0.2822 -0.7727 -0.6278
 2990SOL     OW20602   2.943   3.136   5.713 -0.3135 -0.0813  0.1380
 2990SOL    HW120603   2.956   3.143   5.807 -0.0520 -0.3504  0.1232
 2990SOL    HW220604   2.866   3.079   5.710  0.2824 -0.7849 -2.3098
 2991SOL     OW20605   3.052   3.613   2.348 -0.1743  0.0028  0.0492
 2991SOL    HW120606   3.136   3.657   2.357  0.4837 -1.2487 -0.0144
 2991SOL    HW220607   3.065   3.520   2.330 -2.7359 -0.1191 -1.1507
 2992SOL     OW20608   3.992   1.946  17.409  0.1116  0.1564  0.2899
 2992SOL    HW120609   3.906   1.909  17.431  0.0057 -1.0794 -2.2028
 2992SOL    HW220610   3.976   2.034  17.374  4.3773  0.9623  0.4674
 2993SOL     OW20611   1.664   2.816   0.725  0.1980 -0.4763 -0.3930
 2993SOL    HW120612   1.725   2.887   0.743 -0.2840 -0.4436  1.0632
 2993SOL    HW220613   1.629   2.785   0.808  2.0738  0.7372  0.8491
 2994SOL     OW20614   2.622   2.208  16.107 -0.2170 -0.0340 -0.2198
 2994SOL    HW120615   2.645   2.300  16.121  1.4126 -0.4308 -0.3064
 2994SOL    HW220616   2.544   2.195  16.161  1.0397 -1.5366  1.2091
 2995SOL     OW20617   0.430   2.567  11.767  0.4416 -0.3869 -0.2957
 2995SOL    HW120618   0.368   2.547  11.837 -1.6557  1.2513 -1.6909
 2995SOL    HW220619   0.382   2.628  11.712 -0.8967 -0.0665  1.2253
 2996SOL     OW20620   3.404   0.409   5.322 -0.2331 -0.2490 -0.3730
 2996SOL    HW120621   3.472   0.344   5.303  1.2844  1.2245 -0.0094
 2996SOL    HW220622   3.443   0.455   5.397  2.1412 -1.1874 -1.0228
 2997SOL     OW20623   3.122   0.501   2.048 -0.1880 -0.0406  0.1427
 2997SOL    HW120624   3.101   0.516   1.956 -0.8855  0.3077  0.3603
 2997SOL    HW220625   3.171   0.580   2.071  1.1464 -0.4234 -1.3872
 2998SOL     OW20626   0.471   0.525   9.995  0.3409 -0.3261  0.6685
 2998SOL    HW120627   0.505   0.442   9.963 -1.0479 -0.0765 -1.5076
 2998SOL    HW220628   0.475   0.507  10.089  0.8373 -0.8081  0.5538
 2999SOL     OW20629   0.428   4.671   5.786  0.7229 -0.1792 -0.0671
 2999SOL    HW120630   0.437   4.711   5.873 -1.6809 -2.4187  1.1880
 2999SOL    HW220631   0.335   4.682   5.768  0.9426 -0.3952 -1.3466
 3000SOL     OW20632   4.242   3.076   9.072 -0.0079 -0.2450 -0.0439
 3000SOL    HW120633   4.237   3.022   8.993 -2.4125  1.8718 -1.3147
 3000SOL    HW220634   4.186   3.148   9.042  1.9007  1.1187 -0.3803
 3001SOL     OW20635   3.485   2.747   2.811  0.6156 -0.7730  0.1824
 3001SOL    HW120636   3.548   2.723   2.878 -0.6650  0.1840  1.7307
 3001SOL    HW220637   3.432   2.668   2.822  0.4759 -0.5310  1.2524
 3002SOL     OW20638   3.230   1.996   9.489 -0.1910 -0.2189 -0.6669
 3002SOL    HW120639   3.212   2.007   9.396  2.5070  1.4187 -1.0003
 3002SOL    HW220640   3.314   1.953   9.477 -0.1890 -0.4987  0.3354
 3003SOL     OW20641   4.171   2.489   2.802 -0.4593  0.0171 -0.2559
 3003SOL    HW120642   4.242   2.440   2.844  0.8028  1.9196 -0.1551
 3003SOL    HW220643   4.181   2.461   2.711  2.2684 -0.8464  0.3323
 3004SOL     OW20644   4.421   3.551   3.500 -0.2883 -0.8758  0.5864
 3004SOL    HW120645   4.373   3.631   3.523  0.7025 -0.5453  1.5478
 3004SOL    HW220646   4.389   3.535   3.412 -0.5302 -0.2974  0.5671
 3005SOL     OW20647   2.316   4.343   6.883 -0.0760  0.6022 -0.2791
 3005SOL    HW120648   2.270   4.336   6.967 -0.8190  0.5069 -0.7001
 3005SOL    HW220649   2.344   4.434   6.895 -2.1196  1.0639  1.0675
 3006SOL     OW20650   2.190   1.599   2.933 -0.1110 -0.1372  0.2068
 3006SOL    HW120651   2.227   1.678   2.973  3.3179 -1.3836 -0.5397
 3006SOL    HW220652   2.202   1.529   2.998  0.8641 -0.6329 -0.5097
 3007SOL     OW20653   0.851   3.309   0.234  0.4306  0.3679  0.4854
 3007SOL    HW120654   0.774   3.266   0.272 -0.6802  0.4312 -1.7398
 3007SOL    HW220655   0.815   3.339   0.151  0.6296 -0.4438  0.1099
 3008SOL     OW20656   0.566   2.110   6.263  0.0868  0.4071  0.3669
 3008SOL    HW120657   0.604   2.132   6.178  0.6386 -0.2443  0.4464
 3008SOL    HW220658   0.634   2.052   6.299 -0.8841 -0.0989  1.3812
 3009SOL     OW20659   0.525   2.171  15.299  0.5841 -0.0396  0.0762
 3009SOL    HW120660   0.516   2.235  15.369 -2.3724 -0.1528 -0.1962
 3009SOL    HW220661   0.522   2.086  15.342 -0.5430  1.0327  2.1315
 3010SOL     OW20662   1.503   1.142  13.131  0.0852 -0.2222  0.0711
 3010SOL    HW120663   1.528   1.064  13.181 -0.7776  0.0497  0.9385
 3010SOL    HW220664   1.518   1.211  13.196 -2.6012  1.8273 -1.4960
 3011SOL     OW20665   3.838   0.253  10.574  0.3061  0.1604  0.0376
 3011SOL    HW120666   3.933   0.248  10.563  0.1045 -3.5973  0.0719
 3011SOL    HW220667   3.819   0.194  10.647 -0.0394  0.4846  0.2132
 3012SOL     OW20668   0.441   3.963  14.551 -0.4576  0.1917 -0.1783
 3012SOL    HW120669   0.437   3.987  14.459  0.8502  2.7371  0.4316
 3012SOL    HW220670   0.429   3.869  14.544  0.2507  0.0531  0.4585
 3013SOL     OW20671   0.401   0.632   7.190  0.2599  0.3787  0.0577
 3013SOL    HW120672   0.383   0.684   7.269 -0.1584 -0.9877  0.8668
 3013SOL    HW220673   0.430   0.699   7.129  3.0876 -0.9056 -0.0312
 3014SOL     OW20674   1.022   3.185   2.297  0.9044 -0.2897 -0.4528
 3014SOL    HW120675   1.086   3.253   2.278  1.8934 -0.6758  1.5365
 3014SOL    HW220676   0.942   3.228   2.265  0.5024 -0.6472  0.0643
 3015SOL     OW20677   4.140   2.007   4.880  0.9830  0.0624 -0.5348
 3015SOL    HW120678   4.210   2.044   4.933  0.5559  0.3363 -0.1566
 3015SOL    HW220679   4.186   2.000   4.797  1.3271 -2.7929 -0.1235
 3016SOL     OW20680   3.991   3.800   7.480 -0.1804  0.1330  0.8207
 3016SOL    HW120681   4.002   3.796   7.385  0.5855 -0.7862  0.9503
 3016SOL    HW220682   3.970   3.888   7.512 -0.3648  0.7000 -0.8719
 3017SOL     OW20683   4.197   2.267   6.168 -0.6077 -0.5789  0.6292
 3017SOL    HW120684   4.268   2.220   6.125 -3.0461 -2.9880 -0.7502
 3017SOL    HW220685   4.249   2.305   6.239  1.0465  1.7535 -1.8068
 3018SOL     OW20686   4.447   1.511   2.634 -0.4075 -0.1727  0.3382
 3018SOL    HW120687   4.492   1.595   2.629 -0.8539 -0.0681 -2.2166
 3018SOL    HW220688   4.369   1.525   2.687 -0.7634 -2.2623  0.3614
 3019SOL     OW20689   4.388   4.609   7.932 -0.1719 -0.4457 -0.0134
 3019SOL    HW120690   4.472   4.594   7.889 -0.3991 -1.7561  0.0090
 3019SOL    HW220691   4.334   4.544   7.887 -0.3654 -0.1174 -0.2602
 3020SOL     OW20692   0.204   0.423   8.568 -0.2840  0.2525  0.4174
 3020SOL    HW120693   0.200   0.510   8.527  0.7439 -0.2312 -0.7072
 3020SOL    HW220694   0.110   0.407   8.581 -0.5012  0.0009 -1.3522
 3021SOL     OW20695   4.404   1.059   2.189  0.1893 -0.5626  0.0996
 3021SOL    HW120696   4.452   1.061   2.272  2.1983 -1.6038 -1.0628
 3021SOL    HW220697   4.446   1.120   2.129 -0.5360 -1.1309 -0.9712
 3022SOL     OW20698   3.443   0.529   8.178 -0.5757 -0.5397  0.2264
 3022SOL    HW120699   3.503   0.458   8.152 -1.5508 -1.0269 -0.6695
 3022SOL    HW220700   3.422   0.501   8.267 -1.6070  1.9412  0.7384
 3023SOL     OW20701   0.459   1.447  17.222  0.8509 -0.2761 -0.2166
 3023SOL    HW120702   0.460   1.402  17.137  0.9983  0.8721 -0.8208
 3023SOL    HW220703   0.535   1.407  17.264  1.1397  0.8673  0.3557
 3024SOL     OW20704   1.194   0.910   7.123  0.0942  0.6207 -0.7128
 3024SOL    HW120705   1.204   0.985   7.182 -3.3055 -0.5401  1.3074
 3024SOL    HW220706   1.249   0.842   7.162  0.2373  0.4663 -1.1779
 3025SOL     OW20707   1.650   3.017  10.124  0.1225  0.3226 -0.6770
 3025SOL    HW120708   1.587   2.952  10.155  0.2664  0.3966 -0.2226
 3025SOL    HW220709   1.727   2.966  10.097 -0.4087 -0.4117 -0.8072
 3026SOL     OW20710   4.433   3.005   3.760 -0.2691  0.1252  0.3227
 3026SOL    HW120711   4.484   3.075   3.801 -1.1632  0.7844  0.3114
 3026SOL    HW220712   4.502   2.946   3.729 -0.3798 -1.1228  2.4236
 3027SOL     OW20713   2.031   2.694   3.849  0.1123  0.3188  0.2892
 3027SOL    HW120714   2.047   2.600   3.857 -0.3619  0.1476 -0.8159
 3027SOL    HW220715   2.009   2.698   3.756  1.8585  0.0519 -0.1224
 3028SOL     OW20716   4.180   3.351   0.846 -0.0010  0.2108  1.1613
 3028SOL    HW120717   4.104   3.391   0.805 -0.2636 -1.5328 -0.0450
 3028SOL    HW220718   4.254   3.349   0.785 -0.9979  1.9181 -0.0891
 3029SOL     OW20719   3.920   4.141   4.816 -0.9881 -0.9499 -0.1460
 3029SOL    HW120720   3.956   4.085   4.885 -1.7267 -1.7186 -0.3779
 3029SOL    HW220721   3.828   4.118   4.802 -0.8900 -0.7537 -1.1234
 3030SOL     OW20722   2.528   0.543   6.687  0.3380 -0.2285 -0.3084
 3030SOL    HW120723   2.453   0.577   6.638 -1.5282 -0.7541  2.1380
 3030SOL    HW220724   2.566   0.482   6.624  2.3682  2.1026 -1.3375
 3031SOL     OW20725   3.457   2.208   9.789  0.4945  0.4314  0.3562
 3031SOL    HW120726   3.436   2.116   9.769  1.4803  0.7274 -2.0424
 3031SOL    HW220727   3.409   2.263   9.727  1.2309  1.2976  0.5620
 3032SOL     OW20728   1.042   2.205   2.974 -0.0718 -0.0813 -0.2766
 3032SOL    HW120729   0.963   2.203   3.026  0.0552  0.6482 -0.0624
 3032SOL    HW220730   1.038   2.119   2.932 -1.3637 -0.5463  0.8306
 3033SOL     OW20731   4.583   0.662  12.713  0.0708  0.0430  0.2862
 3033SOL    HW120732   4.560   0.754  12.716 -1.1786 -0.1856 -1.9378
 3033SOL    HW220733   4.587   0.641  12.806 -0.6996  0.0932  0.3305
 3034SOL     OW20734   4.582   2.492   1.105  0.1951 -0.1220  0.6029
 3034SOL    HW120735   4.601   2.404   1.073  0.4896  0.1989 -0.1122
 3034SOL    HW220736   4.657   2.509   1.163 -0.2973  0.7943  0.9733
 3035SOL     OW20737   1.140   1.534   9.443 -0.3623  0.3309 -0.4314
 3035SOL    HW120738   1.096   1.472   9.386 -0.9622  0.9050 -0.6034
 3035SOL    HW220739   1.091   1.522   9.525  1.6690  1.1725  0.9101
 3036SOL     OW20740   0.159   3.964   1.724 -0.0867 -0.4360 -0.3164
 3036SOL    HW120741   0.107   4.036   1.690  1.3289  0.6069 -0.2884
 3036SOL    HW220742   0.155   3.913   1.643  0.6071  0.3650 -0.8514
 3037SOL     OW20743   0.444   1.767  10.718  0.1027  0.9685 -0.3601
 3037SOL    HW120744   0.446   1.859  10.692  1.0284  1.1066  0.1936
 3037SOL    HW220745   0.474   1.725  10.637 -0.4939 -1.1834  0.5403
 3038SOL     OW20746   2.125   1.379   6.827 -0.3236 -0.3688  0.0848
 3038SOL    HW120747   2.157   1.456   6.874  0.0072  0.0051 -0.7686
 3038SOL    HW220748   2.110   1.413   6.739  1.1521 -0.3849 -0.1650
 3039SOL     OW20749   2.224   2.489  14.648  0.1092 -0.4503 -0.0504
 3039SOL    HW120750   2.210   2.542  14.571 -1.3077 -0.7086  0.0284
 3039SOL    HW220751   2.220   2.559  14.714  1.0530 -0.5844  0.1624
 3040SOL     OW20752   1.619   3.154  12.047 -0.4974  0.0315  0.8532
 3040SOL    HW120753   1.562   3.183  11.976  1.5295  2.4376  0.1943
 3040SOL    HW220754   1.566   3.185  12.121  0.3350  1.1325  0.9802
 3041SOL     OW20755   0.397   4.199   8.489 -0.1618  1.1036 -0.1803
 3041SOL    HW120756   0.416   4.282   8.534 -1.0737  0.4053  1.4872
 3041SOL    HW220757   0.453   4.143   8.542 -0.4775 -0.1424 -1.1396
 3042SOL     OW20758   3.647   3.306   2.616  0.4512  0.3887 -0.1439
 3042SOL    HW120759   3.582   3.264   2.560 -1.7624  0.6888  2.2120
 3042SOL    HW220760   3.673   3.235   2.674  0.9523  1.3497  0.8095
 3043SOL     OW20761   3.235   1.357   6.031 -0.0763  0.0943 -0.3475
 3043SOL    HW120762   3.278   1.305   6.099 -0.5914  1.2757  0.8938
 3043SOL    HW220763   3.236   1.291   5.962 -0.0957  1.0222 -1.2332
 3044SOL     OW20764   1.914   0.773   2.127 -0.6830  0.0298  0.6738
 3044SOL    HW120765   1.827   0.744   2.155 -1.0839 -1.6759 -2.3431
 3044SOL    HW220766   1.946   0.703   2.071 -1.7442 -1.0384  1.4192
 3045SOL     OW20767   0.091   4.457   6.525 -0.2823 -0.1464  0.2680
 3045SOL    HW120768   0.090   4.375   6.573 -2.1534 -0.1177  0.2943
 3045SOL    HW220769   0.095   4.510   6.605 -4.0364 -0.3852  0.6213
 3046SOL     OW20770   3.532   2.243   6.486 -0.0703  0.3036  0.5490
 3046SOL    HW120771   3.503   2.183   6.417 -2.0808  2.0805 -0.1587
 3046SOL    HW220772   3.618   2.271   6.457  0.0672 -0.7377 -0.0366
 3047SOL     OW20773   4.505   0.369   6.852 -0.0551 -0.5681  0.1485
 3047SOL    HW120774   4.480   0.319   6.930 -0.5853 -1.7751 -0.8069
 3047SOL    HW220775   4.567   0.432   6.891  0.1349 -0.4436 -0.3522
 3048SOL     OW20776   3.477   4.715   2.691 -0.0969  0.0124  0.4759
 3048SOL    HW120777   3.461   0.061   2.642 -0.8064 -1.4093 -1.5994
 3048SOL    HW220778   3.567   4.685   2.679 -1.3109 -3.0840 -0.8088
 3049SOL     OW20779   2.303   3.919  15.153  0.1140 -0.8764 -0.0209
 3049SOL    HW120780   2.217   3.920  15.195 -0.8085 -0.4541 -1.9102
 3049SOL    HW220781   2.358   3.859  15.204  0.6126  1.1407  1.8491
 3050SOL     OW20782   0.021   3.738   9.985 -0.6127  0.0305 -0.9894
 3050SOL    HW120783   0.107   3.775   9.966 -0.9938  1.2696 -0.3172
 3050SOL    HW220784   0.017   3.667   9.922 -1.5713 -0.0782 -0.8111
 3051SOL     OW20785   3.783   3.081   7.492 -0.5849 -0.0155 -0.3517
 3051SOL    HW120786   3.841   3.049   7.422  0.7921 -0.7380  1.1159
 3051SOL    HW220787   3.746   3.155   7.443 -0.8597  1.1473  1.6079
 3052SOL     OW20788   3.200   2.749  11.304 -0.6672 -0.3799 -0.0547
 3052SOL    HW120789   3.187   2.734  11.210 -0.1624  1.1076 -0.3456
 3052SOL    HW220790   3.294   2.753  11.315 -0.8041 -0.5806  1.1335
 3053SOL     OW20791   1.406   0.814   7.842  0.0237  0.3350  0.6293
 3053SOL    HW120792   1.374   0.725   7.830 -1.1108  0.9267 -0.7739
 3053SOL    HW220793   1.416   0.823   7.937 -0.2254 -0.6956  0.7482
 3054SOL     OW20794   2.658   1.480  13.932  0.9781  0.1869 -0.4207
 3054SOL    HW120795   2.675   1.570  13.902 -0.2067  0.1880 -1.0994
 3054SOL    HW220796   2.619   1.444  13.852 -2.0124  0.1805  1.0616
 3055SOL     OW20797   1.236   4.360   8.545 -0.4158  0.0019  0.4210
 3055SOL    HW120798   1.145   4.353   8.574 -0.9299 -1.4061 -1.5054
 3055SOL    HW220799   1.267   4.270   8.555  3.2695  1.2849  0.7149
 3056SOL     OW20800   1.128   2.090   3.618 -0.2769  0.1867 -0.4210
 3056SOL    HW120801   1.130   2.000   3.585 -0.7318 -0.2127  0.6403
 3056SOL    HW220802   1.215   2.126   3.603 -0.8718  1.6482 -0.3064
 3057SOL     OW20803   3.105   0.327  11.467 -0.1469 -0.0100  0.0822
 3057SOL    HW120804   3.025   0.350  11.514 -0.0874  1.1066 -0.3778
 3057SOL    HW220805   3.123   0.409  11.422 -4.3152  1.1094  0.4486
 3058SOL     OW20806   3.324   3.550   6.969  0.2875  0.2540  0.0594
 3058SOL    HW120807   3.302   3.643   6.968  2.4176  0.7738  1.0586
 3058SOL    HW220808   3.277   3.514   7.044 -0.0144  1.7634  0.5986
 3059SOL     OW20809   3.093   0.499  12.109 -0.4746  1.3660  0.4223
 3059SOL    HW120810   3.179   0.539  12.125  0.7212 -0.6020 -1.1195
 3059SOL    HW220811   3.064   0.544  12.030  0.7981  0.2941 -0.6593
 3060SOL     OW20812   1.574   1.953   0.870 -0.2329  1.1020  0.3429
 3060SOL    HW120813   1.602   1.863   0.856 -0.4312  0.9702  0.8026
 3060SOL    HW220814   1.608   1.996   0.791 -0.2188 -0.7548 -0.6612
 3061SOL     OW20815   2.690   4.677   1.454 -0.2478 -0.3067  0.1523
 3061SOL    HW120816   2.694   4.592   1.498  2.3931 -0.4133 -0.2715
 3061SOL    HW220817   2.699   4.734   1.531  0.1603 -0.5061  0.2513
 3062SOL     OW20818   0.396   2.548   8.185  0.0399 -0.0716 -0.2081
 3062SOL    HW120819   0.343   2.469   8.196 -0.9063  0.4933 -0.7144
 3062SOL    HW220820   0.379   2.594   8.267  1.2317 -1.2345  0.6860
 3063SOL     OW20821   3.406   0.160  12.924 -0.1781  0.4620  0.3562
 3063SOL    HW120822   3.310   0.158  12.923 -0.1597  0.1640 -0.5687
 3063SOL    HW220823   3.429   0.113  12.844 -0.6104 -1.2263  1.2335
 3064SOL     OW20824   0.602   3.662   0.824 -0.1243 -0.0232 -0.6843
 3064SOL    HW120825   0.669   3.607   0.784 -2.6056 -2.2582 -1.7652
 3064SOL    HW220826   0.530   3.646   0.764 -0.5299  2.2331 -0.7928
 3065SOL     OW20827   1.420   0.210  11.734 -0.1340  0.9573  0.1005
 3065SOL    HW120828   1.502   0.257  11.717 -0.2702  1.4385  0.7704
 3065SOL    HW220829   1.386   0.188  11.647 -1.3368  1.6000  0.4065
 3066SOL     OW20830   1.357   2.697   7.095 -0.5061  0.1148  0.3030
 3066SOL    HW120831   1.404   2.695   7.178  0.7006 -2.5876 -0.4366
 3066SOL    HW220832   1.422   2.668   7.031 -0.6780  0.4886 -0.0436
 3067SOL     OW20833   3.834   0.347   7.059  0.2285  0.5160 -0.1526
 3067SOL    HW120834   3.847   0.429   7.011 -2.1193  0.1814 -1.3419
 3067SOL    HW220835   3.853   0.364   7.151  2.0327  1.4279 -0.6919
 3068SOL     OW20836   1.173   3.190   3.111 -0.6050 -0.1475  0.4656
 3068SOL    HW120837   1.145   3.177   3.021  2.4653 -1.5205 -0.2851
 3068SOL    HW220838   1.246   3.128   3.109  0.1744  0.7515  0.9819
 3069SOL     OW20839   2.958   0.859  14.978  0.2185  0.0679 -0.3625
 3069SOL    HW120840   2.998   0.796  15.038  0.1616  1.9969  1.7343
 3069SOL    HW220841   2.887   0.808  14.940  0.9401 -0.5822 -0.8258
 3070SOL     OW20842   0.047   0.112  11.998  0.6937 -0.1494 -0.0130
 3070SOL    HW120843   0.049   0.108  12.093 -3.1264 -0.5117  0.0687
 3070SOL    HW220844   0.037   0.207  11.994  0.7395 -0.1424  0.0386
 3071SOL     OW20845   2.294   2.230  11.968 -0.0626 -0.3580 -0.2818
 3071SOL    HW120846   2.232   2.259  11.901 -0.8488  0.9643  1.0222
 3071SOL    HW220847   2.272   2.137  11.955  2.8954 -0.6164 -3.4191
 3072SOL     OW20848   4.195   1.936  13.717 -0.4609 -0.1298 -0.2650
 3072SOL    HW120849   4.126   1.948  13.782 -0.5578  2.9143 -0.9398
 3072SOL    HW220850   4.265   1.897  13.770  2.2029  0.9897 -2.9434
 3073SOL     OW20851   1.729   2.685   4.915  0.3386  0.1318 -0.2985
 3073SOL    HW120852   1.743   2.636   4.996 -1.3973 -1.3444 -0.8920
 3073SOL    HW220853   1.634   2.691   4.922  0.4934  0.9554  1.1112
 3074SOL     OW20854   4.094   3.444   3.872  0.3658  0.0150 -0.0556
 3074SOL    HW120855   4.150   3.453   3.795  1.4771  1.0247  0.8637
 3074SOL    HW220856   4.008   3.462   3.836  0.3660  0.3206  0.0965
 3075SOL     OW20857   3.494   4.312   0.857 -0.4408 -0.6403  0.4250
 3075SOL    HW120858   3.588   4.326   0.843 -0.3151 -0.6808  1.2055
 3075SOL    HW220859   3.473   4.384   0.916  0.0713 -0.4543  0.3796
 3076SOL     OW20860   4.725   2.726   0.959 -0.8040 -0.1580  0.2550
 3076SOL    HW120861   4.650   2.755   0.909 -0.1385  1.1164 -0.0008
 3076SOL    HW220862   4.726   2.635   0.927  4.3817  0.5101 -1.5576
 3077SOL     OW20863   1.861   0.483  13.198 -0.0884  0.3996  0.1510
 3077SOL    HW120864   1.923   0.463  13.267  3.6050 -0.6008 -3.4818
 3077SOL    HW220865   1.784   0.516  13.245  0.7754  0.2800  1.6437
 3078SOL     OW20866   3.486   3.314   8.833  0.8985 -0.4145  0.9577
 3078SOL    HW120867   3.410   3.261   8.808 -0.0730  0.9180  1.0507
 3078SOL    HW220868   3.486   3.371   8.756  0.9576 -1.0971  0.4498
 3079SOL     OW20869   3.077   3.265  16.527  0.0585 -0.3722 -0.6671
 3079SOL    HW120870   3.129   3.230  16.455  0.0652  0.9108 -1.2760
 3079SOL    HW220871   3.003   3.298  16.475  0.6140  2.3718  0.3123
 3080SOL     OW20872   1.374   2.461   3.171  0.2293  0.0485 -0.3143
 3080SOL    HW120873   1.424   2.501   3.100  0.9825  0.5450  0.4982
 3080SOL    HW220874   1.416   2.499   3.249 -1.7198  0.9555  0.2977
 3081SOL     OW20875   3.061   1.587   8.685 -0.7677 -0.0384  0.0243
 3081SOL    HW120876   3.062   1.681   8.703 -0.1602 -0.3879  1.8856
 3081SOL    HW220877   2.980   1.577   8.637 -0.4854 -1.8182 -0.0836
 3082SOL     OW20878   0.970   1.859  12.437  0.8948  0.3760 -0.7650
 3082SOL    HW120879   0.921   1.908  12.371  0.4405  1.2893  0.2460
 3082SOL    HW220880   1.053   1.852  12.389  0.2952  0.5252 -1.8176
 3083SOL     OW20881   1.478   4.177   8.204  0.2272 -0.4360  0.3304
 3083SOL    HW120882   1.524   4.111   8.152 -0.3748  0.6496 -1.5697
 3083SOL    HW220883   1.506   4.251   8.151 -2.1583 -0.0107 -0.3496
 3084SOL     OW20884   0.132   3.112   4.174  0.1482  0.2056 -0.3391
 3084SOL    HW120885   0.151   3.049   4.105  2.0462  0.5335 -0.1184
 3084SOL    HW220886   0.075   3.067   4.237  0.6654  1.0726  0.7506
 3085SOL     OW20887   0.129   3.741  13.783 -0.0699 -0.2695  0.1430
 3085SOL    HW120888   0.036   3.719  13.792  0.2809 -1.0239  1.9998
 3085SOL    HW220889   0.144   3.705  13.696 -0.8777 -0.2812  0.0077
 3086SOL     OW20890   2.556   2.462  12.208  0.9455  0.3839 -0.0478
 3086SOL    HW120891   2.638   2.484  12.163 -0.0046  1.8540 -1.0778
 3086SOL    HW220892   2.534   2.536  12.264  1.1418 -0.5836  1.2948
 3087SOL     OW20893   3.589   1.002   2.692  0.2634 -0.0507 -0.2158
 3087SOL    HW120894   3.557   0.931   2.747  2.0071 -0.8660 -0.2762
 3087SOL    HW220895   3.681   0.981   2.678  0.1269 -0.2075 -0.8884
 3088SOL     OW20896   2.284   1.748   0.160 -0.2010  0.7538 -0.4017
 3088SOL    HW120897   2.209   1.803   0.182  1.1936  2.1059  0.9693
 3088SOL    HW220898   2.315   1.728   0.248 -0.2441  0.4483 -0.4548
 3089SOL     OW20899   1.676   4.576  10.275 -0.5029  0.1341 -0.4586
 3089SOL    HW120900   1.592   4.589  10.230 -0.5513  0.0137 -0.4018
 3089SOL    HW220901   1.685   4.659  10.321 -2.8170  0.3966 -0.4533
 3090SOL     OW20902   3.726   2.830  12.026  0.2930  0.2402  0.1386
 3090SOL    HW120903   3.727   2.923  12.003  0.6989  0.2946  0.3863
 3090SOL    HW220904   3.812   2.804  11.993 -0.5129 -0.0130 -1.7298
 3091SOL     OW20905   2.503   2.695   8.079 -0.3532  0.1545 -0.1004
 3091SOL    HW120906   2.410   2.716   8.073 -0.3600 -0.4670 -2.0716
 3091SOL    HW220907   2.535   2.772   8.127  3.0632 -2.0372  1.1856
 3092SOL     OW20908   3.862   3.688   2.921 -0.1873  0.0262  0.3610
 3092SOL    HW120909   3.892   3.619   2.862 -1.1157 -0.2107  0.1660
 3092SOL    HW220910   3.845   3.643   3.004 -0.8657  0.3863  0.4195
 3093SOL     OW20911   3.154   3.774   8.497 -0.6010  0.4996 -0.2565
 3093SOL    HW120912   3.162   3.730   8.582  1.5929  0.7047 -0.3513
 3093SOL    HW220913   3.194   3.856   8.525  2.1862 -0.8505 -0.2962
 3094SOL     OW20914   0.495   1.367  15.024  0.1936  0.4949  0.2020
 3094SOL    HW120915   0.489   1.314  15.103  1.3319 -0.2992 -0.2396
 3094SOL    HW220916   0.587   1.392  15.020 -0.0073  1.1110 -0.6802
 3095SOL     OW20917   4.659   1.611  13.209 -0.3467  0.5029 -0.1019
 3095SOL    HW120918   4.682   1.704  13.217  0.1205  0.2996  0.8807
 3095SOL    HW220919   4.729   1.576  13.264  1.3455  1.7348 -1.4646
 3096SOL     OW20920   3.355   3.582   6.482 -0.4593 -0.6341 -0.7635
 3096SOL    HW120921   3.347   3.635   6.403 -0.8324 -0.0499 -0.3376
 3096SOL    HW220922   3.345   3.647   6.552  0.7527 -0.4080 -0.8090
 3097SOL     OW20923   1.243   3.279   0.083  0.1573 -0.1063  0.0287
 3097SOL    HW120924   1.204   3.362   0.112 -0.5720 -0.4961  0.1553
 3097SOL    HW220925   1.189   3.265   0.005 -1.3847  0.3865  1.0064
 3098SOL     OW20926   4.189   4.683   9.720  0.1780  0.0418 -0.3346
 3098SOL    HW120927   4.182   4.588   9.707  0.0448 -0.0105  0.1105
 3098SOL    HW220928   4.246   4.682   9.797 -0.1594 -0.3025 -0.0893
 3099SOL     OW20929   3.991   1.076   4.685 -0.4251  0.0664 -0.0889
 3099SOL    HW120930   4.037   1.071   4.601  1.3322 -0.2195  0.8876
 3099SOL    HW220931   3.980   1.169   4.703 -0.7836 -0.1135  0.6221
 3100SOL     OW20932   4.327   0.936   6.096  0.1023 -0.0294 -0.1921
 3100SOL    HW120933   4.312   1.004   6.030  0.3945  1.1889  1.0180
 3100SOL    HW220934   4.271   0.872   6.052  2.0703 -2.2927  0.6165
 3101SOL     OW20935   2.405   0.822   6.690 -0.4725 -0.0168  0.3695
 3101SOL    HW120936   2.344   0.825   6.764  0.4574  1.9634  1.0494
 3101SOL    HW220937   2.356   0.787   6.616  0.8340  1.0427 -0.9828
 3102SOL     OW20938   2.074   0.347   7.474  0.4355  0.4732  0.1877
 3102SOL    HW120939   2.160   0.388   7.463  0.5934 -0.2278 -1.2280
 3102SOL    HW220940   2.090   0.274   7.414 -1.2673  1.1114 -1.0419
 3103SOL     OW20941   4.259   1.580   5.345 -0.1086 -0.3505  0.1084
 3103SOL    HW120942   4.250   1.648   5.279  1.3518 -0.3549 -0.0970
 3103SOL    HW220943   4.172   1.572   5.384 -0.6700  1.0446 -0.8629
 3104SOL     OW20944   0.329   2.082  16.170  0.2147 -0.4330  0.1113
 3104SOL    HW120945   0.417   2.080  16.209  0.7265 -0.9681 -1.0538
 3104SOL    HW220946   0.275   2.022  16.221 -1.1533  1.6026  1.0453
 3105SOL     OW20947   3.380   3.314   1.689  0.2583 -0.0700 -0.1409
 3105SOL    HW120948   3.293   3.342   1.718  0.3498 -1.5321  1.5118
 3105SOL    HW220949   3.428   3.326   1.771 -0.2616 -0.0809  0.1592
 3106SOL     OW20950   4.645   0.523   6.670 -0.4401 -0.2496  0.0761
 3106SOL    HW120951   4.605   0.457   6.726 -0.2350  0.4899  1.0828
 3106SOL    HW220952   4.729   0.483   6.648 -0.4205 -1.5726  2.5752
 3107SOL     OW20953   4.518   2.906   5.231 -0.5219 -0.2247 -0.0194
 3107SOL    HW120954   4.572   2.917   5.153  0.5878  0.3330  0.8060
 3107SOL    HW220955   4.571   2.848   5.286  2.4836 -0.0824 -2.7657
 3108SOL     OW20956   0.405   0.452   7.800  0.1995  0.7420 -0.2050
 3108SOL    HW120957   0.495   0.480   7.812  1.3915 -2.0947 -2.4895
 3108SOL    HW220958   0.403   0.459   7.704 -2.6650 -1.2882 -0.2941
 3109SOL     OW20959   2.757   0.822   5.179  0.4933 -0.7877 -0.2581
 3109SOL    HW120960   2.828   0.784   5.230 -0.7484 -1.6877  0.8163
 3109SOL    HW220961   2.730   0.751   5.122  2.0779 -0.8147 -0.9692
 3110SOL     OW20962   4.058   0.544  11.246  0.3865 -0.2444  0.0653
 3110SOL    HW120963   3.976   0.568  11.203 -0.0851 -1.2999  0.3684
 3110SOL    HW220964   4.121   0.594  11.195 -0.5353  0.3603 -0.4758
 3111SOL     OW20965   4.569   0.082   5.266 -0.3040  0.1868  0.5157
 3111SOL    HW120966   4.564   0.174   5.293  0.6962 -0.2539  2.2198
 3111SOL    HW220967   4.487   0.046   5.301  0.0314 -0.5338  0.5687
 3112SOL     OW20968   3.484   1.999   5.873  0.0016  0.2404  0.1227
 3112SOL    HW120969   3.571   1.969   5.896  1.5463  1.8073 -3.7285
 3112SOL    HW220970   3.492   2.093   5.890  0.9865 -0.1817  1.9475
 3113SOL     OW20971   2.971   0.126   7.775 -0.2334  0.0020 -0.7102
 3113SOL    HW120972   3.004   0.139   7.864 -0.9438  1.1948 -0.6151
 3113SOL    HW220973   2.995   0.205   7.728 -1.2177  0.0546 -1.1326
 3114SOL     OW20974   3.193   4.635   1.665 -0.3029  0.3490  0.5405
 3114SOL    HW120975   3.177   4.661   1.756  1.6520  4.2051 -0.2180
 3114SOL    HW220976   3.243   4.554   1.678 -1.0446 -0.4758 -1.9208
 3115SOL     OW20977   3.471   2.291   2.832  0.1872 -0.2028  0.8028
 3115SOL    HW120978   3.510   2.269   2.747  1.6231 -0.6102  1.5772
 3115SOL    HW220979   3.378   2.270   2.829  0.3298 -0.4923 -1.4237
 3116SOL     OW20980   4.188   2.529   8.120  0.2006  0.1185 -0.8468
 3116SOL    HW120981   4.101   2.490   8.126  0.9755 -1.4309  0.1803
 3116SOL    HW220982   4.229   2.470   8.057  0.0252 -2.6324  1.6701
 3117SOL     OW20983   0.962   2.521  13.483 -0.5323 -0.7525  0.3574
 3117SOL    HW120984   0.911   2.532  13.563 -2.4469  0.9706 -1.0597
 3117SOL    HW220985   1.044   2.569  13.489 -0.7296 -0.4193  0.4156
 3118SOL     OW20986   2.797   2.265   0.111 -0.4818  0.0276 -0.2724
 3118SOL    HW120987   2.825   2.314   0.033  4.4520  0.8761  1.9988
 3118SOL    HW220988   2.839   2.317   0.180  0.2475 -1.4163  0.3724
 3119SOL     OW20989   1.866   0.865   2.512  0.4121 -0.8083  0.2913
 3119SOL    HW120990   1.802   0.808   2.556  0.2308  0.0887  1.1783
 3119SOL    HW220991   1.910   0.906   2.585 -0.8599  0.3116  0.4339
 3120SOL     OW20992   0.267   4.252  17.022 -0.1701  0.0657  0.9971
 3120SOL    HW120993   0.290   4.343  17.037 -0.6943  0.8512 -2.9299
 3120SOL    HW220994   0.175   4.255  17.047  0.0038  2.3041  1.3706
 3121SOL     OW20995   1.047   2.772  15.988 -0.2684 -0.4169  0.6420
 3121SOL    HW120996   1.091   2.695  16.026  0.4365 -1.8919 -3.2073
 3121SOL    HW220997   1.116   2.808  15.933 -0.8165  0.2291  0.3780
 3122SOL     OW20998   2.231   1.416   6.382  0.1364 -0.2894 -0.6450
 3122SOL    HW120999   2.285   1.398   6.458  2.1298  2.8787 -1.3060
 3122SOL    HW221000   2.287   1.457   6.316  0.8043 -1.4237 -0.7697
 3123SOL     OW21001   3.741   3.113   4.156 -0.0523  0.3969  0.0283
 3123SOL    HW121002   3.682   3.080   4.224 -1.2167 -0.3605 -1.3521
 3123SOL    HW221003   3.816   3.057   4.176  1.3304  2.4750  0.5686
 3124SOL     OW21004   3.501   2.950   2.334  0.1236  0.3735 -0.3761
 3124SOL    HW121005   3.499   2.879   2.398 -1.0670  0.6438 -0.1062
 3124SOL    HW221006   3.575   3.004   2.360  0.7595  0.3941 -2.1783
 3125SOL     OW21007   1.922   1.681  14.206 -0.1074  0.5208  0.2252
 3125SOL    HW121008   1.984   1.720  14.267  0.0457  0.6836 -0.0385
 3125SOL    HW221009   1.918   1.754  14.145  0.4579  0.0819 -0.3363
 3126SOL     OW21010   3.655   1.859  11.040 -0.3323 -0.2980  0.1959
 3126SOL    HW121011   3.627   1.805  10.966 -2.1996  0.2981  0.4569
 3126SOL    HW221012   3.614   1.943  11.022 -0.3598 -0.3410  0.0620
 3127SOL     OW21013   0.657   0.257   5.324  0.0099 -0.3300  0.1626
 3127SOL    HW121014   0.604   0.208   5.386 -0.0995 -1.9101 -1.2067
 3127SOL    HW221015   0.745   0.222   5.336  0.3534  0.8021  0.9661
 3128SOL     OW21016   0.403   1.143   9.626  0.1916 -0.5450 -0.0553
 3128SOL    HW121017   0.336   1.086   9.665  3.5737 -2.7501  2.5363
 3128SOL    HW221018   0.444   1.174   9.706  2.0879  0.9986 -1.6389
 3129SOL     OW21019   2.514   1.231   2.625  0.2902  0.1684  0.4121
 3129SOL    HW121020   2.497   1.145   2.587 -0.5298  0.3615  0.3590
 3129SOL    HW221021   2.448   1.283   2.579 -1.7451 -1.2543  1.7686
 3130SOL     OW21022   2.933   3.073   5.997 -0.4696  0.3020  0.5546
 3130SOL    HW121023   2.866   3.022   6.041 -0.3119 -0.1651  0.2522
 3130SOL    HW221024   2.981   3.105   6.074 -0.9171  0.0023  0.9563
 3131SOL     OW21025   3.307   0.908  15.031 -0.0579  0.1198  0.2672
 3131SOL    HW121026   3.286   0.933  15.120  0.3095  1.6940 -0.0896
 3131SOL    HW221027   3.275   0.818  15.035 -1.2906  0.6054  1.0731
 3132SOL     OW21028   0.453   3.993  10.367  0.0385 -0.4694 -0.3765
 3132SOL    HW121029   0.504   3.966  10.443  1.7631 -1.4509 -1.9015
 3132SOL    HW221030   0.366   3.980  10.404  0.0830 -2.9535 -1.1712
 3133SOL     OW21031   1.833   0.628  15.069 -0.2329 -0.0823 -0.6444
 3133SOL    HW121032   1.905   0.688  15.053  0.1620  0.0139  1.4829
 3133SOL    HW221033   1.791   0.663  15.147  0.7072  0.5503 -0.4235
 3134SOL     OW21034   2.683   2.801   4.677 -0.0076 -0.6605  0.2265
 3134SOL    HW121035   2.706   2.802   4.770  1.6478  0.9460 -0.2061
 3134SOL    HW221036   2.721   2.715   4.657 -0.9621 -0.5475 -2.0172
 3135SOL     OW21037   0.920   4.029  14.340 -0.3957  0.6453  0.0876
 3135SOL    HW121038   0.856   3.959  14.352 -2.4518  2.5956  0.4933
 3135SOL    HW221039   0.982   3.997  14.406  0.0408  1.7272  0.1969
 3136SOL     OW21040   2.502   0.495   5.941  0.3161 -0.4651  0.4747
 3136SOL    HW121041   2.533   0.493   6.031  3.9265 -0.9398 -0.7571
 3136SOL    HW221042   2.568   0.559   5.912 -0.7924  0.4343 -0.0476
 3137SOL     OW21043   2.882   1.704   9.810  0.3814 -0.0832  0.5732
 3137SOL    HW121044   2.933   1.708   9.729 -1.6431  0.5384 -0.6648
 3137SOL    HW221045   2.947   1.689   9.878 -0.5060 -0.2067  1.4044
 3138SOL     OW21046   2.275   0.746   5.679  0.0480  0.4801  0.2744
 3138SOL    HW121047   2.250   0.718   5.767  1.3399 -0.1776  0.4274
 3138SOL    HW221048   2.186   0.734   5.646  0.2187  0.2535 -0.0991
 3139SOL     OW21049   0.879   2.602   5.967  0.3607  0.6974 -0.7159
 3139SOL    HW121050   0.813   2.588   6.034  1.0287 -1.2284 -0.4707
 3139SOL    HW221051   0.888   2.519   5.920  1.6931  0.1322  0.5728
 3140SOL     OW21052   3.293   4.148  12.136  0.3144 -0.0613 -0.0561
 3140SOL    HW121053   3.250   4.233  12.148  0.7515  0.0550  0.7099
 3140SOL    HW221054   3.240   4.079  12.176 -2.3603  1.9644 -0.0679
 3141SOL     OW21055   0.572   3.030  17.093 -0.0319  0.1606 -0.6471
 3141SOL    HW121056   0.555   3.038  16.999  1.5914  3.2183 -0.6850
 3141SOL    HW221057   0.604   2.941  17.093 -0.8418 -0.1344 -0.6444
 3142SOL     OW21058   3.109   0.628   7.331 -0.7676  0.1061 -0.5361
 3142SOL    HW121059   3.161   0.696   7.288 -1.7327  0.2972 -1.4001
 3142SOL    HW221060   3.100   0.555   7.271  0.6310 -0.0753 -0.5047
 3143SOL     OW21061   3.123   4.271   8.373 -0.5102 -0.5955  0.0256
 3143SOL    HW121062   3.031   4.288   8.393 -0.4896 -1.2023  0.6429
 3143SOL    HW221063   3.121   4.295   8.281 -0.3725  1.8767  0.6497
 3144SOL     OW21064   2.941   1.036  12.723 -0.2076  0.1682  0.0870
 3144SOL    HW121065   2.924   0.974  12.652  2.3910 -1.1798  0.6341
 3144SOL    HW221066   3.032   1.022  12.748 -0.1458  0.1829 -0.1263
 3145SOL     OW21067   0.693   2.645   1.447 -0.1969  0.1056  0.2676
 3145SOL    HW121068   0.751   2.614   1.378  0.8230  1.4545  0.5165
 3145SOL    HW221069   0.612   2.666   1.401 -0.3913  1.4472  1.2162
 3146SOL     OW21070   2.755   4.377   1.549 -0.5502 -0.1595  0.2490
 3146SOL    HW121071   2.728   4.288   1.527 -0.3200 -0.1882  0.0841
 3146SOL    HW221072   2.850   4.382   1.543 -0.7478 -0.3502 -2.8126
 3147SOL     OW21073   2.675   2.422   5.433  0.0274 -0.1663 -0.6202
 3147SOL    HW121074   2.753   2.420   5.488 -2.0386 -0.5336  2.3001
 3147SOL    HW221075   2.691   2.356   5.366 -1.2238 -2.6524  1.5358
 3148SOL     OW21076   2.899   1.875   9.386  0.3036 -0.6222 -0.6004
 3148SOL    HW121077   2.937   1.896   9.301 -1.2628  1.7256 -0.7311
 3148SOL    HW221078   2.816   1.838   9.357 -0.5038  1.9495 -1.6107
 3149SOL     OW21079   4.652   0.510   2.982 -0.6759 -0.2740 -0.2569
 3149SOL    HW121080   4.648   0.415   2.981 -3.1204 -0.1518 -0.6467
 3149SOL    HW221081   4.570   0.540   2.943 -0.0432  1.2307 -0.4320
 3150SOL     OW21082   2.746   4.245   4.639 -0.0202 -0.0163  0.0144
 3150SOL    HW121083   2.652   4.230   4.650 -0.8824  3.7036 -2.1290
 3150SOL    HW221084   2.753   4.339   4.618 -0.3627 -0.6039 -2.6974
 3151SOL     OW21085   3.669   0.466   5.430  0.0765 -0.5021  0.4116
 3151SOL    HW121086   3.640   0.554   5.454  0.3785 -0.0668 -0.8035
 3151SOL    HW221087   3.654   0.428   5.516  0.1073 -1.2147  0.1047
 3152SOL     OW21088   1.664   0.132  11.187 -0.1132  0.2874 -0.5882
 3152SOL    HW121089   1.704   0.140  11.100  1.7060  0.2970  0.2657
 3152SOL    HW221090   1.716   0.056  11.211 -2.2184 -0.9570  0.0850
 3153SOL     OW21091   2.998   4.219  12.247 -0.7061  0.0654  0.0841
 3153SOL    HW121092   2.948   4.138  12.238 -0.6300 -0.0666  0.8765
 3153SOL    HW221093   2.979   4.267  12.167 -2.0696 -1.2885 -0.3997
 3154SOL     OW21094   3.635   1.193   1.237 -0.1883 -0.5620 -0.6360
 3154SOL    HW121095   3.609   1.250   1.310  0.0287  1.8556 -2.4601
 3154SOL    HW221096   3.589   1.111   1.256 -2.0019  0.5042 -0.4264
 3155SOL     OW21097   1.891   0.259   5.372  0.1228 -0.1071  0.4031
 3155SOL    HW121098   1.905   0.164   5.378 -3.2085 -0.8023 -2.5171
 3155SOL    HW221099   1.836   0.261   5.294  3.0558  0.9522 -1.6547
 3156SOL     OW21100   2.350   3.815   0.717 -0.0646 -0.0351  0.0487
 3156SOL    HW121101   2.360   3.830   0.623  0.1991  0.0823  0.0964
 3156SOL    HW221102   2.264   3.774   0.707 -0.3107 -0.2107  2.9111
 3157SOL     OW21103   0.040   1.930   8.914 -0.4816 -0.1837  0.2783
 3157SOL    HW121104   0.027   1.951   8.821  2.3172  0.1532 -0.0342
 3157SOL    HW221105   0.062   2.012   8.957 -0.4366 -1.5021  2.7823
 3158SOL     OW21106   0.039   0.369   5.118  0.2092 -0.3577  0.2961
 3158SOL    HW121107   4.706   0.334   5.060 -0.0525  2.1893 -0.9349
 3158SOL    HW221108   0.072   0.440   5.063  2.2791 -2.4323 -1.1228
 3159SOL     OW21109   3.953   1.468   8.975  0.3585 -1.2168 -0.2662
 3159SOL    HW121110   4.022   1.442   8.913 -1.9617 -2.5537 -2.2954
 3159SOL    HW221111   4.003   1.496   9.052 -1.5121  1.5720 -0.1126
 3160SOL     OW21112   1.394   1.403  10.781 -0.0124 -0.3282  0.1545
 3160SOL    HW121113   1.367   1.438  10.866  0.7711 -2.2421  1.1840
 3160SOL    HW221114   1.471   1.358  10.815  0.5246  0.9733  0.6550
 3161SOL     OW21115   4.255   3.241   3.987 -0.2669  0.0597  0.4661
 3161SOL    HW121116   4.342   3.280   3.990  0.8474 -2.3235 -1.2424
 3161SOL    HW221117   4.207   3.319   3.959  0.4917 -0.2987 -1.7834
 3162SOL     OW21118   3.549   3.494   9.056  0.1037 -0.5735  0.5689
 3162SOL    HW121119   3.534   3.432   8.985 -0.0623 -2.9512  2.6816
 3162SOL    HW221120   3.556   3.430   9.127 -1.4211 -0.1688  1.0891
 3163SOL     OW21121   1.610   1.391  10.979  0.6779  0.4535 -0.1120
 3163SOL    HW121122   1.651   1.362  11.061  0.4907  0.4490 -0.0213
 3163SOL    HW221123   1.542   1.448  11.014  0.5044  0.5642 -0.6355
 3164SOL     OW21124   1.443   4.619  10.036 -0.2351 -0.0943  0.5429
 3164SOL    HW121125   1.460   4.712  10.022 -1.0481  0.2070  1.5556
 3164SOL    HW221126   1.474   4.586   9.952 -0.8025 -2.5087  1.2804
 3165SOL     OW21127   3.930   2.423   8.686  0.2266  0.0155 -0.3322
 3165SOL    HW121128   3.983   2.369   8.744 -0.9505 -0.8680 -0.1016
 3165SOL    HW221129   3.909   2.365   8.613  1.1496 -1.3004  0.4428
 3166SOL     OW21130   2.253   0.042  11.918  0.1492 -0.3137  0.0005
 3166SOL    HW121131   2.321   0.044  11.986  1.4465 -0.7394 -1.2836
 3166SOL    HW221132   2.296   4.730  11.846  3.3583 -1.7909  2.8478
 3167SOL     OW21133   4.539   2.738   6.090 -0.1714 -0.6029 -0.1211
 3167SOL    HW121134   4.595   2.671   6.051  1.2553 -1.3088  3.0751
 3167SOL    HW221135   4.614   2.784   6.129 -0.1681  0.3751 -1.3057
 3168SOL     OW21136   4.243   2.866  17.578  0.2393 -0.1873  0.2534
 3168SOL    HW121137   4.305   2.830  17.515  1.0671  0.7507  0.5342
 3168SOL    HW221138   4.260   2.960  17.581  1.2350 -0.3448 -0.5867
 3169SOL     OW21139   0.814   0.207   6.337 -0.3714  0.1408 -0.8723
 3169SOL    HW121140   0.774   0.134   6.289 -1.7034  0.0571  0.3871
 3169SOL    HW221141   0.907   0.203   6.311 -0.3283  0.7342 -0.7952
 3170SOL     OW21142   3.770   2.210   3.979  0.5240 -0.1809  0.6291
 3170SOL    HW121143   3.683   2.239   4.008  0.3187 -2.7019  2.6340
 3170SOL    HW221144   3.745   2.145   3.914  2.8447 -0.5806  0.1435
 3171SOL     OW21145   1.173   1.369   0.233  0.3189  0.2949 -0.4914
 3171SOL    HW121146   1.190   1.332   0.146  1.0610  0.7052 -0.5225
 3171SOL    HW221147   1.145   1.297   0.290  0.4294  0.1312 -0.6424
 3172SOL     OW21148   3.265   2.626   8.424  0.3808 -0.0409 -0.2508
 3172SOL    HW121149   3.322   2.649   8.351  0.9074 -1.9964 -0.4639
 3172SOL    HW221150   3.222   2.712   8.427 -0.7197 -0.5220 -2.0761
 3173SOL     OW21151   0.043   3.852  17.464  0.5969  0.2300  0.7316
 3173SOL    HW121152   0.088   3.774  17.495  1.2509  0.0415 -0.6768
 3173SOL    HW221153   0.050   3.905  17.543 -1.6319  0.6413  0.6738
 3174SOL     OW21154   0.671   1.917   6.941 -0.2264 -0.2379  0.2398
 3174SOL    HW121155   0.689   1.825   6.956 -2.9526 -0.2468  3.2658
 3174SOL    HW221156   0.621   1.948   7.016  1.6086  0.9427  0.9923
 3175SOL     OW21157   4.521   1.857   4.265 -0.5338  0.3233 -0.2335
 3175SOL    HW121158   4.542   1.772   4.227  2.3006  0.5590  0.7819
 3175SOL    HW221159   4.436   1.878   4.227  0.1911  1.7376 -1.0888
 3176SOL     OW21160   1.394   2.299   3.824  0.0282 -0.1444  0.1093
 3176SOL    HW121161   1.400   2.205   3.840 -2.8412 -0.0441  1.6657
 3176SOL    HW221162   1.479   2.317   3.784  0.3386 -2.5225 -0.2807
 3177SOL     OW21163   0.937   1.980  17.662  0.1854 -0.2039 -0.4837
 3177SOL    HW121164   0.870   2.043  17.687 -0.3204 -0.4413 -1.1985
 3177SOL    HW221165   0.949   1.987  17.567 -1.5089 -1.0249 -0.7805
 3178SOL     OW21166   2.575   4.333   7.221  0.5038  0.0786 -0.2065
 3178SOL    HW121167   2.590   4.399   7.288  0.8143  0.1071 -0.2994
 3178SOL    HW221168   2.481   4.315   7.224  0.2624  0.8826 -2.5788
 3179SOL     OW21169   4.306   1.238   7.805 -0.0792  0.3737 -0.3135
 3179SOL    HW121170   4.312   1.318   7.857  0.5205 -0.5343  1.0154
 3179SOL    HW221171   4.263   1.180   7.869 -0.4859  0.3649 -0.5915
 3180SOL     OW21172   2.348   0.277   9.863 -0.3484  0.4064  0.2988
 3180SOL    HW121173   2.370   0.363   9.899 -0.5594  0.8044 -0.5188
 3180SOL    HW221174   2.255   0.297   9.847  0.0964  1.8734 -0.4348
 3181SOL     OW21175   2.743   2.236   8.081 -0.1080 -0.3419 -0.0647
 3181SOL    HW121176   2.800   2.271   8.013  1.1681 -1.0556  0.6312
 3181SOL    HW221177   2.702   2.321   8.096  1.6622  0.6122 -0.7298
 3182SOL     OW21178   3.354   3.550  11.581 -0.4807  0.8540 -0.2724
 3182SOL    HW121179   3.433   3.605  11.578 -1.1685  1.7524 -1.9191
 3182SOL    HW221180   3.346   3.521  11.672 -1.4055 -0.0776 -0.6597
 3183SOL     OW21181   2.557   0.843   8.937 -0.2283 -0.3190 -0.9958
 3183SOL    HW121182   2.494   0.914   8.926 -0.1703  0.1541  1.7693
 3183SOL    HW221183   2.613   0.881   9.005 -2.0848 -1.6700  1.3005
 3184SOL     OW21184   4.538   0.903  12.778 -0.1558  0.3627 -0.0511
 3184SOL    HW121185   4.589   0.965  12.830  0.1091 -2.2913  2.9260
 3184SOL    HW221186   4.454   0.940  12.804  0.0646  1.9450 -1.6536
 3185SOL     OW21187   3.320   1.206   7.486  0.0261 -1.0185  0.0945
 3185SOL    HW121188   3.337   1.112   7.488  0.7357 -0.8844  0.5010
 3185SOL    HW221189   3.226   1.202   7.497 -0.1242 -0.2954 -0.8941
 3186SOL     OW21190   1.655   3.914  11.072 -0.2618  0.4203  0.2892
 3186SOL    HW121191   1.574   3.900  11.022 -0.3658 -0.3946  0.6724
 3186SOL    HW221192   1.720   3.906  11.003  0.4046  1.2705  0.8289
 3187SOL     OW21193   3.642   1.231  14.658  0.3027 -0.4061 -0.0986
 3187SOL    HW121194   3.705   1.212  14.589 -0.5059  1.2614 -1.3025
 3187SOL    HW221195   3.694   1.221  14.738 -0.0138 -3.3348 -0.2700
 3188SOL     OW21196   4.543   2.869   6.833  0.2678 -0.5969  0.2934
 3188SOL    HW121197   4.622   2.816   6.841  0.1949 -1.2123 -3.2124
 3188SOL    HW221198   4.556   2.922   6.912 -1.0207  0.1133  0.0214
 3189SOL     OW21199   1.405   1.388  12.909  0.1012  0.1734  0.7131
 3189SOL    HW121200   1.482   1.341  12.943  0.1140 -0.2186  0.1612
 3189SOL    HW221201   1.349   1.315  12.882  0.1241  0.7704 -0.9506
 3190SOL     OW21202   3.008   4.325   1.534  0.0477  0.3512 -0.1499
 3190SOL    HW121203   3.017   4.266   1.459 -2.4761  0.5139 -0.5546
 3190SOL    HW221204   3.050   4.280   1.607 -1.3212 -1.1011 -0.2596
 3191SOL     OW21205   0.226   2.202   0.409 -0.6581  0.2312  0.2804
 3191SOL    HW121206   0.244   2.108   0.412  1.6148  0.6954  1.5423
 3191SOL    HW221207   0.214   2.204   0.314  2.1236 -2.2168 -0.1278
 3192SOL     OW21208   0.585   1.992   1.926 -0.4619  0.6911  0.3369
 3192SOL    HW121209   0.667   2.039   1.912 -1.4789  2.9806  2.0392
 3192SOL    HW221210   0.524   2.057   1.960  0.6735  1.0981  1.5819
 3193SOL     OW21211   3.282   2.536   9.438 -0.5635 -0.2921  0.0176
 3193SOL    HW121212   3.227   2.595   9.489  1.2928  0.9737  0.5412
 3193SOL    HW221213   3.371   2.571   9.438 -0.1235 -1.3794  1.3056
 3194SOL     OW21214   1.482   3.607   6.927  0.4437  0.0107  0.2832
 3194SOL    HW121215   1.483   3.594   6.832 -1.8599 -0.5959  0.3378
 3194SOL    HW221216   1.450   3.521   6.953 -0.8898  0.6407  0.7207
 3195SOL     OW21217   0.033   1.885   2.353  0.4461  0.3421 -0.0698
 3195SOL    HW121218   0.112   1.904   2.405  1.2778 -0.7454 -0.9243
 3195SOL    HW221219   0.064   1.820   2.290 -1.0512  2.0063 -2.5138
 3196SOL     OW21220   2.162   3.745   2.099  0.0831 -0.0177 -0.5576
 3196SOL    HW121221   2.085   3.801   2.111  0.6415  0.3667  1.3130
 3196SOL    HW221222   2.126   3.662   2.067 -0.4963  0.6947 -1.7579
 3197SOL     OW21223   3.878   3.525   6.772 -0.3409 -0.4664 -0.2075
 3197SOL    HW121224   3.863   3.510   6.866  0.4146  0.8915  0.1369
 3197SOL    HW221225   3.872   3.431   6.753 -0.4260 -0.2255 -1.3242
 3198SOL     OW21226   2.105   0.834   8.464  0.1732 -0.0656 -0.4936
 3198SOL    HW121227   2.190   0.793   8.447  0.6819  0.6489  0.3066
 3198SOL    HW221228   2.101   0.897   8.392 -0.6046 -0.0367 -0.4294
 3199SOL     OW21229   2.388   1.696   6.921  0.9938 -0.2084  0.0803
 3199SOL    HW121230   2.479   1.669   6.911  1.3613  1.4048 -0.9479
 3199SOL    HW221231   2.403   1.785   6.952 -1.1372  0.2674 -0.2058
 3200SOL     OW21232   4.144   3.379   8.271  0.4413  0.2144  0.0849
 3200SOL    HW121233   4.225   3.430   8.275  1.1836 -1.1914  2.3451
 3200SOL    HW221234   4.165   3.315   8.203 -1.6393 -2.5413  2.0513
 3201SOL     OW21235   1.771   0.831  14.444 -0.4890  0.3161 -0.3369
 3201SOL    HW121236   1.813   0.912  14.472  1.7269 -0.9013 -0.1716
 3201SOL    HW221237   1.764   0.796  14.533  0.4938 -1.6815 -1.0557
 3202SOL     OW21238   1.171   2.824   7.216  0.1150  0.3153 -0.3241
 3202SOL    HW121239   1.248   2.784   7.175 -0.0445 -0.0151 -0.2990
 3202SOL    HW221240   1.130   2.744   7.248  0.1592  0.2635 -0.3988
 3203SOL     OW21241   2.461   4.171   8.812 -0.5162  0.6872  0.6142
 3203SOL    HW121242   2.441   4.105   8.746  0.4710  0.2369  0.7704
 3203SOL    HW221243   2.382   4.226   8.814  0.1405  1.6007  1.3230
 3204SOL     OW21244   3.154   2.255   5.731  0.0512  0.1249  0.5131
 3204SOL    HW121245   3.110   2.171   5.720  0.6886 -0.0685 -0.5021
 3204SOL    HW221246   3.169   2.257   5.825 -1.9871  0.4292  0.8399
 3205SOL     OW21247   0.197   4.474   8.827  0.1278  0.2018 -0.5214
 3205SOL    HW121248   0.117   4.526   8.828  0.2551  0.4157 -1.1497
 3205SOL    HW221249   0.217   4.482   8.734 -1.2750  1.4109 -0.7083
 3206SOL     OW21250   3.209   2.033   9.227 -0.1698 -0.3270 -0.0581
 3206SOL    HW121251   3.225   2.113   9.178  0.4542  0.1940  0.9890
 3206SOL    HW221252   3.150   1.979   9.175 -0.4351  1.1786 -1.3103
 3207SOL     OW21253   2.827   0.880   9.430 -0.1780 -0.2751  0.0496
 3207SOL    HW121254   2.765   0.873   9.503 -0.1056  1.6691  0.2806
 3207SOL    HW221255   2.882   0.943   9.476 -0.4594 -1.4692  2.0516
 3208SOL     OW21256   3.060   2.868   6.567 -0.0621  0.6330  0.8326
 3208SOL    HW121257   2.967   2.848   6.555  0.4206 -0.9465 -0.3167
 3208SOL    HW221258   3.062   2.949   6.619 -1.0258  1.6302 -0.7078
 3209SOL     OW21259   2.895   3.646  13.246  0.1108 -0.0983 -0.6421
 3209SOL    HW121260   2.846   3.699  13.183 -2.0081 -1.9756 -0.5718
 3209SOL    HW221261   2.974   3.699  13.247  2.4369 -3.5988  1.0522
 3210SOL     OW21262   1.984   1.235   4.645  0.0255 -0.1030  0.4064
 3210SOL    HW121263   1.936   1.272   4.570  0.4027  0.2621  0.3442
 3210SOL    HW221264   2.038   1.312   4.666 -1.0668  0.4016  1.3245
 3211SOL     OW21265   3.214   2.266   9.892 -0.0963  0.1911  0.2469
 3211SOL    HW121266   3.194   2.198   9.827 -0.1534 -0.5455  1.0274
 3211SOL    HW221267   3.290   2.307   9.851  0.5828 -1.0220  0.3097
 3212SOL     OW21268   0.700   3.424   6.946  0.1856  0.1948  0.1511
 3212SOL    HW121269   0.664   3.509   6.972  1.0265  0.6243 -0.0474
 3212SOL    HW221270   0.734   3.445   6.859 -0.1803  0.5212  0.0869
 3213SOL     OW21271   0.060   2.701  16.299 -0.5100  0.1182 -0.2738
 3213SOL    HW121272   0.050   2.606  16.307  0.4789  0.0390 -0.0302
 3213SOL    HW221273   0.145   2.696  16.256 -1.0363 -0.5159 -1.2455
 3214SOL     OW21274   2.089   0.907  11.643  0.8578 -0.0179  0.0971
 3214SOL    HW121275   2.045   0.991  11.651  0.1125 -0.5926  2.1204
 3214SOL    HW221276   2.179   0.939  11.651  1.7380 -2.3460 -0.3143
 3215SOL     OW21277   0.623   1.929   3.217  0.3205  0.5134  0.2976
 3215SOL    HW121278   0.604   1.990   3.289 -2.1706 -2.3054  2.0474
 3215SOL    HW221279   0.539   1.883   3.224  0.4202  0.1085 -1.1641
 3216SOL     OW21280   0.969   2.530  15.211 -0.1982  0.2917  0.2523
 3216SOL    HW121281   0.952   2.436  15.217 -1.2207  0.4783  0.3649
 3216SOL    HW221282   1.042   2.527  15.149 -1.2479  1.8094 -1.0469
 3217SOL     OW21283   3.449   2.289  10.720 -0.0220  0.4641  0.0330
 3217SOL    HW121284   3.470   2.225  10.653  0.6279  0.6470  0.0633
 3217SOL    HW221285   3.409   2.358  10.666 -1.1975 -1.2337 -1.2391
 3218SOL     OW21286   4.670   2.071   7.133  0.1998 -0.4670 -0.8584
 3218SOL    HW121287   4.597   2.124   7.165  0.9132 -0.3504  0.6069
 3218SOL    HW221288   4.635   1.983   7.119  0.1021 -0.4301 -0.8391
 3219SOL     OW21289   2.748   4.351   2.349  0.1414  0.6577  0.8104
 3219SOL    HW121290   2.791   4.266   2.340 -1.2019 -0.1951  2.5417
 3219SOL    HW221291   2.668   4.333   2.300  0.8095 -0.1231  0.0214
 3220SOL     OW21292   0.470   0.926   2.844  0.1154  0.6010 -0.1611
 3220SOL    HW121293   0.458   1.002   2.788 -2.4210 -0.1805 -0.7124
 3220SOL    HW221294   0.554   0.944   2.886 -1.1789  0.9141  2.3151
 3221SOL     OW21295   3.037   1.230   8.631 -0.1552  0.4157  0.2862
 3221SOL    HW121296   3.111   1.169   8.629 -0.6134 -0.0876 -1.1354
 3221SOL    HW221297   3.072   1.286   8.700  0.3783 -1.2077  1.3293
 3222SOL     OW21298   1.745   4.097   8.528  0.4006  0.1935 -0.6012
 3222SOL    HW121299   1.715   4.027   8.586  0.2795 -0.0697 -0.9831
 3222SOL    HW221300   1.828   4.064   8.495  0.9924 -0.6172  1.6955
 3223SOL     OW21301   3.826   2.829   2.795  0.8417  0.1129 -0.4445
 3223SOL    HW121302   3.770   2.790   2.862 -0.6346  3.2664  0.1306
 3223SOL    HW221303   3.913   2.820   2.835  0.3683  1.5950  0.9256
 3224SOL     OW21304   1.452   0.800   1.469  0.3944 -0.9365  0.2734
 3224SOL    HW121305   1.408   0.882   1.448  2.0684  0.4093  2.0331
 3224SOL    HW221306   1.482   0.810   1.560 -0.8190  4.2490  0.1276
 3225SOL     OW21307   3.606   4.086  12.397 -0.0587 -0.0753 -0.2526
 3225SOL    HW121308   3.694   4.083  12.360  0.3847  2.1259  0.6825
 3225SOL    HW221309   3.614   4.070  12.491 -1.5487 -0.2394 -0.1412
 3226SOL     OW21310   4.478   0.471  14.084  0.3344  0.7034 -0.2505
 3226SOL    HW121311   4.398   0.521  14.102  0.4998  1.3815 -1.4082
 3226SOL    HW221312   4.506   0.454  14.174 -0.6434  0.3384 -0.0150
 3227SOL     OW21313   0.269   0.681   9.029 -0.7402 -0.0760  0.2046
 3227SOL    HW121314   0.176   0.681   9.051 -1.1605 -0.8398 -1.5906
 3227SOL    HW221315   0.274   0.605   8.972  1.7836  1.5881 -1.7968
 3228SOL     OW21316   4.542   3.799   6.252 -0.9554  0.2557  0.1758
 3228SOL    HW121317   4.527   3.748   6.172 -3.5821  2.5082 -0.7736
 3228SOL    HW221318   4.636   3.817   6.259 -0.3615 -2.7583 -0.2202
 3229SOL     OW21319   3.411   2.629   8.689  0.0220  0.4273 -0.3882
 3229SOL    HW121320   3.346   2.664   8.628 -0.2852  2.9659  1.4021
 3229SOL    HW221321   3.485   2.618   8.630 -0.8322 -2.9149 -0.8674
 3230SOL     OW21322   3.663   1.355  13.256  0.0183 -0.9672 -0.0484
 3230SOL    HW121323   3.688   1.431  13.204  0.2806 -1.0980 -0.1190
 3230SOL    HW221324   3.568   1.348  13.258 -0.0857  0.3228 -1.0025
 3231SOL     OW21325   1.348   3.644   3.579  0.3111 -0.5044  0.8641
 3231SOL    HW121326   1.412   3.630   3.649  1.0798  0.0783  0.2740
 3231SOL    HW221327   1.275   3.666   3.638 -1.3896 -3.8393  0.0241
 3232SOL     OW21328   1.120   4.640   5.399  0.2325 -0.2330 -0.0593
 3232SOL    HW121329   1.158   4.657   5.485 -1.4587  0.2457  0.5998
 3232SOL    HW221330   1.037   4.687   5.390 -1.7107 -4.0833 -2.2796
 3233SOL     OW21331   1.477   0.135   6.531  0.1917 -0.5120  0.1801
 3233SOL    HW121332   1.476   0.111   6.624 -0.9765 -0.0954  0.2687
 3233SOL    HW221333   1.501   0.050   6.495  0.6149  0.6296 -2.2127
 3234SOL     OW21334   0.862   3.750   6.306  0.0105  0.1410  0.2501
 3234SOL    HW121335   0.913   3.691   6.251 -2.6575 -2.1545  0.2325
 3234SOL    HW221336   0.862   3.833   6.257 -0.3128 -0.5758 -0.9739
 3235SOL     OW21337   2.412   0.237   7.207 -0.0065  0.0700 -0.1577
 3235SOL    HW121338   2.416   0.308   7.271 -2.2673 -1.1893  1.4010
 3235SOL    HW221339   2.383   0.162   7.260 -0.5700  0.0405 -0.5133
 3236SOL     OW21340   0.712   3.801   0.462  0.1600 -0.1301 -0.1350
 3236SOL    HW121341   0.751   3.829   0.379 -2.0771  2.1070 -0.4237
 3236SOL    HW221342   0.690   3.709   0.449  1.0692 -0.6053  1.6844
 3237SOL     OW21343   0.695   4.401   8.027  0.4858 -0.2896  0.1624
 3237SOL    HW121344   0.734   4.472   7.976 -2.2152  1.5048  0.5962
 3237SOL    HW221345   0.743   4.325   7.995 -1.1714 -0.5362 -1.7594
 3238SOL     OW21346   1.522   3.129   9.553 -0.0340 -0.3326 -0.6723
 3238SOL    HW121347   1.545   3.105   9.463 -1.1993 -0.4751 -0.9219
 3238SOL    HW221348   1.610   3.115   9.590 -0.0494  2.9492  0.6055
 3239SOL     OW21349   1.677   1.818  14.986 -0.5508  0.4557  0.3956
 3239SOL    HW121350   1.618   1.892  14.969 -2.3618 -1.2609 -0.8835
 3239SOL    HW221351   1.621   1.741  14.978 -1.7358  1.2626  0.9151
 3240SOL     OW21352   4.301   4.516   8.780  0.4945  0.2855  0.1839
 3240SOL    HW121353   4.323   4.438   8.831 -2.6625  0.0479  1.1731
 3240SOL    HW221354   4.208   4.516   8.799  0.8323 -0.4682  1.7989
 3241SOL     OW21355   0.456   2.596   3.059 -0.4574 -0.5833  0.1902
 3241SOL    HW121356   0.536   2.636   3.025 -0.1144 -3.1735 -2.0449
 3241SOL    HW221357   0.389   2.633   3.002 -1.0863 -0.7250  0.8422
 3242SOL     OW21358   2.204   3.457   5.474  0.3054  0.3327  0.0158
 3242SOL    HW121359   2.174   3.463   5.384  0.4108 -0.1513 -0.0520
 3242SOL    HW221360   2.278   3.518   5.476 -0.8109  1.6715  0.5764
 3243SOL     OW21361   4.637   3.083  16.240 -0.0802  0.0012 -0.4327
 3243SOL    HW121362   4.646   3.161  16.295 -0.2539 -0.5924  0.4318
 3243SOL    HW221363   4.641   3.019  16.310  2.4138  0.2503 -0.3764
 3244SOL     OW21364   0.717   3.296  16.427 -0.0873  0.9075  0.3489
 3244SOL    HW121365   0.724   3.386  16.393  0.6558  0.3971 -0.8409
 3244SOL    HW221366   0.756   3.236  16.364 -2.3691 -1.1470  0.9149
 3245SOL     OW21367   0.106   4.159  10.272  0.0784 -0.3926 -0.5088
 3245SOL    HW121368   0.019   4.135  10.239  0.6509 -2.2648 -0.6418
 3245SOL    HW221369   0.090   4.146  10.366 -0.3301 -0.5118 -0.5921
 3246SOL     OW21370   1.790   0.578   6.019  0.3776 -0.3135 -0.6003
 3246SOL    HW121371   1.740   0.596   5.939  1.0996  1.4996 -0.6245
 3246SOL    HW221372   1.862   0.520   5.994  0.1968 -0.5919 -0.4814
 3247SOL     OW21373   1.626   2.742  12.291  0.0488  0.4995 -0.2217
 3247SOL    HW121374   1.687   2.801  12.335 -1.7899  1.5984  0.8745
 3247SOL    HW221375   1.687   2.672  12.270  2.4011  2.5491 -0.2277
 3248SOL     OW21376   0.807   2.148   2.587 -0.2406 -0.1372  0.2524
 3248SOL    HW121377   0.784   2.064   2.626 -1.1702 -0.1672 -0.3474
 3248SOL    HW221378   0.899   2.140   2.613 -0.3167 -0.0801  0.5446
 3249SOL     OW21379   4.630   2.427   7.676 -0.3261  0.0526 -0.3901
 3249SOL    HW121380   4.642   2.336   7.702  1.6824 -0.1140 -1.9669
 3249SOL    HW221381   4.535   2.440   7.684 -0.0575  2.1972 -0.5938
 3250SOL     OW21382   0.549   3.811   1.389  0.2571  0.2285  0.3027
 3250SOL    HW121383   0.639   3.818   1.420  0.7309  1.4105 -1.3499
 3250SOL    HW221384   0.504   3.878   1.441 -0.4685  0.2571 -0.3738
 3251SOL     OW21385   0.592   2.724   8.931  0.1676  0.1397  0.0471
 3251SOL    HW121386   0.497   2.712   8.929  0.0862  0.6503  0.7086
 3251SOL    HW221387   0.598   2.818   8.949  0.0760  0.3157 -0.8453
 3252SOL     OW21388   4.716   3.859   0.197  0.1883  0.4401  0.1631
 3252SOL    HW121389   4.672   3.819   0.123 -0.3011  0.5155  0.4087
 3252SOL    HW221390   0.068   3.863   0.155 -0.6353 -1.0963 -1.6566
 3253SOL     OW21391   3.966   4.585   7.227  0.0729 -0.2049 -0.0237
 3253SOL    HW121392   3.925   4.526   7.163  0.5011  0.6978 -1.1479
 3253SOL    HW221393   3.884   4.621   7.262  1.2120  0.7743  1.5994
 3254SOL     OW21394   3.379   4.632  11.554  0.3006  0.1746  0.4117
 3254SOL    HW121395   3.291   4.598  11.571  0.4785  0.2261  1.4346
 3254SOL    HW221396   3.385   4.635  11.458 -0.4468  3.1405  0.4590
 3255SOL     OW21397   0.247   2.057  12.132  0.4192  0.3206  0.3860
 3255SOL    HW121398   0.259   2.092  12.044  1.6385  1.8404  1.1558
 3255SOL    HW221399   0.167   2.008  12.113 -0.3481  3.1162 -3.5268
 3256SOL     OW21400   1.048   1.895  11.462  0.0884  0.1191  0.5972
 3256SOL    HW121401   1.105   1.951  11.409  0.5808 -0.0835  0.9168
 3256SOL    HW221402   1.093   1.895  11.546  2.7563 -0.3249 -0.8265
 3257SOL     OW21403   3.963   1.240   8.268 -0.2982  0.0966  0.2275
 3257SOL    HW121404   3.918   1.170   8.222  0.8460 -1.0089  0.7825
 3257SOL    HW221405   4.052   1.204   8.273  0.0393  0.6242 -1.9695
 3258SOL     OW21406   2.539   2.755   6.045 -0.0533 -0.0256 -0.3217
 3258SOL    HW121407   2.494   2.810   5.980 -0.7689 -0.9652 -0.6211
 3258SOL    HW221408   2.473   2.685   6.048  0.3658 -0.4547 -1.0233
 3259SOL     OW21409   3.027   1.572   5.038 -0.4891 -0.0978  0.1563
 3259SOL    HW121410   3.093   1.588   5.105  1.0799  2.0901 -1.9184
 3259SOL    HW221411   3.026   1.651   4.984 -3.7758 -0.9758 -1.0606
 3260SOL     OW21412   0.391   0.394   4.071  0.2034  0.1050 -0.9430
 3260SOL    HW121413   0.482   0.411   4.093  0.1919 -0.2821 -0.5780
 3260SOL    HW221414   0.359   0.370   4.158  0.4049  0.7057 -0.7055
 3261SOL     OW21415   0.080   2.761   3.158  0.0927 -0.5180 -0.2416
 3261SOL    HW121416   0.076   2.828   3.090 -3.9313  0.3154  0.8094
 3261SOL    HW221417   0.127   2.807   3.228  1.6435 -1.1926 -0.8289
 3262SOL     OW21418   4.729   3.359   2.238 -0.3656  0.4487 -0.4319
 3262SOL    HW121419   0.032   3.447   2.241  2.5982 -0.7411 -2.1701
 3262SOL    HW221420   4.667   3.370   2.310 -0.1871  0.6404 -0.3091
 3263SOL     OW21421   3.473   0.682  11.371 -0.0909  0.5239  0.1111
 3263SOL    HW121422   3.526   0.737  11.429  0.1955 -0.3558  0.6919
 3263SOL    HW221423   3.541   0.676  11.303 -0.0968 -2.4812  0.3591
 3264SOL     OW21424   3.045   1.717  10.019  0.2034  0.4507  0.0978
 3264SOL    HW121425   3.111   1.705  10.087  2.2952 -0.2306 -2.0452
 3264SOL    HW221426   2.988   1.779  10.065  0.0238 -0.7970  1.5467
 3265SOL     OW21427   2.267   1.254  12.289 -0.0064  0.2258 -0.0339
 3265SOL    HW121428   2.325   1.287  12.358  0.5071 -1.1498  0.1859
 3265SOL    HW221429   2.286   1.316  12.218  3.0816 -1.9830 -1.1687
 3266SOL     OW21430   2.187   0.306   8.951 -0.0057 -0.1188 -0.4496
 3266SOL    HW121431   2.255   0.367   8.926 -0.5062  0.6911  0.1702
 3266SOL    HW221432   2.143   0.293   8.867 -1.3556 -1.4051  0.4470
 3267SOL     OW21433   1.386   4.029   6.837 -0.0725 -0.0949  0.0780
 3267SOL    HW121434   1.370   3.973   6.913  1.9490 -0.6099  0.1174
 3267SOL    HW221435   1.433   4.102   6.877 -2.7786  0.6719  1.8287
 3268SOL     OW21436   2.657   3.418   1.288 -0.4990 -0.3198  0.5033
 3268SOL    HW121437   2.722   3.488   1.287 -1.4187  0.5065 -3.1236
 3268SOL    HW221438   2.587   3.484   1.289 -0.8254 -0.6805  0.9329
 3269SOL     OW21439   0.609   4.025  17.510  0.2082  0.3668 -0.0279
 3269SOL    HW121440   0.685   3.969  17.523  1.0721  1.2421 -1.3326
 3269SOL    HW221441   0.608   4.023  17.415 -0.1060 -0.8234 -0.0065
 3270SOL     OW21442   1.139   1.606   5.190 -0.3744  0.4078 -0.0120
 3270SOL    HW121443   1.168   1.693   5.163  2.4081 -1.3047 -2.4952
 3270SOL    HW221444   1.047   1.624   5.211  0.4370  1.8227  2.4213
 3271SOL     OW21445   0.497   4.066   8.267  0.2934  0.3178 -0.0739
 3271SOL    HW121446   0.451   4.119   8.332 -1.1452 -0.5148 -0.3967
 3271SOL    HW221447   0.434   4.068   8.195  0.5449  0.1230 -0.2999
 3272SOL     OW21448   1.548   0.599   8.011 -0.1207  0.7343 -0.2886
 3272SOL    HW121449   1.617   0.659   7.981 -1.6353  1.8980 -1.4646
 3272SOL    HW221450   1.495   0.653   8.069  0.4466  1.7246 -0.6874
 3273SOL     OW21451   4.674   2.212   3.200  0.1675 -0.3190 -0.1994
 3273SOL    HW121452   4.625   2.273   3.145 -0.5318 -0.8471 -0.1618
 3273SOL    HW221453   0.015   2.195   3.144  1.1435  2.9416  0.0762
 3274SOL     OW21454   0.870   1.581   4.656  0.0577 -0.1373 -0.8580
 3274SOL    HW121455   0.871   1.520   4.582  1.9425 -1.3034  0.1081
 3274SOL    HW221456   0.956   1.623   4.654 -0.1677  0.2948 -1.3326
 3275SOL     OW21457   4.484   4.445  13.927 -0.2456 -0.6435  0.2707
 3275SOL    HW121458   4.486   4.539  13.906  0.7628 -0.8966 -0.7790
 3275SOL    HW221459   4.517   4.413  13.843 -0.3995  3.6142 -1.3972
 3276SOL     OW21460   0.083   1.303  14.629 -0.6633 -0.2452 -0.4519
 3276SOL    HW121461   0.067   1.322  14.721 -0.3559  1.3156 -0.7046
 3276SOL    HW221462   0.147   1.373  14.610  0.7744 -1.3478  0.3744
 3277SOL     OW21463   4.134   4.687   2.431  0.1545  0.1558  0.0276
 3277SOL    HW121464   4.170   4.645   2.352  2.1654  1.8913  0.0360
 3277SOL    HW221465   4.215   4.684   2.481  0.8031  1.0248 -0.9862
 3278SOL     OW21466   2.437   0.158   7.702  0.2954 -0.2979 -0.6452
 3278SOL    HW121467   2.498   0.222   7.737 -0.8965 -0.4257  1.6398
 3278SOL    HW221468   2.395   0.208   7.632  0.4212  0.1470 -0.3982
 3279SOL     OW21469   1.487   0.706   9.183 -0.3121 -0.6775 -0.0321
 3279SOL    HW121470   1.538   0.688   9.263  1.5980  0.7770 -0.9255
 3279SOL    HW221471   1.454   0.620   9.157 -2.5929  0.2656 -0.2172
 3280SOL     OW21472   3.489   0.434   1.684 -0.2375 -0.0480 -0.0602
 3280SOL    HW121473   3.507   0.482   1.765  1.2984 -0.6434 -0.0552
 3280SOL    HW221474   3.555   0.467   1.624  0.6188  1.0477  1.4889
 3281SOL     OW21475   4.713   2.829   5.045  0.2263  0.1514 -0.4566
 3281SOL    HW121476   0.042   2.897   5.066 -0.8101  0.8767  0.3415
 3281SOL    HW221477   0.019   2.799   4.964 -0.5593  1.1875 -1.2246
 3282SOL     OW21478   1.431   2.359   8.420 -0.5767 -0.1809 -0.3134
 3282SOL    HW121479   1.440   2.284   8.479  1.2806  0.3359  0.0750
 3282SOL    HW221480   1.515   2.340   8.378 -0.2048  0.3471  0.1962
 3283SOL     OW21481   1.666   2.403  12.586 -0.2238 -0.4063 -0.6300
 3283SOL    HW121482   1.725   2.390  12.512 -0.0104  0.6630 -0.6499
 3283SOL    HW221483   1.587   2.364  12.548 -0.7148 -0.6405  0.6109
 3284SOL     OW21484   2.895   0.558   8.931  0.9804 -0.5489 -0.2466
 3284SOL    HW121485   2.818   0.502   8.923  0.5331  0.4926 -3.3084
 3284SOL    HW221486   2.907   0.542   9.024  1.5455  0.4045 -0.1565
 3285SOL     OW21487   1.981   1.892   7.320 -0.2367 -0.1563 -0.2203
 3285SOL    HW121488   1.954   1.800   7.323  1.0148 -0.5394 -0.6731
 3285SOL    HW221489   2.066   1.901   7.364 -0.2552 -2.8576  0.3729
 3286SOL     OW21490   2.721   3.981   6.918 -0.2410  0.2853 -1.2295
 3286SOL    HW121491   2.787   4.045   6.944 -0.6109 -0.2434  0.9607
 3286SOL    HW221492   2.637   4.025   6.927  0.3684  0.3829  3.5452
 3287SOL     OW21493   1.404   4.132   1.822 -0.6844  0.2381 -0.0149
 3287SOL    HW121494   1.489   4.152   1.862 -0.1570 -0.0814 -0.9545
 3287SOL    HW221495   1.369   4.063   1.878 -0.3175 -1.5890 -2.0028
 3288SOL     OW21496   4.049   2.823   7.531 -0.2820  0.1481 -0.5943
 3288SOL    HW121497   3.984   2.761   7.499 -0.0986 -1.4072  2.0538
 3288SOL    HW221498   4.074   2.878   7.457  0.8704  0.3855 -0.0306
 3289SOL     OW21499   4.010   0.407   9.309  0.1539 -0.1419  0.6290
 3289SOL    HW121500   3.977   0.426   9.397 -0.1851 -0.5755  0.5964
 3289SOL    HW221501   4.063   0.485   9.294  1.5306 -1.0017  1.0420
 3290SOL     OW21502   3.529   2.056   1.883  0.9972  0.3361  0.5187
 3290SOL    HW121503   3.501   1.984   1.939 -0.0447  0.9443  0.7786
 3290SOL    HW221504   3.450   2.061   1.829  0.3467  3.2178  1.7310
 3291SOL     OW21505   2.138   4.331   6.672 -0.0748  0.1847 -0.0320
 3291SOL    HW121506   2.168   4.248   6.636 -3.4474  0.3330 -3.1503
 3291SOL    HW221507   2.175   4.334   6.760  1.2304 -0.9384 -0.5427
 3292SOL     OW21508   0.034   4.706   4.576  0.0271  0.1024 -0.6621
 3292SOL    HW121509   0.081   4.663   4.648  1.0875  0.7054 -0.9836
 3292SOL    HW221510   0.100   4.696   4.507  1.4600  0.0445  0.7001
 3293SOL     OW21511   0.962   1.852   2.340  0.6030 -0.5067  0.4298
 3293SOL    HW121512   0.991   1.851   2.248  0.8719 -2.5159  0.5322
 3293SOL    HW221513   0.868   1.840   2.330  0.8107 -2.3701  0.7399
 3294SOL     OW21514   1.607   3.299   2.456 -0.4281  0.5078  0.0099
 3294SOL    HW121515   1.552   3.247   2.515  1.9464 -3.3487 -1.1906
 3294SOL    HW221516   1.687   3.299   2.509 -0.3386  2.5100 -0.1248
 3295SOL     OW21517   3.524   4.523   2.157 -0.3239 -0.4179 -0.6069
 3295SOL    HW121518   3.445   4.552   2.204 -1.7265 -2.5048 -1.6622
 3295SOL    HW221519   3.475   4.470   2.094 -0.7044 -2.6545  1.5237
 3296SOL     OW21520   0.421   4.440   0.623  0.5269 -0.1161 -0.5409
 3296SOL    HW121521   0.327   4.425   0.630  0.4716  1.5188  2.0477
 3296SOL    HW221522   0.448   4.348   0.620  2.7585  0.4991  0.7526
 3297SOL     OW21523   4.035   2.722   4.859 -0.5848  0.5160 -0.3106
 3297SOL    HW121524   4.017   2.713   4.952  1.2576 -0.4118 -0.0352
 3297SOL    HW221525   3.947   2.709   4.824 -0.3381 -0.7498 -0.4466
 3298SOL     OW21526   2.886   1.631  13.575  0.2072 -0.5909  0.1219
 3298SOL    HW121527   2.888   1.544  13.615 -2.5175 -0.7497 -0.1073
 3298SOL    HW221528   2.956   1.674  13.624  0.0768 -1.4937  1.0931
 3299SOL     OW21529   4.490   0.817   2.848  0.1308 -0.1816  0.2995
 3299SOL    HW121530   4.456   0.734   2.883 -2.1716 -0.0063 -1.4537
 3299SOL    HW221531   4.562   0.845   2.904 -0.7899 -0.0520  1.4274
 3300SOL     OW21532   2.474   1.496   6.689 -0.0673  0.3374  0.1582
 3300SOL    HW121533   2.415   1.511   6.762  0.2919  0.5605  0.4004
 3300SOL    HW221534   2.562   1.507   6.724  0.4636 -0.9503 -0.7504
 3301SOL     OW21535   3.164   0.300   5.262  0.1021  0.2969 -0.4479
 3301SOL    HW121536   3.241   0.347   5.296 -0.2907 -0.4365  1.4630
 3301SOL    HW221537   3.199   0.211   5.258 -0.9305 -0.0540 -1.4546
 3302SOL     OW21538   0.099   3.073   5.113  0.1139  0.6191 -0.7016
 3302SOL    HW121539   0.034   3.131   5.073  0.2781  1.5140  0.3391
 3302SOL    HW221540   0.147   3.131   5.171  1.6357  0.7584 -2.1075
 3303SOL     OW21541   3.657   4.291   2.570  0.5750  0.5786  0.4575
 3303SOL    HW121542   3.594   4.246   2.626  0.0266  2.0852  1.0561
 3303SOL    HW221543   3.734   4.258   2.616  0.6715 -0.8281 -0.7195
 3304SOL     OW21544   1.596   4.345   8.022  0.1261  0.2470  0.0441
 3304SOL    HW121545   1.594   4.340   7.926 -1.3941 -0.1150  0.0836
 3304SOL    HW221546   1.643   4.426   8.040  1.8181 -0.8475  0.5105
 3305SOL     OW21547   0.652   0.051   8.061 -0.9544  0.4801  0.0059
 3305SOL    HW121548   0.582   0.117   8.063 -1.1969  0.2887 -2.8697
 3305SOL    HW221549   0.664   0.022   8.152 -4.0918 -0.0026  0.2617
 3306SOL     OW21550   4.460   3.203   2.562 -0.2132  0.3932  0.3937
 3306SOL    HW121551   4.502   3.289   2.562 -0.8774  0.7176  0.6408
 3306SOL    HW221552   4.387   3.234   2.616 -1.2356 -1.3255 -0.0154
 3307SOL     OW21553   0.878   2.872   9.965 -0.0848 -0.1534 -0.2669
 3307SOL    HW121554   0.920   2.874   9.879 -1.3555 -1.1940 -0.9122
 3307SOL    HW221555   0.891   2.957  10.008  0.7366  0.9066 -2.6517
 3308SOL     OW21556   2.574   3.109  14.910  0.7130 -0.2432  0.2461
 3308SOL    HW121557   2.641   3.047  14.881 -0.3357 -1.6649  0.8382
 3308SOL    HW221558   2.520   3.115  14.831 -0.2505 -0.7518  0.8621
 3309SOL     OW21559   1.360   1.892   6.155 -0.0138  0.1892  0.4315
 3309SOL    HW121560   1.310   1.940   6.220 -0.2585 -1.3955  1.4036
 3309SOL    HW221561   1.390   1.969   6.106 -0.9123  0.6463  0.6008
 3310SOL     OW21562   4.589   0.286  16.950 -0.1124  0.1111  0.1811
 3310SOL    HW121563   4.603   0.215  16.887 -2.2854 -0.3979  0.3007
 3310SOL    HW221564   4.575   0.364  16.897  0.4470 -0.2494 -0.4996
 3311SOL     OW21565   0.283   2.225   1.897 -0.0451 -0.4606  0.4139
 3311SOL    HW121566   0.239   2.142   1.879 -1.5677  0.6964 -1.1902
 3311SOL    HW221567   0.326   2.203   1.980 -1.5580  0.3609  1.4163
 3312SOL     OW21568   1.733   4.589   8.110 -0.4245  0.1542  0.3769
 3312SOL    HW121569   1.712   4.575   8.203  0.9006  1.7245  0.9251
 3312SOL    HW221570   1.804   4.654   8.110 -0.0685 -0.2363  0.0083
 3313SOL     OW21571   2.080   1.467   3.417  0.7530  0.5700 -0.0452
 3313SOL    HW121572   2.132   1.515   3.482 -0.4053  1.2797  0.3691
 3313SOL    HW221573   2.115   1.378   3.421  0.8138  0.5508 -1.2011
 3314SOL     OW21574   1.864   2.096   7.180  0.0286  0.1692  0.3733
 3314SOL    HW121575   1.913   2.166   7.225 -1.3032  0.6948  1.0090
 3314SOL    HW221576   1.891   2.021   7.233  0.4675  0.7485  0.9726
 3315SOL     OW21577   0.681   0.004   8.359 -0.7097 -0.8644  0.2663
 3315SOL    HW121578   0.744   4.668   8.379  0.4019 -0.3422 -1.3627
 3315SOL    HW221579   0.692   0.065   8.431 -4.1727 -0.3448  0.3535
 3316SOL     OW21580   3.169   2.684   9.632 -0.0658  0.5983  0.2278
 3316SOL    HW121581   3.244   2.713   9.683 -0.4041 -0.9277  1.5865
 3316SOL    HW221582   3.134   2.771   9.612 -1.5925  0.0409  0.4709
 3317SOL     OW21583   4.125   2.605  10.724  0.7226  0.4196  0.1509
 3317SOL    HW121584   4.047   2.658  10.712  1.0018  1.1191  1.3207
 3317SOL    HW221585   4.158   2.592  10.635  0.4378 -0.0030  0.1072
 3318SOL     OW21586   0.988   2.264  13.385  0.4541  0.5758  0.6048
 3318SOL    HW121587   0.913   2.226  13.432 -0.0998  1.4472  0.4463
 3318SOL    HW221588   0.975   2.356  13.412 -1.2261  1.0645 -1.8460
 3319SOL     OW21589   2.810   1.427   7.075  0.0120 -0.2935  0.3126
 3319SOL    HW121590   2.905   1.433   7.087  0.4237 -2.9759 -1.6659
 3319SOL    HW221591   2.827   1.378   6.995 -2.5282 -0.1794 -0.2758
 3320SOL     OW21592   1.547   3.390   8.900 -0.0485  0.2287 -0.1812
 3320SOL    HW121593   1.583   3.465   8.852 -1.5324  1.4828  0.6551
 3320SOL    HW221594   1.628   3.354   8.935 -0.5346 -1.0593 -0.4012
 3321SOL     OW21595   0.928   0.113  11.538  0.1427  0.3774 -0.2403
 3321SOL    HW121596   0.889   0.070  11.462 -0.9704 -0.3537  0.7516
 3321SOL    HW221597   0.991   0.051  11.574  0.0316 -0.4961 -1.5535
 3322SOL     OW21598   2.247   1.218  15.198 -0.6003  0.3236 -0.5355
 3322SOL    HW121599   2.245   1.308  15.228 -0.5547  0.1305  0.0530
 3322SOL    HW221600   2.329   1.204  15.150  0.9628  0.1214  2.1784
 3323SOL     OW21601   2.099   1.067   9.424  0.0212 -0.1884  0.3076
 3323SOL    HW121602   2.129   1.128   9.357 -0.2877  1.9775  2.1490
 3323SOL    HW221603   2.179   1.017   9.436  0.4871  0.8648  1.6222
 3324SOL     OW21604   4.264   4.374  11.903  0.3610  0.0513  0.0645
 3324SOL    HW121605   4.235   4.381  11.994 -1.3799 -2.3700 -0.2882
 3324SOL    HW221606   4.182   4.399  11.860 -0.1572  1.1247  1.6880
 3325SOL     OW21607   1.115   1.490   4.336 -0.4972  0.0073  0.1269
 3325SOL    HW121608   1.032   1.454   4.366  0.5486  0.3127  3.4770
 3325SOL    HW221609   1.138   1.441   4.257 -1.9504 -0.4532 -0.0066
 3326SOL     OW21610   1.358   2.909  12.612  0.0963 -0.2337 -0.8543
 3326SOL    HW121611   1.444   2.906  12.571 -0.4470  0.1896 -2.0269
 3326SOL    HW221612   1.379   2.964  12.687  2.4558 -0.4288 -1.3634
 3327SOL     OW21613   2.995   3.462   7.395 -0.5741  0.3832 -0.2782
 3327SOL    HW121614   3.056   3.443   7.467 -0.2121  0.8444 -0.4625
 3327SOL    HW221615   2.965   3.552   7.412  1.7917  1.0561  0.3819
 3328SOL     OW21616   2.388   3.933   2.973 -0.4437 -0.0818  0.4615
 3328SOL    HW121617   2.319   3.898   3.030 -0.9203  1.2565  0.6947
 3328SOL    HW221618   2.467   3.919   3.025 -2.6344 -1.9879  3.2719
 3329SOL     OW21619   4.223   2.685  12.816 -0.2882 -0.2084  0.3546
 3329SOL    HW121620   4.192   2.634  12.742 -0.1666 -0.0797  0.2159
 3329SOL    HW221621   4.150   2.698  12.878  1.6145 -1.8407  2.9430
 3330SOL     OW21622   2.636   0.307   7.057  0.0302  0.0632  0.3351
 3330SOL    HW121623   2.573   0.301   7.129  0.8175  0.7725  1.0893
 3330SOL    HW221624   2.641   0.403   7.056  1.7619 -0.0030  1.0058
 3331SOL     OW21625   0.918   3.076   5.396 -0.7672  0.3680 -0.0527
 3331SOL    HW121626   0.904   2.985   5.421 -0.5747 -0.0212 -1.3677
 3331SOL    HW221627   0.998   3.098   5.445 -1.2778  1.7825  0.1484
 3332SOL     OW21628   0.412   0.436   5.238  0.4921  0.1681 -0.0026
 3332SOL    HW121629   0.451   0.428   5.151 -1.9393 -0.2221 -1.0456
 3332SOL    HW221630   0.371   0.349   5.244  1.0687 -0.0424  0.9761
 3333SOL     OW21631   3.041   3.274  13.472 -0.0861 -0.1378  0.1784
 3333SOL    HW121632   2.998   3.360  13.478 -0.4280 -0.2778 -0.2552
 3333SOL    HW221633   3.021   3.230  13.390 -0.3055 -3.1523  1.8641
 3334SOL     OW21634   2.525   0.186   3.117  0.1350 -0.2284  0.5121
 3334SOL    HW121635   2.550   0.201   3.208  1.0634  0.6436  0.1187
 3334SOL    HW221636   2.568   0.258   3.071 -0.2206 -1.3738 -1.6355
 3335SOL     OW21637   4.276   2.102   5.753  0.1056 -0.1207 -0.3326
 3335SOL    HW121638   4.323   2.019   5.754 -0.2167 -0.2817  2.6178
 3335SOL    HW221639   4.193   2.058   5.733  0.3981 -0.6371 -0.4105
 3336SOL     OW21640   3.085   3.924   9.506 -0.1990 -0.0003  0.0237
 3336SOL    HW121641   3.129   3.992   9.557  1.2760  0.7521 -2.2410
 3336SOL    HW221642   3.155   3.859   9.499  0.3255  0.4394  1.2370
 3337SOL     OW21643   2.882   0.233   7.096  0.2546  0.1423 -0.0188
 3337SOL    HW121644   2.791   0.263   7.096  0.3430  0.4022  0.7335
 3337SOL    HW221645   2.865   0.165   7.030  0.7063 -0.1002  0.1107
 3338SOL     OW21646   4.054   2.050   6.947  0.6537  0.2206  0.6399
 3338SOL    HW121647   4.050   2.132   6.996  0.1010 -0.4801  1.7491
 3338SOL    HW221648   4.148   2.037   6.950  1.0610  3.5757  2.2633
 3339SOL     OW21649   4.647   3.077  15.404 -0.3567  0.0753  0.2548
 3339SOL    HW121650   4.681   3.043  15.321 -2.1066 -2.1023  0.4572
 3339SOL    HW221651   4.612   2.996  15.441  1.4429 -1.1225 -0.6505
 3340SOL     OW21652   2.962   4.358   7.550 -0.8876 -0.0147  0.8895
 3340SOL    HW121653   3.026   4.358   7.621 -0.8500 -0.8859  0.8571
 3340SOL    HW221654   2.971   4.453   7.537 -0.8865 -0.3920 -1.8770
 3341SOL     OW21655   3.099   4.239   1.810  0.0685  0.0762 -0.2022
 3341SOL    HW121656   3.012   4.250   1.848 -0.5309  0.5020 -1.6952
 3341SOL    HW221657   3.159   4.308   1.840 -1.1662  0.7210  0.7771
 3342SOL     OW21658   1.693   3.467   7.586 -0.4592  0.1011  0.2232
 3342SOL    HW121659   1.719   3.548   7.543 -1.2790  0.4750  0.4367
 3342SOL    HW221660   1.628   3.498   7.649  1.1096  0.1359  1.8278
 3343SOL     OW21661   4.202   1.729   8.233  0.2871  0.0530  0.0408
 3343SOL    HW121662   4.230   1.749   8.144  2.5186  0.3538  0.8156
 3343SOL    HW221663   4.139   1.659   8.215 -0.5595  0.4912  1.2813
 3344SOL     OW21664   0.334   0.103   4.199 -0.2644 -0.4131 -0.1409
 3344SOL    HW121665   0.415   0.068   4.239 -0.3193  1.0804  1.2694
 3344SOL    HW221666   0.363   0.117   4.109  1.3416 -0.0625  0.4131
 3345SOL     OW21667   4.014   1.833  14.834 -0.0152 -0.0598  0.0562
 3345SOL    HW121668   3.981   1.808  14.747 -0.8245 -0.8982  0.6134
 3345SOL    HW221669   3.937   1.863  14.883  0.3671 -0.5985  0.9796
 3346SOL     OW21670   4.152   1.199   2.738  0.0614  0.4749 -0.6680
 3346SOL    HW121671   4.182   1.116   2.774 -0.4386  1.8193  2.8303
 3346SOL    HW221672   4.119   1.250   2.812 -0.4184 -0.5400 -0.1846
 3347SOL     OW21673   0.738   3.043  17.297 -0.0531 -0.8024 -0.6916
 3347SOL    HW121674   0.809   3.005  17.246 -0.4517 -2.8231  0.2180
 3347SOL    HW221675   0.666   3.044  17.234  0.5726 -1.5034 -1.4173
 3348SOL     OW21676   1.397   0.623   2.549 -0.2758 -0.6581  0.1902
 3348SOL    HW121677   1.437   0.548   2.594  1.0437 -1.1465 -1.8133
 3348SOL    HW221678   1.308   0.590   2.543 -0.9947  0.9217  1.9860
 3349SOL     OW21679   2.116   1.037  12.156 -0.1268  0.9007  0.1897
 3349SOL    HW121680   2.145   1.111  12.209 -0.3244  0.5053  0.8615
 3349SOL    HW221681   2.170   1.054  12.079  1.3829 -1.8088  0.6391
 3350SOL     OW21682   1.210   1.342   2.016  0.0072 -0.4357 -0.1287
 3350SOL    HW121683   1.230   1.381   1.931  2.6867  0.2913  0.8329
 3350SOL    HW221684   1.283   1.373   2.069 -0.8508 -1.5394  1.6975
 3351SOL     OW21685   3.882   2.292   5.526 -0.2832  0.0676 -0.3168
 3351SOL    HW121686   3.937   2.260   5.598 -1.6019  0.2497  0.7665
 3351SOL    HW221687   3.949   2.293   5.457  2.0903 -0.0770  1.9752
 3352SOL     OW21688   3.087   3.733  16.764 -0.7676 -0.1697  0.6994
 3352SOL    HW121689   3.087   3.680  16.843  1.9225  0.8027  1.3628
 3352SOL    HW221690   3.091   3.662  16.700 -1.6832  0.1859  0.2492
 3353SOL     OW21691   1.978   2.421   6.609 -0.2140 -0.0806 -0.1265
 3353SOL    HW121692   1.946   2.388   6.525 -1.6769  4.0463 -1.1808
 3353SOL    HW221693   1.901   2.415   6.665  1.7973 -3.4588  2.2411
 3354SOL     OW21694   0.703   1.312   6.993  0.0177 -0.0767  0.1866
 3354SOL    HW121695   0.738   1.258   6.923 -0.2072 -0.8130  0.6443
 3354SOL    HW221696   0.608   1.316   6.981 -0.0671  1.8955  1.4528
 3355SOL     OW21697   2.117   3.415   2.572  0.2789 -0.3974 -0.3265
 3355SOL    HW121698   2.143   3.463   2.650  2.1603 -0.6893 -0.7773
 3355SOL    HW221699   2.193   3.358   2.578  0.1861 -0.4446  0.3135
 3356SOL     OW21700   1.856   3.734   9.870 -0.6374  0.2217  0.0123
 3356SOL    HW121701   1.935   3.775   9.904 -1.8750  2.3947  0.2784
 3356SOL    HW221702   1.892   3.648   9.848  0.4952  1.0291 -1.2921
 3357SOL     OW21703   1.305   4.243  15.169  0.2670 -0.0378 -0.3376
 3357SOL    HW121704   1.397   4.268  15.180  0.2013  0.8726 -1.8966
 3357SOL    HW221705   1.286   4.299  15.094  1.0602  0.9300  0.1758
 3358SOL     OW21706   1.475   4.318   9.822 -0.1655  0.0584  0.5882
 3358SOL    HW121707   1.512   4.271   9.897 -0.5515  2.3254  2.1981
 3358SOL    HW221708   1.384   4.289   9.812 -0.6203  1.5270  0.5383
 3359SOL     OW21709   0.177   4.329   5.329 -0.7144  0.0036  0.5298
 3359SOL    HW121710   0.115   4.271   5.285  0.6229 -1.4158  0.5168
 3359SOL    HW221711   0.232   4.367   5.261  0.5849 -1.2952  0.8542
 3360SOL     OW21712   2.659   3.244   9.238 -0.2265 -0.3235 -0.0040
 3360SOL    HW121713   2.669   3.188   9.161 -1.8266 -0.7145  0.0707
 3360SOL    HW221714   2.615   3.318   9.195  0.9651  0.2450 -0.2586
 3361SOL     OW21715   1.226   3.439   5.235  0.5823 -0.8100 -0.2966
 3361SOL    HW121716   1.203   3.498   5.307  1.8871 -0.3391 -0.2707
 3361SOL    HW221717   1.278   3.503   5.187  0.1655  0.9407  1.5633
 3362SOL     OW21718   3.746   0.300   7.884  0.4366  0.0475 -0.0885
 3362SOL    HW121719   3.836   0.330   7.894  0.7492 -0.7262 -0.6719
 3362SOL    HW221720   3.765   0.218   7.838 -3.7865 -0.3597 -1.1257
 3363SOL     OW21721   0.008   2.411   0.803  0.1935 -0.1839 -0.3436
 3363SOL    HW121722   0.066   2.415   0.880 -0.7899  1.9963  0.2887
 3363SOL    HW221723   0.069   2.385   0.734 -0.3852 -0.5852 -0.6959
 3364SOL     OW21724   3.391   3.607   6.022  0.0851  0.1089  0.0766
 3364SOL    HW121725   3.391   3.601   5.926 -2.1863  0.9516  0.0455
 3364SOL    HW221726   3.435   3.527   6.052  0.4851  0.0812 -0.5917
 3365SOL     OW21727   4.463   3.520   8.020 -0.6951  0.2495  0.0700
 3365SOL    HW121728   4.386   3.576   8.029 -0.6795  0.4016 -0.7578
 3365SOL    HW221729   4.455   3.448   8.082 -0.8918  0.1540 -0.0681
 3366SOL     OW21730   4.426   2.499   5.398  0.5487 -0.1683  0.4473
 3366SOL    HW121731   4.376   2.577   5.422  0.1930 -0.6869  1.3994
 3366SOL    HW221732   4.387   2.471   5.315 -0.4113  1.3188  0.3888
 3367SOL     OW21733   3.207   3.539  15.549  0.2746  0.0041 -0.9672
 3367SOL    HW121734   3.234   3.615  15.602 -0.6069 -0.1860 -0.2592
 3367SOL    HW221735   3.170   3.584  15.473  0.7560  2.2873  0.1362
 3368SOL     OW21736   3.483   3.435   4.982 -0.4226 -0.0117 -0.2557
 3368SOL    HW121737   3.484   3.342   5.005  0.9514  0.0445 -0.0643
 3368SOL    HW221738   3.574   3.458   4.962 -1.6973  2.7129 -2.8057
 3369SOL     OW21739   1.791   3.616   4.368  0.0062 -0.3040  0.1501
 3369SOL    HW121740   1.723   3.650   4.310  2.1790  2.8481 -0.5680
 3369SOL    HW221741   1.736   3.602   4.445  2.3853 -0.1676  1.8818
 3370SOL     OW21742   4.549   0.695   9.420  0.2147 -0.5092  0.2878
 3370SOL    HW121743   4.626   0.705   9.364 -0.8850 -2.4200 -1.5354
 3370SOL    HW221744   4.507   0.781   9.410 -1.3598 -1.2557  0.4988
 3371SOL     OW21745   2.640   1.786   4.669 -0.0879 -0.3923  0.5101
 3371SOL    HW121746   2.679   1.724   4.607 -1.7933 -2.1379  1.1965
 3371SOL    HW221747   2.716   1.816   4.719 -0.7792  1.5724  0.3921
 3372SOL     OW21748   3.732   2.808   5.607  0.6922 -0.0874  0.2256
 3372SOL    HW121749   3.800   2.837   5.667 -0.3395 -0.1205  1.4157
 3372SOL    HW221750   3.663   2.797   5.673 -0.5393  0.6858 -0.9294
 3373SOL     OW21751   4.417   4.372  16.096 -0.7333  0.2344 -0.0715
 3373SOL    HW121752   4.433   4.289  16.139  0.9972  0.2508 -0.7125
 3373SOL    HW221753   4.399   4.429  16.171  1.9721 -1.2120  1.6569
 3374SOL     OW21754   0.711   0.985   1.006  0.0659  0.0975  0.3512
 3374SOL    HW121755   0.634   1.003   0.952 -0.9881 -2.3564  1.0461
 3374SOL    HW221756   0.732   1.074   1.035 -1.9543  0.1690  1.6273
 3375SOL     OW21757   0.915   2.938  15.374  0.2365  0.1950  0.0416
 3375SOL    HW121758   0.861   2.877  15.424  0.0555 -0.1525 -0.5841
 3375SOL    HW221759   0.849   3.004  15.354  1.7626  1.7270  0.0633
 3376SOL     OW21760   1.145   4.649  10.928  0.4581 -0.4828  0.4126
 3376SOL    HW121761   1.164   4.590  11.001 -0.2963 -0.8129  0.3455
 3376SOL    HW221762   1.095   4.714  10.977  1.1621  1.6060 -1.6204
 3377SOL     OW21763   0.933   2.389   4.338  0.5291 -0.1397  0.1961
 3377SOL    HW121764   1.012   2.441   4.322  1.6152 -1.4333  1.4059
 3377SOL    HW221765   0.936   2.377   4.433  1.4157 -1.1121  0.0371
 3378SOL     OW21766   4.140   2.552   8.548  0.0985  0.2267  0.3484
 3378SOL    HW121767   4.119   2.643   8.569 -0.8626  0.0219  0.2858
 3378SOL    HW221768   4.059   2.507   8.572 -0.9078  0.5692 -2.4560
 3379SOL     OW21769   4.074   2.511   7.263  0.0258  0.1091  0.4644
 3379SOL    HW121770   4.079   2.434   7.206  1.1989  0.0704  0.6334
 3379SOL    HW221771   3.996   2.557   7.233  1.4148  0.9510 -1.7830
 3380SOL     OW21772   3.289   1.182   8.726 -0.0138 -0.1287 -0.5474
 3380SOL    HW121773   3.309   1.250   8.790 -2.9106 -0.1308  0.3898
 3380SOL    HW221774   3.303   1.103   8.779  0.8392 -0.1000 -0.7268
 3381SOL     OW21775   2.233   2.796   7.786  0.2494  0.2349  0.3381
 3381SOL    HW121776   2.206   2.755   7.868  1.1367  2.1768  1.6159
 3381SOL    HW221777   2.158   2.850   7.762  2.3217  2.3136 -1.4919
 3382SOL     OW21778   0.679   2.992  14.498 -0.5658  0.1636 -0.4638
 3382SOL    HW121779   0.647   2.952  14.579 -0.2281 -0.5458 -0.6775
 3382SOL    HW221780   0.716   2.917  14.451 -1.0808 -0.1782 -0.3278
 3383SOL     OW21781   3.495   3.779   9.385  0.5320 -0.5003 -0.4539
 3383SOL    HW121782   3.506   3.792   9.291  2.5992  0.8417 -0.0327
 3383SOL    HW221783   3.486   3.685   9.401  2.0502 -0.7067 -0.7828
 3384SOL     OW21784   1.410   3.814   9.954 -0.0503  0.4171 -0.2170
 3384SOL    HW121785   1.403   3.818  10.049 -2.0285 -0.7612 -0.3251
 3384SOL    HW221786   1.355   3.737   9.946  0.1778  0.2159  0.1555
 3385SOL     OW21787   1.731   2.235  17.668  0.1108  0.3518  0.1283
 3385SOL    HW121788   1.677   2.247  17.589 -0.9990 -3.3090  0.3333
 3385SOL    HW221789   1.765   2.324  17.674 -1.3064  0.8870  0.2015
 3386SOL     OW21790   4.370   1.446   1.907 -0.9079  0.4435 -0.3209
 3386SOL    HW121791   4.456   1.427   1.943 -1.1951 -1.5723 -0.7169
 3386SOL    HW221792   4.350   1.363   1.864 -2.0080 -0.8701  2.7023
 3387SOL     OW21793   1.927   2.732   3.605  0.5726  0.0155 -1.0829
 3387SOL    HW121794   1.840   2.726   3.645  1.0556 -0.3473 -0.0627
 3387SOL    HW221795   1.936   2.643   3.571  0.0512 -0.1532 -0.7837
 3388SOL     OW21796   4.029   1.026   9.450 -0.1052  0.3940  0.1517
 3388SOL    HW121797   4.032   0.981   9.534 -2.3953 -0.0723  0.0026
 3388SOL    HW221798   3.951   1.081   9.461  2.0969  3.2081  1.7559
 3389SOL     OW21799   0.574   2.236   4.083  0.3052 -0.6761 -0.4719
 3389SOL    HW121800   0.517   2.161   4.103 -0.5403  0.3811  1.0470
 3389SOL    HW221801   0.522   2.286   4.020 -1.1730  0.9682  2.0805
 3390SOL     OW21802   1.927   1.201   4.344  0.1918 -0.3410  0.1716
 3390SOL    HW121803   1.920   1.296   4.345  2.2270 -0.1830  0.7288
 3390SOL    HW221804   2.022   1.192   4.334  0.1961  0.4220 -0.4655
 3391SOL     OW21805   1.315   1.359   6.909 -0.5364  0.1326  0.0879
 3391SOL    HW121806   1.296   1.437   6.962 -0.5612  0.7321 -0.7842
 3391SOL    HW221807   1.349   1.297   6.973  0.6129  0.1636 -0.4962
 3392SOL     OW21808   1.417   2.752   3.872  0.2448 -0.0084  0.0299
 3392SOL    HW121809   1.411   2.847   3.875  1.9425  0.0441  1.4503
 3392SOL    HW221810   1.512   2.746   3.866  0.1866 -2.6706  1.5954
 3393SOL     OW21811   4.143   4.572   7.429 -0.6252  0.2588  0.1152
 3393SOL    HW121812   4.079   4.575   7.358  1.5810  0.1127 -1.8820
 3393SOL    HW221813   4.118   4.649   7.480 -0.7689  0.4760 -0.2854
 3394SOL     OW21814   4.050   4.503   6.699  0.2320  0.2639  0.2380
 3394SOL    HW121815   3.964   4.460   6.701 -0.8481  2.4323  0.0652
 3394SOL    HW221816   4.026   4.577   6.644 -3.4503 -1.5390 -0.5985
 3395SOL     OW21817   4.242   1.075  13.115 -0.2121 -0.1200  0.1516
 3395SOL    HW121818   4.241   1.134  13.191  0.4407  0.3978 -0.2417
 3395SOL    HW221819   4.184   1.007  13.149  1.8693 -1.6558  0.6489
 3396SOL     OW21820   0.642   1.116  13.379  0.3669  0.9695 -0.4712
 3396SOL    HW121821   0.732   1.123  13.349  0.9182 -0.3433  0.9010
 3396SOL    HW221822   0.605   1.196  13.341  0.4685  0.2550 -2.0701
 3397SOL     OW21823   1.230   3.736   6.882 -0.0438  0.0776 -0.4426
 3397SOL    HW121824   1.276   3.655   6.905  1.3443  0.9698 -0.0730
 3397SOL    HW221825   1.280   3.805   6.927 -0.7392  0.3657 -0.1099
 3398SOL     OW21826   4.722   3.819  10.864 -0.3104 -0.6211  0.2833
 3398SOL    HW121827   4.711   3.881  10.791  2.3549 -0.4562  0.0295
 3398SOL    HW221828   0.082   3.804  10.863 -0.1278  0.4216  2.8803
 3399SOL     OW21829   4.608   3.064  16.966  0.1788  0.1403 -0.1457
 3399SOL    HW121830   4.587   3.068  16.873 -1.4065 -0.4663  0.1952
 3399SOL    HW221831   4.534   3.017  17.004 -0.2186  1.7110  1.0260
 3400SOL     OW21832   1.225   0.486   2.146 -0.0408 -0.0619  0.5457
 3400SOL    HW121833   1.308   0.533   2.157  0.6093 -0.8129 -1.0811
 3400SOL    HW221834   1.258   0.420   2.085  0.8750  0.4375  0.4944
 3401SOL     OW21835   3.545   1.602  13.181  0.6218  0.0617 -0.6805
 3401SOL    HW121836   3.493   1.586  13.260  0.9551  0.1555 -0.4409
 3401SOL    HW221837   3.481   1.648  13.126  0.6805 -0.3649 -1.1038
 3402SOL     OW21838   4.688   2.442   8.827  0.3047 -0.4482  0.1043
 3402SOL    HW121839   4.658   2.423   8.916 -1.2291  0.1508 -0.2871
 3402SOL    HW221840   4.642   2.378   8.773 -0.5590 -1.1197  1.6228
 3403SOL     OW21841   0.096   2.666  10.094 -0.0175  0.0095  0.0823
 3403SOL    HW121842   0.110   2.754  10.129  1.1735  0.1201 -0.6698
 3403SOL    HW221843   0.145   2.612  10.155 -1.9355 -0.6390  1.0524
 3404SOL     OW21844   3.582   2.207   2.114  0.1547  0.7447 -0.0211
 3404SOL    HW121845   3.510   2.269   2.102 -1.0705 -0.3157  1.7203
 3404SOL    HW221846   3.579   2.175   2.024 -2.2627  1.3892 -0.1749
 3405SOL     OW21847   1.817   0.485   3.896  0.0395  0.4435  0.0289
 3405SOL    HW121848   1.862   0.509   3.815  1.7866  0.4525  1.0029
 3405SOL    HW221849   1.767   0.565   3.914 -0.3149  0.2869 -0.2527
 3406SOL     OW21850   2.896   0.432  12.273  0.2816 -0.0310  0.6872
 3406SOL    HW121851   2.974   0.459  12.223 -1.9132  1.6077 -1.8905
 3406SOL    HW221852   2.833   0.453  12.204  0.2024 -2.0498  0.1579
 3407SOL     OW21853   1.549   4.084   7.713 -0.3720 -0.1187 -0.3112
 3407SOL    HW121854   1.547   4.036   7.630 -0.6541 -0.7286  0.0410
 3407SOL    HW221855   1.634   4.126   7.719 -0.8958  1.2311 -2.7619
 3408SOL     OW21856   2.394   1.740  16.493  0.6816  0.0405  0.0110
 3408SOL    HW121857   2.438   1.759  16.410  0.2009  2.5071  0.3196
 3408SOL    HW221858   2.303   1.759  16.469  0.4785  0.6513  1.2453
 3409SOL     OW21859   0.953   3.676   3.430 -0.1943 -0.9920 -0.1902
 3409SOL    HW121860   0.966   3.632   3.514 -0.2290  0.1412  0.4021
 3409SOL    HW221861   1.034   3.656   3.383  0.9856 -0.4604  1.6479
 3410SOL     OW21862   3.831   1.222   4.969  0.6852 -0.1759  0.2014
 3410SOL    HW121863   3.752   1.199   5.019 -0.7080  1.5936 -1.2029
 3410SOL    HW221864   3.847   1.135   4.932  0.4827  0.0547 -0.4187
 3411SOL     OW21865   4.478   4.538  12.652 -0.2502  0.7784 -0.6853
 3411SOL    HW121866   4.546   4.586  12.605  0.8777 -0.1603 -0.0196
 3411SOL    HW221867   4.516   4.452  12.670 -0.3995  0.5357 -1.5320
 3412SOL     OW21868   4.677   1.645   3.213 -0.0753  0.1243  0.1779
 3412SOL    HW121869   4.596   1.597   3.234 -0.2006  1.2385  2.2342
 3412SOL    HW221870   4.700   1.690   3.294  0.4534 -0.0248  0.1083
 3413SOL     OW21871   0.553   1.764   9.625  0.3558 -0.2000 -0.2432
 3413SOL    HW121872   0.642   1.772   9.660  0.6675 -3.8856 -0.1764
 3413SOL    HW221873   0.534   1.850   9.588 -0.7227 -1.7671 -3.3268
 3414SOL     OW21874   0.948   2.096   0.554  0.0046  0.1236 -0.4083
 3414SOL    HW121875   0.918   2.127   0.469  0.5890 -1.8190 -1.3201
 3414SOL    HW221876   1.029   2.145   0.567 -0.5048  0.8050  0.2057
 3415SOL     OW21877   4.320   0.797   2.075  0.0474 -0.1770 -0.2376
 3415SOL    HW121878   4.319   0.867   2.140 -0.2052  0.2161 -0.6662
 3415SOL    HW221879   4.372   0.825   2.000 -1.4696  1.6616 -0.6094
 3416SOL     OW21880   2.411   0.716   4.581 -0.5277 -0.2420  0.1200
 3416SOL    HW121881   2.414   0.693   4.488  0.8386 -0.1419  0.1369
 3416SOL    HW221882   2.477   0.786   4.578 -0.6024 -0.2296 -1.0317
 3417SOL     OW21883   2.537   1.860  16.296 -0.6078  0.5421  0.3737
 3417SOL    HW121884   2.618   1.899  16.330  0.1374 -1.0807  0.4902
 3417SOL    HW221885   2.571   1.805  16.225 -0.3005  1.3279 -0.0801
 3418SOL     OW21886   4.394   0.859   0.321  0.9813  0.4480  0.2446
 3418SOL    HW121887   4.372   0.793   0.386 -0.3033  1.2196  0.5999
 3418SOL    HW221888   4.421   0.934   0.374  1.4872  0.6600 -0.3126
 3419SOL     OW21889   1.544   3.600   3.760 -0.3597 -0.0288 -0.1264
 3419SOL    HW121890   1.548   3.665   3.831  1.6581  0.7375 -0.9387
 3419SOL    HW221891   1.638   3.586   3.747 -0.6739 -2.1246 -0.0880
 3420SOL     OW21892   2.391   0.492  11.966 -0.5362  0.5436  0.2459
 3420SOL    HW121893   2.330   0.419  11.957  1.9799 -1.7233  1.3564
 3420SOL    HW221894   2.472   0.450  11.936  0.4096  1.6717  1.2482
 3421SOL     OW21895   4.151   1.383   6.304  0.7271  0.0017  0.7150
 3421SOL    HW121896   4.203   1.306   6.329  0.7001  0.9075  3.5902
 3421SOL    HW221897   4.171   1.400   6.212  0.3066  1.9381  0.9938
 3422SOL     OW21898   4.082   3.068   3.181  0.5734 -0.3397 -0.0731
 3422SOL    HW121899   4.052   2.988   3.224 -0.5597  0.9292  1.4677
 3422SOL    HW221900   4.015   3.093   3.118 -0.5878  2.2567  2.2342
 3423SOL     OW21901   0.810   1.586   8.660 -0.1135  0.1504 -0.0759
 3423SOL    HW121902   0.886   1.528   8.663  0.4043  0.8390  0.0108
 3423SOL    HW221903   0.844   1.665   8.702  0.4857 -0.1424 -0.0092
 3424SOL     OW21904   2.150   0.285   8.106  0.4647 -0.2963  0.0153
 3424SOL    HW121905   2.220   0.260   8.166  0.3378 -3.3697 -1.1020
 3424SOL    HW221906   2.096   0.206   8.108 -0.1609  0.1030 -1.0861
 3425SOL     OW21907   0.032   4.159  11.028 -0.1102  0.3549  0.1128
 3425SOL    HW121908   0.038   4.166  11.124  0.9348  1.0321 -0.0032
 3425SOL    HW221909   0.119   4.122  11.014  1.1666  3.4152 -0.1624
 3426SOL     OW21910   1.663   2.283   1.543  0.0764 -0.0907  0.0490
 3426SOL    HW121911   1.752   2.248   1.537 -1.4179 -3.5783 -2.0302
 3426SOL    HW221912   1.623   2.224   1.479  2.6886 -0.7898 -0.9155
 3427SOL     OW21913   3.474   4.571   8.012  0.3348  0.1810  0.4971
 3427SOL    HW121914   3.549   4.627   8.032 -0.1865  0.9626  0.2611
 3427SOL    HW221915   3.418   4.624   7.956  0.5119 -0.2300 -0.0812
 3428SOL     OW21916   4.365   3.183   5.300  0.7071 -0.2056 -0.0745
 3428SOL    HW121917   4.348   3.127   5.225  0.3640  0.4707 -0.5032
 3428SOL    HW221918   4.274   3.211   5.310  1.0786  0.4895  1.3826
 3429SOL     OW21919   1.596   4.218  10.228  0.0430  0.7495  0.0240
 3429SOL    HW121920   1.644   4.253  10.303  0.3883  0.9078 -0.2698
 3429SOL    HW221921   1.528   4.283  10.215 -0.9310 -0.5410 -1.3034
 3430SOL     OW21922   3.474   4.124   9.745  0.0903 -0.2007  1.3636
 3430SOL    HW121923   3.555   4.152   9.703 -0.6880 -1.5436 -1.0523
 3430SOL    HW221924   3.493   4.140   9.837  0.9231 -0.7204  1.2801
 3431SOL     OW21925   2.653   3.436   4.423 -0.9493 -0.4262  0.5017
 3431SOL    HW121926   2.677   3.468   4.336 -0.6544  0.1777  0.8076
 3431SOL    HW221927   2.612   3.353   4.397 -0.0680 -0.7897  0.2587
 3432SOL     OW21928   1.253   4.284  16.196  0.5615 -0.1903  0.2626
 3432SOL    HW121929   1.327   4.230  16.170  0.5078  1.0206 -2.4148
 3432SOL    HW221930   1.240   4.334  16.115  0.6302  0.3736  0.5980
 3433SOL     OW21931   0.798   2.919  17.653  0.4136  0.5731  0.6175
 3433SOL    HW121932   0.821   2.863  17.579  0.5078 -0.2892  1.3017
 3433SOL    HW221933   0.883   2.919  17.698  2.1634  1.1079 -2.6791
 3434SOL     OW21934   1.431   3.092   0.068  0.0462 -0.3918 -0.2592
 3434SOL    HW121935   1.363   3.159   0.067  1.0605  0.6600  2.3441
 3434SOL    HW221936   1.427   3.066   0.160  0.9314  0.2823 -0.0244
 3435SOL     OW21937   1.504   1.135   1.506 -0.0708  0.0549  0.6409
 3435SOL    HW121938   1.451   1.170   1.579 -1.4509 -1.2342  0.2606
 3435SOL    HW221939   1.435   1.092   1.456  0.9912 -0.1692 -0.6240
 3436SOL     OW21940   4.258   0.725   0.108 -0.6420 -0.3424 -0.2882
 3436SOL    HW121941   4.310   0.652   0.140 -0.7439 -0.5355 -0.5596
 3436SOL    HW221942   4.300   0.792   0.162  0.3465  0.2899 -1.8458
 3437SOL     OW21943   1.909   4.485   3.852 -0.0197  0.5420  0.2016
 3437SOL    HW121944   1.944   4.397   3.866  0.4249  0.7019  0.1055
 3437SOL    HW221945   1.969   4.521   3.786 -0.8279  0.9020 -0.3297
 3438SOL     OW21946   2.563   0.039   8.217 -0.1815  0.4303 -0.2606
 3438SOL    HW121947   2.577   0.116   8.162  0.0548  1.2860  0.9870
 3438SOL    HW221948   2.648   0.036   8.261 -0.0964  1.1550 -0.3639
 3439SOL     OW21949   3.258   0.912  11.739 -0.3387 -0.1593 -0.0809
 3439SOL    HW121950   3.328   0.953  11.688 -2.8225  1.7764 -1.9640
 3439SOL    HW221951   3.179   0.966  11.741  0.0775  0.4609 -0.1371
 3440SOL     OW21952   2.067   4.417   5.523  0.4895  0.3034 -0.4343
 3440SOL    HW121953   2.082   4.324   5.542  0.4536  0.8415  2.2454
 3440SOL    HW221954   2.127   4.420   5.448  1.6966 -1.7572  0.4495
 3441SOL     OW21955   1.838   3.768   3.312  0.1808  0.5930  0.1387
 3441SOL    HW121956   1.913   3.770   3.371 -0.9983 -0.0614  1.6310
 3441SOL    HW221957   1.886   3.781   3.230  3.4217  1.1491  2.1288
 3442SOL     OW21958   2.638   0.649  17.471 -0.0948 -0.1528  0.0005
 3442SOL    HW121959   2.607   0.589  17.538  0.7572  1.8611  2.1808
 3442SOL    HW221960   2.722   0.663  17.516  0.0867 -2.3396  0.3583
 3443SOL     OW21961   1.842   1.844   6.774  0.4619 -0.3768 -0.5141
 3443SOL    HW121962   1.803   1.776   6.719  1.4802 -2.9555  1.9999
 3443SOL    HW221963   1.763   1.888   6.806  1.8154  1.1354  0.7337
 3444SOL     OW21964   3.625   4.526   2.990  0.4844  0.0366  0.0002
 3444SOL    HW121965   3.716   4.547   3.009  0.7402 -0.7903 -0.3503
 3444SOL    HW221966   3.615   4.536   2.895 -1.0784  2.2661  0.3966
 3445SOL     OW21967   2.620   1.694   9.687  0.0099 -0.6158  0.3604
 3445SOL    HW121968   2.710   1.703   9.718  0.2109 -3.5333  0.5945
 3445SOL    HW221969   2.577   1.644   9.757 -2.4989  1.8991  0.6147
 3446SOL     OW21970   1.724   0.013  15.988 -0.0256  0.1541 -0.8058
 3446SOL    HW121971   1.651   0.060  16.029 -0.6457 -2.7428  1.3721
 3446SOL    HW221972   1.735   0.050  15.900  2.4524  0.5741 -0.3109
 3447SOL     OW21973   1.450   1.034   4.953 -0.0213  0.2615  0.0778
 3447SOL    HW121974   1.427   1.040   5.046 -0.0530 -0.7237  0.1330
 3447SOL    HW221975   1.532   0.985   4.962 -0.1831  0.0746  0.5739
 3448SOL     OW21976   3.337   1.544  13.396 -0.1093 -0.0439  0.1854
 3448SOL    HW121977   3.243   1.531  13.393 -0.2063  1.0547 -1.4931
 3448SOL    HW221978   3.344   1.591  13.479  1.8513  3.0029 -1.7090
 3449SOL     OW21979   1.591   3.182  13.937  0.1169 -0.5338  0.3304
 3449SOL    HW121980   1.646   3.146  14.006  3.6278  0.0986 -2.1243
 3449SOL    HW221981   1.508   3.137  13.950 -0.3632 -0.4300 -2.2486
 3450SOL     OW21982   2.785   4.548   0.712  0.2350 -0.7087 -0.1940
 3450SOL    HW121983   2.728   4.502   0.651  0.0221 -1.3535  0.4921
 3450SOL    HW221984   2.787   4.630   0.662  0.7149  0.0996  1.1342
 3451SOL     OW21985   0.370   0.275  17.256 -0.4702 -0.1717  0.1366
 3451SOL    HW121986   0.287   0.280  17.304 -0.0112  1.2202  0.7660
 3451SOL    HW221987   0.429   0.310  17.322 -2.0242  2.2366  0.2643
 3452SOL     OW21988   4.256   3.195   5.699  0.4569 -0.4602  0.0836
 3452SOL    HW121989   4.172   3.181   5.654  0.2035  0.7174  0.1813
 3452SOL    HW221990   4.247   3.286   5.728 -3.2710 -0.7556 -0.1409
 3453SOL     OW21991   2.811   2.520   6.990 -0.0245  0.0650 -0.1047
 3453SOL    HW121992   2.830   2.613   6.998  0.2588  0.2282 -2.7329
 3453SOL    HW221993   2.752   2.506   7.064  0.6898  0.3866  0.5268
 3454SOL     OW21994   1.256   1.589  12.887  0.0758  0.3451 -0.6582
 3454SOL    HW121995   1.184   1.554  12.835  1.2517  1.0555 -2.7672
 3454SOL    HW221996   1.308   1.509  12.897 -1.4072 -0.2893  1.9986
 3455SOL     OW21997   0.919   0.924   3.660  0.1341  0.3926  0.3575
 3455SOL    HW121998   1.013   0.909   3.671 -0.4078 -2.7071  0.8561
 3455SOL    HW221999   0.895   0.986   3.730 -2.8712 -2.4990  1.9105
 3456SOL     OW22000   1.811   4.490   4.545 -0.2294 -0.7333 -0.2667
 3456SOL    HW122001   1.906   4.489   4.534 -0.2717 -1.1550 -0.5920
 3456SOL    HW222002   1.807   4.550   4.620 -0.1327 -1.8158  0.5914
 3457SOL     OW22003   0.973   2.037   7.159 -0.0640 -0.0733 -0.3340
 3457SOL    HW122004   0.890   2.039   7.207  0.0474  1.0402 -0.1781
 3457SOL    HW222005   1.015   2.110   7.206  1.6820  0.0779 -2.1103
 3458SOL     OW22006   2.564   4.710   2.252  0.4259  0.3287  0.5810
 3458SOL    HW122007   2.529   4.653   2.320  1.1511 -0.0540  0.6340
 3458SOL    HW222008   2.487   0.032   2.247 -1.6387 -2.5944 -0.4524
 3459SOL     OW22009   3.752   2.694   4.790 -0.4450 -0.3675 -0.0704
 3459SOL    HW122010   3.721   2.610   4.756 -0.5451 -0.4192  0.1427
 3459SOL    HW222011   3.688   2.708   4.861  0.7732 -0.4790  1.0535
 3460SOL     OW22012   4.130   2.787   2.846 -0.0650  0.2958  0.6445
 3460SOL    HW122013   4.175   2.717   2.798  0.9579  1.1653  0.3398
 3460SOL    HW222014   4.170   2.776   2.932 -0.9824  1.3380  1.2015
 3461SOL     OW22015   0.022   1.498   4.444  0.4279  0.1826 -0.0859
 3461SOL    HW122016   0.103   1.489   4.394 -0.1560  1.3975 -1.2696
 3461SOL    HW222017   0.062   1.513   4.530 -0.6390 -0.5556  0.5319
 3462SOL     OW22018   2.593   4.563   0.931  0.4312  0.3654 -0.5425
 3462SOL    HW122019   2.644   4.558   0.851  1.4629  1.2255  0.0672
 3462SOL    HW222020   2.541   4.482   0.925  0.7679  0.2633 -2.1189
 3463SOL     OW22021   3.043   1.999  15.162 -0.2737 -0.2789  0.0052
 3463SOL    HW122022   3.074   2.090  15.159 -1.9152  0.2161 -1.7745
 3463SOL    HW222023   3.125   1.954  15.184  0.9254  0.7871 -2.2281
 3464SOL     OW22024   1.787   3.890   3.922  0.4235  0.2623 -0.0627
 3464SOL    HW122025   1.821   3.803   3.903  0.1103 -0.2500  1.7279
 3464SOL    HW222026   1.705   3.854   3.955 -0.0108  0.3889 -1.0002
 3465SOL     OW22027   3.697   3.071   9.630 -0.8143 -0.1777 -0.6457
 3465SOL    HW122028   3.776   3.032   9.592 -1.6498 -2.2209 -0.2562
 3465SOL    HW222029   3.634   3.000   9.628 -2.0623  0.9714 -2.1221
 3466SOL     OW22030   1.226   4.250  11.691 -0.1487 -0.0413 -0.0139
 3466SOL    HW122031   1.294   4.314  11.673  0.7754 -1.3417 -1.1566
 3466SOL    HW222032   1.241   4.181  11.625  2.5800  2.0697 -1.5781
 3467SOL     OW22033   4.113   1.819   1.102  0.1055  0.3572  0.6391
 3467SOL    HW122034   4.042   1.827   1.166 -1.0726 -1.0938 -0.4722
 3467SOL    HW222035   4.174   1.878   1.146  1.9972  0.6263 -2.3009
 3468SOL     OW22036   3.327   4.451   4.775  1.2211  0.2803 -0.0011
 3468SOL    HW122037   3.286   4.365   4.769  0.1434  0.8919 -1.2338
 3468SOL    HW222038   3.382   4.446   4.853  1.0586 -1.5746 -0.0128
 3469SOL     OW22039   3.680   3.824   5.425  0.1799  0.4386  0.0852
 3469SOL    HW122040   3.766   3.797   5.393 -0.0569  1.7260 -1.6318
 3469SOL    HW222041   3.663   3.917   5.408  0.6983  0.6460  0.6490
 3470SOL     OW22042   1.087   0.021   8.664 -0.0889  0.1943 -0.1512
 3470SOL    HW122043   1.113   0.075   8.589  0.2287 -0.0177 -0.1952
 3470SOL    HW222044   0.993   0.035   8.677 -0.1466 -1.2725  1.0566
 3471SOL     OW22045   1.449   1.115  16.459 -0.4723  0.2601 -0.3973
 3471SOL    HW122046   1.520   1.085  16.402  1.1891  0.9645  1.3105
 3471SOL    HW222047   1.462   1.061  16.537 -1.6383  0.2415 -0.2208
 3472SOL     OW22048   2.605   3.000   7.477 -0.4524  0.3643 -0.2678
 3472SOL    HW122049   2.663   3.031   7.546  0.0620  2.7554 -1.7463
 3472SOL    HW222050   2.528   2.974   7.527 -0.7459  0.6503 -0.5652
 3473SOL     OW22051   3.055   1.902   2.853 -0.4049 -0.1394 -0.2596
 3473SOL    HW122052   2.997   1.854   2.794  0.9647 -0.4953 -1.3053
 3473SOL    HW222053   3.052   1.857   2.938  1.7182 -0.7789 -0.5281
 3474SOL     OW22054   1.349   0.940   2.850  0.5708  0.1586 -0.2823
 3474SOL    HW122055   1.379   1.015   2.799 -0.4197  0.3961 -0.5120
 3474SOL    HW222056   1.293   0.904   2.781  0.5647  3.8509 -2.2254
 3475SOL     OW22057   2.787   2.554   4.621  0.1251  0.4997  0.0497
 3475SOL    HW122058   2.795   2.502   4.701 -1.2278 -1.4720 -1.1043
 3475SOL    HW222059   2.861   2.524   4.568  0.3941 -0.2668  0.8684
 3476SOL     OW22060   1.567   4.539   6.964 -0.1642  0.2694  0.4379
 3476SOL    HW122061   1.662   4.536   6.953 -0.2144 -0.4130  0.2204
 3476SOL    HW222062   1.550   4.609   7.027  2.6414 -2.7811  4.5427
 3477SOL     OW22063   1.958   1.483   9.502 -0.2200 -0.0613  0.1571
 3477SOL    HW122064   1.886   1.540   9.473 -0.3016  0.6120  1.6975
 3477SOL    HW222065   1.904   1.405   9.517 -0.2391  0.0922  0.8832
 3478SOL     OW22066   1.356   2.103  17.465 -0.4858  0.4759  0.4918
 3478SOL    HW122067   1.280   2.148  17.502 -0.9972 -0.1202  0.1569
 3478SOL    HW222068   1.385   2.171  17.403  2.1759 -0.6624  0.4881
 3479SOL     OW22069   3.647   1.313  16.412  0.1146  0.4823 -0.5249
 3479SOL    HW122070   3.579   1.332  16.347 -0.4335 -1.6446 -0.5833
 3479SOL    HW222071   3.647   1.217  16.416 -1.1402  0.5436  1.0872
 3480SOL     OW22072   0.346   1.826  11.155  0.0766 -0.2080  0.3109
 3480SOL    HW122073   0.349   1.744  11.206 -2.6366 -0.2893  0.3752
 3480SOL    HW222074   0.311   1.886  11.221 -2.2596 -1.2391  0.0250
 3481SOL     OW22075   1.638   0.679   7.095  0.1734 -0.3846  0.0842
 3481SOL    HW122076   1.621   0.763   7.052  0.1510  0.6959  2.1943
 3481SOL    HW222077   1.720   0.700   7.140 -0.8767 -0.2632  1.9501
 3482SOL     OW22078   3.474   0.736   5.295 -0.0675 -0.6303  0.2015
 3482SOL    HW122079   3.502   0.733   5.204  1.3489 -0.2713  0.6113
 3482SOL    HW222080   3.379   0.736   5.292 -0.0709 -0.9122  0.3526
 3483SOL     OW22081   0.849   1.277   1.003 -0.8254  0.4558 -0.5358
 3483SOL    HW122082   0.896   1.315   1.077  1.2646 -2.1387 -0.5386
 3483SOL    HW222083   0.921   1.270   0.941 -0.4002  1.9062 -0.2150
 3484SOL     OW22084   3.422   1.289   0.311 -0.0052 -0.0566 -0.9525
 3484SOL    HW122085   3.385   1.292   0.399  1.7214  0.3525 -0.2255
 3484SOL    HW222086   3.343   1.317   0.265 -1.4464 -2.0388  0.3536
 3485SOL     OW22087   3.429   1.580   1.234 -0.4598 -0.3583  0.7068
 3485SOL    HW122088   3.470   1.656   1.192 -0.0665 -1.0278 -0.1214
 3485SOL    HW222089   3.458   1.502   1.187 -1.6517  0.2801 -1.0617
 3486SOL     OW22090   3.861   2.736   6.289 -0.5057  0.1018 -0.4321
 3486SOL    HW122091   3.939   2.747   6.233 -1.1082  2.7219 -0.7385
 3486SOL    HW222092   3.815   2.665   6.243  0.2351  0.6410 -2.0143
 3487SOL     OW22093   3.014   4.252   6.406  0.3950  0.3654  0.4277
 3487SOL    HW122094   3.046   4.253   6.315 -0.8127 -3.4297 -0.0573
 3487SOL    HW222095   2.922   4.224   6.406  0.5744 -0.2166  1.1124
 3488SOL     OW22096   2.533   4.081   9.276 -0.8674 -0.1722  0.1844
 3488SOL    HW122097   2.507   4.140   9.206 -2.1554 -0.5766  0.3327
 3488SOL    HW222098   2.473   4.011   9.252 -1.8137  1.6718 -2.7911
 3489SOL     OW22099   3.506   0.485  12.090 -0.0439  0.6471 -0.2560
 3489SOL    HW122100   3.549   0.476  12.175 -0.3989  1.2123 -0.0110
 3489SOL    HW222101   3.503   0.393  12.065  1.3492  0.4461  0.2936
 3490SOL     OW22102   0.115   4.525   8.148 -0.2672  0.7607 -0.1799
 3490SOL    HW122103   0.112   4.438   8.108 -1.3369  0.3846  0.7058
 3490SOL    HW222104   0.021   4.531   8.161 -0.4016 -1.5049 -0.0066
 3491SOL     OW22105   4.027   3.146   2.065  0.2900  0.0948 -0.0024
 3491SOL    HW122106   4.076   3.205   2.009 -1.9507  0.5262 -1.5083
 3491SOL    HW222107   4.027   3.061   2.021 -0.2134 -0.0688  0.3024
 3492SOL     OW22108   0.378   3.130   0.583  0.2220 -0.4931 -0.1563
 3492SOL    HW122109   0.409   3.074   0.654 -0.9880 -0.6958  0.2158
 3492SOL    HW222110   0.396   3.073   0.508  1.7510 -0.3081  0.0702
 3493SOL     OW22111   4.125   4.139   6.403 -0.6528  0.0231  0.1816
 3493SOL    HW122112   4.174   4.221   6.394  1.3284 -1.1646  0.1228
 3493SOL    HW222113   4.199   4.079   6.400  0.4909  1.3076  2.1357
 3494SOL     OW22114   3.875   0.509   2.498  0.8949 -0.1422 -0.5611
 3494SOL    HW122115   3.952   0.562   2.521 -0.8671  2.5384 -0.9289
 3494SOL    HW222116   3.919   0.458   2.430 -0.1046  0.8356 -1.9234
 3495SOL     OW22117   2.964   0.689  16.975  0.0981 -0.3174  0.2875
 3495SOL    HW122118   2.970   0.717  16.884 -0.8388  2.7548  1.1640
 3495SOL    HW222119   2.929   0.772  17.008  3.0081  1.4692 -1.0922
 3496SOL     OW22120   3.122   1.288  10.184 -0.3313 -0.2446  0.0685
 3496SOL    HW122121   3.082   1.203  10.165  0.0780 -0.3428 -0.3346
 3496SOL    HW222122   3.207   1.261  10.220 -0.5430 -3.1069 -1.5303
 3497SOL     OW22123   2.125   0.665  10.530  0.8143 -0.1410  0.5254
 3497SOL    HW122124   2.188   0.601  10.497  1.1112  0.2288  0.3820
 3497SOL    HW222125   2.097   0.715  10.454  2.5338  1.5405  1.0371
 3498SOL     OW22126   0.856   3.300   4.736 -0.7789  0.4700 -1.0317
 3498SOL    HW122127   0.797   3.233   4.770  0.8570  0.4253  1.7404
 3498SOL    HW222128   0.924   3.309   4.803  0.2002 -0.7500 -1.8556
 3499SOL     OW22129   4.545   0.530   3.465 -0.5871 -0.6332  0.4512
 3499SOL    HW122130   4.470   0.481   3.430  0.0077 -1.3371  0.1723
 3499SOL    HW222131   4.490   0.585   3.522 -0.5781 -0.7482  0.5703
 3500SOL     OW22132   4.641   1.720   2.630  0.1125 -0.7680  0.3896
 3500SOL    HW122133   4.683   1.682   2.707 -0.6297  0.4227  1.3807
 3500SOL    HW222134   4.697   1.691   2.558 -0.5284 -2.7224  0.6673
 3501SOL     OW22135   1.339   1.436   2.566  0.1085  0.1537  0.4780
 3501SOL    HW122136   1.254   1.393   2.568  1.0560 -1.5018  4.5066
 3501SOL    HW222137   1.348   1.435   2.470 -2.3709  0.1070  0.2375
 3502SOL     OW22138   3.618   4.088   5.073 -0.7832  0.0425  0.0077
 3502SOL    HW122139   3.645   4.062   4.985 -2.7889 -0.0721 -0.5750
 3502SOL    HW222140   3.605   4.000   5.110  0.4815  0.3503  1.1887
 3503SOL     OW22141   0.293   1.005   6.966  0.1544  0.3079  0.1592
 3503SOL    HW122142   0.348   1.080   6.946 -1.5959  0.4087 -4.4048
 3503SOL    HW222143   0.216   1.037   6.918 -0.8048  1.9755  2.8125
 3504SOL     OW22144   4.229   2.942   8.570  0.1943 -0.0434 -0.0837
 3504SOL    HW122145   4.250   3.035   8.562 -2.3778  0.3482 -2.2546
 3504SOL    HW222146   4.249   2.924   8.478 -0.8106 -0.6729 -0.1825
 3505SOL     OW22147   0.768   0.284  15.836 -0.4572 -0.3127 -0.3676
 3505SOL    HW122148   0.778   0.330  15.920  0.9435 -0.0761 -0.6617
 3505SOL    HW222149   0.855   0.243  15.835  0.2527  1.1182  1.2744
 3506SOL     OW22150   2.782   3.086   7.692 -0.8930 -0.4691  0.2897
 3506SOL    HW122151   2.733   3.031   7.753 -0.4127 -2.0179 -0.7372
 3506SOL    HW222152   2.825   3.141   7.758 -2.8343  0.8714  0.4518
 3507SOL     OW22153   4.321   0.653  14.214 -0.3463  0.3368  0.3874
 3507SOL    HW122154   4.255   0.648  14.145  1.1405 -0.0649 -0.9893
 3507SOL    HW222155   4.335   0.748  14.213  1.4048  0.0808  1.1529
 3508SOL     OW22156   3.327   3.200   2.048  0.0510 -0.5739  0.4730
 3508SOL    HW122157   3.395   3.263   2.024 -0.0631 -0.7373 -0.2921
 3508SOL    HW222158   3.250   3.254   2.029  0.4908 -0.2890 -0.5464
 3509SOL     OW22159   0.103   2.635   0.494 -0.4584  0.1774  0.3278
 3509SOL    HW122160   0.189   2.647   0.455 -0.8590 -0.0135 -0.5934
 3509SOL    HW222161   0.050   2.597   0.424  1.5155 -0.8959 -0.5735
 3510SOL     OW22162   1.271   1.024   1.399 -0.7270  0.0700  0.0422
 3510SOL    HW122163   1.205   1.092   1.413  0.1779  0.6357  1.6882
 3510SOL    HW222164   1.212   0.960   1.360  1.7153 -0.2408 -3.1400
 3511SOL     OW22165   0.104   2.267   2.402 -0.2193 -0.1468  0.1763
 3511SOL    HW122166   0.162   2.192   2.413  2.9852  2.1562 -1.3348
 3511SOL    HW222167   0.075   2.283   2.492 -0.0307  1.5463 -0.0646
 3512SOL     OW22168   1.910   3.863   9.496 -0.1900 -0.7550  0.2411
 3512SOL    HW122169   1.974   3.926   9.462 -0.9375 -0.5400 -0.7454
 3512SOL    HW222170   1.851   3.915   9.550 -0.8709 -1.0550 -0.2230
 3513SOL     OW22171   1.365   0.723   3.758 -0.0223 -0.0170 -0.1470
 3513SOL    HW122172   1.410   0.663   3.817  3.5442  2.5730 -0.2631
 3513SOL    HW222173   1.412   0.715   3.675  0.3671 -2.8623  0.3495
 3514SOL     OW22174   1.180   4.307   1.802 -0.3875  0.3680  0.3800
 3514SOL    HW122175   1.169   4.324   1.709  2.0053  1.9529  0.3813
 3514SOL    HW222176   1.273   4.283   1.809 -0.4941  0.3260  1.7369
 3515SOL     OW22177   1.050   0.721  16.467  0.0102  0.5386 -0.2148
 3515SOL    HW122178   1.089   0.707  16.553 -1.4157  0.3762  0.3985
 3515SOL    HW222179   1.026   0.630  16.450  2.8212 -0.0933 -0.9264
 3516SOL     OW22180   4.508   1.661   0.495 -0.2195 -0.3441 -0.1156
 3516SOL    HW122181   4.562   1.583   0.487  0.7912  0.2501  0.9775
 3516SOL    HW222182   4.538   1.726   0.431  1.2627 -1.8419 -0.9392
 3517SOL     OW22183   3.673   1.710  13.619  0.0030 -0.0091  0.6496
 3517SOL    HW122184   3.578   1.712  13.607  0.4047 -1.0096 -2.7193
 3517SOL    HW222185   3.697   1.789  13.569 -0.5720 -0.7220 -0.7546
 3518SOL     OW22186   0.163   2.366   3.601  0.1189  0.0372 -0.6536
 3518SOL    HW122187   0.146   2.358   3.695  1.4550  0.7203 -0.3473
 3518SOL    HW222188   0.072   2.355   3.573  0.7748 -2.3131 -1.9474
 3519SOL     OW22189   2.674   1.095   9.750  0.2029 -0.0036  0.4638
 3519SOL    HW122190   2.715   1.163   9.697  1.9096 -0.6308  0.9784
 3519SOL    HW222191   2.594   1.071   9.703  1.3322  1.6826 -2.3406
 3520SOL     OW22192   1.962   0.108  12.607  0.9162 -0.8835  0.2312
 3520SOL    HW122193   2.003   0.035  12.652  2.2123  0.2859  0.9212
 3520SOL    HW222194   1.873   0.095  12.641  0.2501 -0.0304 -1.1370
 3521SOL     OW22195   3.545   4.194   4.027  0.2341  0.9670  0.1967
 3521SOL    HW122196   3.469   4.250   4.010  0.4057  0.9242 -0.7082
 3521SOL    HW222197   3.572   4.228   4.112  1.4598  4.4360 -1.5568
 3522SOL     OW22198   3.721   1.073   9.326  0.4814 -0.1055 -0.2939
 3522SOL    HW122199   3.754   1.110   9.408 -2.2164 -1.0566  1.2196
 3522SOL    HW222200   3.723   0.981   9.354  1.0767  0.9837  3.2240
 3523SOL     OW22201   0.607   0.240   5.991  0.1707  0.3213 -0.7085
 3523SOL    HW122202   0.523   0.272   6.022  0.5424 -0.2939  0.9176
 3523SOL    HW222203   0.606   0.272   5.900  0.5829  0.9099 -0.5056
 3524SOL     OW22204   3.825   0.576   6.063  0.2241 -0.0429  0.2390
 3524SOL    HW122205   3.838   0.564   5.969 -2.3012  0.4128 -0.1624
 3524SOL    HW222206   3.753   0.518   6.086  0.6958 -0.2130  1.3017
 3525SOL     OW22207   4.108   3.582   3.160 -0.3827  0.1411  0.0443
 3525SOL    HW122208   4.079   3.585   3.251  0.5842 -0.7113  0.3755
 3525SOL    HW222209   4.042   3.522   3.124 -0.0679 -0.2821  0.1761
 3526SOL     OW22210   3.288   0.133   9.893 -0.0000  0.2226  0.0688
 3526SOL    HW122211   3.340   0.210   9.870  1.5383 -1.2543 -1.4076
 3526SOL    HW222212   3.336   0.100   9.969  1.2624  0.7709 -0.4845
 3527SOL     OW22213   1.335   4.631   3.546 -0.1458 -1.0993 -0.2623
 3527SOL    HW122214   1.395   4.705   3.557 -0.0403 -1.1818 -0.2827
 3527SOL    HW222215   1.400   4.562   3.532  0.3144 -1.4102  3.3716
 3528SOL     OW22216   0.780   1.127   4.346  0.6225 -0.7790  0.2522
 3528SOL    HW122217   0.854   1.102   4.291  1.6879 -0.2217  1.4452
 3528SOL    HW222218   0.760   1.042   4.384 -3.2915  0.4061  0.8911
 3529SOL     OW22219   0.946   1.081   4.138  0.2530 -0.1995  0.2076
 3529SOL    HW122220   0.857   1.081   4.103 -0.2935  0.0338  1.6103
 3529SOL    HW222221   1.000   1.067   4.060 -1.6803  0.1963 -1.2161
 3530SOL     OW22222   0.543   2.953   5.997  0.4694  0.1941 -0.6474
 3530SOL    HW122223   0.535   3.003   5.916 -0.0984 -0.3559 -0.9222
 3530SOL    HW222224   0.633   2.920   5.993 -0.0161 -0.6625 -3.9692
 3531SOL     OW22225   2.759   2.238   8.649 -0.2360 -0.6784  0.1790
 3531SOL    HW122226   2.680   2.274   8.689 -0.4793  0.3508 -1.2182
 3531SOL    HW222227   2.741   2.145   8.660 -0.4371 -0.5035  1.3725
 3532SOL     OW22228   1.359   4.483   3.883 -0.1923 -0.1158 -0.3408
 3532SOL    HW122229   1.404   4.400   3.866 -0.7046 -0.8709  2.0752
 3532SOL    HW222230   1.427   4.518   3.941  0.3152  1.0041 -1.5722
 3533SOL     OW22231   0.244   3.697   2.062 -0.1374  0.2662  0.0017
 3533SOL    HW122232   0.215   3.671   2.149  2.7747 -0.1372  0.8656
 3533SOL    HW222233   0.323   3.643   2.063 -0.0738  0.3231 -1.3980
 3534SOL     OW22234   4.142   1.271   0.279  0.0553  0.0627  0.0468
 3534SOL    HW122235   4.234   1.277   0.307 -0.1467  3.6779 -0.0073
 3534SOL    HW222236   4.144   1.177   0.262  0.0725 -0.1777  1.3591
 3535SOL     OW22237   0.052   1.617   5.673 -0.4337 -0.5981  0.5241
 3535SOL    HW122238   0.052   1.526   5.702  0.1291 -0.4322  1.0413
 3535SOL    HW222239   0.017   1.601   5.585  0.4310 -2.6506  0.5608
 3536SOL     OW22240   1.671   4.085   5.318  0.3121  0.4372 -0.3160
 3536SOL    HW122241   1.580   4.078   5.288  0.1485  0.7313  0.1096
 3536SOL    HW222242   1.720   4.043   5.247  0.1829 -1.0469  0.4780
 3537SOL     OW22243   1.526   3.134   6.681  0.0977 -0.4851 -0.5374
 3537SOL    HW122244   1.478   3.061   6.720 -0.5783 -0.6379 -1.6588
 3537SOL    HW222245   1.609   3.119   6.725  0.6678  3.2633 -0.4002
 3538SOL     OW22246   1.350   4.440   6.123 -0.1347  0.1149 -0.1207
 3538SOL    HW122247   1.445   4.446   6.136 -0.0934 -1.0301  0.0693
 3538SOL    HW222248   1.322   4.430   6.214 -1.1986 -1.4529 -0.6272
 3539SOL     OW22249   0.173   2.225   4.144  0.2407 -0.4527 -0.0804
 3539SOL    HW122250   0.132   2.162   4.203  3.5442 -0.9925  1.6597
 3539SOL    HW222251   0.229   2.172   4.087  0.6786 -1.3150  1.1453
 3540SOL     OW22252   2.549   0.683   4.078 -0.1744  0.2086 -0.3459
 3540SOL    HW122253   2.574   0.600   4.036 -0.6343  0.2351 -0.6748
 3540SOL    HW222254   2.624   0.735   4.050 -1.7379  1.2437 -2.6234
 3541SOL     OW22255   0.447   2.162  15.678 -0.4561 -0.6012  0.1251
 3541SOL    HW122256   0.371   2.212  15.649  0.7327  1.1747  0.0706
 3541SOL    HW222257   0.431   2.078  15.634  0.9647 -0.4234 -0.7429
 3542SOL     OW22258   0.530   3.485   2.850  0.0668  0.3367 -0.7330
 3542SOL    HW122259   0.621   3.515   2.856  0.9910 -2.6677  0.3972
 3542SOL    HW222260   0.512   3.545   2.922  0.5090 -1.1537  0.6235
 3543SOL     OW22261   1.668   1.573   4.905  0.3044 -0.6128  0.2269
 3543SOL    HW122262   1.644   1.645   4.964  1.6117  0.0781 -0.0751
 3543SOL    HW222263   1.638   1.490   4.940  0.4992 -1.7343 -2.2330
 3544SOL     OW22264   4.637   4.037   4.826 -0.1777  0.2276 -0.2504
 3544SOL    HW122265   4.572   3.981   4.869 -2.0047  1.9109 -0.8185
 3544SOL    HW222266   4.606   4.034   4.735  1.7421 -0.0335 -0.8838
 3545SOL     OW22267   1.549   2.317   4.680 -0.0737 -0.1778 -0.1596
 3545SOL    HW122268   1.628   2.369   4.694  0.1375  0.0418 -2.1778
 3545SOL    HW222269   1.562   2.302   4.586 -0.7754 -0.3196 -0.2343
 3546SOL     OW22270   3.099   3.595   6.131 -0.4172 -0.1454  0.2065
 3546SOL    HW122271   3.069   3.644   6.054 -0.1968  1.4093  1.1058
 3546SOL    HW222272   3.190   3.625   6.123  0.0502 -0.6578  3.7507
 3547SOL     OW22273   3.682   3.746   6.073 -0.2548  0.3635  0.2438
 3547SOL    HW122274   3.682   3.676   6.139  1.9306  0.8253  0.7397
 3547SOL    HW222275   3.767   3.732   6.032 -0.8520 -2.0158 -0.2014
 3548SOL     OW22276   1.657   2.013   4.229  0.2032  0.4659 -0.2587
 3548SOL    HW122277   1.681   1.943   4.290 -2.7679  0.1718  0.5465
 3548SOL    HW222278   1.641   2.081   4.295  1.2727 -0.6527  1.1414
 3549SOL     OW22279   4.222   4.280   3.917 -0.5217  0.1610  0.0037
 3549SOL    HW122280   4.149   4.294   3.977 -0.4697  0.3860  0.0116
 3549SOL    HW222281   4.254   4.366   3.892  0.8678 -0.4802 -0.4512
 3550SOL     OW22282   3.583   4.397   8.315  0.6672  0.8233  0.1837
 3550SOL    HW122283   3.617   4.320   8.361 -1.1553 -1.2882 -2.0007
 3550SOL    HW222284   3.500   4.360   8.286 -0.4584  1.5774  2.4756
 3551SOL     OW22285   4.298   0.817  15.605 -0.5241 -0.3557  0.4172
 3551SOL    HW122286   4.271   0.725  15.606  0.9211 -0.7800  0.3007
 3551SOL    HW222287   4.353   0.821  15.683 -0.3938 -0.8992  0.3580
 3552SOL     OW22288   0.086   0.888   5.445 -0.0477 -0.0624 -0.0160
 3552SOL    HW122289   0.089   0.983   5.440  1.6505 -0.0533  1.0539
 3552SOL    HW222290   0.078   0.860   5.354 -1.3839 -1.3183  0.4936
 3553SOL     OW22291   1.051   3.784   0.165 -0.1349  0.2047 -0.4819
 3553SOL    HW122292   1.146   3.769   0.164 -0.2839 -0.7559 -0.0379
 3553SOL    HW222293   1.011   3.698   0.170 -1.4093  0.8976  1.1448
 3554SOL     OW22294   3.420   2.803   2.545  0.3649  0.6478 -0.0846
 3554SOL    HW122295   3.334   2.836   2.574 -0.0764 -0.0672 -0.5664
 3554SOL    HW222296   3.473   2.801   2.624  2.3955 -1.5676 -1.5230
 3555SOL     OW22297   4.105   1.410   9.327 -0.0158  0.1555  0.2723
 3555SOL    HW122298   4.159   1.464   9.385 -0.9733  2.1983 -0.7417
 3555SOL    HW222299   4.148   1.398   9.242 -0.4589  0.5331 -0.0057
 3556SOL     OW22300   3.948   1.848   5.345 -0.0816 -0.2562  0.3333
 3556SOL    HW122301   3.870   1.865   5.397 -0.4401  0.1447 -0.3383
 3556SOL    HW222302   3.913   1.873   5.259  1.6902 -1.0533 -0.6351
 3557SOL     OW22303   0.322   2.641  13.185 -0.0721  0.0476 -0.1009
 3557SOL    HW122304   0.285   2.704  13.247 -0.0666  0.5518 -0.6005
 3557SOL    HW222305   0.389   2.598  13.238 -0.8559 -0.8417  0.1718
 3558SOL     OW22306   4.071   4.264   2.518  0.2034  0.2812  0.2877
 3558SOL    HW122307   4.150   4.263   2.463 -0.5008  1.5175 -0.7566
 3558SOL    HW222308   4.081   4.194   2.582  1.4494 -0.1814 -0.4128
 3559SOL     OW22309   2.789   4.698   0.175 -0.2376 -0.0792 -0.0848
 3559SOL    HW122310   2.858   4.639   0.207  1.1281  1.2500 -0.5708
 3559SOL    HW222311   2.741   4.636   0.119 -0.6787 -0.8569  1.1574
 3560SOL     OW22312   0.053   4.060  17.688  0.6553  0.6099  0.0959
 3560SOL    HW122313   0.062   4.155  17.678  2.6566  0.4790  0.6623
 3560SOL    HW222314   0.135   4.052  17.736 -0.7424 -0.1216  2.3643
 3561SOL     OW22315   4.420   0.348   3.926 -0.1546 -0.4149  0.0550
 3561SOL    HW122316   4.469   0.265   3.925  0.3540 -0.1186  0.6706
 3561SOL    HW222317   4.351   0.328   3.989 -0.2251  0.6822  0.3273
 3562SOL     OW22318   2.989   3.892   9.150 -0.7362  0.1191 -0.6181
 3562SOL    HW122319   3.057   3.854   9.207  0.8327  2.6318 -0.8044
 3562SOL    HW222320   2.921   3.882   9.216 -0.2187 -0.0914 -0.1174
 3563SOL     OW22321   2.514   3.797   0.922 -0.2368  0.4848  0.6757
 3563SOL    HW122322   2.465   3.806   0.840 -0.5306 -1.9512  0.5836
 3563SOL    HW222323   2.571   3.874   0.916  2.7539 -1.9737 -2.6696
 3564SOL     OW22324   1.107   1.979  14.356 -0.0147 -0.6460  0.2173
 3564SOL    HW122325   1.021   1.939  14.346 -1.5122  2.2823  1.2711
 3564SOL    HW222326   1.124   2.004  14.265 -1.0155 -1.8328 -0.2959
 3565SOL     OW22327   2.302   3.477  15.187 -0.6960  0.3361 -0.8875
 3565SOL    HW122328   2.319   3.404  15.128  0.1174  1.5633 -2.1795
 3565SOL    HW222329   2.228   3.440  15.235  0.5498  0.0501  0.7860
 3566SOL     OW22330   3.780   3.146   3.152 -0.0293 -0.7915 -0.5974
 3566SOL    HW122331   3.718   3.130   3.223 -2.3550 -0.4959 -2.5766
 3566SOL    HW222332   3.734   3.114   3.075  2.4856 -1.7250 -1.7116
 3567SOL     OW22333   3.229   2.612   2.253 -0.2753  0.3223  0.4574
 3567SOL    HW122334   3.198   2.694   2.292  1.5727  0.3759  1.8008
 3567SOL    HW222335   3.162   2.599   2.186  0.7084  1.2534 -0.7009
 3568SOL     OW22336   0.509   2.604   5.939 -0.4078 -0.0557 -0.2135
 3568SOL    HW122337   0.568   2.551   5.994 -0.8956 -0.8298 -0.4385
 3568SOL    HW222338   0.518   2.696   5.963  0.4724  0.1735 -1.4035
 3569SOL     OW22339   4.007   0.277  10.178  0.0349 -0.2933 -0.3661
 3569SOL    HW122340   4.026   0.233  10.095  1.0508  1.1948 -0.9178
 3569SOL    HW222341   4.055   0.359  10.171  0.7546 -0.6730  0.1346
 3570SOL     OW22342   3.708   0.644   3.463 -0.0497  0.0208  0.0310
 3570SOL    HW122343   3.666   0.580   3.407  1.2646  1.0227 -2.0739
 3570SOL    HW222344   3.663   0.620   3.544 -0.9987  0.6800 -0.3060
 3571SOL     OW22345   0.840   3.137   3.165  0.3153 -0.6455 -0.4117
 3571SOL    HW122346   0.797   3.220   3.184  1.0091 -0.4705  0.3920
 3571SOL    HW222347   0.898   3.118   3.239  0.8602  0.1114 -0.6539
 3572SOL     OW22348   2.624   3.673   7.829  0.2006  0.2432 -0.3896
 3572SOL    HW122349   2.566   3.600   7.807  0.4902  0.4200 -1.7761
 3572SOL    HW222350   2.706   3.641   7.791 -0.3748 -0.1928 -1.2935
 3573SOL     OW22351   3.589   0.513   9.586  0.1034  0.0133  0.2024
 3573SOL    HW122352   3.514   0.554   9.628 -0.4187  0.3521 -1.0409
 3573SOL    HW222353   3.538   0.488   9.508 -0.5248 -0.2007  0.6870
 3574SOL     OW22354   2.807   4.168   7.681 -0.4219 -0.2041  0.0324
 3574SOL    HW122355   2.798   4.222   7.760 -1.7105 -3.0214  1.7837
 3574SOL    HW222356   2.852   4.224   7.618 -0.5617 -1.7607 -1.4512
 3575SOL     OW22357   1.417   0.351  13.370 -0.4801  0.3526 -0.2194
 3575SOL    HW122358   1.401   0.268  13.325  1.0082  1.0236 -1.9639
 3575SOL    HW222359   1.429   0.306  13.454  1.2249 -0.7909 -1.0705
 3576SOL     OW22360   1.786   0.595   8.890 -0.1122 -0.4114  0.2924
 3576SOL    HW122361   1.871   0.590   8.847  0.0640  0.3734  0.5485
 3576SOL    HW222362   1.742   0.653   8.827  1.7834  0.8408  0.1264
 3577SOL     OW22363   0.102   2.267   6.134  0.4476  0.0890  0.3104
 3577SOL    HW122364   0.126   2.324   6.206 -3.1325  2.0868 -0.1224
 3577SOL    HW222365   0.116   2.336   6.069  2.4090 -0.7233 -0.1284
 3578SOL     OW22366   0.393   3.131  17.508  0.0396 -0.2249  0.3163
 3578SOL    HW122367   0.369   3.131  17.416  1.0225  0.5116  0.0549
 3578SOL    HW222368   0.488   3.117  17.505  0.3307  1.4016  1.5252
 3579SOL     OW22369   3.066   0.847  13.000  0.0516  0.2031  0.2744
 3579SOL    HW122370   3.120   0.887  12.932  1.4862  1.2488  2.0341
 3579SOL    HW222371   3.121   0.774  13.028  1.3793  2.2116  2.8414
 3580SOL     OW22372   2.131   2.790   1.893 -0.2810  0.6403 -0.8344
 3580SOL    HW122373   2.159   2.735   1.966 -0.2977  2.4080  0.5212
 3580SOL    HW222374   2.121   2.720   1.829 -1.8906  0.6049 -0.5348
 3581SOL     OW22375   0.673   2.773  11.226 -0.3257 -0.0718  0.1328
 3581SOL    HW122376   0.657   2.842  11.291 -0.8999  1.0327 -1.1751
 3581SOL    HW222377   0.634   2.811  11.147  0.8455  0.3897 -0.2252
 3582SOL     OW22378   1.307   2.759  17.413  0.4515 -0.3374  0.2871
 3582SOL    HW122379   1.275   2.838  17.457  0.7150 -1.2079  2.0311
 3582SOL    HW222380   1.402   2.767  17.415  0.4809 -0.5344 -0.1568
 3583SOL     OW22381   2.502   3.595  14.969  0.4368  0.1979  0.7531
 3583SOL    HW122382   2.463   3.655  15.033 -1.8386 -0.5756  0.1012
 3583SOL    HW222383   2.456   3.513  14.982 -1.5270  1.3723  1.2336
 3584SOL     OW22384   2.783   1.766   2.437 -0.5208  0.0827 -0.5039
 3584SOL    HW122385   2.823   1.796   2.356 -1.9217  1.0642 -0.8380
 3584SOL    HW222386   2.688   1.780   2.436 -0.2030  2.3339  0.1158
 3585SOL     OW22387   1.117   0.165  13.475 -0.0736  0.9093  0.0959
 3585SOL    HW122388   1.089   0.251  13.505 -2.1917  0.0260  0.6727
 3585SOL    HW222389   1.059   0.159  13.398  2.5109 -0.2372 -1.7619
 3586SOL     OW22390   0.334   2.330   2.885 -0.0343 -0.1702 -0.4626
 3586SOL    HW122391   0.332   2.378   2.802  0.5952 -2.6322 -1.8819
 3586SOL    HW222392   0.397   2.372   2.944 -1.1312 -0.5093  0.9345
 3587SOL     OW22393   1.615   0.131  13.473  0.3131 -0.8201 -0.0561
 3587SOL    HW122394   1.651   0.170  13.552 -1.1662  1.5436 -0.5531
 3587SOL    HW222395   1.521   0.120  13.490  0.1440  0.8432  0.0705
 3588SOL     OW22396   0.335   2.633  16.778  0.4748 -0.1339 -0.5297
 3588SOL    HW122397   0.273   2.579  16.729  0.7212 -2.6599  1.9638
 3588SOL    HW222398   0.283   2.712  16.792  0.3303 -0.4534  0.6627
 3589SOL     OW22399   3.942   1.003   3.131 -0.0001 -0.0928  0.0606
 3589SOL    HW122400   3.898   1.029   3.051  1.1551 -0.5956 -0.7364
 3589SOL    HW222401   3.905   0.915   3.137  0.7200 -0.3895  0.2253
 3590SOL     OW22402   1.713   2.379  17.066  0.9336 -0.0518  0.1943
 3590SOL    HW122403   1.648   2.326  17.021  0.4018 -0.7845  1.8328
 3590SOL    HW222404   1.772   2.413  16.998 -1.0860 -0.8123 -1.9303
 3591SOL     OW22405   2.022   1.254   3.187  0.2402 -0.1624  0.4876
 3591SOL    HW122406   2.087   1.321   3.164 -1.6296  2.1047  1.8048
 3591SOL    HW222407   2.079   1.187   3.224  0.1947 -0.6510 -0.3100
 3592SOL     OW22408   2.729   1.439  16.623  0.0103 -0.9259 -0.0623
 3592SOL    HW122409   2.665   1.510  16.627 -0.4829 -1.3852  0.1700
 3592SOL    HW222410   2.809   1.489  16.637 -0.8226  0.6478 -0.9266
 3593SOL     OW22411   0.339   2.688   4.393  0.0421 -0.0123  0.6760
 3593SOL    HW122412   0.336   2.734   4.310 -0.3473 -0.2467  0.5614
 3593SOL    HW222413   0.398   2.616   4.369  0.2756  0.1321  0.8082
 3594SOL     OW22414   3.257   0.452   2.916  0.1782 -0.3419  0.3846
 3594SOL    HW122415   3.176   0.434   2.867  1.1651  2.9444 -2.4376
 3594SOL    HW222416   3.323   0.447   2.847 -2.0854 -1.8226 -1.6601
 3595SOL     OW22417   3.189   0.768  17.251  0.0262  0.3155  0.0434
 3595SOL    HW122418   3.255   0.836  17.234  0.3858  0.2002  1.0036
 3595SOL    HW222419   3.207   0.765  17.345 -1.1437 -1.6704  0.1919
 3596SOL     OW22420   4.508   1.285   5.960 -0.5225 -0.5626  0.1763
 3596SOL    HW122421   4.569   1.221   5.922 -0.0259 -0.9238  1.5717
 3596SOL    HW222422   4.570   1.346   5.999 -0.3003 -0.3119 -0.5699
 3597SOL     OW22423   0.795   1.586   0.969  0.3538  0.5651  0.0462
 3597SOL    HW122424   0.857   1.531   0.923 -2.4180 -2.6878  0.1799
 3597SOL    HW222425   0.731   1.598   0.899  1.4383 -1.1788 -1.2050
 3598SOL     OW22426   0.081   2.895   0.595  0.0044  0.3614 -0.1507
 3598SOL    HW122427   4.719   2.897   0.601  0.1279  1.6214  1.3183
 3598SOL    HW222428   0.071   2.809   0.553  3.3126  0.0648 -0.2755
 3599SOL     OW22429   0.881   2.042   9.936 -0.6507  0.1352 -0.3265
 3599SOL    HW122430   0.852   2.088   9.858  0.0058 -0.7395 -1.0943
 3599SOL    HW222431   0.816   2.060  10.003  1.0851 -0.5376  1.5646
 3600SOL     OW22432   0.277   4.621   4.438 -0.0815  0.0837  0.2307
 3600SOL    HW122433   0.297   4.568   4.516  2.0778  0.4482 -0.0736
 3600SOL    HW222434   0.280   4.559   4.365 -0.1202  1.9962 -1.3805
 3601SOL     OW22435   4.679   2.993   3.959 -0.5636  0.6038 -0.2751
 3601SOL    HW122436   4.647   3.055   3.894 -0.7915 -0.5231 -1.2331
 3601SOL    HW222437   4.606   2.979   4.020 -1.0427  0.6443 -0.8370
 3602SOL     OW22438   4.405   1.530   4.917  0.2012 -0.1053  1.1394
 3602SOL    HW122439   4.457   1.465   4.869  2.2676  1.1578  1.6785
 3602SOL    HW222440   4.347   1.562   4.847  0.8694  0.5922  0.9072
 3603SOL     OW22441   1.276   3.745  16.637  0.4307  0.1341  0.2240
 3603SOL    HW122442   1.206   3.680  16.640  0.5908 -0.1282 -1.4221
 3603SOL    HW222443   1.252   3.795  16.714 -1.0940 -1.8810  1.0595
 3604SOL     OW22444   0.270   1.122   9.077  1.0140 -0.5936  0.0277
 3604SOL    HW122445   0.175   1.125   9.090  0.9006  1.0875 -1.2734
 3604SOL    HW222446   0.299   1.199   9.125  1.8221 -0.6617 -0.3599
 3605SOL     OW22447   1.998   3.353   5.598 -0.7378  0.1117  0.1670
 3605SOL    HW122448   2.042   3.270   5.617 -1.1873 -0.3527 -0.8339
 3605SOL    HW222449   2.070   3.400   5.555 -1.1508 -0.1780 -0.8314
 3606SOL     OW22450   0.201   4.345   6.902  0.0624 -0.0303  0.2391
 3606SOL    HW122451   0.279   4.366   6.954  1.3748  1.4848 -2.3311
 3606SOL    HW222452   0.149   4.423   6.921  0.7382  0.3992  0.3394
 3607SOL     OW22453   3.400   3.296   9.573  0.2057 -0.4749 -0.8896
 3607SOL    HW122454   3.403   3.338   9.659  0.3324 -2.1697 -0.0751
 3607SOL    HW222455   3.423   3.209   9.604  0.0948  0.6149  2.2414
 3608SOL     OW22456   1.968   3.453   9.923 -0.2843 -0.0504  0.1872
 3608SOL    HW122457   2.018   3.393   9.979 -2.0622  0.3240  2.1667
 3608SOL    HW222458   2.032   3.460   9.852  1.8140  0.7815  2.1498
 3609SOL     OW22459   0.308   0.015  12.017  0.9487 -0.2128 -0.1716
 3609SOL    HW122460   0.305   4.658  11.988 -0.0343  0.2676 -1.5655
 3609SOL    HW222461   0.229   0.052  11.978  0.2027  0.1064  1.6313
 3610SOL     OW22462   1.232   3.778   0.989 -0.3467  0.2285  0.0135
 3610SOL    HW122463   1.288   3.852   1.013  1.1819 -0.9266  0.0000
 3610SOL    HW222464   1.204   3.753   1.077  0.7416 -1.1893 -0.0380
 3611SOL     OW22465   1.619   4.553  14.435  0.0023 -0.5097 -0.1214
 3611SOL    HW122466   1.597   4.581  14.523 -1.6711  0.2991 -0.7934
 3611SOL    HW222467   1.714   4.565  14.436 -0.3743  2.5888 -0.7880
 3612SOL     OW22468   1.716   0.585   5.772 -0.2137  0.5766 -0.4140
 3612SOL    HW122469   1.748   0.530   5.700  2.4662  3.6497 -1.5726
 3612SOL    HW222470   1.679   0.654   5.717  0.5075  0.8308 -0.5824
 3613SOL     OW22471   2.992   2.700   4.461 -0.2170 -0.4476 -0.4058
 3613SOL    HW122472   3.088   2.699   4.460 -0.1484  3.0527  0.5261
 3613SOL    HW222473   2.975   2.765   4.529  0.9159 -1.0259  0.4282
 3614SOL     OW22474   1.796   1.394  13.454 -0.4390 -0.1711 -0.8116
 3614SOL    HW122475   1.871   1.342  13.482 -0.9699  0.1958  1.2925
 3614SOL    HW222476   1.776   1.446  13.532 -1.1068  0.3754 -1.3433
 3615SOL     OW22477   2.026   4.064   6.499 -0.3986 -0.0108  0.6968
 3615SOL    HW122478   2.049   3.971   6.498 -0.5394 -0.0394  0.3726
 3615SOL    HW222479   1.985   4.074   6.585 -0.3013  1.2260  0.6107
 3616SOL     OW22480   2.833   4.598  12.903  0.2628  0.6933  0.0535
 3616SOL    HW122481   2.847   4.546  12.824  2.4662  0.9332  0.2951
 3616SOL    HW222482   2.921   4.607  12.939  0.4201 -0.2105 -0.1192
 3617SOL     OW22483   1.115   4.391   8.045 -0.3790  0.3114  0.1066
 3617SOL    HW122484   1.185   4.326   8.055 -0.0389  0.4222 -1.4574
 3617SOL    HW222485   1.125   4.421   8.135 -0.5164  0.2837  0.1302
 3618SOL     OW22486   0.432   1.255   6.129 -0.3653 -0.3935  0.1112
 3618SOL    HW122487   0.422   1.220   6.040  0.2649 -1.0338  0.2964
 3618SOL    HW222488   0.495   1.195   6.169  1.4275  0.9764 -0.6401
 3619SOL     OW22489   0.179   2.754   7.922  0.3102  0.5379 -0.1212
 3619SOL    HW122490   0.182   2.710   7.837 -0.0318 -1.3391  0.8254
 3619SOL    HW222491   0.105   2.811   7.904  0.0888 -0.2062 -1.5335
 3620SOL     OW22492   2.101   0.980   4.119  0.1665 -0.2544 -0.4121
 3620SOL    HW122493   2.155   1.049   4.159  3.4225 -3.0288  0.0077
 3620SOL    HW222494   2.173   0.921   4.097  2.2441  2.6598 -1.4257
 3621SOL     OW22495   3.265   1.834   4.394  0.2231 -0.1354 -0.4749
 3621SOL    HW122496   3.271   1.786   4.311 -4.4254 -0.5755 -0.5398
 3621SOL    HW222497   3.338   1.800   4.446  0.0493  0.9344  0.4667
 3622SOL     OW22498   0.263   3.882   0.090  0.5500 -0.1012 -0.4003
 3622SOL    HW122499   0.277   3.907  17.735 -2.1421  1.2590 -0.4470
 3622SOL    HW222500   0.356   3.881   0.114  0.5785  1.3377 -0.4242
 3623SOL     OW22501   1.771   4.324   9.932  0.9517  0.0498  0.0861
 3623SOL    HW122502   1.703   4.263   9.958 -0.2532  1.5316  0.4200
 3623SOL    HW222503   1.828   4.269   9.879 -0.9797 -0.4798 -1.3985
 3624SOL     OW22504   1.524   4.156   6.269  0.0000 -0.0025  0.0256
 3624SOL    HW122505   1.452   4.102   6.302 -1.9563  2.0780 -0.8095
 3624SOL    HW222506   1.582   4.149   6.345 -0.4319  1.8507  0.5368
 3625SOL     OW22507   1.834   4.152   7.779 -0.3468  0.1462  0.1257
 3625SOL    HW122508   1.836   4.185   7.869  0.0123  1.2375 -0.2953
 3625SOL    HW222509   1.871   4.065   7.795 -1.5009 -0.3574  0.0598
 3626SOL     OW22510   2.160   4.446   7.564  0.8785 -0.2181  0.7804
 3626SOL    HW122511   2.167   4.466   7.657 -0.7559  1.0655  0.6390
 3626SOL    HW222512   2.067   4.463   7.547  1.5740  2.9800  0.1723
 3627SOL     OW22513   4.502   1.864   2.363  0.3535 -0.4981 -0.4688
 3627SOL    HW122514   4.594   1.848   2.385  0.3294  0.6615  0.4270
 3627SOL    HW222515   4.503   1.935   2.299 -1.2586  1.2731  1.4571
 3628SOL     OW22516   2.821   0.838   3.192 -0.1496 -0.1869  0.1729
 3628SOL    HW122517   2.753   0.837   3.260 -1.1890  0.5247 -0.8537
 3628SOL    HW222518   2.889   0.778   3.222 -0.3492 -0.4177  0.1702
 3629SOL     OW22519   4.247   4.206   8.022  0.2080 -0.2243  0.1637
 3629SOL    HW122520   4.229   4.243   8.108 -0.4770  1.3653 -0.6688
 3629SOL    HW222521   4.214   4.116   8.027 -0.4954  0.1348  1.8289
 3630SOL     OW22522   0.406   2.062   8.831 -0.5835  0.1037  0.6696
 3630SOL    HW122523   0.420   2.157   8.832 -1.3201  0.2222  0.1354
 3630SOL    HW222524   0.362   2.051   8.747  1.5923  1.8030 -0.6802
 3631SOL     OW22525   2.851   1.898   5.232 -0.1968 -0.1599 -0.0617
 3631SOL    HW122526   2.863   1.914   5.139  0.2193  1.9484  0.3425
 3631SOL    HW222527   2.761   1.929   5.241 -0.1192 -0.3825  1.5884
 3632SOL     OW22528   3.636   1.463  16.664 -0.0348 -0.4284 -0.6956
 3632SOL    HW122529   3.644   1.416  16.581 -0.3539 -1.7959  0.0689
 3632SOL    HW222530   3.629   1.394  16.729 -2.6923  1.2288  0.7761
 3633SOL     OW22531   0.007   4.137   1.325 -0.3184 -0.1047 -0.3748
 3633SOL    HW122532   4.664   4.157   1.272 -0.1856 -0.6002 -0.7603
 3633SOL    HW222533   0.077   4.159   1.263 -0.8257  0.7696 -0.6443
 3634SOL     OW22534   1.797   2.205   5.592 -0.0657 -0.1410 -0.2707
 3634SOL    HW122535   1.802   2.288   5.639  2.6754 -0.6800  0.3802
 3634SOL    HW222536   1.882   2.206   5.548 -0.1666  0.5170 -0.4537
 3635SOL     OW22537   3.873   1.585   9.772  1.2625 -0.2344 -0.7020
 3635SOL    HW122538   3.847   1.671   9.804 -0.1393 -0.7446 -0.4844
 3635SOL    HW222539   3.961   1.571   9.809  1.0714 -0.2584 -0.2528
 3636SOL     OW22540   3.469   0.353   7.838 -0.2462 -0.0552  0.1117
 3636SOL    HW122541   3.439   0.444   7.833 -0.3494 -0.1918 -1.5826
 3636SOL    HW222542   3.564   0.354   7.851 -0.0142 -0.8262 -1.4929
 3637SOL     OW22543   1.334   0.203   6.221  0.2163 -0.3829  0.3376
 3637SOL    HW122544   1.365   0.293   6.217 -0.6873 -0.0670  0.3267
 3637SOL    HW222545   1.243   0.232   6.231  0.0625  0.0358 -2.1715
 3638SOL     OW22546   4.307   0.761   4.624  0.1928 -0.0664  0.5347
 3638SOL    HW122547   4.289   0.852   4.602 -1.5241 -0.7685 -0.8897
 3638SOL    HW222548   4.295   0.727   4.536 -2.2253  2.1190  0.0279
 3639SOL     OW22549   4.123   2.884   6.230 -0.7859 -0.8564 -0.7142
 3639SOL    HW122550   4.161   2.887   6.142 -0.2864  2.0257 -0.4102
 3639SOL    HW222551   4.190   2.840   6.283 -0.7461  0.6029  0.4420
 3640SOL     OW22552   2.291   1.074   5.851 -0.1273 -0.1116  0.0203
 3640SOL    HW122553   2.263   1.097   5.763 -0.0598  0.5703  0.1792
 3640SOL    HW222554   2.219   1.016   5.879  1.4864 -2.2106 -0.1712
 3641SOL     OW22555   3.272   2.775   6.435 -0.4334  0.4487  0.1510
 3641SOL    HW122556   3.220   2.757   6.356 -0.5813  0.1145  0.3239
 3641SOL    HW222557   3.213   2.835   6.479  1.0776  0.2450  2.4607
 3642SOL     OW22558   2.852   3.273  14.753 -0.1041 -0.1845  0.1218
 3642SOL    HW122559   2.868   3.180  14.737 -1.0656 -0.5249  1.1425
 3642SOL    HW222560   2.760   3.290  14.734  0.4177  0.1088 -2.1139
 3643SOL     OW22561   1.339   2.004   0.010 -0.2708 -0.2551 -0.6073
 3643SOL    HW122562   1.269   2.059   0.043 -1.1136 -2.6566  1.6626
 3643SOL    HW222563   1.349   2.041  17.659 -2.3356 -1.9686 -1.5714
 3644SOL     OW22564   3.896   1.177  11.851  0.4255  0.0968 -0.0938
 3644SOL    HW122565   3.863   1.117  11.783 -2.0414  2.5171 -1.0306
 3644SOL    HW222566   3.905   1.259  11.802 -1.1798  0.2989 -0.0700
 3645SOL     OW22567   3.791   0.342   9.738 -0.2070 -0.1203 -0.7860
 3645SOL    HW122568   3.881   0.316   9.758  0.8518  2.6470 -1.8340
 3645SOL    HW222569   3.784   0.341   9.643  1.8137  0.1140 -0.9393
 3646SOL     OW22570   1.619   3.737   4.814  0.4376  0.0094 -0.4494
 3646SOL    HW122571   1.687   3.675   4.788  0.6552 -0.0826  0.3352
 3646SOL    HW222572   1.588   3.679   4.883 -0.9355  1.2796 -0.0109
 3647SOL     OW22573   0.311   0.166   0.707 -0.3358 -0.3260  0.8618
 3647SOL    HW122574   0.384   0.125   0.661 -0.5396 -2.2992  2.3163
 3647SOL    HW222575   0.240   0.126   0.656 -1.9061  0.9421  2.0682
 3648SOL     OW22576   0.796   2.398   4.968  0.3749  0.0324 -0.2205
 3648SOL    HW122577   0.713   2.370   5.007  0.6145 -1.7574 -0.9747
 3648SOL    HW222578   0.763   2.441   4.889 -2.9824  0.0535  1.2172
 3649SOL     OW22579   0.613   0.607  14.700 -0.1231 -0.5786 -0.2377
 3649SOL    HW122580   0.606   0.561  14.616 -1.2064 -0.7440 -0.0533
 3649SOL    HW222581   0.705   0.587  14.718  0.8791  2.0824 -2.4315
 3650SOL     OW22582   1.550   0.083   3.569  0.0061  0.0307  0.2669
 3650SOL    HW122583   1.614   0.141   3.610  2.2054 -0.9666 -1.7748
 3650SOL    HW222584   1.583   0.065   3.481 -1.3072  0.7002 -0.3629
 3651SOL     OW22585   0.899   3.034   6.450 -0.5956  0.1612  0.0460
 3651SOL    HW122586   0.991   3.052   6.433 -1.1353  3.1328  0.2144
 3651SOL    HW222587   0.856   3.028   6.365 -1.8274 -0.7130  0.7220
 3652SOL     OW22588   3.043   4.254   2.955 -0.1340  0.2267  0.2872
 3652SOL    HW122589   3.008   4.330   2.907  0.3590 -0.0064 -0.4448
 3652SOL    HW222590   2.972   4.191   2.942 -0.2951  0.5476 -0.4319
 3653SOL     OW22591   3.801   0.078  17.376 -0.5015 -0.1617  0.5896
 3653SOL    HW122592   3.829   0.168  17.367 -1.8005  0.3116  1.2281
 3653SOL    HW222593   3.709   0.092  17.399 -0.0740  0.9479  1.5870
 3654SOL     OW22594   1.212   3.380  12.238  0.2037  0.0003 -0.7220
 3654SOL    HW122595   1.223   3.350  12.148 -2.0432 -1.5623 -0.4901
 3654SOL    HW222596   1.118   3.401  12.240  0.1027 -0.4044 -1.1712
 3655SOL     OW22597   0.102   3.639   9.719 -0.3206  0.7066 -0.0342
 3655SOL    HW122598   0.165   3.649   9.647 -1.3168  3.0134 -0.6011
 3655SOL    HW222599   0.027   3.600   9.674 -0.3261  1.5833 -0.8087
 3656SOL     OW22600   3.711   1.686   7.572 -0.2955  0.2367 -0.5767
 3656SOL    HW122601   3.683   1.622   7.506  0.1016  0.5846 -1.0854
 3656SOL    HW222602   3.626   1.727   7.583  0.2473  1.1131  0.2591
 3657SOL     OW22603   2.918   2.838   3.720 -0.3564 -0.4900  0.5040
 3657SOL    HW122604   2.828   2.867   3.713  0.6210  2.6600  1.0991
 3657SOL    HW222605   2.941   2.848   3.628 -2.7968 -1.0177 -0.1485
 3658SOL     OW22606   4.198   1.550   3.174 -0.4264  0.4169 -0.4214
 3658SOL    HW122607   4.214   1.613   3.104  0.2426  0.7075 -0.0111
 3658SOL    HW222608   4.152   1.608   3.234  0.5561  0.2347  0.5102
 3659SOL     OW22609   1.017   1.698   6.291 -0.0374  0.4033 -0.3924
 3659SOL    HW122610   0.981   1.706   6.380  1.8114 -0.4829  0.4519
 3659SOL    HW222611   1.001   1.607   6.266 -0.5927  1.1569 -2.7528
 3660SOL     OW22612   4.264   3.757   6.607  0.3048 -0.5700 -0.5720
 3660SOL    HW122613   4.307   3.809   6.539  1.4941 -0.4509  0.2681
 3660SOL    HW222614   4.204   3.828   6.631  0.6194 -0.3341 -0.4752
 3661SOL     OW22615   4.428   4.109   6.211 -0.2124  0.2993  0.4735
 3661SOL    HW122616   4.396   4.052   6.281 -2.7924 -0.1563 -1.0829
 3661SOL    HW222617   4.523   4.103   6.213 -0.2245 -0.5344 -1.4707
 3662SOL     OW22618   3.138   4.194   6.643 -0.2130 -0.4436 -0.2480
 3662SOL    HW122619   3.115   4.224   6.555 -1.2460  0.7938  0.4390
 3662SOL    HW222620   3.176   4.107   6.631  3.2833  0.8217  1.6535
 3663SOL     OW22621   0.471   2.145   9.281 -0.1526  0.3019  0.3367
 3663SOL    HW122622   0.530   2.212   9.246 -2.2885  1.2952 -1.3475
 3663SOL    HW222623   0.389   2.181   9.246 -0.1700 -0.0770 -0.0161
 3664SOL     OW22624   1.206   0.604   7.418 -0.0310  0.1540 -0.1873
 3664SOL    HW122625   1.230   0.585   7.327 -1.2962  2.2362 -0.9470
 3664SOL    HW222626   1.160   0.687   7.412  2.1061  1.4333  1.0840
 3665SOL     OW22627   1.405   1.119   4.686 -0.4927  0.0491 -0.9909
 3665SOL    HW122628   1.459   1.194   4.659  0.8237 -1.3746 -2.3121
 3665SOL    HW222629   1.422   1.107   4.779  2.0713  1.0880 -1.3377
 3666SOL     OW22630   1.448   2.794  11.645  0.1296  0.6510 -0.2117
 3666SOL    HW122631   1.448   2.791  11.741 -2.0964  0.0491 -0.2256
 3666SOL    HW222632   1.367   2.841  11.623 -0.9579 -0.1041  2.1535
 3667SOL     OW22633   1.451   4.147  12.948 -0.5977  0.2580  0.2175
 3667SOL    HW122634   1.396   4.074  12.979  0.0429 -0.0114  0.7225
 3667SOL    HW222635   1.425   4.215  13.010  0.8282  1.9207 -1.0167
 3668SOL     OW22636   3.252   3.255  17.681 -0.3198 -0.0174 -0.4061
 3668SOL    HW122637   3.169   3.289  17.715 -0.7887  1.1569 -2.6761
 3668SOL    HW222638   3.256   3.180   0.004 -0.1569 -0.4297 -0.9327
 3669SOL     OW22639   3.992   2.085   7.863  0.4583  0.1207  0.1303
 3669SOL    HW122640   3.994   2.085   7.959 -0.0498 -0.2296  0.1420
 3669SOL    HW222641   3.897   2.074   7.855 -0.0415  1.4972  4.0588
 3670SOL     OW22642   1.566   2.698  16.215 -0.1649  0.1503 -0.2319
 3670SOL    HW122643   1.569   2.705  16.120 -0.7733  4.0940  0.0344
 3670SOL    HW222644   1.620   2.622  16.236  0.6238  0.8665  0.3296
 3671SOL     OW22645   1.869   0.882   9.640  0.1196 -0.2360  0.5780
 3671SOL    HW122646   1.851   0.920   9.554  0.0811 -0.7526  0.3588
 3671SOL    HW222647   1.796   0.824   9.662  0.6149 -1.7465 -1.7305
 3672SOL     OW22648   1.583   2.317   7.266  0.5889  0.0700 -0.1573
 3672SOL    HW122649   1.629   2.247   7.312  0.2390  0.4237  0.7216
 3672SOL    HW222650   1.628   2.392   7.303  2.9538 -0.3574 -2.1850
 3673SOL     OW22651   0.879   2.578   3.325  0.5359  0.0928  0.1184
 3673SOL    HW122652   0.962   2.613   3.295  1.2028 -2.3840 -0.9306
 3673SOL    HW222653   0.856   2.529   3.247 -0.6842 -0.0808  0.5729
 3674SOL     OW22654   0.959   2.390   9.292 -0.5723  0.0144 -0.1031
 3674SOL    HW122655   1.044   2.359   9.320 -1.3452 -1.1030  0.9998
 3674SOL    HW222656   0.975   2.419   9.202 -2.5661  0.2936 -0.3797
 3675SOL     OW22657   0.838   4.633  13.401 -0.0158  0.0486  0.1712
 3675SOL    HW122658   0.746   4.646  13.378  0.0373 -1.1433 -0.7631
 3675SOL    HW222659   0.868   4.564  13.341  1.0685 -0.6171  1.4621
 3676SOL     OW22660   0.547   2.947   8.685 -0.0116  0.4459 -0.6499
 3676SOL    HW122661   0.499   3.020   8.723 -1.2665 -1.2862  1.0996
 3676SOL    HW222662   0.595   2.905   8.757  1.4553  1.1396 -1.2224
 3677SOL     OW22663   2.988   3.939   7.650  0.1334  0.5069 -0.1608
 3677SOL    HW122664   2.924   4.005   7.678 -0.0081 -0.7493  2.5112
 3677SOL    HW222665   3.065   3.990   7.626 -1.8553  4.0508  1.0352
 3678SOL     OW22666   4.006   0.679   3.560  0.0589  0.1468  0.6575
 3678SOL    HW122667   4.082   0.658   3.505 -0.7687  1.0576 -0.8232
 3678SOL    HW222668   3.929   0.675   3.504 -0.5874 -1.2291  1.6577
 3679SOL     OW22669   2.357   4.557  16.961 -0.2589 -0.0487  0.8222
 3679SOL    HW122670   2.421   4.499  16.920 -1.7930 -1.8420  0.9496
 3679SOL    HW222671   2.302   4.507  17.021 -1.1247 -0.0307  0.0530
 3680SOL     OW22672   2.279   3.179   1.948 -0.0537  0.6752 -0.5569
 3680SOL    HW122673   2.196   3.175   1.997  0.3524 -1.2899 -0.0187
 3680SOL    HW222674   2.248   3.218   1.866 -0.6153 -0.5122 -0.9036
 3681SOL     OW22675   2.515   3.311   5.594 -0.2335 -0.5028 -0.2838
 3681SOL    HW122676   2.529   3.291   5.687  0.1990 -4.0030 -1.1115
 3681SOL    HW222677   2.469   3.395   5.596 -2.2336 -1.4964 -5.5811
 3682SOL     OW22678   0.126   3.339   2.931 -0.0135 -0.0209 -0.3569
 3682SOL    HW122679   0.201   3.328   2.873 -1.2159 -1.4171 -1.6392
 3682SOL    HW222680   0.144   3.276   3.001 -1.5105 -1.2573 -1.0764
 3683SOL     OW22681   2.635   4.570   6.830  0.4097 -0.0631 -0.4652
 3683SOL    HW122682   2.650   4.651   6.880  2.7005 -0.7887  0.0125
 3683SOL    HW222683   2.562   4.598   6.774  1.0262  1.4506 -0.5216
 3684SOL     OW22684   2.739   1.657  13.360 -0.3523  0.0403 -0.2313
 3684SOL    HW122685   2.655   1.670  13.404 -0.6186 -1.5117 -0.2819
 3684SOL    HW222686   2.796   1.654  13.437 -0.0592  2.3095 -0.3623
 3685SOL     OW22687   0.626   1.635   2.134  0.6215 -0.2819 -0.2679
 3685SOL    HW122688   0.687   1.708   2.133 -1.4457  1.4662  1.4737
 3685SOL    HW222689   0.546   1.683   2.156  1.5298  0.0502  2.2518
 3686SOL     OW22690   1.438   4.383  11.582  0.4784 -0.4661  0.3336
 3686SOL    HW122691   1.469   4.305  11.537 -0.3905 -1.0939  0.8143
 3686SOL    HW222692   1.512   4.444  11.584 -1.4139  1.7746  1.7767
 3687SOL     OW22693   3.248   0.706   2.124 -0.1258  0.4314  0.5137
 3687SOL    HW122694   3.329   0.739   2.084 -1.2606  1.9396 -0.5567
 3687SOL    HW222695   3.246   0.748   2.210 -1.4805 -2.0220  1.6580
 3688SOL     OW22696   1.557   1.364   1.342 -0.5927  0.0493  0.4213
 3688SOL    HW122697   1.549   1.423   1.417  2.3535  1.0876 -0.0707
 3688SOL    HW222698   1.509   1.292   1.383  1.3556 -0.3934  1.9446
 3689SOL     OW22699   4.579   3.895  12.663  1.0737  0.0064  0.4381
 3689SOL    HW122700   4.609   3.985  12.674 -0.2486  0.7161 -1.7183
 3689SOL    HW222701   4.646   3.834  12.634  0.7533  0.4815 -1.3105
 3690SOL     OW22702   1.787   1.244  17.677  0.2085  0.3064  0.0123
 3690SOL    HW122703   1.717   1.300  17.711 -2.9282 -2.9388 -1.0419
 3690SOL    HW222704   1.862   1.278  17.726  1.8003 -2.2051 -0.6960
 3691SOL     OW22705   3.593   1.322   9.307  0.0560 -0.1588 -0.0535
 3691SOL    HW122706   3.636   1.240   9.333 -1.0020 -1.0884 -1.2225
 3691SOL    HW222707   3.670   1.361   9.266 -0.3144  1.8975  1.1928
 3692SOL     OW22708   0.598   4.544  12.227  0.4248  0.3237  0.4110
 3692SOL    HW122709   0.648   4.537  12.308  1.9493  2.1422 -0.3763
 3692SOL    HW222710   0.634   4.471  12.176 -1.8403 -0.2398 -0.4133
 3693SOL     OW22711   3.592   2.840   5.379  0.1813 -0.3924 -0.1829
 3693SOL    HW122712   3.571   2.754   5.341  1.6958 -0.5151 -0.7434
 3693SOL    HW222713   3.647   2.817   5.453  0.6652 -1.5102 -0.8772
 3694SOL     OW22714   4.319   1.622   7.241  0.5307 -0.1056  0.2616
 3694SOL    HW122715   4.364   1.560   7.299 -1.8019 -0.7263  1.4205
 3694SOL    HW222716   4.230   1.586   7.238  0.4177  0.1625  0.3332
 3695SOL     OW22717   4.147   0.178   9.296  0.4381 -0.2985  1.0961
 3695SOL    HW122718   4.110   0.266   9.295  1.6847  0.2101  0.8892
 3695SOL    HW222719   4.148   0.166   9.201 -1.3292 -3.1263  1.4211
 3696SOL     OW22720   1.204   2.037   5.365  0.1038 -0.3142  0.5121
 3696SOL    HW122721   1.271   1.973   5.390  0.6018  0.5420  1.3490
 3696SOL    HW222722   1.250   2.120   5.379  1.2049 -0.6017 -1.2695
 3697SOL     OW22723   0.723   0.192   3.387 -0.3199 -0.1149  0.4438
 3697SOL    HW122724   0.710   0.286   3.397  1.0925  0.0957  0.3134
 3697SOL    HW222725   0.794   0.176   3.449  1.1109 -1.2454 -1.4890
 3698SOL     OW22726   4.682   1.532   6.820  0.0789 -0.0885  0.3052
 3698SOL    HW122727   4.690   1.458   6.761 -4.6226 -1.7718  1.8462
 3698SOL    HW222728   4.595   1.510   6.854 -0.0842 -1.3169 -0.9494
 3699SOL     OW22729   1.601   3.323   4.655  0.3170  0.5930  0.6805
 3699SOL    HW122730   1.562   3.271   4.725 -0.8045  0.5355  0.0043
 3699SOL    HW222731   1.688   3.347   4.688 -0.2516  2.4739  0.7695
 3700SOL     OW22732   2.230   4.321   8.847 -0.1289 -0.4408 -0.7713
 3700SOL    HW122733   2.261   4.411   8.834 -1.4659 -0.2370 -2.5034
 3700SOL    HW222734   2.140   4.342   8.821 -0.3769  0.3827  0.7160
 3701SOL     OW22735   2.050   1.503   9.761 -0.0072 -0.2872  0.2510
 3701SOL    HW122736   2.007   1.585   9.784 -0.3103 -0.3448 -0.1226
 3701SOL    HW222737   2.028   1.497   9.668  1.7518 -0.8048 -0.1367
 3702SOL     OW22738   1.577   2.469  10.197  0.3777  0.0137 -0.2354
 3702SOL    HW122739   1.579   2.424  10.281 -1.3214  0.4794  0.0526
 3702SOL    HW222740   1.506   2.416  10.160  0.1540  0.4265 -0.3897
 3703SOL     OW22741   0.042   0.822   3.003  0.1460 -0.0886  0.0445
 3703SOL    HW122742   0.039   0.738   3.048  0.5453 -0.0191  0.1988
 3703SOL    HW222743   0.100   0.874   3.059 -1.6083  2.2497 -0.3377
 3704SOL     OW22744   4.675   2.693   2.008  0.1371  0.5280  0.3081
 3704SOL    HW122745   4.706   2.613   2.051  0.2083 -0.1978 -1.0958
 3704SOL    HW222746   0.021   2.745   2.005 -0.0753  0.9204  1.4527
 3705SOL     OW22747   2.918   1.323   5.295  0.1966 -0.1437  0.7756
 3705SOL    HW122748   2.861   1.267   5.349 -0.4287  0.2792  0.5490
 3705SOL    HW222749   2.863   1.398   5.271 -0.2234 -0.4894  0.6459
 3706SOL     OW22750   1.647   1.024   6.732 -0.3222  0.0847  0.0533
 3706SOL    HW122751   1.560   1.059   6.710  0.3424  1.4639 -0.3494
 3706SOL    HW222752   1.692   1.108   6.733  1.5866 -0.9148 -2.1783
 3707SOL     OW22753   0.359   3.366   4.452 -0.3959 -0.2177  0.3999
 3707SOL    HW122754   0.288   3.380   4.515 -1.1878  0.9044 -0.7576
 3707SOL    HW222755   0.433   3.358   4.512 -1.5047  1.2680  1.9641
 3708SOL     OW22756   3.005   0.661   2.313  0.6354  0.5912  0.2974
 3708SOL    HW122757   3.045   0.594   2.369  0.2990  0.2437  0.1230
 3708SOL    HW222758   3.030   0.638   2.224 -2.4014 -3.6276  0.5130
 3709SOL     OW22759   0.621   1.698   4.647 -0.4017  0.4328  0.4036
 3709SOL    HW122760   0.683   1.626   4.664  1.9613  2.1465 -0.9740
 3709SOL    HW222761   0.684   1.757   4.606 -0.3228 -1.2772 -1.9614
 3710SOL     OW22762   3.330   0.086   4.274  0.7673  0.0410 -0.4369
 3710SOL    HW122763   3.261   0.020   4.277 -0.1516  1.0553  0.5451
 3710SOL    HW222764   3.285   0.166   4.302  1.1727  1.0202 -2.5344
 3711SOL     OW22765   0.668   2.031   6.645 -0.0447  0.2859  0.2552
 3711SOL    HW122766   0.706   1.978   6.715 -1.3308 -0.9533  0.0233
 3711SOL    HW222767   0.636   1.966   6.583 -1.3917  1.7811 -0.6343
 3712SOL     OW22768   0.717   1.017   3.390  0.0319  0.1306  0.6722
 3712SOL    HW122769   0.801   0.982   3.359  0.0718  0.8460 -0.0337
 3712SOL    HW222770   0.742   1.109   3.399  0.8709 -0.0557  0.3298
 3713SOL     OW22771   1.828   1.365   8.599  0.3808 -0.1819 -0.0986
 3713SOL    HW122772   1.781   1.360   8.681  1.9027  0.2554  0.8122
 3713SOL    HW222773   1.823   1.457   8.570 -1.5979 -0.5049 -0.7844
 3714SOL     OW22774   4.575   3.875   1.823 -0.1560  0.3274 -0.1452
 3714SOL    HW122775   4.657   3.874   1.872 -0.5640 -0.1934  0.5344
 3714SOL    HW222776   4.602   3.859   1.733  0.8609  0.1944  0.1899
 3715SOL     OW22777   4.516   3.593   9.209 -0.1127  0.1870  0.0514
 3715SOL    HW122778   4.443   3.571   9.151  0.6768 -2.2203 -0.0097
 3715SOL    HW222779   4.484   3.649   9.281 -1.1111 -0.2535 -0.0409
 3716SOL     OW22780   0.001   2.372   7.420  0.2539 -1.2268 -0.2369
 3716SOL    HW122781   4.718   2.406   7.508  3.9288  1.8675 -0.7283
 3716SOL    HW222782   4.677   2.428   7.370 -0.7642 -3.1048 -1.1593
 3717SOL     OW22783   2.795   1.734   3.285  0.0293 -0.3744  0.0366
 3717SOL    HW122784   2.793   1.699   3.195 -0.4465  0.0396 -0.1145
 3717SOL    HW222785   2.718   1.787   3.303  0.3733  0.3205 -0.5284
 3718SOL     OW22786   0.001   1.218   2.178 -0.0436  0.0565 -0.1436
 3718SOL    HW122787   0.060   1.154   2.139  0.9349  1.1813 -0.5201
 3718SOL    HW222788   4.661   1.213   2.117 -0.6393  1.5806  0.4491
 3719SOL     OW22789   0.457   4.209   9.467  0.0682  0.0290  0.0595
 3719SOL    HW122790   0.393   4.158   9.417  0.6074  0.8326 -1.4465
 3719SOL    HW222791   0.408   4.232   9.546  0.5465 -2.5886  1.1288
 3720SOL     OW22792   2.572   3.660  12.068  0.2608  0.6992 -0.2218
 3720SOL    HW122793   2.576   3.663  11.973 -0.8383  1.1803 -0.2558
 3720SOL    HW222794   2.603   3.570  12.080 -1.5163  0.1663  0.4380
 3721SOL     OW22795   3.174   1.523   9.568  0.1048  0.0201 -0.1036
 3721SOL    HW122796   3.243   1.577   9.529 -0.5028  0.8428 -0.0522
 3721SOL    HW222797   3.105   1.589   9.575 -0.0162 -0.0782 -0.3813
 3722SOL     OW22798   3.126   3.474  15.088 -0.0379  0.1015 -0.0287
 3722SOL    HW122799   3.043   3.521  15.092  1.5759  2.9510 -0.2397
 3722SOL    HW222800   3.189   3.546  15.090 -0.5479  0.4384  3.0627
 3723SOL     OW22801   1.861   2.042   1.915 -0.6052 -0.3610 -0.2785
 3723SOL    HW122802   1.821   2.080   1.994 -1.3355 -1.0776 -0.3040
 3723SOL    HW222803   1.949   2.017   1.942 -0.8218 -0.6093  0.1871
 3724SOL     OW22804   2.572   4.136   3.197 -0.3659  0.5248 -0.2963
 3724SOL    HW122805   2.521   4.174   3.268 -2.1926 -0.4516 -1.0870
 3724SOL    HW222806   2.659   4.159   3.231  0.3190 -2.6371  0.0571
 3725SOL     OW22807   4.670   0.032   8.659  0.3501 -0.1492 -0.3692
 3725SOL    HW122808   4.712   0.073   8.584  2.2189  0.9977  1.2941
 3725SOL    HW222809   0.001   0.036   8.729 -0.0633  3.3123 -0.1820
 3726SOL     OW22810   1.461   2.424  12.112 -0.0458  0.3061  0.1493
 3726SOL    HW122811   1.441   2.349  12.167  0.5746 -1.1019 -1.5449
 3726SOL    HW222812   1.425   2.390  12.030  1.0322 -0.4626 -0.0132
 3727SOL     OW22813   1.872   4.237   8.033  0.1437 -0.5383  0.3200
 3727SOL    HW122814   1.903   4.251   8.122  2.0277 -2.0234 -0.0936
 3727SOL    HW222815   1.781   4.248   8.059  0.7854 -0.5182  2.5394
 3728SOL     OW22816   1.742   4.193  14.428 -0.7008 -0.0098 -0.4747
 3728SOL    HW122817   1.689   4.165  14.353  0.2234 -0.8044 -0.8436
 3728SOL    HW222818   1.775   4.112  14.468 -0.2278  0.5223  0.1975
 3729SOL     OW22819   2.246   0.477   6.042  0.2888 -0.4707  0.0437
 3729SOL    HW122820   2.228   0.396   6.090 -0.8170  1.2326  2.4552
 3729SOL    HW222821   2.339   0.467   6.021  0.2506 -1.0687  0.1419
 3730SOL     OW22822   1.676   4.730   3.329  0.2587  0.0642  0.1943
 3730SOL    HW122823   1.767   4.727   3.300  0.7640 -2.2053  1.9670
 3730SOL    HW222824   1.624   0.033   3.258 -0.1561 -0.4174  0.2438
 3731SOL     OW22825   0.900   2.776   9.095 -0.5480  0.3335  0.5642
 3731SOL    HW122826   0.901   2.847   9.160  0.6914  2.4055 -1.7019
 3731SOL    HW222827   0.914   2.821   9.012  1.9086 -1.4794 -0.0131
 3732SOL     OW22828   1.405   4.003  11.738 -0.4555 -0.6710 -0.2588
 3732SOL    HW122829   1.385   4.011  11.644  1.4939  0.9074 -0.5630
 3732SOL    HW222830   1.500   4.008  11.727 -0.4622 -2.9735 -1.4772
 3733SOL     OW22831   3.632   0.620   3.093 -0.5221 -0.0004 -0.2138
 3733SOL    HW122832   3.609   0.537   3.134  0.5554  0.5973  1.5929
 3733SOL    HW222833   3.676   0.596   3.012 -0.5603 -1.7270  0.2751
 3734SOL     OW22834   1.667   0.462   6.613 -0.1172  0.1419 -0.0726
 3734SOL    HW122835   1.576   0.490   6.611 -0.5355 -1.2745 -1.0429
 3734SOL    HW222836   1.710   0.532   6.661 -3.1344  0.3555  2.2865
 3735SOL     OW22837   3.119   0.297  14.926 -0.4962  0.2316  0.1770
 3735SOL    HW122838   3.196   0.249  14.896 -0.7714 -0.1406  0.0589
 3735SOL    HW222839   3.075   0.313  14.842  0.3811  1.6806 -0.0092
 3736SOL     OW22840   3.035   0.632  10.385  0.1074  0.5528  0.0090
 3736SOL    HW122841   3.035   0.723  10.356  0.7736 -1.0651 -5.1127
 3736SOL    HW222842   2.996   0.623  10.472  2.2824 -2.5157  0.6798
 3737SOL     OW22843   2.720   0.756  11.907  0.0186 -0.2117  0.1164
 3737SOL    HW122844   2.743   0.723  11.820  0.1219  0.8201 -0.2546
 3737SOL    HW222845   2.632   0.784  11.883  0.3980  0.1262 -0.8716
 3738SOL     OW22846   3.556   1.266   1.002 -0.1381  0.2184  0.5970
 3738SOL    HW122847   3.593   1.241   1.086  1.3321  0.4327  0.0095
 3738SOL    HW222848   3.509   1.184   0.986  0.6194 -0.6866  3.0437
 3739SOL     OW22849   3.811   2.191   1.857  0.3555  0.1240  0.4656
 3739SOL    HW122850   3.810   2.172   1.951  0.4886 -2.5007 -0.0529
 3739SOL    HW222851   3.720   2.202   1.832  0.5124 -2.5995 -1.3761
 3740SOL     OW22852   1.853   2.372   2.212  0.4194  0.3412  0.0320
 3740SOL    HW122853   1.789   2.301   2.207  1.8913 -0.8927 -1.5705
 3740SOL    HW222854   1.846   2.400   2.303  0.1757 -1.9215  0.7090
 3741SOL     OW22855   1.551   0.308   4.000  0.3029 -0.5601 -0.3378
 3741SOL    HW122856   1.605   0.364   4.055 -1.4990  1.3401 -0.5189
 3741SOL    HW222857   1.620   0.246   3.976 -0.2693 -1.3576  0.0553
 3742SOL     OW22858   3.603   3.035  15.572  0.4968 -0.0933  0.4527
 3742SOL    HW122859   3.545   3.084  15.514  1.3016  2.2124  1.5830
 3742SOL    HW222860   3.569   2.946  15.568 -0.3602  0.0789  3.6529
 3743SOL     OW22861   2.035   0.115   1.994 -0.7387  0.2581 -0.3947
 3743SOL    HW122862   2.130   0.126   1.989 -0.7397  1.3116  2.0153
 3743SOL    HW222863   2.010   0.097   1.903  0.4935  0.6227 -0.8118
 3744SOL     OW22864   2.764   1.508   6.593 -0.0084  0.3777 -0.0480
 3744SOL    HW122865   2.751   1.449   6.519  1.7939 -1.8185  1.3802
 3744SOL    HW222866   2.769   1.594   6.552 -1.0135  1.1606  1.4546
 3745SOL     OW22867   0.674   1.431  17.376  0.3900 -0.1712 -0.0825
 3745SOL    HW122868   0.704   1.496  17.311  0.1165 -0.0555 -0.0943
 3745SOL    HW222869   0.752   1.424  17.431 -0.2808 -0.6687  0.7943
 3746SOL     OW22870   1.492   0.330   7.945 -0.1932 -0.4822  0.5018
 3746SOL    HW122871   1.410   0.349   7.898  1.6243  2.1938 -1.5531
 3746SOL    HW222872   1.509   0.419   7.974  2.9220 -0.7306 -0.6477
 3747SOL     OW22873   3.985   0.276  14.518 -0.0495 -0.1496  0.2952
 3747SOL    HW122874   3.957   0.353  14.569 -4.0920 -2.9592  2.3768
 3747SOL    HW222875   3.926   0.287  14.443 -1.8409 -0.9619  1.5775
 3748SOL     OW22876   2.131   2.126   4.337 -0.7649 -0.3293  0.0247
 3748SOL    HW122877   2.082   2.203   4.366  3.7969  2.1533  1.0065
 3748SOL    HW222878   2.215   2.142   4.381 -1.3119  1.4993  0.4103
 3749SOL     OW22879   1.367   4.106   7.190 -0.0069  0.3319  0.4846
 3749SOL    HW122880   1.314   4.133   7.266  0.1111  2.6807 -0.2672
 3749SOL    HW222881   1.393   4.192   7.158 -0.7608  0.6732  0.7712
 3750SOL     OW22882   1.581   2.161   1.054 -0.4153 -0.0375  0.1041
 3750SOL    HW122883   1.641   2.223   1.011  0.6065 -0.4785  0.8832
 3750SOL    HW222884   1.586   2.083   0.998 -0.9471 -0.2811  0.4041
 3751SOL     OW22885   0.464   4.396   4.246 -0.2950 -0.0065  0.1409
 3751SOL    HW122886   0.461   4.309   4.205  0.2939  1.0843 -2.1813
 3751SOL    HW222887   0.371   4.418   4.241  0.1413  1.7659  0.0729
 3752SOL     OW22888   1.601   1.960   2.378 -0.0025 -0.1724 -0.3081
 3752SOL    HW122889   1.631   1.926   2.293 -0.3964  1.9750 -1.3113
 3752SOL    HW222890   1.595   1.877   2.424 -3.3385 -0.2442 -0.8926
 3753SOL     OW22891   3.108   0.018   8.262  0.2031  0.5946  0.2434
 3753SOL    HW122892   3.077   0.094   8.213 -0.9505 -1.1518 -1.7090
 3753SOL    HW222893   3.114   4.685   8.194  1.7137  0.2849  0.6759
 3754SOL     OW22894   0.295   0.360   4.333  0.3935 -0.4401  0.3540
 3754SOL    HW122895   0.293   0.428   4.400 -1.4040  0.5605 -0.7509
 3754SOL    HW222896   0.327   0.283   4.381 -1.8771 -1.3284  0.4149
 3755SOL     OW22897   2.446   3.047   2.110  0.5435 -0.2970 -0.4060
 3755SOL    HW122898   2.491   2.994   2.044  2.2222  2.2929 -1.3839
 3755SOL    HW222899   2.386   3.100   2.057 -1.5070 -1.6449  0.5907
 3756SOL     OW22900   2.298   0.575  10.857  0.1507 -0.3068 -0.0058
 3756SOL    HW122901   2.259   0.491  10.881 -1.7573  0.7714  0.6810
 3756SOL    HW222902   2.215   0.622  10.849 -0.2613 -1.2435 -1.1515
 3757SOL     OW22903   3.274   4.030   1.795 -0.0592  0.3702  0.5392
 3757SOL    HW122904   3.227   4.114   1.795 -0.4357  0.1798  2.5405
 3757SOL    HW222905   3.335   4.051   1.865 -1.1654  3.0358  0.7104
 3758SOL     OW22906   3.076   0.218  14.612 -0.7116  0.1121 -0.1592
 3758SOL    HW122907   2.999   0.271  14.593  1.2841  2.4039 -1.8876
 3758SOL    HW222908   3.095   0.204  14.519 -2.6812  1.1425 -0.7161
 3759SOL     OW22909   2.583   0.494   0.363 -0.1345 -0.2157  0.2689
 3759SOL    HW122910   2.671   0.507   0.398  0.7237 -0.2273 -1.8507
 3759SOL    HW222911   2.532   0.557   0.415  1.9782  2.5871 -1.0827
 3760SOL     OW22912   0.388   2.743  11.556 -0.3996  0.1820  0.0782
 3760SOL    HW122913   0.418   2.684  11.486  1.9296  0.5776  0.7481
 3760SOL    HW222914   0.448   2.815  11.536 -3.0510  1.3653 -3.6625
 3761SOL     OW22915   1.637   0.762  13.075 -0.1152  0.0834  0.0341
 3761SOL    HW122916   1.650   0.691  13.138  1.9369  0.3664 -0.0544
 3761SOL    HW222917   1.618   0.700  13.005 -0.9622 -0.8162  1.0695
 3762SOL     OW22918   4.506   3.884   8.081  0.3572  0.4066 -0.3898
 3762SOL    HW122919   4.440   3.902   8.148 -1.7767  1.6760 -2.8629
 3762SOL    HW222920   4.593   3.900   8.118  1.4787 -1.5037 -2.2490
 3763SOL     OW22921   2.053   2.231  14.649 -0.5960 -1.0492 -0.1415
 3763SOL    HW122922   2.132   2.285  14.651 -0.4039 -1.3338 -0.0455
 3763SOL    HW222923   2.016   2.240  14.737 -3.3978  0.4070 -1.4554
 3764SOL     OW22924   3.986   2.685  12.946 -0.4532  0.5847 -0.7712
 3764SOL    HW122925   3.945   2.599  12.934  0.6107 -0.3136  2.2237
 3764SOL    HW222926   3.923   2.722  13.008 -0.9077  1.2111 -1.5985
 3765SOL     OW22927   0.935   3.370   2.618 -0.3066  0.6536 -0.3243
 3765SOL    HW122928   0.851   3.345   2.656  0.3702  1.0293  1.4271
 3765SOL    HW222929   0.913   3.439   2.555 -1.8268  1.2253  0.8317
 3766SOL     OW22930   0.325   4.578  12.277  0.5577 -0.0854  0.1063
 3766SOL    HW122931   0.301   4.650  12.218  4.1671  1.2480  0.2706
 3766SOL    HW222932   0.416   4.563  12.250  0.7204  0.9520  0.0664
 3767SOL     OW22933   0.892   4.630   6.797 -0.4486  0.0736 -0.0993
 3767SOL    HW122934   0.900   4.619   6.892  2.1088  0.0661 -0.2955
 3767SOL    HW222935   0.836   4.708   6.796  0.7310  0.9047 -1.2367
 3768SOL     OW22936   3.798   4.186   3.087  0.8219 -0.2025  0.3371
 3768SOL    HW122937   3.717   4.149   3.123  1.1502  1.5101  2.9108
 3768SOL    HW222938   3.766   4.261   3.036 -0.4925 -1.9274 -1.3562
 3769SOL     OW22939   1.105   4.342  13.401 -0.9202 -0.2018  0.4162
 3769SOL    HW122940   1.063   4.379  13.479  0.4909 -0.7872  1.4574
 3769SOL    HW222941   1.183   4.396  13.386 -0.6937 -0.4669  0.6487
 3770SOL     OW22942   2.817   0.877   1.323  0.2775  0.4153 -0.3020
 3770SOL    HW122943   2.738   0.931   1.329  0.1922  0.2354  0.2301
 3770SOL    HW222944   2.814   0.840   1.235  3.4467 -0.9921  0.1969
 3771SOL     OW22945   3.508   0.978   7.848  0.4857 -0.5678  0.0213
 3771SOL    HW122946   3.448   0.904   7.854 -2.2916  1.8240  1.4677
 3771SOL    HW222947   3.585   0.922   7.861  2.0005  1.3939 -0.4820
 3772SOL     OW22948   2.971   2.346   9.625 -0.0323  0.9159  0.4111
 3772SOL    HW122949   2.933   2.418   9.575  0.2250 -0.6415 -2.0358
 3772SOL    HW222950   2.946   2.262   9.587 -0.0955  0.7068  0.9143
 3773SOL     OW22951   0.215   3.529   5.242  0.1768 -0.4488 -0.0054
 3773SOL    HW122952   0.138   3.539   5.299  0.4868  1.1857  0.1283
 3773SOL    HW222953   0.212   3.434   5.245 -3.8991 -0.2718  1.5914
 3774SOL     OW22954   3.708   2.969  16.684  0.2084  0.0975  0.5334
 3774SOL    HW122955   3.643   2.992  16.750  0.4392  1.0492  0.4254
 3774SOL    HW222956   3.782   2.960  16.744  0.7163  1.9885  0.1789
 3775SOL     OW22957   4.432   2.342   4.154  0.1561  0.4398 -0.1850
 3775SOL    HW122958   4.413   2.250   4.136  0.7561  0.4605 -0.9006
 3775SOL    HW222959   4.521   2.329   4.187  0.5654  0.8734 -1.1145
 3776SOL     OW22960   0.400   1.869   2.757 -0.5903 -0.2301 -0.4516
 3776SOL    HW122961   0.419   1.955   2.796 -0.5482  0.0156 -1.0151
 3776SOL    HW222962   0.373   1.817   2.833  0.1028  0.0190 -0.0321
 3777SOL     OW22963   1.072   3.332   4.907 -0.4227 -0.1862  0.2088
 3777SOL    HW122964   1.073   3.345   5.002  1.9500  0.6236  0.0760
 3777SOL    HW222965   1.101   3.241   4.906  1.7961  0.4922  2.1230
 3778SOL     OW22966   4.252   0.287   8.377 -0.4850  0.0062 -0.5410
 3778SOL    HW122967   4.310   0.231   8.327 -0.8906 -1.8063  1.0162
 3778SOL    HW222968   4.283   0.373   8.348  0.3873 -0.4765 -1.0346
 3779SOL     OW22969   1.023   0.324   9.746 -0.0587  0.4471  0.5631
 3779SOL    HW122970   1.004   0.403   9.797  0.4249  1.4634 -0.8294
 3779SOL    HW222971   1.025   0.250   9.806 -1.8027 -0.0026  0.0713
 3780SOL     OW22972   3.691   4.627   5.616  0.4312 -0.0442  0.4787
 3780SOL    HW122973   3.712   4.697   5.678  0.9189  0.5179 -0.3386
 3780SOL    HW222974   3.665   4.555   5.675 -1.0790 -0.7192 -1.0063
 3781SOL     OW22975   2.793   3.588   3.851  0.3824 -0.2269  0.4979
 3781SOL    HW122976   2.763   3.679   3.845 -1.0542 -0.7708 -0.4640
 3781SOL    HW222977   2.861   3.586   3.783 -2.0158  0.7053 -1.9231
 3782SOL     OW22978   2.544   3.888   8.418  0.8166 -0.0041 -0.6119
 3782SOL    HW122979   2.513   3.957   8.476  2.0214  1.1193 -1.3197
 3782SOL    HW222980   2.634   3.884   8.449 -0.2573  2.7641  2.8427
 3783SOL     OW22981   2.950   2.987   4.266  0.0229  0.0982  0.4287
 3783SOL    HW122982   3.018   2.931   4.304 -0.0857 -1.1034 -1.1577
 3783SOL    HW222983   2.881   2.922   4.250  0.3072  0.4577 -2.1489
 3784SOL     OW22984   0.829   3.351  16.967 -0.0261  0.5963 -0.2846
 3784SOL    HW122985   0.845   3.341  17.061  0.1317 -1.3788 -0.5277
 3784SOL    HW222986   0.864   3.270  16.929  1.3323  0.6209  0.8834
 3785SOL     OW22987   0.887   0.248   4.981  0.1332 -0.2183  0.8360
 3785SOL    HW122988   0.930   0.209   4.905 -3.4124 -1.4220 -0.5623
 3785SOL    HW222989   0.955   0.223   5.042  2.6601  2.2250 -0.9661
 3786SOL     OW22990   3.675   1.368   0.223 -0.7500  0.1520 -0.0503
 3786SOL    HW122991   3.587   1.337   0.241 -1.8551  3.2023 -0.1697
 3786SOL    HW222992   3.706   1.346   0.310  1.2167  0.2148 -0.7180
 3787SOL     OW22993   3.110   1.517   4.359  0.3080 -0.5911 -0.5586
 3787SOL    HW122994   3.063   1.444   4.317 -0.4071 -1.1408  1.1788
 3787SOL    HW222995   3.185   1.471   4.395  0.8394 -1.6157 -2.9600
 3788SOL     OW22996   0.790   3.771   7.787  0.2927 -0.3005  0.3389
 3788SOL    HW122997   0.792   3.703   7.720  0.4419 -1.3294  1.3791
 3788SOL    HW222998   0.882   3.762   7.812  0.9614 -1.6307 -2.6642
 3789SOL     OW22999   2.887   3.148   4.920  0.3084  0.4048 -0.1377
 3789SOL    HW123000   2.935   3.200   4.985  0.9595 -0.4609  0.0795
 3789SOL    HW223001   2.909   3.198   4.842 -0.0087  0.0328 -0.4615
 3790SOL     OW23002   1.792   0.224   5.725  0.5410 -0.1391  0.0675
 3790SOL    HW123003   1.865   0.211   5.786  0.4256 -1.2905 -0.0375
 3790SOL    HW223004   1.824   0.304   5.682  0.6447  1.2752  2.7999
 3791SOL     OW23005   3.872   0.582  11.902 -0.2999 -0.1001  0.3702
 3791SOL    HW123006   3.926   0.635  11.844 -0.7241  1.4175  1.3310
 3791SOL    HW223007   3.939   0.542  11.957 -0.6452 -0.0068  0.8678
 3792SOL     OW23008   3.709   2.104   7.611 -0.4120 -0.4213 -0.1115
 3792SOL    HW123009   3.691   2.106   7.705  2.3005 -1.8565  0.4327
 3792SOL    HW223010   3.700   2.197   7.589 -1.7253 -1.5241 -4.1170
 3793SOL     OW23011   4.303   4.410  15.853  0.0842 -0.7331  0.3621
 3793SOL    HW123012   4.341   4.400  15.941 -0.9154  1.5503  1.0554
 3793SOL    HW223013   4.347   4.493  15.833  0.3877 -1.0017 -0.0921
 3794SOL     OW23014   2.779   0.827   9.837  0.3299  0.0738 -0.9060
 3794SOL    HW123015   2.874   0.832   9.837  0.4792 -2.8760 -1.0013
 3794SOL    HW223016   2.775   0.741   9.878  1.2733  1.9488  3.1113
 3795SOL     OW23017   1.142   4.412   8.991 -0.4264 -0.2742  0.1413
 3795SOL    HW123018   1.193   4.486   8.957  0.3365 -0.3659  1.1052
 3795SOL    HW223019   1.102   4.382   8.909  0.5646 -0.6703 -0.1975
 3796SOL     OW23020   4.438   3.202   1.789 -0.0854  0.5214 -0.3107
 3796SOL    HW123021   4.468   3.147   1.861 -1.9619  1.9307  1.5565
 3796SOL    HW223022   4.489   3.160   1.720 -0.8397 -0.2471 -0.3955
 3797SOL     OW23023   4.409   1.540  10.689  0.1686 -0.1276 -0.1383
 3797SOL    HW123024   4.384   1.585  10.608 -0.3428  0.3152  0.2591
 3797SOL    HW223025   4.324   1.534  10.733 -0.5503  3.1377 -1.0449
 3798SOL     OW23026   4.309   0.332   6.389 -0.0012 -0.0331 -0.3274
 3798SOL    HW123027   4.295   0.281   6.309 -0.4994 -0.4621  0.0373
 3798SOL    HW223028   4.387   0.381   6.362  0.7357 -0.4318  1.1245
 3799SOL     OW23029   3.425   0.208   7.567  0.2990  0.0837  0.0188
 3799SOL    HW123030   3.437   0.281   7.627  3.7221  0.3519 -0.9969
 3799SOL    HW223031   3.355   0.239   7.509 -0.9877  1.1482  2.1680
 3800SOL     OW23032   2.514   2.093   2.146  0.2034 -0.4841  0.0025
 3800SOL    HW123033   2.557   2.077   2.230 -3.6274 -1.5028  1.7795
 3800SOL    HW223034   2.534   2.009   2.105 -1.6412 -0.9467  0.0382
 3801SOL     OW23035   3.619   4.264  15.729  0.0994 -0.5266  0.6757
 3801SOL    HW123036   3.678   4.324  15.774 -1.6580  2.3589 -0.9336
 3801SOL    HW223037   3.658   4.176  15.734 -1.0933 -1.1105 -0.2291
 3802SOL     OW23038   2.455   2.522   5.621 -0.1236  0.1937  0.0022
 3802SOL    HW123039   2.519   2.507   5.552  0.8744 -1.1392  1.2233
 3802SOL    HW223040   2.480   2.457   5.687 -1.7627  0.3317  0.7755
 3803SOL     OW23041   3.318   0.238   1.794  0.7411 -0.0657  0.1174
 3803SOL    HW123042   3.238   0.286   1.770 -1.7250 -3.6479  1.2137
 3803SOL    HW223043   3.369   0.291   1.733  2.2136  0.0106  1.4229
 3804SOL     OW23044   2.523   4.169   7.654  0.0163 -0.4161  0.2852
 3804SOL    HW123045   2.605   4.121   7.659  1.2578  1.5587 -1.0239
 3804SOL    HW223046   2.543   4.247   7.705  1.4846  1.2912 -2.8704
 3805SOL     OW23047   3.258   2.751   4.178 -0.0027  0.1398  0.6214
 3805SOL    HW123048   3.249   2.747   4.273  1.1388 -1.1299  0.6734
 3805SOL    HW223049   3.176   2.706   4.158  0.1555 -0.3837  1.1593
 3806SOL     OW23050   1.108   2.740   6.190 -0.7572  0.2063  0.1045
 3806SOL    HW123051   1.129   2.826   6.153 -0.1643 -0.3011 -0.7425
 3806SOL    HW223052   1.012   2.738   6.199 -0.6040 -0.3754  1.6286
 3807SOL     OW23053   3.065   0.697   8.322 -1.0426 -0.2620  0.4760
 3807SOL    HW123054   3.088   0.658   8.238  0.5847 -0.0946  0.8384
 3807SOL    HW223055   2.989   0.647   8.349 -1.0515 -1.2017 -1.3074
 3808SOL     OW23056   1.228   1.976   4.123 -0.1744 -0.5069 -0.4942
 3808SOL    HW123057   1.306   1.953   4.073  0.1501 -0.3717 -0.0524
 3808SOL    HW223058   1.203   1.887   4.148 -2.0883  0.7567  2.1479
 3809SOL     OW23059   1.198   0.531   7.145  0.3380 -0.6106 -0.0728
 3809SOL    HW123060   1.162   0.544   7.058  1.6792 -1.9322 -0.8292
 3809SOL    HW223061   1.263   0.601   7.156 -0.4940  0.3789 -1.4964
 3810SOL     OW23062   1.527   3.889   3.583 -0.1794 -0.2290 -0.9303
 3810SOL    HW123063   1.541   3.904   3.489  2.0233  1.9233 -0.2373
 3810SOL    HW223064   1.523   3.794   3.589  0.2017 -0.2263 -0.6396
 3811SOL     OW23065   3.975   4.417   5.936 -0.0148  0.0222  0.9486
 3811SOL    HW123066   3.960   4.414   5.842 -0.0438  0.0147  0.9537
 3811SOL    HW223067   4.001   4.327   5.957  1.6317  0.5203  1.0182
 3812SOL     OW23068   1.284   2.974  17.592  0.2469 -0.4163 -0.1818
 3812SOL    HW123069   1.326   3.022  17.662  2.0382  0.0836 -1.6158
 3812SOL    HW223070   1.196   2.967  17.631  0.3846  2.2417  0.5570
 3813SOL     OW23071   1.902   2.838  13.463  0.3656 -0.0045 -0.3089
 3813SOL    HW123072   1.992   2.861  13.485  0.2857 -0.2998  0.3325
 3813SOL    HW223073   1.870   2.911  13.409  0.1557  0.6066  0.6484
 3814SOL     OW23074   2.819   4.679   4.287 -0.2408  0.3344  0.2767
 3814SOL    HW123075   2.822   4.637   4.201 -2.2921  0.8286 -0.0362
 3814SOL    HW223076   2.726   4.674   4.311 -0.4748  0.5234 -0.6122
 3815SOL     OW23077   0.742   3.545   7.346 -0.3688 -0.2018 -0.3955
 3815SOL    HW123078   0.816   3.529   7.288 -0.7907 -1.3220 -0.6317
 3815SOL    HW223079   0.677   3.580   7.286 -1.0955 -1.5339 -0.3860
 3816SOL     OW23080   4.625   1.357  17.098 -0.2868  0.0590 -0.8781
 3816SOL    HW123081   4.578   1.290  17.147  0.7072  0.6347  0.8441
 3816SOL    HW223082   4.682   1.399  17.162  1.2266  0.6993 -2.6592
 3817SOL     OW23083   2.450   0.306   5.398 -0.2239 -0.3408  0.0851
 3817SOL    HW123084   2.443   0.291   5.304  1.8975 -1.6080  0.1505
 3817SOL    HW223085   2.446   0.402   5.399 -0.1237 -0.3347 -0.2153
 3818SOL     OW23086   2.419   1.025   2.464 -0.3833 -0.1306 -0.2629
 3818SOL    HW123087   2.332   1.060   2.485  0.3554  1.7417 -0.3443
 3818SOL    HW223088   2.411   1.005   2.371  1.9058 -1.8894 -0.0740
 3819SOL     OW23089   2.098   1.140  10.652 -0.1293 -0.1011 -0.0803
 3819SOL    HW123090   2.149   1.210  10.613 -0.0857  0.9942  1.9395
 3819SOL    HW223091   2.028   1.143  10.587  1.8710 -3.4269 -2.4320
 3820SOL     OW23092   1.612   3.736   8.121 -0.3608 -0.2372  0.3328
 3820SOL    HW123093   1.658   3.717   8.203 -1.3114 -1.5860  0.5652
 3820SOL    HW223094   1.592   3.647   8.090 -3.2791 -0.0415  1.6432
 3821SOL     OW23095   2.970   1.202  13.908  0.3522 -0.4107 -0.3257
 3821SOL    HW123096   3.041   1.234  13.963  0.5452  0.5019 -1.1047
 3821SOL    HW223097   2.956   1.290  13.873  1.5713 -0.2567 -0.4453
 3822SOL     OW23098   4.621   2.875  16.416 -0.6077  0.8336 -0.1264
 3822SOL    HW123099   4.627   2.827  16.499  0.7677  1.3090  0.0503
 3822SOL    HW223100   4.689   2.828  16.368 -1.5913  0.7445 -1.4339
 3823SOL     OW23101   3.820   0.081   0.654 -0.7767 -0.4260  0.4944
 3823SOL    HW123102   3.751   0.024   0.689  0.9128 -2.1554  1.0157
 3823SOL    HW223103   3.856   0.018   0.591 -2.7030 -0.1299 -0.8994
 3824SOL     OW23104   4.628   2.951   7.535  0.7875  0.1097  0.1568
 3824SOL    HW123105   4.711   2.933   7.581  1.4390  1.5398 -0.4760
 3824SOL    HW223106   4.591   2.862   7.540  1.9767 -0.4859 -1.6130
 3825SOL     OW23107   0.984   1.107   9.633  0.3432  0.4394  0.0224
 3825SOL    HW123108   0.934   1.087   9.554  0.7444 -1.5054  0.2484
 3825SOL    HW223109   0.918   1.099   9.702  2.1368 -0.4724  1.6298
 3826SOL     OW23110   2.428   0.827  11.851 -0.1210  0.7959 -0.3625
 3826SOL    HW123111   2.473   0.873  11.922 -2.0084 -0.3034  1.5593
 3826SOL    HW223112   2.352   0.793  11.900  0.6550 -0.8418 -0.3186
 3827SOL     OW23113   3.346   1.727   3.801  0.7617 -0.2801 -0.1305
 3827SOL    HW123114   3.412   1.708   3.733  0.3183 -0.5281 -0.4899
 3827SOL    HW223115   3.358   1.819   3.823  0.1249 -0.6043  1.5058
 3828SOL     OW23116   3.092   2.758  15.308 -0.0900  0.5436  0.2108
 3828SOL    HW123117   3.185   2.763  15.286  0.1677 -0.0978  1.1388
 3828SOL    HW223118   3.055   2.830  15.257 -0.4230  0.3442  0.1667
 3829SOL     OW23119   4.304   2.625   4.113 -0.4421  0.0021  0.2305
 3829SOL    HW123120   4.384   2.573   4.108 -1.1600 -1.0661 -0.1385
 3829SOL    HW223121   4.318   2.665   4.199  0.7071  2.5287 -1.1284
 3830SOL     OW23122   2.637   2.360   4.185 -0.1457  0.2735  0.6955
 3830SOL    HW123123   2.691   2.311   4.247  0.8162  0.4886  0.0200
 3830SOL    HW223124   2.696   2.431   4.159 -0.3255  1.1934  2.8254
 3831SOL     OW23125   1.102   3.278   5.489 -0.5274 -0.0687 -0.4498
 3831SOL    HW123126   1.148   3.325   5.420  1.2556 -2.3001 -0.7895
 3831SOL    HW223127   1.141   3.303   5.572 -0.2395 -1.5283 -0.1489
 3832SOL     OW23128   0.472   1.158   2.702 -0.3172 -0.5271  0.1014
 3832SOL    HW123129   0.535   1.214   2.657 -2.1352 -0.6928 -2.6833
 3832SOL    HW223130   0.408   1.219   2.739 -0.6320 -0.8030  0.0144
 3833SOL     OW23131   3.254   2.977   9.022 -0.2340 -0.3403  0.2489
 3833SOL    HW123132   3.167   2.948   9.051  0.0620 -0.3203  1.1758
 3833SOL    HW223133   3.236   3.063   8.985  0.9499 -0.4307 -0.5391
 3834SOL     OW23134   3.700   2.518   5.146  0.3427 -0.1799  0.0412
 3834SOL    HW123135   3.612   2.492   5.176 -0.5937  1.4405 -1.3430
 3834SOL    HW223136   3.745   2.514   5.230 -0.8636 -0.1470  0.6868
 3835SOL     OW23137   1.578   1.329  13.330 -1.1829 -0.0306 -0.0903
 3835SOL    HW123138   1.580   1.423  13.314 -3.1604 -0.3667 -2.3383
 3835SOL    HW223139   1.661   1.336  13.376 -1.0167 -0.3216 -0.3475
 3836SOL     OW23140   3.000   0.312   2.829 -0.1349  0.0940  0.4095
 3836SOL    HW123141   2.959   0.234   2.792 -0.3717  0.7078 -0.6206
 3836SOL    HW223142   2.975   0.298   2.921  0.5484 -1.5178  0.3524
 3837SOL     OW23143   2.496   1.202   1.599  0.5687 -0.0497  0.4124
 3837SOL    HW123144   2.541   1.220   1.681  1.4736  0.6761 -0.2386
 3837SOL    HW223145   2.415   1.240   1.634 -0.2012  0.1716 -1.6085
 3838SOL     OW23146   2.829   2.413   2.031 -0.1300 -0.3432  0.0023
 3838SOL    HW123147   2.750   2.387   1.984 -0.4529  0.1274  0.2836
 3838SOL    HW223148   2.803   2.505   2.042  0.1358 -0.3676  0.8120
 3839SOL     OW23149   0.496   0.315   3.713  0.0355 -0.5474  0.0162
 3839SOL    HW123150   0.560   0.327   3.783 -0.3912 -2.6312  0.7649
 3839SOL    HW223151   0.422   0.306   3.772 -0.8319  1.9194 -0.7139
 3840SOL     OW23152   4.034   0.780   4.206  0.2294  0.0913 -0.1511
 3840SOL    HW123153   4.112   0.759   4.259  0.5075 -1.8528 -1.3518
 3840SOL    HW223154   4.067   0.849   4.148  1.9619 -1.1797 -0.6860
 3841SOL     OW23155   2.255   3.627   9.280 -0.0465 -0.8884 -0.4288
 3841SOL    HW123156   2.306   3.574   9.341  1.7235 -0.2801 -1.3733
 3841SOL    HW223157   2.166   3.612   9.311  0.5531 -1.3421  1.1308
 3842SOL     OW23158   2.463   0.129  11.699 -0.5767 -0.2182  0.0020
 3842SOL    HW123159   2.429   0.040  11.708  0.3332 -0.3909  1.7984
 3842SOL    HW223160   2.549   0.118  11.659 -0.5737  0.0273 -0.0626
 3843SOL     OW23161   0.894   1.840   7.658  0.4098 -0.2636  0.0117
 3843SOL    HW123162   0.814   1.887   7.680 -0.1886 -1.1358 -0.2800
 3843SOL    HW223163   0.929   1.892   7.586 -0.5480  2.7921  1.7671
 3844SOL     OW23164   0.303   4.426   5.103 -0.2468 -0.1528  0.0990
 3844SOL    HW123165   0.214   4.444   5.072 -0.9581 -0.2237  2.0931
 3844SOL    HW223166   0.336   4.390   5.021 -2.0446  1.5490 -1.3973
 3845SOL     OW23167   3.157   2.895   7.684  0.2989  0.4023  0.4755
 3845SOL    HW123168   3.197   2.814   7.717  0.1476  0.0178 -0.2847
 3845SOL    HW223169   3.067   2.861   7.686  0.5507 -0.3261 -0.7977
 3846SOL     OW23170   3.836   3.904  17.081  0.9572 -0.2868  0.1204
 3846SOL    HW123171   3.856   3.825  17.131 -0.3298 -1.0869 -0.6117
 3846SOL    HW223172   3.926   3.932  17.063  0.8406 -1.7235 -2.5873
 3847SOL     OW23173   3.032   3.713   3.296 -0.1327  0.0822 -0.1934
 3847SOL    HW123174   2.944   3.735   3.266 -0.6207 -1.1116  0.3699
 3847SOL    HW223175   3.003   3.626   3.323 -0.2187  0.3647  0.6409
 3848SOL     OW23176   0.819   2.008   5.659  0.1014  0.2471 -0.5063
 3848SOL    HW123177   0.805   2.077   5.595  2.5744  0.1198 -1.1804
 3848SOL    HW223178   0.898   1.969   5.622  2.3564  2.8183  1.5326
 3849SOL     OW23179   2.433   1.410   5.049  0.3066 -0.0076  0.7648
 3849SOL    HW123180   2.437   1.314   5.056  0.4173  0.0749  1.8752
 3849SOL    HW223181   2.371   1.431   4.980 -0.0828 -0.3105  1.0198
 3850SOL     OW23182   1.522   1.400   1.780  0.5012 -0.4172 -0.3573
 3850SOL    HW123183   1.572   1.338   1.834  2.2979  1.1710 -0.2143
 3850SOL    HW223184   1.488   1.466   1.841  1.5280 -0.8410  0.6766
 3851SOL     OW23185   3.377   3.943   8.061 -0.0989  0.1052 -0.2258
 3851SOL    HW123186   3.302   3.934   8.002 -0.3546  0.2663  0.0757
 3851SOL    HW223187   3.352   4.024   8.106 -1.3685 -1.2695  1.5455
 3852SOL     OW23188   3.249   3.148   7.626 -0.3931  0.3117  0.1678
 3852SOL    HW123189   3.340   3.122   7.642 -1.5677 -3.7459  0.2716
 3852SOL    HW223190   3.212   3.062   7.646  1.1950 -0.3398  0.2676
 3853SOL     OW23191   0.727   2.193   9.469  0.2313 -0.1664 -0.3799
 3853SOL    HW123192   0.804   2.145   9.439 -0.6636 -1.1290 -1.1302
 3853SOL    HW223193   0.734   2.281   9.431  1.5987  0.4435  1.2696
 3854SOL     OW23194   3.701   1.675   7.869 -0.0528 -0.0373  0.7633
 3854SOL    HW123195   3.739   1.700   7.785  1.5984 -0.3619  1.4212
 3854SOL    HW223196   3.646   1.601   7.843  1.0188 -0.6916  0.3700
 3855SOL     OW23197   2.323   4.570   8.803 -0.1018 -0.1424  0.4545
 3855SOL    HW123198   2.386   4.606   8.865 -1.1419 -2.4237  2.8377
 3855SOL    HW223199   2.239   4.612   8.824 -0.4913 -0.6554 -0.0625
 3856SOL     OW23200   3.354   2.313   2.544 -0.0635  0.0964  0.0550
 3856SOL    HW123201   3.267   2.279   2.522 -1.2001  2.7151  0.4507
 3856SOL    HW223202   3.333   2.406   2.556 -0.5704 -0.0293  0.1655
 3857SOL     OW23203   2.767   4.182   4.905 -0.3378  0.0535  0.4025
 3857SOL    HW123204   2.851   4.166   4.948 -0.0702  0.8826  0.1912
 3857SOL    HW223205   2.781   4.223   4.819 -0.6280 -0.2192  0.2260
 3858SOL     OW23206   2.547   4.657   5.248  0.5571  0.5261 -0.1635
 3858SOL    HW123207   2.608   4.590   5.280  0.4429  0.5084  0.0177
 3858SOL    HW223208   2.490   4.607   5.190 -0.1748  0.1454  0.8762
 3859SOL     OW23209   3.894   0.705  11.108 -0.2531  0.5751  0.3749
 3859SOL    HW123210   3.897   0.695  11.013  0.2273 -2.2583  0.6672
 3859SOL    HW223211   3.914   0.798  11.115  0.0100  0.4378  1.5019
 3860SOL     OW23212   4.187   0.413   5.281  0.2583  1.1254  0.1004
 3860SOL    HW123213   4.130   0.436   5.354 -0.6402  1.2490 -0.6480
 3860SOL    HW223214   4.168   0.481   5.217 -0.9012  0.2781 -0.4671
 3861SOL     OW23215   2.805   1.742   0.154 -0.8643 -0.3227 -0.4176
 3861SOL    HW123216   2.724   1.755   0.204 -0.4927 -0.7939  0.3069
 3861SOL    HW223217   2.813   1.823   0.105 -0.7371  0.4177  0.8308
 3862SOL     OW23218   1.379   1.210   6.299 -0.0213 -0.3299  0.1393
 3862SOL    HW123219   1.387   1.229   6.206 -0.8643  1.5511  0.4499
 3862SOL    HW223220   1.467   1.221   6.335 -0.1432  0.9343  0.0441
 3863SOL     OW23221   1.136   4.663  15.065 -0.4812  0.1471  0.1432
 3863SOL    HW123222   1.041   4.659  15.074 -0.5478 -0.1156 -0.6882
 3863SOL    HW223223   1.139   0.015  15.024  1.3234  1.0105  2.0544
 3864SOL     OW23224   4.678   4.343  12.548 -0.0158  0.4004  0.2731
 3864SOL    HW123225   4.706   4.424  12.591  0.6107 -0.1138  0.8219
 3864SOL    HW223226   4.717   4.354  12.461  0.3245 -0.3697  0.3323
 3865SOL     OW23227   0.426   2.578  17.701  0.0338  0.2604 -0.4224
 3865SOL    HW123228   0.491   2.640  17.666  1.5454 -1.1038 -0.0411
 3865SOL    HW223229   0.474   2.543   0.040  0.8027 -1.8013 -1.8652
 3866SOL     OW23230   0.778   3.059   6.199 -0.0552  0.0215 -0.1566
 3866SOL    HW123231   0.814   2.993   6.140 -0.9112  0.7630 -1.5037
 3866SOL    HW223232   0.769   3.131   6.137  0.0424 -0.2738 -0.5136
 3867SOL     OW23233   2.338   0.793   8.752  0.1768 -0.0239  0.0183
 3867SOL    HW123234   2.338   0.888   8.764  1.4340  0.1805 -1.6043
 3867SOL    HW223235   2.326   0.754   8.839 -1.7844  0.1023 -0.1855
 3868SOL     OW23236   2.363   2.658   2.812 -0.0552 -0.1226 -0.7058
 3868SOL    HW123237   2.448   2.616   2.796  1.1226  1.5520  1.0676
 3868SOL    HW223238   2.398   2.747   2.815  2.4413 -1.2278  2.6439
 3869SOL     OW23239   1.164   3.412  14.261 -0.5592  1.0607 -0.0342
 3869SOL    HW123240   1.099   3.385  14.196 -2.6512  2.5010  1.4534
 3869SOL    HW223241   1.186   3.503  14.241  1.6340  0.3818 -0.6398
 3870SOL     OW23242   4.415   2.581  17.532 -0.0802  0.1181 -0.3657
 3870SOL    HW123243   4.337   2.547  17.490  0.1551  1.2342 -1.7012
 3870SOL    HW223244   4.442   2.636  17.458  0.0857  1.4323  0.6782
 3871SOL     OW23245   4.657   2.721   1.515 -0.1913 -0.2323  0.0482
 3871SOL    HW123246   4.563   2.726   1.502 -0.4520 -1.9665  1.2327
 3871SOL    HW223247   4.673   2.809   1.550  0.4431 -0.1267 -0.5101
 3872SOL     OW23248   2.877   3.215   7.923 -0.0422  0.1189  0.2065
 3872SOL    HW123249   2.958   3.166   7.934  0.8158  1.7049  0.9932
 3872SOL    HW223250   2.912   3.280   7.862 -2.0727  1.7892  0.8027
 3873SOL     OW23251   0.997   0.369   3.717 -0.1143 -0.0506 -0.3846
 3873SOL    HW123252   0.925   0.426   3.693  1.1550  0.5693 -2.7156
 3873SOL    HW223253   1.073   0.393   3.664 -0.7272  1.8356 -0.3823
 3874SOL     OW23254   0.005   0.076  14.219  0.4854  0.1592 -0.3291
 3874SOL    HW123255   0.034   0.039  14.135 -1.8851 -0.1364 -1.0180
 3874SOL    HW223256   4.650   0.093  14.190  0.4091  0.5353  0.1197
 3875SOL     OW23257   0.140   0.957   3.448 -0.2032 -0.5475 -0.1535
 3875SOL    HW123258   0.081   0.892   3.485 -0.4396  0.9197  2.0441
 3875SOL    HW223259   0.176   0.991   3.530  0.6236 -0.0602 -0.7107
 3876SOL     OW23260   0.344   0.124  10.864  0.1529  0.1996 -0.0052
 3876SOL    HW123261   0.360   0.034  10.893 -3.6845 -0.0003  1.5318
 3876SOL    HW223262   0.248   0.128  10.862  0.0941 -0.6560  0.9801
 3877SOL     OW23263   0.555   1.915   3.815  0.6746  0.4991  0.6659
 3877SOL    HW123264   0.638   1.905   3.862  0.4461 -1.8531  0.6041
 3877SOL    HW223265   0.561   2.009   3.798 -0.0478  0.9193  2.7603
 3878SOL     OW23266   3.330   2.443   4.517 -0.4362  0.3734 -0.3597
 3878SOL    HW123267   3.319   2.430   4.611 -1.4739 -0.4984 -0.5977
 3878SOL    HW223268   3.323   2.538   4.509  0.4992  0.3333 -1.6790
 3879SOL     OW23269   0.543   0.206   7.305  0.1239 -0.1422 -0.3957
 3879SOL    HW123270   0.524   0.300   7.299 -0.5665 -0.2208  0.5848
 3879SOL    HW223271   0.511   0.193   7.394  0.2914  4.9722  0.4219
 3880SOL     OW23272   1.204   2.433   3.696  0.0600  0.2776 -0.2037
 3880SOL    HW123273   1.172   2.453   3.784 -1.1648  0.3362 -0.6624
 3880SOL    HW223274   1.261   2.359   3.714  1.6086  1.6275  0.3603
 3881SOL     OW23275   1.833   2.837  12.509  0.0054  0.5883 -0.7060
 3881SOL    HW123276   1.900   2.769  12.505 -1.0118 -0.3274 -2.0401
 3881SOL    HW223277   1.871   2.897  12.446  2.1878 -0.9953 -0.8984
 3882SOL     OW23278   3.197   3.219   4.541 -0.0119 -0.1364 -0.1004
 3882SOL    HW123279   3.124   3.255   4.491  1.4775  2.7857 -0.1397
 3882SOL    HW223280   3.242   3.296   4.575 -2.0783 -0.2873  3.0056
 3883SOL     OW23281   0.574   3.895   7.536 -0.3864  0.1766  0.1795
 3883SOL    HW123282   0.492   3.848   7.526  0.2593 -0.9237  0.0688
 3883SOL    HW223283   0.598   3.871   7.625 -0.1592 -0.8246 -0.1551
 3884SOL     OW23284   1.570   3.752   1.605  0.0389 -0.8674 -0.2263
 3884SOL    HW123285   1.490   3.709   1.574 -0.0387 -0.5407 -0.4749
 3884SOL    HW223286   1.623   3.683   1.646  0.6976  0.1700  0.6681
 3885SOL     OW23287   4.441   0.571   5.498  0.2894 -0.1966  0.3904
 3885SOL    HW123288   4.412   0.592   5.587  0.2182  1.7768 -0.1001
 3885SOL    HW223289   4.536   0.574   5.497  0.2589  0.3112 -3.0258
 3886SOL     OW23290   2.527   1.054   5.431  0.0484 -0.2127  0.6348
 3886SOL    HW123291   2.527   0.966   5.468 -0.9879 -0.1027  0.8986
 3886SOL    HW223292   2.617   1.084   5.441 -0.1469  0.5639  0.0780
 3887SOL     OW23293   4.441   3.296   7.392 -0.7129 -0.2590 -0.2139
 3887SOL    HW123294   4.405   3.217   7.432  0.1121 -0.5191  0.0135
 3887SOL    HW223295   4.417   3.274   7.301  0.8919 -0.4997 -0.5758
 3888SOL     OW23296   3.429   1.223   7.147  0.0416 -0.7264  0.2882
 3888SOL    HW123297   3.460   1.190   7.063  0.1540 -0.3907  0.1940
 3888SOL    HW223298   3.339   1.253   7.136 -0.3463 -2.0358 -0.0561
 3889SOL     OW23299   0.671   4.278   8.402 -0.2884 -0.0763  1.4533
 3889SOL    HW123300   0.621   4.254   8.323 -0.0926 -2.9065  2.2001
 3889SOL    HW223301   0.609   4.322   8.460 -0.6279  1.4885 -0.0796
 3890SOL     OW23302   3.741   2.740   8.491  0.5357 -0.8991 -0.2959
 3890SOL    HW123303   3.693   2.678   8.545  0.9698  0.3617  1.5188
 3890SOL    HW223304   3.811   2.763   8.553  0.3939  0.0714 -0.4926
 3891SOL     OW23305   3.873   1.216   0.645 -0.5020  0.3660 -0.3025
 3891SOL    HW123306   3.858   1.288   0.707  0.3915  0.6524 -0.4070
 3891SOL    HW223307   3.909   1.266   0.571  2.2074  0.7636  1.2472
 3892SOL     OW23308   4.630   4.326   4.825 -0.1413 -0.0767 -0.2007
 3892SOL    HW123309   4.653   4.313   4.733  1.3658 -0.6470  0.2657
 3892SOL    HW223310   4.601   4.236   4.840 -0.8441  0.3033  0.7139
 3893SOL     OW23311   1.252   1.304  11.072  0.8383 -0.0607 -1.0946
 3893SOL    HW123312   1.204   1.251  11.135 -3.7758  1.0180 -3.7100
 3893SOL    HW223313   1.178   1.324  11.015 -0.1578  0.5056  0.4129
 3894SOL     OW23314   3.170   3.946   1.544 -0.2217  0.4743  0.2171
 3894SOL    HW123315   3.227   3.932   1.469  0.8600 -1.7986  1.4426
 3894SOL    HW223316   3.231   3.975   1.612 -0.3678 -0.7163  0.8668
 3895SOL     OW23317   4.314   3.139   0.226  0.5033  0.0312 -0.1747
 3895SOL    HW123318   4.222   3.138   0.200  1.0153 -1.0231 -1.9642
 3895SOL    HW223319   4.309   3.215   0.284 -1.6651 -1.0074  0.9979
 3896SOL     OW23320   1.429   2.145   6.041  0.3260 -0.5568 -0.3580
 3896SOL    HW123321   1.477   2.089   5.980 -0.5062 -0.3552 -1.1810
 3896SOL    HW223322   1.372   2.203   5.991  0.9244 -0.8042 -1.3185
 3897SOL     OW23323   0.294   3.529   7.911 -0.4084  0.2790  0.5712
 3897SOL    HW123324   0.360   3.572   7.856 -0.9603  0.2628 -0.0910
 3897SOL    HW223325   0.230   3.487   7.854 -1.6288  1.9990  0.6489
 3898SOL     OW23326   3.607   4.153   2.212 -0.1074  0.1923  0.4722
 3898SOL    HW123327   3.677   4.210   2.244  0.3113  0.8672 -1.6282
 3898SOL    HW223328   3.668   4.083   2.190  1.3730  1.4947  0.4184
 3899SOL     OW23329   1.224   2.946  12.985  0.1939  0.8592  0.6172
 3899SOL    HW123330   1.300   2.952  12.928 -1.1593 -0.6591 -1.3488
 3899SOL    HW223331   1.248   2.872  13.040 -1.4092 -0.8094 -0.9380
 3900SOL     OW23332   4.579   2.706  16.963 -0.8927 -0.1563 -0.1130
 3900SOL    HW123333   4.663   2.750  16.965 -1.1044  0.2511 -0.2182
 3900SOL    HW223334   4.542   2.733  16.880  0.6337  3.1926  0.3100
 3901SOL     OW23335   3.461   4.502  14.620 -0.0088  0.3798 -0.3521
 3901SOL    HW123336   3.548   4.464  14.633  0.8805  1.5414 -2.8656
 3901SOL    HW223337   3.403   4.427  14.636  1.0753 -0.7703 -1.7552
 3902SOL     OW23338   1.216   4.123  14.895  0.6233  0.4261  0.4743
 3902SOL    HW123339   1.127   4.129  14.860  0.0501 -1.1839  1.6547
 3902SOL    HW223340   1.233   4.217  14.899  0.9773  0.4997 -2.8357
 3903SOL     OW23341   3.182   0.439  15.281 -0.7351 -0.0391  0.0571
 3903SOL    HW123342   3.246   0.407  15.345 -0.9197 -0.9929 -0.2246
 3903SOL    HW223343   3.151   0.360  15.235  0.1663 -0.9295  0.9647
 3904SOL     OW23344   1.126   2.212  12.049  0.6904 -0.6709 -0.1716
 3904SOL    HW123345   1.169   2.139  12.094 -0.0522 -3.0404 -3.2668
 3904SOL    HW223346   1.087   2.169  11.973 -2.1203  1.7974 -0.1399
 3905SOL     OW23347   4.430   4.507   7.582 -0.2481  0.2941  0.3857
 3905SOL    HW123348   4.444   4.427   7.531  0.3883 -0.1932  1.3202
 3905SOL    HW223349   4.385   4.473   7.659 -3.1002  1.3177 -0.8149
 3906SOL     OW23350   1.745   2.441   6.727 -0.2388  0.0968 -0.0343
 3906SOL    HW123351   1.705   2.398   6.802 -0.6012  1.3453  0.4955
 3906SOL    HW223352   1.666   2.468   6.681 -0.9709  0.0537  1.1914
 3907SOL     OW23353   0.839   2.803   0.387  0.1650 -0.1726  0.6129
 3907SOL    HW123354   0.780   2.846   0.326  1.8283  1.8928  0.4436
 3907SOL    HW223355   0.778   2.762   0.448 -0.5228 -1.1750 -0.7518
 3908SOL     OW23356   2.342   0.408   4.175  0.5799  0.3714  0.4988
 3908SOL    HW123357   2.297   0.325   4.194  0.1903  0.0218 -1.8890
 3908SOL    HW223358   2.297   0.441   4.097  0.9822 -1.1450 -0.3726
 3909SOL     OW23359   4.231   3.977   0.768  0.5430  0.5984  0.2535
 3909SOL    HW123360   4.263   4.031   0.840  2.4994 -1.3294  0.8426
 3909SOL    HW223361   4.300   3.912   0.752 -0.3154 -0.5182  1.0211
 3910SOL     OW23362   2.542   3.254  13.173 -0.3475  0.2277 -0.1687
 3910SOL    HW123363   2.518   3.233  13.263 -0.2078  0.7698 -0.0046
 3910SOL    HW223364   2.618   3.309  13.192  1.1635 -1.8847 -0.0572
 3911SOL     OW23365   1.788   1.661   5.935  0.3500  0.0049 -0.2086
 3911SOL    HW123366   1.836   1.585   5.966 -0.0250 -1.0597 -2.2366
 3911SOL    HW223367   1.749   1.680   6.021 -3.0437 -1.0593 -1.5338
 3912SOL     OW23368   0.890   3.037   3.655 -0.2656  0.0135  0.0187
 3912SOL    HW123369   0.878   3.130   3.635 -0.4646 -0.8832 -4.0214
 3912SOL    HW223370   0.823   3.002   3.596  0.4565  0.2191 -0.9219
 3913SOL     OW23371   4.460   2.892  15.555  0.2312 -0.2279 -0.0047
 3913SOL    HW123372   4.446   2.935  15.639 -2.1150  0.7541 -0.8783
 3913SOL    HW223373   4.426   2.806  15.581  3.3383 -1.6431 -0.6538
 3914SOL     OW23374   0.306   1.339   7.458 -0.3391 -0.0049  0.3367
 3914SOL    HW123375   0.299   1.254   7.500 -1.7629  0.4786  1.0490
 3914SOL    HW223376   0.401   1.353   7.455 -0.3987  0.3491  0.0978
 3915SOL     OW23377   3.351   0.715   6.756 -0.1265 -0.1464 -0.1032
 3915SOL    HW123378   3.400   0.641   6.793 -2.3681 -0.7994  1.6101
 3915SOL    HW223379   3.311   0.756   6.832  1.8547  2.1345 -0.2906
 3916SOL     OW23380   3.245   0.841   4.821  0.3525  0.5527 -0.4135
 3916SOL    HW123381   3.213   0.781   4.754 -0.6523  0.7699 -0.1183
 3916SOL    HW223382   3.312   0.890   4.772 -0.8628  1.0003 -1.6240
 3917SOL     OW23383   4.663   4.656   7.543  0.0970 -0.1531 -0.2264
 3917SOL    HW123384   4.699   4.568   7.529  0.5283 -0.0408  0.1786
 3917SOL    HW223385   4.571   4.635   7.561 -0.2272  0.2921 -1.3760
 3918SOL     OW23386   3.131   2.170  16.281  0.3720 -0.2704 -0.7847
 3918SOL    HW123387   3.038   2.168  16.258  0.3989 -3.0859 -0.6939
 3918SOL    HW223388   3.129   2.194  16.374 -1.8656 -1.2306 -0.5683
 3919SOL     OW23389   2.668   0.528   8.282  0.2152  0.1923  0.1246
 3919SOL    HW123390   2.636   0.614   8.255 -0.9747  0.3126  1.8773
 3919SOL    HW223391   2.593   0.490   8.328  1.5527 -1.1595  1.2273
 3920SOL     OW23392   0.218   0.141   7.933  0.6582 -0.2039 -0.1157
 3920SOL    HW123393   0.303   0.180   7.916  0.7976  1.0500  3.3911
 3920SOL    HW223394   0.243   0.053   7.905 -2.5628 -1.8451  2.1222
 3921SOL     OW23395   2.630   0.612   3.032  0.0596  0.1161 -0.0194
 3921SOL    HW123396   2.646   0.598   3.125 -3.3009  2.1623  0.8407
 3921SOL    HW223397   2.648   0.525   2.998  1.1173  0.6840 -0.9185
 3922SOL     OW23398   0.780   3.533   9.027 -0.0229 -0.0143  0.0821
 3922SOL    HW123399   0.860   3.504   8.983 -0.7489  0.7759 -1.7710
 3922SOL    HW223400   0.827   3.591   9.086 -0.3571  0.7443 -0.4043
 3923SOL     OW23401   0.078   1.866   7.873 -0.6077 -1.0778 -0.1318
 3923SOL    HW123402   0.102   1.918   7.796 -0.3726  1.8074  1.8757
 3923SOL    HW223403   0.046   1.936   7.931  2.1273 -0.7246  0.9787
 3924SOL     OW23404   0.424   0.478   1.465  0.2521  0.1522  0.2856
 3924SOL    HW123405   0.500   0.503   1.413  1.2912 -1.0167  1.2310
 3924SOL    HW223406   0.435   0.384   1.449 -1.5224  0.0442 -0.3379
 3925SOL     OW23407   0.181   4.119   3.813  0.3916  0.6127  0.3192
 3925SOL    HW123408   0.220   4.144   3.729  0.5858  0.0250  0.2322
 3925SOL    HW223409   0.161   4.206   3.847 -2.7415 -0.4739  1.3072
 3926SOL     OW23410   0.778   2.985  13.915 -0.1363  0.1068 -0.2452
 3926SOL    HW123411   0.756   2.892  13.903  0.1936 -0.3819  3.0611
 3926SOL    HW223412   0.777   3.026  13.829 -3.2232 -0.0059 -0.2835
 3927SOL     OW23413   1.616   4.066   7.422 -0.8963 -0.7390  0.1883
 3927SOL    HW123414   1.564   4.067   7.342 -0.5660 -1.2769 -0.0378
 3927SOL    HW223415   1.695   4.033   7.379 -0.7808 -0.2007 -0.0039
 3928SOL     OW23416   2.569   3.922   4.856  0.3804 -0.4872  0.3096
 3928SOL    HW123417   2.605   4.010   4.842  1.4382 -1.4028 -2.9588
 3928SOL    HW223418   2.486   3.927   4.809  0.3455  0.5114  0.4846
 3929SOL     OW23419   2.359   2.215  17.695  0.1538 -0.2918 -0.3012
 3929SOL    HW123420   2.420   2.274   0.003  1.6803 -2.2309  0.1664
 3929SOL    HW223421   2.417   2.185  17.625 -0.4491 -3.8929  0.7524
 3930SOL     OW23422   3.088   2.252  16.538 -0.6563  0.0869 -0.1052
 3930SOL    HW123423   3.162   2.276  16.595 -2.3292 -0.5719  2.3703
 3930SOL    HW223424   3.019   2.255  16.605 -0.3311  3.4067  0.0635
 3931SOL     OW23425   4.168   3.455   5.796  0.1001  0.1417  0.0157
 3931SOL    HW123426   4.115   3.474   5.718  0.8074  0.3379 -0.4189
 3931SOL    HW223427   4.106   3.453   5.869 -0.0391 -3.7500 -0.2266
 3932SOL     OW23428   2.828   4.063   3.253  0.1840 -0.1184  0.0847
 3932SOL    HW123429   2.918   4.092   3.267  0.9330 -2.3545 -0.1774
 3932SOL    HW223430   2.806   4.018   3.335 -0.9335  0.2128 -0.0385
 3933SOL     OW23431   1.375   0.414   9.177 -0.1895  0.4221 -0.2057
 3933SOL    HW123432   1.280   0.404   9.178 -0.3966  2.2502 -0.8190
 3933SOL    HW223433   1.410   0.353   9.241  0.5519  1.0031 -0.0553
 3934SOL     OW23434   0.840   1.562   2.959 -0.5991 -0.0232 -0.5177
 3934SOL    HW123435   0.878   1.643   2.994 -0.3796 -0.3581  0.0079
 3934SOL    HW223436   0.800   1.518   3.034  3.0448 -0.7813  0.9654
 3935SOL     OW23437   0.681   2.966   8.958  0.1926 -0.2663 -0.1062
 3935SOL    HW123438   0.776   2.974   8.965  0.6092 -4.2851 -1.0595
 3935SOL    HW223439   0.650   3.036   9.015 -0.2706 -0.7055  0.1766
 3936SOL     OW23440   4.429   0.243   7.097 -0.4522  0.1713  0.5820
 3936SOL    HW123441   4.351   0.192   7.117  1.3714 -2.7963  0.2471
 3936SOL    HW223442   4.475   0.238   7.181 -0.3446  0.6468  0.5532
 3937SOL     OW23443   2.885   2.407   2.293  0.1781 -0.0155 -0.2528
 3937SOL    HW123444   2.952   2.338   2.298 -2.0075 -2.1552 -0.5361
 3937SOL    HW223445   2.848   2.392   2.206 -0.5936 -0.0844  0.0858
 3938SOL     OW23446   3.412   4.618  14.974  0.2974 -0.0235  0.4811
 3938SOL    HW123447   3.347   4.614  14.903  0.5440  1.5157  0.1638
 3938SOL    HW223448   3.482   4.665  14.927 -1.0130  0.6466 -0.8242
 3939SOL     OW23449   3.858   4.648  13.853 -0.0089 -0.3390 -0.3429
 3939SOL    HW123450   3.898   4.698  13.924 -0.6956 -1.2333  0.6558
 3939SOL    HW223451   3.775   4.622  13.892  1.6114 -1.5623  2.2670
 3940SOL     OW23452   3.088   3.701  15.346 -0.2213  0.1998 -0.1589
 3940SOL    HW123453   3.169   3.731  15.305  0.2839 -0.7833  0.1086
 3940SOL    HW223454   3.030   3.706  15.270 -2.6876  0.9975  1.7839
 3941SOL     OW23455   4.179   4.323   3.525  0.1720 -0.0810 -0.6829
 3941SOL    HW123456   4.117   4.394   3.540 -0.0269 -0.4010 -0.0191
 3941SOL    HW223457   4.231   4.365   3.456 -0.0826  2.2631  0.5610
 3942SOL     OW23458   1.202   2.453   5.201  0.0084  0.0071 -0.4006
 3942SOL    HW123459   1.230   2.472   5.111  1.5316  2.3573  0.5627
 3942SOL    HW223460   1.221   2.539   5.239 -1.1520 -0.6948  1.7074
 3943SOL     OW23461   2.892   0.774   7.046 -0.1550 -0.6441 -0.1817
 3943SOL    HW123462   2.933   0.692   7.017  0.2675 -0.3439 -0.4529
 3943SOL    HW223463   2.931   0.781   7.133 -0.9854 -2.9544  0.3810
 3944SOL     OW23464   0.911   2.044   8.659  0.3272 -0.1698  0.1997
 3944SOL    HW123465   0.901   2.134   8.627  0.1972 -0.0029  0.7082
 3944SOL    HW223466   1.002   2.043   8.629  0.1294 -1.3005 -0.3437
 3945SOL     OW23467   1.832   1.031   9.425  0.6678 -0.2162  0.0695
 3945SOL    HW123468   1.927   1.034   9.417  0.7627 -0.5596  1.0139
 3945SOL    HW223469   1.816   1.126   9.424  3.4110  0.2555 -0.0167
 3946SOL     OW23470   1.555   0.354  10.013  0.0073  0.3746  0.1853
 3946SOL    HW123471   1.462   0.360   9.995  0.2411  2.8380 -0.1832
 3946SOL    HW223472   1.599   0.388   9.935  2.3781 -2.8467  0.1184
 3947SOL     OW23473   0.336   4.077   6.758  0.3455  0.7334  1.1922
 3947SOL    HW123474   0.409   4.063   6.818 -0.8713 -1.8612  2.0585
 3947SOL    HW223475   0.302   3.988   6.745 -0.8196  1.1298  1.5921
 3948SOL     OW23476   2.443   1.759  13.113 -0.0833 -0.5524  0.0964
 3948SOL    HW123477   2.479   1.847  13.097 -2.4224  0.3629 -0.1123
 3948SOL    HW223478   2.358   1.778  13.073  0.6122  0.3392 -0.9794
 3949SOL     OW23479   0.896   4.065   6.625  0.0130 -0.2265 -0.3440
 3949SOL    HW123480   0.856   4.034   6.544 -1.9340  2.4340 -0.3940
 3949SOL    HW223481   0.815   4.069   6.676 -0.1476  0.1138 -0.6272
 3950SOL     OW23482   1.991   1.727   2.026  0.3475  0.4395  0.0533
 3950SOL    HW123483   2.016   1.818   2.039 -0.1105  0.7927 -1.4934
 3950SOL    HW223484   2.075   1.697   1.991  0.1287  2.1826 -1.9374
 3951SOL     OW23485   4.025   1.466   7.568  0.1885 -0.0806  0.2081
 3951SOL    HW123486   3.941   1.437   7.531  0.7798 -1.6261  0.0929
 3951SOL    HW223487   4.004   1.483   7.660  1.7569 -0.3062  0.6056
 3952SOL     OW23488   4.245   0.710   9.553 -0.3947 -0.4649 -0.1548
 3952SOL    HW123489   4.301   0.788   9.558 -1.9788  0.6528  0.3643
 3952SOL    HW223490   4.302   0.634   9.555 -0.6140 -0.6455 -0.7452
 3953SOL     OW23491   4.029   1.579   1.945 -0.0600 -0.1897  0.5037
 3953SOL    HW123492   4.097   1.554   2.007  0.2231 -0.7063 -0.0080
 3953SOL    HW223493   4.029   1.510   1.878 -0.6172 -0.7210  1.0453
 3954SOL     OW23494   4.194   2.957   4.879  0.0841 -0.0373  0.2433
 3954SOL    HW123495   4.151   2.872   4.887 -1.4195  0.6855 -0.1265
 3954SOL    HW223496   4.198   2.975   4.785 -2.4531 -0.0519  0.1539
 3955SOL     OW23497   0.230   4.706  14.364  0.0227  0.1526 -0.4521
 3955SOL    HW123498   0.217   4.694  14.458 -0.5189 -1.6132 -0.7507
 3955SOL    HW223499   0.142   4.712  14.327  0.5870 -1.4433 -2.0398
 3956SOL     OW23500   2.252   3.517   4.438 -0.2794 -0.2412  0.4447
 3956SOL    HW123501   2.306   3.477   4.370 -0.7775  2.4877 -1.5549
 3956SOL    HW223502   2.173   3.536   4.387 -0.7710 -0.2671  1.1942
 3957SOL     OW23503   0.850   3.280  17.236  0.6385 -0.5552 -0.0440
 3957SOL    HW123504   0.809   3.199  17.267  1.2273 -0.2849  1.4446
 3957SOL    HW223505   0.944   3.262  17.246  1.0496  1.7420  0.2951
 3958SOL     OW23506   2.180   1.274  16.306 -0.2234 -0.0715  0.1369
 3958SOL    HW123507   2.119   1.291  16.235 -1.3785 -1.3543  0.8105
 3958SOL    HW223508   2.210   1.360  16.336 -2.8891  0.7317  0.4363
 3959SOL     OW23509   3.044   3.961   7.066  0.0316 -0.2047  0.2368
 3959SOL    HW123510   2.972   4.021   7.045  3.1214  3.6391  0.6641
 3959SOL    HW223511   3.099   4.025   7.110  0.1810  0.6935 -1.2911
 3960SOL     OW23512   1.787   2.014   5.240  0.2009 -0.5250 -0.4684
 3960SOL    HW123513   1.774   1.955   5.315 -0.1615 -0.7436 -0.7027
 3960SOL    HW223514   1.695   2.039   5.231 -0.3221 -2.5096 -0.7220
 3961SOL     OW23515   1.315   3.202  16.155 -0.2039  0.2563 -0.2600
 3961SOL    HW123516   1.221   3.191  16.144  0.0813 -1.2355 -1.1325
 3961SOL    HW223517   1.355   3.117  16.173 -1.2481 -0.2871 -0.4686
 3962SOL     OW23518   1.361   0.707   2.157  0.5122  0.7400  0.6175
 3962SOL    HW123519   1.346   0.740   2.068  0.9261 -0.0321  0.2535
 3962SOL    HW223520   1.306   0.766   2.208 -0.9745  0.3893 -0.5762
 3963SOL     OW23521   0.545   1.999   9.482 -0.2512 -0.4587  0.1350
 3963SOL    HW123522   0.499   2.022   9.401 -1.4407 -1.9052  0.3866
 3963SOL    HW223523   0.620   2.057   9.487 -0.5251 -0.2876  2.0795
 3964SOL     OW23524   1.597   3.998   8.045 -0.5876  0.5032 -0.4852
 3964SOL    HW123525   1.588   3.980   7.951 -1.2058 -1.9287  0.0295
 3964SOL    HW223526   1.621   3.910   8.072 -1.5234  1.0754  2.1970
 3965SOL     OW23527   4.107   1.115   0.926 -0.3646  0.1818 -0.5697
 3965SOL    HW123528   4.131   1.089   0.837  3.6494  2.4434 -0.1845
 3965SOL    HW223529   4.012   1.106   0.922 -0.3681  0.4088 -1.0865
 3966SOL     OW23530   4.221   3.977  15.813  0.1521  0.1060  0.3633
 3966SOL    HW123531   4.258   4.040  15.752 -0.7766  0.6986  0.4245
 3966SOL    HW223532   4.174   3.926  15.747 -2.2717  1.3732  1.1212
 3967SOL     OW23533   3.539   0.693   5.805 -0.4973  0.3232  0.5121
 3967SOL    HW123534   3.548   0.731   5.892 -1.3567  0.9356  0.3303
 3967SOL    HW223535   3.446   0.710   5.790 -0.3156  0.3701 -0.5721
 3968SOL     OW23536   3.295   3.759  15.681  0.0420  0.0145 -0.1047
 3968SOL    HW123537   3.341   3.794  15.605  0.0170  0.5833  0.1457
 3968SOL    HW223538   3.365   3.700  15.710  1.9191  1.7281 -1.1007
 3969SOL     OW23539   1.151   4.227   7.423 -0.4537 -0.7925  0.4091
 3969SOL    HW123540   1.146   4.304   7.367 -1.3592 -0.9206  0.3045
 3969SOL    HW223541   1.062   4.215   7.458  0.1976 -1.4389  1.8275
 3970SOL     OW23542   2.101   3.574   6.159 -0.8576  0.2711 -0.7923
 3970SOL    HW123543   2.154   3.554   6.235 -0.2795  2.8993 -0.4879
 3970SOL    HW223544   2.156   3.642   6.120 -0.9720  0.1393 -1.1858
 3971SOL     OW23545   1.451   4.133   5.196 -0.2292 -0.0715  0.3466
 3971SOL    HW123546   1.369   4.178   5.215 -0.1738  1.0514 -2.0152
 3971SOL    HW223547   1.493   4.190   5.131  1.1970 -1.7374 -0.1938
 3972SOL     OW23548   1.605   3.009   9.333 -0.3450 -0.2098  0.6309
 3972SOL    HW123549   1.609   3.072   9.260 -2.6324 -1.4875 -0.5938
 3972SOL    HW223550   1.616   2.922   9.294  0.4970 -0.0893  0.5966
 3973SOL     OW23551   2.211   0.111  14.389  0.0627 -0.3334 -0.1033
 3973SOL    HW123552   2.283   0.052  14.365  2.2324  1.7862  1.1749
 3973SOL    HW223553   2.238   0.150  14.472  0.9930 -0.7243 -0.2233
 3974SOL     OW23554   0.702   2.274  15.591 -0.0483 -0.0266  0.1411
 3974SOL    HW123555   0.644   2.345  15.620 -1.3639 -1.1543  0.2914
 3974SOL    HW223556   0.649   2.203  15.627  1.3336 -0.1069  2.0232
 3975SOL     OW23557   2.509   4.633   5.609  0.7378 -0.4830  0.2347
 3975SOL    HW123558   2.576   4.569   5.632  3.4039  2.4176  0.4644
 3975SOL    HW223559   2.563   4.710   5.594  0.4382 -0.7385 -2.2082
 3976SOL     OW23560   3.020   1.312   8.319  0.8459 -0.2230  0.1955
 3976SOL    HW123561   3.073   1.249   8.367  0.2448  0.9462  2.3682
 3976SOL    HW223562   3.068   1.395   8.318  1.4004 -0.5551 -0.6130
 3977SOL     OW23563   3.106   4.251   6.146 -0.0878 -0.2197  0.0900
 3977SOL    HW123564   3.198   4.262   6.121  0.3799 -0.3894  1.7341
 3977SOL    HW223565   3.089   4.164   6.110 -0.7040 -0.0755  0.0330
 3978SOL     OW23566   4.061   0.444   6.504 -0.0333 -0.1242 -0.0077
 3978SOL    HW123567   4.065   0.354   6.474 -2.1709  0.5352 -2.2823
 3978SOL    HW223568   4.145   0.445   6.550  0.5606 -0.1017 -1.1026
 3979SOL     OW23569   2.156   2.855   6.611  0.3714  0.9227  0.2640
 3979SOL    HW123570   2.209   2.878   6.688  1.8974 -2.3339  0.1721
 3979SOL    HW223571   2.133   2.765   6.634 -1.6746  1.6295  0.9811
 3980SOL     OW23572   2.257   0.157  14.086  0.1380 -0.3097  0.2222
 3980SOL    HW123573   2.280   0.093  14.153  1.8508  0.7185  0.6257
 3980SOL    HW223574   2.295   0.236  14.125  1.3747 -1.7221  1.8508
 3981SOL     OW23575   0.767   0.651  15.572  0.4671  1.0588 -0.4253
 3981SOL    HW123576   0.813   0.568  15.584 -1.0285  0.1410 -1.2045
 3981SOL    HW223577   0.724   0.634  15.489 -0.5537 -1.2137  0.5807
 3982SOL     OW23578   3.084   4.126   8.791 -0.4248 -0.3141 -0.0294
 3982SOL    HW123579   3.059   4.039   8.821  0.4814 -0.9122 -1.0282
 3982SOL    HW223580   3.023   4.175   8.847  0.7910  0.2146  0.8269
 3983SOL     OW23581   2.259   2.684   4.469  0.4119 -0.2791 -0.1639
 3983SOL    HW123582   2.264   2.642   4.384 -1.4651  0.1625 -0.4858
 3983SOL    HW223583   2.341   2.733   4.477 -0.6498  1.4263  0.2453
 3984SOL     OW23584   0.280   2.855   5.294  0.0519  1.0271  0.3345
 3984SOL    HW123585   0.194   2.883   5.264 -0.9073 -2.1095  0.1719
 3984SOL    HW223586   0.256   2.803   5.370  0.5332 -0.0243 -0.2377
 3985SOL     OW23587   2.142   1.421   4.101  0.3102  0.1325 -0.1156
 3985SOL    HW123588   2.127   1.326   4.103  0.5089  0.1028 -0.1096
 3985SOL    HW223589   2.235   1.420   4.120  0.4810 -0.6969 -0.9770
 3986SOL     OW23590   2.597   3.176   3.050  0.5528  0.2033 -0.2132
 3986SOL    HW123591   2.511   3.215   3.065  0.6472 -0.2156  1.4776
 3986SOL    HW223592   2.586   3.092   3.096 -1.2586  1.0784  0.9637
 3987SOL     OW23593   0.874   4.619  17.326  0.1574 -0.1126  0.1991
 3987SOL    HW123594   0.913   4.541  17.365  3.0089  0.4144 -1.5701
 3987SOL    HW223595   0.812   4.650  17.392  0.7426 -0.6312  1.0031
 3988SOL     OW23596   4.585   0.313  13.425 -0.1905  0.1983  0.1250
 3988SOL    HW123597   4.584   0.241  13.488  0.8573 -0.7628 -0.9722
 3988SOL    HW223598   4.625   0.391  13.463  0.4831  0.3359 -0.8859
 3989SOL     OW23599   3.763   4.721   4.037 -0.7303 -0.4998  0.0942
 3989SOL    HW123600   3.714   0.012   3.958 -2.0374  1.1011  1.4178
 3989SOL    HW223601   3.735   4.631   4.051  0.4927 -0.8344  0.4007
 3990SOL     OW23602   2.407   4.318   0.913  0.4585  0.5267  0.5393
 3990SOL    HW123603   2.410   4.310   1.008 -0.2266 -1.3397  0.3910
 3990SOL    HW223604   2.353   4.242   0.893  2.7525 -0.8557 -0.4711
 3991SOL     OW23605   0.704   2.552   7.097 -0.0653  0.3732  0.0055
 3991SOL    HW123606   0.659   2.613   7.155 -0.8969 -1.1339  0.9576
 3991SOL    HW223607   0.765   2.609   7.051 -0.2982 -0.0444 -0.8259
 3992SOL     OW23608   2.282   3.463   8.252 -0.5049 -0.0997  0.4582
 3992SOL    HW123609   2.278   3.551   8.290  1.6855 -0.5701  1.7739
 3992SOL    HW223610   2.199   3.429   8.285 -0.1454 -1.6455 -0.2621
 3993SOL     OW23611   3.583   3.459   3.270 -0.8646 -0.0474  0.0324
 3993SOL    HW123612   3.534   3.396   3.218  0.6843  0.1685 -1.6935
 3993SOL    HW223613   3.519   3.477   3.339 -1.1533  0.1768 -0.2906
 3994SOL     OW23614   0.576   1.174   8.363 -0.0162  0.1960 -0.4524
 3994SOL    HW123615   0.623   1.243   8.410 -0.2943 -0.4564  0.8034
 3994SOL    HW223616   0.618   1.094   8.395 -0.4060  0.1310 -0.0884
 3995SOL     OW23617   1.567   2.046  15.258 -0.2723 -0.0561  0.4787
 3995SOL    HW123618   1.476   2.050  15.287 -0.5762 -0.0822 -0.4918
 3995SOL    HW223619   1.551   2.091  15.175  0.8183  1.6617  1.2021
 3996SOL     OW23620   1.850   2.501   7.747 -0.5630  0.1552 -0.3739
 3996SOL    HW123621   1.909   2.522   7.675  1.6007 -3.9633  0.2258
 3996SOL    HW223622   1.894   2.428   7.790 -1.9962 -0.2634  0.3841
 3997SOL     OW23623   2.404   3.031  12.472 -0.3303 -0.1045 -0.0320
 3997SOL    HW123624   2.492   3.045  12.506 -0.6025  0.3579  0.4994
 3997SOL    HW223625   2.387   2.942  12.503 -0.1396  0.5085  1.8812
 3998SOL     OW23626   4.337   1.533   4.157 -0.3271  0.0453 -0.0960
 3998SOL    HW123627   4.385   1.459   4.119 -0.7706 -0.1070 -0.3475
 3998SOL    HW223628   4.255   1.511   4.114 -0.8469 -0.9104  1.3869
 3999SOL     OW23629   3.243   2.428   7.485 -0.4305 -0.1378 -0.0131
 3999SOL    HW123630   3.177   2.378   7.437  0.9892 -2.0419  0.0420
 3999SOL    HW223631   3.199   2.513   7.491 -0.5417  0.0956 -4.1766
 4000SOL     OW23632   2.686   4.479   9.669 -0.5465 -0.1178 -0.2008
 4000SOL    HW123633   2.722   4.537   9.736 -1.4925 -0.0992  0.2965
 4000SOL    HW223634   2.595   4.509   9.671 -0.4129  0.2400  0.5850
 4001SOL     OW23635   3.976   0.608  15.638 -0.6983 -0.1818 -0.0713
 4001SOL    HW123636   3.979   0.545  15.566 -1.6431  0.3571 -0.5728
 4001SOL    HW223637   4.052   0.574  15.686 -1.7265 -0.6577  1.2183
 4002SOL     OW23638   3.471   4.436   4.543  0.0671  0.0240 -0.1470
 4002SOL    HW123639   3.430   4.472   4.622  0.1107 -0.8924  0.2892
 4002SOL    HW223640   3.545   4.495   4.527  1.5443 -1.5863  0.7206
 4003SOL     OW23641   3.310   0.335   8.978  0.0730 -0.0496 -0.3182
 4003SOL    HW123642   3.266   0.407   8.932 -3.8595 -1.6733  0.8910
 4003SOL    HW223643   3.376   0.300   8.919 -0.6946 -1.7849 -0.1441
 4004SOL     OW23644   0.157   1.775   4.040  0.4737  1.0722  0.0363
 4004SOL    HW123645   0.236   1.733   4.073  1.4303  3.2837  0.5981
 4004SOL    HW223646   0.175   1.764   3.946 -0.6354  2.2399 -0.3074
 4005SOL     OW23647   2.061   1.942   5.253  0.1278  0.2251  0.2463
 4005SOL    HW123648   2.092   2.028   5.281  1.7974 -0.5239  0.7041
 4005SOL    HW223649   1.968   1.963   5.248  0.1098  0.3429  1.0815
 4006SOL     OW23650   0.747   0.313   5.740 -0.0371  0.0586  0.1029
 4006SOL    HW123651   0.720   0.388   5.687  0.5405  0.6903  0.6925
 4006SOL    HW223652   0.692   0.243   5.706 -0.7631  0.9335 -0.5135
 4007SOL     OW23653   3.342   0.926   9.281 -0.0690  0.0072  0.1085
 4007SOL    HW123654   3.348   0.833   9.300 -1.9079 -0.3981 -1.3734
 4007SOL    HW223655   3.356   0.960   9.370 -1.0152  0.5468  0.0474
 4008SOL     OW23656   0.579   4.479   6.478 -0.1099  0.4036 -0.4465
 4008SOL    HW123657   0.613   4.399   6.518 -0.4680 -0.0964 -1.1502
 4008SOL    HW223658   0.552   4.529   6.556  2.7519 -0.2845  0.9748
 4009SOL     OW23659   1.614   1.878   9.618  0.9476 -0.0772  0.0197
 4009SOL    HW123660   1.584   1.806   9.674 -0.7695  0.1466 -0.6156
 4009SOL    HW223661   1.541   1.939   9.624 -0.0386 -1.4098  1.8388
 4010SOL     OW23662   0.678   1.978   0.744 -0.0938  0.0227  0.4742
 4010SOL    HW123663   0.682   1.970   0.839  0.2686  2.2754  0.6576
 4010SOL    HW223664   0.758   1.932   0.718  0.2918  0.5515  0.6973
 4011SOL     OW23665   1.144   3.269  12.630 -0.8797  0.2740 -0.7291
 4011SOL    HW123666   1.123   3.180  12.602 -2.7148  0.8418 -1.1551
 4011SOL    HW223667   1.233   3.286  12.600 -0.6873 -1.8132 -1.3533
 4012SOL     OW23668   3.029   1.380   5.714  0.4797 -0.0101 -0.4907
 4012SOL    HW123669   2.999   1.433   5.641 -1.0421 -0.9767 -0.5699
 4012SOL    HW223670   3.066   1.304   5.668  1.5358  0.3876 -0.2906
 4013SOL     OW23671   4.476   2.970   1.241  0.7691  0.2184 -0.1659
 4013SOL    HW123672   4.475   2.895   1.181  0.0174 -0.3306  0.5316
 4013SOL    HW223673   4.521   3.024   1.176  0.6640  1.5524  0.8806
 4014SOL     OW23674   1.291   1.188   1.686 -0.4568  0.8490  0.0552
 4014SOL    HW123675   1.268   1.273   1.723 -2.2688 -0.4528  1.9165
 4014SOL    HW223676   1.289   1.132   1.764 -0.2609 -0.0906 -0.6086
 4015SOL     OW23677   3.568   0.396  13.394 -0.5028 -1.0594  0.3845
 4015SOL    HW123678   3.565   0.349  13.311  1.5208 -0.8733  0.1945
 4015SOL    HW223679   3.596   0.479  13.356  2.0425 -0.6719  3.1097
 4016SOL     OW23680   1.040   4.066   8.550 -0.1485  0.4364 -0.2873
 4016SOL    HW123681   0.991   3.985   8.536  2.1051 -0.9922  0.1483
 4016SOL    HW223682   1.125   4.028   8.571  0.4124  0.1393 -3.1927
 4017SOL     OW23683   3.545   3.962  10.830 -0.2865  0.4478  0.5454
 4017SOL    HW123684   3.627   4.007  10.811  0.4135 -0.2609  1.8913
 4017SOL    HW223685   3.543   3.980  10.924 -2.1849  1.4116  0.3202
 4018SOL     OW23686   1.432   2.587   3.617  0.0777 -0.2517 -0.6726
 4018SOL    HW123687   1.348   2.549   3.641 -0.0753  0.9575  0.6998
 4018SOL    HW223688   1.436   2.656   3.683  0.1602 -0.3546 -0.5694
 4019SOL     OW23689   1.074   0.207  15.016  0.3518  0.0910 -0.5480
 4019SOL    HW123690   1.144   0.234  15.075 -1.3220 -0.8283  1.8599
 4019SOL    HW223691   1.078   0.265  14.940  1.5644 -2.5769 -2.5090
 4020SOL     OW23692   0.811   1.182  11.522 -0.0003  0.3666  0.5437
 4020SOL    HW123693   0.855   1.265  11.538 -0.4579  0.8735 -0.7356
 4020SOL    HW223694   0.778   1.187  11.432 -1.0216  0.3634  0.9133
 4021SOL     OW23695   0.334   3.985  17.587 -0.6483  0.2504 -0.0068
 4021SOL    HW123696   0.421   3.960  17.556 -1.4890 -3.1875  0.3694
 4021SOL    HW223697   0.316   4.051  17.520 -0.3981  2.3665  2.0052
 4022SOL     OW23698   0.568   0.649   8.848  0.4046  0.5827 -0.0075
 4022SOL    HW123699   0.532   0.733   8.818  0.3091  1.0387  1.3572
 4022SOL    HW223700   0.488   0.596   8.851  0.9086 -0.0585  1.9278
 4023SOL     OW23701   2.248   4.146  12.827 -0.6567  0.3910 -0.4204
 4023SOL    HW123702   2.250   4.053  12.852  0.0372  0.7052  0.7019
 4023SOL    HW223703   2.314   4.177  12.889 -1.6406 -0.2403  0.9448
 4024SOL     OW23704   3.339   3.116   6.419  0.0059  0.0022 -0.4081
 4024SOL    HW123705   3.421   3.101   6.467  0.3619  0.9944 -0.7087
 4024SOL    HW223706   3.302   3.193   6.460  0.2183 -1.2803  2.2071
 4025SOL     OW23707   4.008   0.746   8.993  0.2962 -0.2387  0.0670
 4025SOL    HW123708   3.948   0.709   8.928 -0.7037  1.0251  0.2840
 4025SOL    HW223709   4.096   0.746   8.954 -0.2669 -0.0182 -1.2277
 4026SOL     OW23710   1.816   3.017   2.106 -0.3834  0.1517 -0.3244
 4026SOL    HW123711   1.747   3.072   2.142  0.6925  0.1402  1.7879
 4026SOL    HW223712   1.755   2.949   2.078  0.3686 -0.2002 -1.1221
 4027SOL     OW23713   2.263   4.426   3.574  0.0941  0.1571  0.5975
 4027SOL    HW123714   2.198   4.495   3.590  0.6037  1.4044 -2.5806
 4027SOL    HW223715   2.342   4.467   3.609  0.6740 -0.1128 -0.3941
 4028SOL     OW23716   0.155   3.833   4.770  0.2775 -0.4305 -0.2899
 4028SOL    HW123717   0.197   3.748   4.781 -0.5641 -0.8114  0.0133
 4028SOL    HW223718   0.084   3.813   4.709 -0.5219 -1.9597  1.1107
 4029SOL     OW23719   0.138   3.587   2.334 -0.1072  0.0427 -0.0204
 4029SOL    HW123720   0.147   3.678   2.360  0.5961 -0.7378  2.4875
 4029SOL    HW223721   0.225   3.547   2.338  0.0541  0.5877  1.7080
 4030SOL     OW23722   4.494   3.102  16.707 -0.1917 -0.5645  0.5809
 4030SOL    HW123723   4.579   3.145  16.699 -0.1113 -0.9049 -0.4408
 4030SOL    HW223724   4.470   3.094  16.614 -1.6941 -1.1807  1.0286
 4031SOL     OW23725   0.326   4.681   0.269  0.0448  0.5481 -0.6656
 4031SOL    HW123726   0.380   0.025   0.280  0.6164 -0.2384  2.0063
 4031SOL    HW223727   0.274   4.686   0.348 -2.5322  1.8314 -2.4477
 4032SOL     OW23728   0.398   2.404   5.510  0.5272  0.3775 -0.1399
 4032SOL    HW123729   0.424   2.482   5.559  0.6611  1.3342 -1.7026
 4032SOL    HW223730   0.336   2.441   5.447  1.5725 -0.6698 -1.7903
 4033SOL     OW23731   2.959   0.024   1.006  0.1570  0.1724 -0.5717
 4033SOL    HW123732   2.906   4.708   1.068 -1.1038  1.3236 -0.7043
 4033SOL    HW223733   2.981   4.685   0.948  0.7963  0.8208 -1.1329
 4034SOL     OW23734   0.833   1.403   3.979 -0.0170 -0.1700 -0.3750
 4034SOL    HW123735   0.898   1.413   4.048 -0.3260 -2.5002  0.2511
 4034SOL    HW223736   0.750   1.393   4.025 -1.0567 -2.1090 -2.6678
 4035SOL     OW23737   2.461   1.804  12.609  0.0553 -0.0201 -0.4646
 4035SOL    HW123738   2.468   1.756  12.691 -1.2939 -0.6919 -0.7393
 4035SOL    HW223739   2.552   1.813  12.582  0.5555 -3.0404  0.1926
 4036SOL     OW23740   0.866   3.717   1.156  1.1062 -0.0370  0.0316
 4036SOL    HW123741   0.889   3.742   1.066  0.4170  0.2806 -0.0565
 4036SOL    HW223742   0.773   3.731   1.135  1.4807 -0.0731 -1.6579
 4037SOL     OW23743   1.308   2.461   1.951  0.3305 -0.1203  0.3201
 4037SOL    HW123744   1.397   2.430   1.966 -0.3014 -1.8810  0.3922
 4037SOL    HW223745   1.251   2.395   1.990  1.1463 -0.8208  0.3129
 4038SOL     OW23746   3.551   0.605   7.742  0.5178 -0.0295 -0.3925
 4038SOL    HW123747   3.556   0.567   7.655  1.5334 -4.6977  1.7263
 4038SOL    HW223748   3.511   0.690   7.724 -0.8661 -0.4315  0.8105
 4039SOL     OW23749   1.797   3.195   8.437 -0.8675  0.1823 -0.0699
 4039SOL    HW123750   1.708   3.225   8.455 -1.1346 -0.0476 -0.9843
 4039SOL    HW223751   1.776   3.109   8.399  1.6641 -0.9924  1.2013
 4040SOL     OW23752   1.139   2.655   5.813 -0.4049 -0.3040  0.1032
 4040SOL    HW123753   1.090   2.649   5.895 -0.6119  2.1154  0.1433
 4040SOL    HW223754   1.139   2.749   5.798  0.6097 -0.0426  1.7917
 4041SOL     OW23755   3.093   2.286  15.200 -0.2052 -0.1426  0.1539
 4041SOL    HW123756   3.131   2.362  15.244 -0.0052  0.1911 -0.5906
 4041SOL    HW223757   3.041   2.324  15.130 -1.0831 -2.5296 -0.5159
 4042SOL     OW23758   2.389   1.666   4.327 -0.4921  0.0681 -0.5616
 4042SOL    HW123759   2.406   1.679   4.420  1.8343  1.5731 -1.2016
 4042SOL    HW223760   2.447   1.732   4.287  0.2442 -0.1400  0.1572
 4043SOL     OW23761   3.200   0.620   4.302 -0.6432 -0.0298  0.0496
 4043SOL    HW123762   3.180   0.707   4.337  0.6393 -0.2990  1.4681
 4043SOL    HW223763   3.135   0.609   4.232  0.9369  1.1514 -1.5713
 4044SOL     OW23764   3.036   4.555   0.831 -0.5593 -0.0275  0.1795
 4044SOL    HW123765   3.076   4.469   0.844  0.0116  0.2332  0.1084
 4044SOL    HW223766   2.948   4.526   0.808  0.2601 -0.5015 -2.3516
 4045SOL     OW23767   2.305   2.642   6.851  0.1687 -0.4652 -0.5416
 4045SOL    HW123768   2.314   2.737   6.860 -0.4159 -0.3187 -1.4883
 4045SOL    HW223769   2.348   2.599   6.924 -1.9256 -1.7546 -0.0789
 4046SOL     OW23770   1.805   4.336   9.570  0.1567  0.0540  0.1874
 4046SOL    HW123771   1.891   4.364   9.599 -0.1272  1.3425 -0.2036
 4046SOL    HW223772   1.760   4.419   9.585 -0.3435  0.0573 -1.3061
 4047SOL     OW23773   2.987   1.978   6.375  0.1024  0.2637 -0.1457
 4047SOL    HW123774   3.062   2.031   6.402  0.1603 -0.1544  0.5067
 4047SOL    HW223775   2.976   1.995   6.282 -0.4029 -2.7503 -0.6394
 4048SOL     OW23776   0.632   4.259   5.850 -0.0827  0.3038  0.0878
 4048SOL    HW123777   0.724   4.248   5.871  0.0357  0.7866 -0.1703
 4048SOL    HW223778   0.615   4.351   5.872  1.8346  0.3365  1.4013
 4049SOL     OW23779   2.136   4.034   8.867 -0.4432  0.2139 -0.0282
 4049SOL    HW123780   2.188   4.114   8.860 -0.6841  0.4778  1.0283
 4049SOL    HW223781   2.081   4.046   8.945  0.8877 -0.7740  1.0661
 4050SOL     OW23782   3.563   2.949   3.916 -0.3103  0.0976 -0.1020
 4050SOL    HW123783   3.648   2.992   3.920 -0.0681 -0.4481  0.5823
 4050SOL    HW223784   3.570   2.899   3.997  0.4234  2.0298  1.0135
 4051SOL     OW23785   4.583   4.332   5.864 -0.0261  0.3633  0.3641
 4051SOL    HW123786   4.515   4.315   5.930  1.9484 -1.3196  1.9547
 4051SOL    HW223787   4.643   4.387   5.912 -0.1149  1.9281 -1.3138
 4052SOL     OW23788   3.874   4.585   3.048 -0.2427  0.1922  0.2012
 4052SOL    HW123789   3.959   4.548   3.071 -1.2430 -1.2412  1.5628
 4052SOL    HW223790   3.890   4.653   2.982  1.6708  0.3242  0.8135
 4053SOL     OW23791   1.548   3.753   7.393 -0.1631  0.5118 -0.2742
 4053SOL    HW123792   1.585   3.753   7.304  0.3775  1.1187 -0.0474
 4053SOL    HW223793   1.603   3.812   7.444  0.0021  0.6712 -0.6371
 4054SOL     OW23794   4.613   2.838   3.655 -0.6374  0.6038 -0.5685
 4054SOL    HW123795   4.687   2.825   3.595  1.0748  0.2717  1.6130
 4054SOL    HW223796   4.573   2.751   3.656  2.5140 -0.8731 -0.4734
 4055SOL     OW23797   0.753   1.275  12.700  0.1096 -0.2935 -0.6480
 4055SOL    HW123798   0.846   1.272  12.721 -0.1503 -2.6156  0.0949
 4055SOL    HW223799   0.737   1.206  12.635 -2.1254  0.1169 -0.5315
 4056SOL     OW23800   2.328   2.859  16.581 -1.1674 -0.0116 -0.4636
 4056SOL    HW123801   2.362   2.934  16.630 -1.6858  0.2575 -0.5117
 4056SOL    HW223802   2.401   2.798  16.573 -2.0571 -1.0222 -0.8791
 4057SOL     OW23803   2.020   1.296   0.093 -0.1499  0.4853 -1.0387
 4057SOL    HW123804   2.052   1.300   0.183 -1.1322 -1.6420 -0.5855
 4057SOL    HW223805   2.036   1.386   0.065  0.2445  0.5480 -0.6074
 4058SOL     OW23806   1.929   2.717   7.278  0.0817  0.9083  0.8206
 4058SOL    HW123807   1.874   2.689   7.205  0.4669 -0.5857  1.1181
 4058SOL    HW223808   2.004   2.765   7.244 -0.0363  0.9642  0.6366
 4059SOL     OW23809   0.790   1.843   8.072  0.4834  0.0804  0.1798
 4059SOL    HW123810   0.774   1.935   8.053  1.5529  0.5587  1.5644
 4059SOL    HW223811   0.817   1.851   8.164  1.1086  1.3565 -0.1188
 4060SOL     OW23812   0.176   3.082  10.774 -0.3362 -0.0536  0.7771
 4060SOL    HW123813   0.124   3.031  10.835  0.9238 -1.4250  0.7170
 4060SOL    HW223814   0.208   3.156  10.825  2.3778 -0.5790 -0.1382
 4061SOL     OW23815   0.084   0.710   5.193  0.2154 -0.0061  0.1211
 4061SOL    HW123816   0.154   0.653   5.226  1.6053  2.1676  0.9344
 4061SOL    HW223817   0.062   0.667   5.111 -0.8073 -1.2584  1.0528
 4062SOL     OW23818   2.693   4.668   9.278 -0.0339 -0.7529  0.2910
 4062SOL    HW123819   2.725   0.022   9.295  0.4539 -0.7709 -0.5458
 4062SOL    HW223820   2.604   4.675   9.313  0.3211 -0.8975  1.2258
 4063SOL     OW23821   1.200   4.285   6.991 -0.2057  0.1703  0.3298
 4063SOL    HW123822   1.145   4.213   7.025 -2.0001  1.9178  1.1223
 4063SOL    HW223823   1.201   4.344   7.066 -0.3669 -0.2383  0.6598
 4064SOL     OW23824   2.428   3.517   7.358  0.0099  0.1576 -0.2891
 4064SOL    HW123825   2.490   3.454   7.320 -1.1647 -2.1679  1.6437
 4064SOL    HW223826   2.491   3.565   7.412 -0.7660  0.1855  0.5882
 4065SOL     OW23827   1.884   2.402   3.007 -0.1955  0.0704  0.1816
 4065SOL    HW123828   1.807   2.344   3.006 -0.8078  0.8996 -0.7340
 4065SOL    HW223829   1.868   2.448   3.089  3.3858 -0.6370  1.2736
 4066SOL     OW23830   2.791   3.536   6.018  0.1625  0.1314 -0.1505
 4066SOL    HW123831   2.863   3.526   5.956  0.3011 -0.7849  0.1641
 4066SOL    HW223832   2.764   3.448   6.043  1.6798 -0.0133  0.9748
 4067SOL     OW23833   0.219   4.467   9.264  0.5005 -0.1801 -0.0018
 4067SOL    HW123834   0.250   4.438   9.178 -1.6439  1.4323 -1.3069
 4067SOL    HW223835   0.163   4.392   9.286 -2.0958  1.3598 -1.3577
 4068SOL     OW23836   1.386   3.067   3.883 -0.4094  0.1134  0.5535
 4068SOL    HW123837   1.314   3.047   3.822 -0.7444  1.1812  0.5800
 4068SOL    HW223838   1.371   3.161   3.870  1.0975  0.1668 -0.7568
 4069SOL     OW23839   0.732   1.501   2.339 -0.2335  0.3595 -0.2569
 4069SOL    HW123840   0.818   1.479   2.303 -1.0815 -0.4070 -1.8086
 4069SOL    HW223841   0.700   1.549   2.263  1.1229 -0.0451 -1.0864
 4070SOL     OW23842   3.003   0.720   9.292  0.0240  0.2445  0.7675
 4070SOL    HW123843   2.932   0.770   9.332 -0.4769  0.0868  0.0823
 4070SOL    HW223844   3.005   0.759   9.204  0.2074 -2.4861 -0.4336
 4071SOL     OW23845   2.692   4.196   9.788  0.2278 -0.4385 -0.0865
 4071SOL    HW123846   2.713   4.266   9.726  0.6948 -1.6684 -1.3317
 4071SOL    HW223847   2.763   4.210   9.851 -2.3271 -0.4405  2.7612
 4072SOL     OW23848   0.520   3.005  12.404 -0.1683 -0.2673 -0.2902
 4072SOL    HW123849   0.554   3.043  12.485  1.0792  0.3838 -1.1140
 4072SOL    HW223850   0.439   2.969  12.439 -0.0077  0.6777  1.0526
 4073SOL     OW23851   4.188   2.371  10.964  0.0174  0.3154  0.2571
 4073SOL    HW123852   4.167   2.310  11.035 -1.1554  1.0561  0.5486
 4073SOL    HW223853   4.169   2.455  11.005  0.3301  1.0267 -1.0731
 4074SOL     OW23854   3.741   3.342   0.928 -0.5778 -0.1983  0.3595
 4074SOL    HW123855   3.818   3.393   0.900 -0.0565 -1.5469 -0.6738
 4074SOL    HW223856   3.752   3.258   0.883 -0.2007  0.0737 -0.0643
 4075SOL     OW23857   2.696   3.407   9.805  1.4228 -0.1035  0.0064
 4075SOL    HW123858   2.701   3.389   9.712  1.7061 -0.0336  0.0098
 4075SOL    HW223859   2.613   3.454   9.814  0.3129 -1.3273 -3.8877
 4076SOL     OW23860   3.198   0.146   6.257 -0.1885 -0.5051  0.1714
 4076SOL    HW123861   3.151   0.126   6.176 -1.5174  2.7195  0.1459
 4076SOL    HW223862   3.207   0.062   6.302  1.8659 -0.4242 -0.0621
 4077SOL     OW23863   1.085   0.277   6.790 -0.3067  0.0719 -0.0863
 4077SOL    HW123864   1.126   0.196   6.760 -0.1346 -0.4206  1.4516
 4077SOL    HW223865   1.003   0.293   6.744 -1.2218 -1.8043  0.8925
 4078SOL     OW23866   2.524   2.537   6.466  0.4477 -0.1503 -0.2066
 4078SOL    HW123867   2.561   2.558   6.552 -1.0253 -0.0054  0.3969
 4078SOL    HW223868   2.432   2.546   6.492  0.8642 -0.7359  1.4897
 4079SOL     OW23869   2.003   0.893  13.376 -0.1191 -0.0201  0.4894
 4079SOL    HW123870   2.010   0.813  13.324  0.2132  1.9228 -2.4584
 4079SOL    HW223871   1.923   0.873  13.425 -1.0787  1.0447 -0.6269
 4080SOL     OW23872   1.850   4.032   5.522  0.5419  0.4047  0.7969
 4080SOL    HW123873   1.811   3.958   5.568  1.8647  0.0845  1.4019
 4080SOL    HW223874   1.787   4.044   5.451  1.3279 -0.3701 -0.0286
 4081SOL     OW23875   2.109   3.406   5.230 -0.2084  0.3829  0.1915
 4081SOL    HW123876   2.138   3.388   5.140 -1.1668 -0.0711 -0.0284
 4081SOL    HW223877   2.050   3.337   5.262 -1.3366  0.8811 -0.8397
 4082SOL     OW23878   2.661   0.535  14.034  0.0416 -0.0760 -0.7519
 4082SOL    HW123879   2.658   0.559  13.942 -1.9671  0.0622 -0.6375
 4082SOL    HW223880   2.569   0.513  14.047 -0.3387  3.2379  2.0052
 4083SOL     OW23881   1.307   0.785   6.255 -0.0041  0.0039  0.1760
 4083SOL    HW123882   1.246   0.758   6.324  0.2806 -0.5485  0.2054
 4083SOL    HW223883   1.343   0.866   6.293  2.9214 -0.4101 -1.7661
 4084SOL     OW23884   0.830   2.270  15.357  0.4034  0.1637 -0.4154
 4084SOL    HW123885   0.802   2.273  15.448  1.8394 -3.3462  0.1038
 4084SOL    HW223886   0.755   2.316  15.318  0.9356 -0.7212 -2.5163
 4085SOL     OW23887   0.820   3.612   0.127  0.1524  0.0075  0.0854
 4085SOL    HW123888   0.760   3.544   0.159 -0.9379  0.6905 -0.4949
 4085SOL    HW223889   0.813   3.594   0.033  0.9069  0.7444 -0.1095
 4086SOL     OW23890   2.105   3.696   1.803 -0.5992  0.4530 -0.1895
 4086SOL    HW123891   2.195   3.725   1.816 -0.6889  0.3797  0.5849
 4086SOL    HW223892   2.117   3.604   1.781 -0.5657  0.5449 -0.5609
 4087SOL     OW23893   0.263   0.941   5.109 -0.3248  0.2139  0.6689
 4087SOL    HW123894   0.339   0.995   5.134  0.4232  0.4089 -2.0716
 4087SOL    HW223895   0.316   0.861   5.105 -0.8556 -0.1531  1.0015
 4088SOL     OW23896   2.408   2.448   3.041 -0.1263  0.5553 -0.1750
 4088SOL    HW123897   2.348   2.378   3.016  0.4089  0.2565 -0.6402
 4088SOL    HW223898   2.355   2.517   3.000  1.3994  1.3556 -0.7909
 4089SOL     OW23899   2.922   3.501  17.418 -0.1082  0.3731 -0.2511
 4089SOL    HW123900   2.964   3.541  17.342  0.6975  3.2040  1.6684
 4089SOL    HW223901   2.974   3.540  17.488 -0.3316  0.9240 -0.3915
 4090SOL     OW23902   3.288   3.303   2.868 -0.1849  0.2876  0.4094
 4090SOL    HW123903   3.341   3.233   2.831 -0.0118  0.3473  0.5394
 4090SOL    HW223904   3.313   3.374   2.808  3.9049 -0.8658  0.7785
 4091SOL     OW23905   4.235   1.732   5.105  0.5161 -0.3361 -0.0713
 4091SOL    HW123906   4.305   1.758   5.046 -1.2003  1.3821 -1.3544
 4091SOL    HW223907   4.152   1.743   5.058  0.8418  3.3210  0.1876
 4092SOL     OW23908   3.444   4.049   2.013  0.3228  0.1194  0.3388
 4092SOL    HW123909   3.367   4.054   2.070  0.7666 -0.1696  0.9596
 4092SOL    HW223910   3.515   4.094   2.059 -0.7010 -0.4152  2.4310
 4093SOL     OW23911   3.906   0.670  17.082  0.2512 -0.3803 -0.1140
 4093SOL    HW123912   3.854   0.673  17.163  0.0016  0.4220 -0.3005
 4093SOL    HW223913   3.842   0.629  17.024 -0.3797 -0.8374  0.9193
 4094SOL     OW23914   0.079   2.929   2.936  0.4912 -0.3519 -0.5404
 4094SOL    HW123915   0.142   2.985   2.980 -1.4592  1.3571  0.1108
 4094SOL    HW223916   0.064   2.983   2.859 -0.8549  0.2187  0.1147
 4095SOL     OW23917   2.065   1.233   8.100 -0.6959  0.9510  0.8629
 4095SOL    HW123918   2.017   1.204   8.023  2.7164 -4.2589  0.7108
 4095SOL    HW223919   2.006   1.192   8.163 -0.7976  0.2556  0.3130
 4096SOL     OW23920   2.704   2.986   6.148  0.3298 -0.3571 -0.0351
 4096SOL    HW123921   2.730   3.004   6.238  0.3025 -0.1643 -0.0661
 4096SOL    HW223922   2.612   3.010   6.146  0.3158 -0.4959 -1.1603
 4097SOL     OW23923   0.106   1.116   9.516  0.2864 -0.0593  0.5467
 4097SOL    HW123924   0.046   1.159   9.576 -0.9956 -1.3959  0.2043
 4097SOL    HW223925   0.141   1.048   9.574  1.0348 -2.4274 -2.6955
 4098SOL     OW23926   1.390   2.953  16.244 -0.5447  0.1565  0.1286
 4098SOL    HW123927   1.469   2.907  16.214 -0.9541 -1.0710  0.9500
 4098SOL    HW223928   1.347   2.880  16.287  1.0390 -0.4024  0.7627
 4099SOL     OW23929   1.891   1.414   5.989  0.2292  0.0206  0.7726
 4099SOL    HW123930   1.848   1.343   5.942  0.6908 -0.2894  0.8139
 4099SOL    HW223931   1.901   1.371   6.074 -1.8877 -0.6559  0.6642
 4100SOL     OW23932   4.170   0.309  17.643 -0.0724 -0.0981 -0.2786
 4100SOL    HW123933   4.265   0.306  17.653 -0.2418 -0.5460  1.1907
 4100SOL    HW223934   4.159   0.235  17.583 -1.7379 -1.2905  1.4927
 4101SOL     OW23935   1.728   0.085   4.032 -0.0055 -0.5843  0.0287
 4101SOL    HW123936   1.682   0.004   4.011 -0.6470 -0.4380  0.8624
 4101SOL    HW223937   1.795   0.082   3.964  2.7424 -0.9294  2.7701
 4102SOL     OW23938   0.673   4.501   7.092 -0.2176 -0.1407  0.2283
 4102SOL    HW123939   0.766   4.520   7.082 -0.8150  1.8727 -1.4494
 4102SOL    HW223940   0.665   4.552   7.173  1.1500  3.0072 -1.6095
 4103SOL     OW23941   2.330   2.534   3.848  0.1145  0.2302  0.0823
 4103SOL    HW123942   2.411   2.486   3.829  0.3398  0.6709 -0.0658
 4103SOL    HW223943   2.372   2.620   3.846 -2.1791  1.3203 -1.6321
 4104SOL     OW23944   0.168   3.178   7.210 -0.5838  0.0617 -0.3093
 4104SOL    HW123945   0.084   3.149   7.245 -0.1833  1.9219  2.1522
 4104SOL    HW223946   0.235   3.118   7.242  0.6078  1.5833  0.0781
 4105SOL     OW23947   3.636   4.430   5.880  0.7023 -0.1976  0.0630
 4105SOL    HW123948   3.614   4.481   5.957 -2.1027 -2.7820  0.9560
 4105SOL    HW223949   3.659   4.344   5.915 -1.7841 -0.0854  1.9052
 4106SOL     OW23950   0.356   1.585  14.982  0.3684  0.3043  0.1355
 4106SOL    HW123951   0.269   1.583  15.023  0.5353 -0.1078  0.4628
 4106SOL    HW223952   0.382   1.493  14.988 -0.5141  0.1688  1.9389
 4107SOL     OW23953   3.335   0.058  15.200 -0.3280  0.3102  0.4060
 4107SOL    HW123954   3.346   0.021  15.112  0.5196 -2.3394  1.6175
 4107SOL    HW223955   3.396   0.001  15.248 -0.7309 -0.8879 -0.5069
 4108SOL     OW23956   4.135   3.009   6.894  0.0980  0.1250  0.1734
 4108SOL    HW123957   4.047   3.045   6.901  0.1134  0.1855  0.0564
 4108SOL    HW223958   4.176   3.030   6.978  2.2000 -0.5552 -0.6620
 4109SOL     OW23959   3.736   3.777   3.308 -0.3319  0.6097 -0.6248
 4109SOL    HW123960   3.677   3.790   3.234 -0.2545  1.6225 -0.5010
 4109SOL    HW223961   3.776   3.693   3.285 -0.4997  0.1560  0.7177
 4110SOL     OW23962   1.421   1.540   0.290 -0.0853 -0.3352 -0.0389
 4110SOL    HW123963   1.359   1.467   0.284 -0.4111  0.0170 -0.8988
 4110SOL    HW223964   1.366   1.617   0.274  0.3036 -0.0589 -0.0454
 4111SOL     OW23965   1.178   1.349   5.069 -0.2866 -0.0517  0.1929
 4111SOL    HW123966   1.167   1.412   5.140 -1.3096 -1.7417  1.5366
 4111SOL    HW223967   1.239   1.396   5.012 -0.0648 -1.4314 -0.7258
 4112SOL     OW23968   0.001   4.468   5.493  0.5330  0.1846  0.0903
 4112SOL    HW123969   4.651   4.425   5.480  1.1567 -2.0490  3.7263
 4112SOL    HW223970   0.060   4.413   5.441 -0.2428 -0.2425 -0.3431
 4113SOL     OW23971   4.343   1.891   3.668  0.0628  0.3651  0.1997
 4113SOL    HW123972   4.347   1.820   3.732 -2.4964  1.1708  1.2340
 4113SOL    HW223973   4.249   1.908   3.663  0.2109  0.7935 -1.3257
 4114SOL     OW23974   2.004   4.143   3.557  0.0653 -0.7235 -1.3468
 4114SOL    HW123975   1.954   4.217   3.592  1.0857 -0.8807  0.4499
 4114SOL    HW223976   1.946   4.097   3.497 -0.2182 -2.1137 -0.0051
 4115SOL     OW23977   0.563   1.796   7.724 -0.2590 -0.5186 -0.1047
 4115SOL    HW123978   0.522   1.731   7.668 -4.0444  1.2399  0.6539
 4115SOL    HW223979   0.597   1.751   7.801  1.0146  1.0639  0.2704
 4116SOL     OW23980   3.574   3.018   3.327  0.2062  0.2738  0.9779
 4116SOL    HW123981   3.563   3.065   3.409 -0.1035 -1.1178  1.7371
 4116SOL    HW223982   3.481   3.010   3.306 -0.0484  0.3112  2.1215
 4117SOL     OW23983   1.197   2.256   2.108  0.1908  0.1808  0.1757
 4117SOL    HW123984   1.223   2.192   2.042 -1.1824  0.1043 -0.2847
 4117SOL    HW223985   1.267   2.254   2.173 -1.1163  0.0561  1.5803
 4118SOL     OW23986   1.015   3.253  11.378  0.1027  0.3574  0.0142
 4118SOL    HW123987   1.076   3.179  11.378  0.5269  0.7051  0.3551
 4118SOL    HW223988   0.928   3.219  11.360  0.1727  0.8502 -1.2973
 4119SOL     OW23989   0.152   3.984  14.476  0.2074  0.0292  0.4229
 4119SOL    HW123990   0.240   3.984  14.513  0.4432  0.7933 -0.1420
 4119SOL    HW223991   0.108   3.910  14.518 -1.9121  1.8884  1.4372
 4120SOL     OW23992   4.553   2.739   7.868  0.0238 -0.1212  0.0425
 4120SOL    HW123993   4.560   2.756   7.962 -1.2845  0.4928  0.0250
 4120SOL    HW223994   4.520   2.649   7.864  0.4811 -0.3075  0.4448
 4121SOL     OW23995   0.639   2.393   2.688  0.3411  0.5633  0.4013
 4121SOL    HW123996   0.706   2.385   2.620 -1.3963 -0.2824 -1.2128
 4121SOL    HW223997   0.618   2.487   2.691  0.3395  0.6081 -0.9730
 4122SOL     OW23998   4.079   2.072  12.676  0.0654 -0.0022 -0.1463
 4122SOL    HW123999   4.058   2.024  12.756 -1.2150 -0.5589 -0.8136
 4122SOL    HW224000   4.088   2.162  12.709 -1.2829 -0.2898  0.9668
 4123SOL     OW24001   0.804   3.952   1.814  0.6305 -0.7174 -0.4897
 4123SOL    HW124002   0.888   3.969   1.771  0.4094  0.3193 -0.5021
 4123SOL    HW224003   0.746   4.018   1.776  1.9562  0.6999 -0.0688
 4124SOL     OW24004   2.794   3.554   7.669  0.1826  0.4389  0.0792
 4124SOL    HW124005   2.866   3.573   7.608  0.6212 -1.2507  0.0808
 4124SOL    HW224006   2.817   3.463   7.684  0.2821  0.6678  1.2982
 4125SOL     OW24007   0.981   3.217   5.160 -0.2301 -0.2070 -0.5171
 4125SOL    HW124008   0.978   3.181   5.248  0.6272 -0.0362 -0.4146
 4125SOL    HW224009   0.894   3.193   5.129 -0.9152  0.0513  1.2329
 4126SOL     OW24010   2.685   1.692  13.736 -0.1586  0.0757 -0.1801
 4126SOL    HW124011   2.775   1.682  13.704  0.7325  0.2007  2.2612
 4126SOL    HW224012   2.638   1.685  13.654  1.0762 -0.8154 -0.8152
 4127SOL     OW24013   2.702   0.351   9.009  0.1335  0.2489  0.7623
 4127SOL    HW124014   2.641   0.311   9.070  0.8414 -1.2168  0.4963
 4127SOL    HW224015   2.758   0.274   8.996 -0.0080  0.2748  0.0309
 4128SOL     OW24016   2.098   3.155   4.312 -0.5759  0.0361 -0.4448
 4128SOL    HW124017   2.173   3.151   4.371 -2.0481 -0.6528  1.3689
 4128SOL    HW224018   2.142   3.098   4.249  0.4343  1.1394 -0.7207
 4129SOL     OW24019   3.205   3.944  14.167 -0.3000  0.5175  0.3169
 4129SOL    HW124020   3.215   3.958  14.072  1.8445  1.5207  0.7078
 4129SOL    HW224021   3.282   3.890  14.186 -2.0937 -1.8214  1.0030
 4130SOL     OW24022   4.299   1.969   6.062 -0.7299 -0.3762  0.1587
 4130SOL    HW124023   4.267   2.037   6.002 -2.6608 -0.9682  0.5054
 4130SOL    HW224024   4.393   1.972   6.048 -0.5616 -1.7405  0.9916
 4131SOL     OW24025   1.729   0.628   4.675  0.4140  0.1113  0.2112
 4131SOL    HW124026   1.664   0.683   4.630 -0.7483 -0.7550  0.8326
 4131SOL    HW224027   1.718   0.543   4.632  2.7702 -1.1674  2.1830
 4132SOL     OW24028   1.510   3.449   1.662 -0.1924 -0.4855  0.5707
 4132SOL    HW124029   1.542   3.409   1.581  0.1758  0.6197  0.1631
 4132SOL    HW224030   1.420   3.468   1.634  0.3604  0.4239 -0.5899
 4133SOL     OW24031   2.557   3.560   8.443  0.6549  0.6649 -0.5828
 4133SOL    HW124032   2.535   3.635   8.388 -3.0088 -0.1871 -0.3003
 4133SOL    HW224033   2.508   3.563   8.525  0.9109  1.7244 -0.4644
 4134SOL     OW24034   3.362   1.107   9.536 -0.3170 -0.0533 -0.1204
 4134SOL    HW124035   3.431   1.058   9.582 -0.9365 -1.0175 -0.2273
 4134SOL    HW224036   3.330   1.168   9.603 -2.3320  0.3570 -1.4744
 4135SOL     OW24037   0.673   2.522   4.756 -0.6973 -0.0448  0.0854
 4135SOL    HW124038   0.601   2.584   4.765 -1.6789 -1.1861  0.0015
 4135SOL    HW224039   0.648   2.502   4.666  1.0140  1.1000 -0.6552
 4136SOL     OW24040   0.772   1.418   6.019  0.1727 -0.4038  0.2436
 4136SOL    HW124041   0.836   1.479   5.983 -0.3596  1.0665  1.8202
 4136SOL    HW224042   0.717   1.385   5.948  2.1177  0.0907 -1.4719
 4137SOL     OW24043   3.870   3.477   7.037  0.2541 -0.5318 -0.0567
 4137SOL    HW124044   3.961   3.482   7.065 -0.1331  0.1513  1.0517
 4137SOL    HW224045   3.837   3.401   7.085  0.1769  0.0478  0.7949
 4138SOL     OW24046   2.635   2.463   3.479 -0.3846  0.7106  0.2853
 4138SOL    HW124047   2.669   2.474   3.390 -0.9949  0.9879  0.0822
 4138SOL    HW224048   2.670   2.547   3.510 -1.0369  0.7043  1.0561
 4139SOL     OW24049   2.996   0.438   0.810 -0.4507  0.2076  0.4517
 4139SOL    HW124050   3.071   0.489   0.781 -0.7457  0.0643 -0.5934
 4139SOL    HW224051   3.001   0.370   0.742  1.7427  0.7541  0.0629
 4140SOL     OW24052   3.151   4.553   2.798 -0.3143  0.0955 -0.2573
 4140SOL    HW124053   3.065   4.519   2.773 -0.7434  0.2015  1.1019
 4140SOL    HW224054   3.207   4.490   2.751 -0.1839  1.1090 -1.4476
 4141SOL     OW24055   0.826   0.271  10.003 -0.4419  0.0835 -0.1535
 4141SOL    HW124056   0.876   0.194  10.029 -2.0340 -0.9769 -0.2114
 4141SOL    HW224057   0.803   0.299  10.092 -2.3424 -1.8811 -0.0164
 4142SOL     OW24058   4.120   0.027   4.422  0.7328 -0.1223  0.4674
 4142SOL    HW124059   4.058   0.006   4.492 -1.0129  0.1914 -0.9871
 4142SOL    HW224060   4.069   0.050   4.345 -0.8193  0.2972  1.6186
 4143SOL     OW24061   0.228   0.936  16.290  0.2448  0.4432  0.2311
 4143SOL    HW124062   0.209   0.995  16.217  1.6306  0.9144  0.2573
 4143SOL    HW224063   0.144   0.909  16.329  0.3735 -1.1993 -0.6398
 4144SOL     OW24064   3.495   2.657   3.564  0.3758 -0.4047 -0.3533
 4144SOL    HW124065   3.555   2.618   3.629  1.8069  1.0048 -0.8470
 4144SOL    HW224066   3.414   2.681   3.611 -0.5738 -0.5665 -1.9248
 4145SOL     OW24067   1.629   4.388   6.182  0.2537  0.2439  0.1177
 4145SOL    HW124068   1.671   4.421   6.262  0.8455  0.5018 -0.2988
 4145SOL    HW224069   1.568   4.323   6.216  1.8334  0.0132  2.5203
 4146SOL     OW24070   0.380   1.621   9.856  0.1591  0.3129 -0.0571
 4146SOL    HW124071   0.472   1.647   9.860  0.3727 -0.1776 -1.9896
 4146SOL    HW224072   0.351   1.616   9.947  0.2542  1.3960  0.0308
 4147SOL     OW24073   3.578   3.413  14.837  0.2931  0.4247  0.1804
 4147SOL    HW124074   3.568   3.487  14.778  2.0253  1.8581  1.6932
 4147SOL    HW224075   3.666   3.436  14.867 -0.1333  2.1088  0.1405
 4148SOL     OW24076   2.969   1.046   2.220  0.1679  0.1062 -0.3122
 4148SOL    HW124077   2.880   1.057   2.186  0.7137 -1.7915 -2.3763
 4148SOL    HW224078   2.983   1.123   2.275 -2.3499  0.4970 -0.1858
 4149SOL     OW24079   0.663   2.214   7.693 -0.0506 -0.1752 -0.3903
 4149SOL    HW124080   0.614   2.175   7.621 -0.9406 -0.9059  0.6194
 4149SOL    HW224081   0.624   2.302   7.690 -1.9524 -1.0424 -0.6879
 4150SOL     OW24082   4.364   3.279  17.164  0.2536  0.0460 -0.3060
 4150SOL    HW124083   4.364   3.233  17.080 -0.1643 -1.3924  0.4815
 4150SOL    HW224084   4.454   3.279  17.196 -0.6147 -0.3486  2.1260
 4151SOL     OW24085   3.760   0.989  17.736 -0.2606  0.1205 -0.4008
 4151SOL    HW124086   3.690   1.033   0.047 -1.4524 -1.5575 -0.5727
 4151SOL    HW224087   3.820   0.958   0.067 -0.5287  0.4547 -0.0116
 4152SOL     OW24088   2.354   1.390   4.442  0.2509  0.3049 -0.0049
 4152SOL    HW124089   2.363   1.477   4.402 -0.6699  0.1121 -0.6248
 4152SOL    HW224090   2.432   1.377   4.497  0.0965 -1.9025 -0.3228
 4153SOL     OW24091   0.121   4.442  16.729 -0.8017  0.0602 -0.0397
 4153SOL    HW124092   0.112   4.464  16.822  0.6367 -1.4250  0.4602
 4153SOL    HW224093   0.127   4.346  16.727 -0.6416  0.0724 -0.1299
 4154SOL     OW24094   3.182   4.123   9.217  0.0983 -0.1213 -0.0790
 4154SOL    HW124095   3.086   4.127   9.212  0.0081 -1.6243  0.5683
 4154SOL    HW224096   3.196   4.029   9.221 -0.2474 -0.1749 -0.1299
 4155SOL     OW24097   4.473   1.938   2.718 -0.6458  0.1652 -0.1128
 4155SOL    HW124098   4.492   1.879   2.646  2.3386  0.3678  0.5017
 4155SOL    HW224099   4.509   1.891   2.794  2.1436 -0.3383 -1.7611
 4156SOL     OW24100   0.945   2.373   0.223 -0.2358 -0.6279  0.0137
 4156SOL    HW124101   0.988   2.455   0.197 -0.9984  0.2278  1.4154
 4156SOL    HW224102   0.940   2.333   0.137 -0.7332 -1.3556  0.3766
 4157SOL     OW24103   4.637   3.381   0.496 -0.3296 -0.0320  0.4191
 4157SOL    HW124104   4.683   3.350   0.574  1.3319  3.2230  0.7017
 4157SOL    HW224105   4.693   3.454   0.469 -1.2153  0.2668 -0.6094
 4158SOL     OW24106   0.065   1.662  11.413 -0.1217  0.6710 -0.3968
 4158SOL    HW124107   0.124   1.598  11.374 -0.6796 -0.0317 -0.0858
 4158SOL    HW224108   0.038   1.715  11.338 -2.8553 -0.5252 -0.2512
 4159SOL     OW24109   0.355   3.849   3.271 -0.1348  0.2764 -0.3810
 4159SOL    HW124110   0.327   3.908   3.201  0.9867  0.4944 -0.6445
 4159SOL    HW224111   0.293   3.863   3.342 -0.3544  0.1621 -0.5516
 4160SOL     OW24112   2.105   2.301   5.841 -0.3162  0.5749 -0.1839
 4160SOL    HW124113   2.175   2.348   5.887 -2.2731  1.9160  1.4660
 4160SOL    HW224114   2.105   2.221   5.893 -1.1108  0.3860 -0.4837
 4161SOL     OW24115   4.120   2.339  12.745 -0.4861  0.0431 -0.0511
 4161SOL    HW124116   4.154   2.376  12.827  1.3437 -0.8747 -0.3801
 4161SOL    HW224117   4.064   2.404  12.705 -1.2246 -1.6516 -1.7668
 4162SOL     OW24118   3.318   1.274   9.032 -0.1274  0.0425 -0.0900
 4162SOL    HW124119   3.330   1.273   9.127  1.5963 -1.6432 -0.3338
 4162SOL    HW224120   3.243   1.330   9.012 -0.1731  0.1730  0.4513
 4163SOL     OW24121   2.053   3.327   8.309  0.6895 -0.2683  0.0290
 4163SOL    HW124122   2.054   3.309   8.215  2.1099 -0.0129  0.0009
 4163SOL    HW224123   1.963   3.299   8.330  1.2698 -0.1246  2.6455
 4164SOL     OW24124   0.213   4.585   4.786 -0.4813  0.2760 -0.2431
 4164SOL    HW124125   0.293   4.543   4.816 -0.6448  0.4845  0.4777
 4164SOL    HW224126   0.159   4.509   4.764  0.5149 -1.2341  2.6577
 4165SOL     OW24127   2.468   0.005   9.410  0.1337  0.2301  0.1949
 4165SOL    HW124128   2.525   0.061   9.462 -1.0355  2.1243 -0.5426
 4165SOL    HW224129   2.384   0.050   9.417 -1.1719 -2.3694  1.1741
 4166SOL     OW24130   0.098   1.169   6.722  0.4948 -0.2080  0.4211
 4166SOL    HW124131   0.057   1.090   6.686  0.9558  0.0436 -0.6654
 4166SOL    HW224132   0.190   1.146   6.711  0.2174 -1.5902  0.9020
 4167SOL     OW24133   4.644   1.619   2.077 -0.3913  0.5703  0.0770
 4167SOL    HW124134   4.695   1.563   2.134 -1.3150 -1.9681 -1.5967
 4167SOL    HW224135   4.658   1.577   1.992  1.4063  2.6984 -0.6847
 4168SOL     OW24136   0.192   0.451  15.032 -0.0752  0.2501  0.4423
 4168SOL    HW124137   0.265   0.492  14.986  0.0272 -2.7842 -2.0924
 4168SOL    HW224138   0.126   0.520  15.030 -1.9288 -1.5385 -1.2560
 4169SOL     OW24139   0.689   0.622   2.149 -0.5490 -0.3214 -0.1102
 4169SOL    HW124140   0.642   0.580   2.077 -1.1123  2.8686 -1.5834
 4169SOL    HW224141   0.643   0.705   2.158  0.1681 -0.1191  1.7017
 4170SOL     OW24142   0.303   0.180   5.175 -0.2714  0.0547 -0.5082
 4170SOL    HW124143   0.244   0.206   5.103 -2.1982  1.1846  1.4843
 4170SOL    HW224144   0.332   0.094   5.145 -1.4560  0.1769 -2.0318
 4171SOL     OW24145   1.353   0.256   8.684  0.0431  0.3391  0.1608
 4171SOL    HW124146   1.338   0.339   8.729 -3.8972 -0.3206  0.0716
 4171SOL    HW224147   1.275   0.237   8.631 -1.5045  0.8216  2.2965
 4172SOL     OW24148   4.344   1.681  13.935  0.1392 -0.1431  0.0713
 4172SOL    HW124149   4.276   1.697  14.001  0.4472 -0.0658  0.3665
 4172SOL    HW224150   4.304   1.611  13.883 -0.0806  0.8046 -1.0390
 4173SOL     OW24151   4.603   0.967   9.141  0.5265 -0.8625  0.8973
 4173SOL    HW124152   4.666   1.031   9.171  0.0759 -0.3858  0.8293
 4173SOL    HW224153   4.526   1.011   9.177  0.6050 -0.4181  0.5214
 4174SOL     OW24154   2.359   4.255   5.848 -0.1637 -0.2303 -0.3783
 4174SOL    HW124155   2.318   4.188   5.903  0.0760  0.2522  0.3745
 4174SOL    HW224156   2.321   4.334   5.885  1.5780 -0.3617  1.6730
 4175SOL     OW24157   2.686   3.320   8.142 -0.0712 -0.6374 -0.3194
 4175SOL    HW124158   2.731   3.267   8.077  2.8211 -1.4601  2.3305
 4175SOL    HW224159   2.752   3.314   8.212  1.4130  2.0659 -1.4960
 4176SOL     OW24160   2.364   3.657   1.082 -0.7595  0.0465  0.1482
 4176SOL    HW124161   2.415   3.721   1.032 -1.4038  1.4938  1.3723
 4176SOL    HW224162   2.330   3.593   1.018 -0.6329 -0.4928  0.6217
 4177SOL     OW24163   3.589   3.719   8.051  0.1489 -0.3603 -0.5144
 4177SOL    HW124164   3.672   3.738   8.008  0.3267  1.4131  0.6366
 4177SOL    HW224165   3.533   3.792   8.026  0.4806  0.0874  0.0711
 4178SOL     OW24166   1.389   2.533   0.963 -0.5497  0.6054 -0.3737
 4178SOL    HW124167   1.297   2.547   0.942 -0.6131 -1.3887 -1.4224
 4178SOL    HW224168   1.393   2.468   1.034 -0.6352  0.2844 -0.6619
 4179SOL     OW24169   2.473   2.716   8.589  0.6600  0.1543 -0.6168
 4179SOL    HW124170   2.526   2.795   8.579  0.8770  0.2207  1.0237
 4179SOL    HW224171   2.540   2.657   8.622  0.0945 -0.1327  0.0295
 4180SOL     OW24172   3.122   1.048   2.922 -0.2702  0.1693 -0.5200
 4180SOL    HW124173   3.107   1.060   2.829 -1.1302 -1.8235 -0.6329
 4180SOL    HW224174   3.032   1.047   2.955 -0.3147 -0.0009 -0.6475
 4181SOL     OW24175   2.257   4.521   5.912  0.2368 -0.3491  0.0842
 4181SOL    HW124176   2.182   4.529   5.971  0.2017  1.9103 -0.2428
 4181SOL    HW224177   2.240   4.593   5.850 -1.3463 -0.5429  0.2945
 4182SOL     OW24178   2.752   4.103   1.504  0.3843  0.7917  0.3640
 4182SOL    HW124179   2.770   4.089   1.597 -2.5696 -0.2165  0.7696
 4182SOL    HW224180   2.658   4.087   1.514  0.1099  2.2405 -0.0055
 4183SOL     OW24181   1.327   2.385   5.933  0.0307  0.0403 -0.1089
 4183SOL    HW124182   1.240   2.413   5.961  0.1606 -0.7624  1.1064
 4183SOL    HW224183   1.339   2.418   5.844 -1.2292  1.5703  0.2939
 4184SOL     OW24184   3.839   2.619   5.428 -0.0068 -0.4279  0.5281
 4184SOL    HW124185   3.768   2.561   5.457 -0.1549 -0.0716  0.8748
 4184SOL    HW224186   3.832   2.691   5.490  0.9256 -0.2292  0.3927
 4185SOL     OW24187   3.844   0.190   6.832 -0.2678 -0.3044 -0.1124
 4185SOL    HW124188   3.856   0.102   6.869  3.3110  0.7965  1.2808
 4185SOL    HW224189   3.853   0.240   6.913  2.4273  1.0959 -1.2767
 4186SOL     OW24190   0.610   2.668   3.660 -0.5176 -0.3706 -0.1835
 4186SOL    HW124191   0.524   2.628   3.646 -0.1712 -1.3481  0.5219
 4186SOL    HW224192   0.605   2.670   3.756  1.3366  3.7265 -0.1548
 4187SOL     OW24193   1.058   4.272  15.274 -0.2654  0.1090 -0.5144
 4187SOL    HW124194   1.020   4.318  15.200  0.4532 -0.0187 -0.9686
 4187SOL    HW224195   1.138   4.238  15.233 -1.1740 -2.4354 -0.1879
 4188SOL     OW24196   1.850   2.726   5.749 -0.2625 -0.5545 -0.0398
 4188SOL    HW124197   1.903   2.804   5.729  2.0520 -2.2525 -0.5401
 4188SOL    HW224198   1.850   2.721   5.845  0.2596  2.0752  0.0959
 4189SOL     OW24199   2.863   3.772   2.460 -0.3329 -0.4297 -0.3261
 4189SOL    HW124200   2.786   3.717   2.447 -0.9352  0.0830  1.0617
 4189SOL    HW224201   2.935   3.714   2.436 -0.7780 -0.1874 -2.2871
 4190SOL     OW24202   4.532   2.561   3.509  0.5983  0.6070  0.3184
 4190SOL    HW124203   4.443   2.550   3.474  0.9891  2.2693 -1.2423
 4190SOL    HW224204   4.586   2.582   3.432 -1.7825  1.6190 -1.0795
 4191SOL     OW24205   3.526   1.166   8.062 -0.6108  0.2514  0.0766
 4191SOL    HW124206   3.507   1.109   7.988  0.7839 -1.3334  0.9379
 4191SOL    HW224207   3.540   1.098   8.128 -0.6777 -0.1757 -0.3437
 4192SOL     OW24208   3.668   3.222  15.909  0.3883 -0.1323  0.5548
 4192SOL    HW124209   3.593   3.174  15.944 -0.9744  0.3493 -1.7038
 4192SOL    HW224210   3.678   3.189  15.820 -0.0767 -0.1250  0.5016
 4193SOL     OW24211   3.722   2.209  13.534  0.2470 -0.6407  0.1490
 4193SOL    HW124212   3.799   2.175  13.580  0.4305  0.3761  0.6040
 4193SOL    HW224213   3.652   2.157  13.575 -1.6626 -0.0409 -2.3638
 4194SOL     OW24214   3.133   2.473   6.700  0.2216  0.3795  0.3926
 4194SOL    HW124215   3.207   2.455   6.643  0.5248 -0.3756  1.0258
 4194SOL    HW224216   3.066   2.524   6.653  0.6251  0.0706 -0.5130
 4195SOL     OW24217   2.896   2.183  16.157  0.4323 -0.4000  0.4354
 4195SOL    HW124218   2.801   2.178  16.150  0.2031  0.3377  3.2053
 4195SOL    HW224219   2.922   2.205  16.067 -0.7863  0.6685  0.3390
 4196SOL     OW24220   1.681   0.917  15.717  0.6863 -0.1937 -0.0161
 4196SOL    HW124221   1.631   0.981  15.768  0.0252 -1.0316  0.3835
 4196SOL    HW224222   1.633   0.837  15.737  0.4835 -0.1997 -0.5326
 4197SOL     OW24223   3.823   4.227   5.156 -0.4466 -0.1572 -0.1037
 4197SOL    HW124224   3.744   4.175   5.143 -1.7073  1.9247 -0.6690
 4197SOL    HW224225   3.885   4.156   5.137 -0.3642 -0.1474  0.1255
 4198SOL     OW24226   2.161   2.222   7.397  0.0264  0.6197 -0.1930
 4198SOL    HW124227   2.214   2.301   7.384  0.4776  0.2776 -0.4383
 4198SOL    HW224228   2.070   2.240   7.375 -0.0821  0.2296 -0.0547
 4199SOL     OW24229   4.255   2.506   3.486  0.6501  0.0038  0.7346
 4199SOL    HW124230   4.189   2.502   3.417  0.5899  1.6251  0.6787
 4199SOL    HW224231   4.225   2.577   3.543  3.0805  1.6654 -0.0372
 4200SOL     OW24232   4.540   0.514   7.779  0.2584  0.1244 -0.4254
 4200SOL    HW124233   4.538   0.441   7.718  1.9248 -0.6727  0.4664
 4200SOL    HW224234   4.622   0.498   7.826 -0.2286 -0.6099  0.1615
 4201SOL     OW24235   1.565   2.479  15.810  0.7422 -0.3341 -0.0616
 4201SOL    HW124236   1.539   2.571  15.811  0.8700 -0.3085  1.2844
 4201SOL    HW224237   1.659   2.484  15.824  0.4789  1.5306  1.0929
 4202SOL     OW24238   3.347   2.983   8.572  0.1181 -0.1157 -0.2172
 4202SOL    HW124239   3.411   3.004   8.504 -0.1209 -0.2887 -0.4959
 4202SOL    HW224240   3.267   2.961   8.524 -1.1512  1.9987  0.9540
 4203SOL     OW24241   0.941   0.667   7.771  0.4109 -0.0882 -0.3873
 4203SOL    HW124242   0.946   0.725   7.694 -0.3099  0.4107 -0.0538
 4203SOL    HW224243   0.934   0.724   7.847  0.3354  1.3418 -1.4607
 4204SOL     OW24244   1.546   1.993   5.857 -0.1507  0.4592  0.6136
 4204SOL    HW124245   1.566   2.049   5.782 -1.9429 -0.4792 -0.5602
 4204SOL    HW224246   1.576   1.911   5.818  4.3186  2.6307 -0.5952
 4205SOL     OW24247   1.313   1.504   7.453  0.7517 -0.3084 -0.4019
 4205SOL    HW124248   1.229   1.459   7.442  1.2034 -0.9637 -1.2333
 4205SOL    HW224249   1.280   1.592   7.470  0.6283 -0.2559 -0.9108
 4206SOL     OW24250   0.670   3.229   5.393  0.2020  0.1635 -0.2969
 4206SOL    HW124251   0.605   3.172   5.434 -0.4969 -1.2943 -3.4544
 4206SOL    HW224252   0.744   3.170   5.376 -0.8268 -0.8329 -1.2625
 4207SOL     OW24253   2.650   3.473   3.227  0.1940  0.1630  0.0267
 4207SOL    HW124254   2.704   3.552   3.225  1.4734 -0.6919  0.1840
 4207SOL    HW224255   2.638   3.464   3.133 -1.3140 -0.0674  0.2493
 4208SOL     OW24256   0.291   0.980  11.925 -0.2458  0.0443 -0.2963
 4208SOL    HW124257   0.328   0.955  12.010  2.9307 -0.4398 -1.8279
 4208SOL    HW224258   0.339   1.059  11.900  1.1786 -0.8349 -0.3796
 4209SOL     OW24259   2.417   3.374   6.995 -0.7214  0.1026  0.6751
 4209SOL    HW124260   2.358   3.442   7.027 -1.7570 -0.0139 -1.0004
 4209SOL    HW224261   2.477   3.416   6.934 -1.0060  0.3266  0.5458
 4210SOL     OW24262   3.047   0.536  11.720 -0.4256 -0.6444  0.3083
 4210SOL    HW124263   3.028   0.604  11.785 -2.5159 -1.1018  0.1960
 4210SOL    HW224264   3.076   0.595  11.650 -2.6813 -1.3332 -1.2388
 4211SOL     OW24265   0.918   3.720  10.654  0.4548  0.6132 -0.1288
 4211SOL    HW124266   0.903   3.680  10.740 -1.1270  0.2694 -0.5603
 4211SOL    HW224267   0.843   3.680  10.610 -0.1894  0.9571  0.6480
 4212SOL     OW24268   0.766   0.123   6.890  0.0916  0.2730  0.0900
 4212SOL    HW124269   0.727   0.210   6.881  0.0323  0.0906 -1.4411
 4212SOL    HW224270   0.837   0.141   6.952  0.1521 -1.4648  0.5337
 4213SOL     OW24271   2.262   0.563   2.451  0.5864 -0.2284 -0.1014
 4213SOL    HW124272   2.175   0.603   2.452  0.0097 -1.4680 -2.0282
 4213SOL    HW224273   2.290   0.573   2.360 -2.4245  0.5460 -0.9447
 4214SOL     OW24274   3.375   0.870   2.475 -0.0820 -0.3240  0.1721
 4214SOL    HW124275   3.286   0.904   2.466  0.1125 -0.2434 -1.4251
 4214SOL    HW224276   3.429   0.941   2.508  1.4640 -0.3866 -2.2161
 4215SOL     OW24277   0.912   0.018  12.078 -0.2564  0.4810  0.4321
 4215SOL    HW124278   0.902   0.042  12.170 -1.5249 -1.8085  0.8919
 4215SOL    HW224279   0.926   4.658  12.088 -0.8030  0.0789 -2.8639
 4216SOL     OW24280   4.300   1.376   5.147  0.6194 -0.0318 -0.4924
 4216SOL    HW124281   4.239   1.445   5.174  0.7846 -0.9035  2.0917
 4216SOL    HW224282   4.337   1.423   5.071  1.4371  0.3128  0.1137
 4217SOL     OW24283   4.601   3.033  15.978  0.2936  0.3314  0.1292
 4217SOL    HW124284   4.584   3.049  16.070  0.3789  0.0009  0.2025
 4217SOL    HW224285   4.663   3.103  15.958  1.8248 -0.5545  1.8818
 4218SOL     OW24286   1.116   1.287  13.514  0.4181  0.1340 -0.6075
 4218SOL    HW124287   1.193   1.232  13.498  0.3555 -0.6492  1.7931
 4218SOL    HW224288   1.153   1.374  13.506  0.6280 -0.1220 -2.3979
 4219SOL     OW24289   0.240   1.448   6.121  0.0401 -0.0736 -0.6134
 4219SOL    HW124290   0.301   1.374   6.115  1.1122  0.7324  0.3784
 4219SOL    HW224291   0.299   1.522   6.108  0.9020 -0.6735 -0.1207
 4220SOL     OW24292   4.574   3.473   3.685 -0.1975  0.0290  0.5642
 4220SOL    HW124293   4.519   3.508   3.615 -0.7071 -0.6866  0.6021
 4220SOL    HW224294   4.654   3.520   3.661 -0.7912  1.0867  0.6608
 4221SOL     OW24295   3.320   3.722   7.360 -0.0911 -0.8719  0.3008
 4221SOL    HW124296   3.303   3.757   7.448 -0.7165  3.1990 -1.4161
 4221SOL    HW224297   3.377   3.792   7.326 -1.6264  0.2998  0.1334
 4222SOL     OW24298   2.314   4.062   9.562 -0.4486  0.8606 -0.3802
 4222SOL    HW124299   2.318   4.124   9.635 -0.5515  0.0691  0.2958
 4222SOL    HW224300   2.405   4.032   9.568 -1.8409 -3.6770 -2.1270
 4223SOL     OW24301   2.790   0.883  15.685 -0.1397 -0.0197 -0.0005
 4223SOL    HW124302   2.723   0.934  15.639 -2.2126 -2.2844  0.5095
 4223SOL    HW224303   2.822   0.824  15.617  3.4542  1.3188  0.5191
 4224SOL     OW24304   1.384   1.095  10.377 -0.1817  0.2106 -0.1573
 4224SOL    HW124305   1.371   1.143  10.458 -2.1899  0.0139 -0.3685
 4224SOL    HW224306   1.305   1.042  10.378 -0.6860  0.9702 -0.1594
 4225SOL     OW24307   0.775   4.479   4.107 -0.5217  0.3476  0.1178
 4225SOL    HW124308   0.757   4.572   4.119  2.1318  0.8465  0.3046
 4225SOL    HW224309   0.864   4.473   4.072 -0.7785 -1.5846 -0.2010
 4226SOL     OW24310   1.564   4.443  15.919  0.2524 -0.3210 -0.1124
 4226SOL    HW124311   1.640   4.395  15.952  0.0718 -0.0617  0.6682
 4226SOL    HW224312   1.608   4.474  15.840 -1.4108  0.6682 -0.6400
 4227SOL     OW24313   2.045   1.515   7.137 -0.1399 -0.6037 -0.0738
 4227SOL    HW124314   2.019   1.580   7.071  0.2659 -0.9155 -0.5440
 4227SOL    HW224315   2.140   1.529   7.136 -0.4976  1.7745 -0.5337
 4228SOL     OW24316   2.904   1.339   0.608  0.6631  0.1738 -0.3570
 4228SOL    HW124317   2.878   1.432   0.608  2.3130  0.6347 -1.2886
 4228SOL    HW224318   2.889   1.317   0.700 -1.4688 -0.3095 -0.8218
 4229SOL     OW24319   3.075   1.592   7.899 -0.1623 -0.0737  0.2695
 4229SOL    HW124320   3.088   1.686   7.884 -0.3899  0.3115  2.5048
 4229SOL    HW224321   3.009   1.593   7.968 -2.6221 -0.7944 -2.0574
 4230SOL     OW24322   4.366   4.674   3.205 -0.7183 -0.3239 -0.2749
 4230SOL    HW124323   4.350   0.031   3.181  0.2054 -0.5865 -1.8454
 4230SOL    HW224324   4.460   4.686   3.191 -0.7219  1.5041  1.2682
 4231SOL     OW24325   0.120   3.379   7.765  0.0383 -0.6417 -0.1983
 4231SOL    HW124326   0.025   3.378   7.773 -0.1179 -0.6257 -2.1447
 4231SOL    HW224327   0.127   3.348   7.675  0.7089  0.4150 -0.5083
 4232SOL     OW24328   1.764   4.068   4.153  0.0865 -0.1854  0.5067
 4232SOL    HW124329   1.780   4.065   4.059 -1.1375  2.1469  0.2202
 4232SOL    HW224330   1.821   3.996   4.180  1.2259  1.0184  1.2886
 4233SOL     OW24331   1.095   3.012   6.682  0.6640  0.0194 -0.4744
 4233SOL    HW124332   1.099   2.994   6.589  1.7177 -1.1461 -0.2077
 4233SOL    HW224333   1.071   2.926   6.716 -1.0592  0.1698 -1.3501
 4234SOL     OW24334   1.850   1.871   4.872 -0.8770 -0.6488  0.1966
 4234SOL    HW124335   1.909   1.813   4.920 -1.4833 -0.5394  1.0675
 4234SOL    HW224336   1.782   1.866   4.939  0.3506 -1.2058  1.3998
 4235SOL     OW24337   1.915   1.900  12.899  0.2087 -0.6505  0.4967
 4235SOL    HW124338   1.923   1.844  12.976  1.0105  1.5916  2.0449
 4235SOL    HW224339   1.883   1.975  12.949  3.0260 -0.0056  1.3212
 4236SOL     OW24340   4.692   3.007   7.022  0.1208  0.4736  0.1520
 4236SOL    HW124341   4.679   3.096   7.056 -1.9369 -0.2739  1.3531
 4236SOL    HW224342   4.706   2.958   7.103  0.2290  0.3830  0.0770
 4237SOL     OW24343   4.660   1.732   3.482 -0.2076  0.0528  0.2073
 4237SOL    HW124344   4.623   1.812   3.446 -1.6600 -1.6341 -1.9841
 4237SOL    HW224345   4.715   1.753   3.558 -0.6353 -1.1895  0.8655
 4238SOL     OW24346   2.837   2.574   6.607  0.5538 -0.1903  0.5660
 4238SOL    HW124347   2.785   2.648   6.639 -0.1026 -0.0545 -0.8478
 4238SOL    HW224348   2.883   2.612   6.533 -1.5263  0.5661 -0.3223
 4239SOL     OW24349   2.535   2.382   2.161  0.8208 -0.2339 -0.3954
 4239SOL    HW124350   2.547   2.316   2.092 -0.1866  1.4112 -2.1556
 4239SOL    HW224351   2.553   2.328   2.238  2.7970  2.1101  0.7892
 4240SOL     OW24352   4.337   3.304   2.797  0.2221  0.0007 -0.6722
 4240SOL    HW124353   4.410   3.310   2.859  0.2143  0.0013 -0.6632
 4240SOL    HW224354   4.257   3.287   2.846  0.5357  0.8581  0.1457
 4241SOL     OW24355   0.087   0.009   5.384  0.3443  0.2343 -0.6070
 4241SOL    HW124356   0.136   4.711   5.308  1.4635 -1.3404  0.7805
 4241SOL    HW224357   0.002   0.036   5.350  1.2292 -0.0319 -3.0122
 4242SOL     OW24358   3.068   1.051  14.289  0.7962  0.9919  0.5446
 4242SOL    HW124359   3.137   0.989  14.314 -0.5085  0.5066  2.9238
 4242SOL    HW224360   3.101   1.091  14.209  1.1600  0.0076  0.1997
 4243SOL     OW24361   3.744   1.989   9.140  0.4599 -0.0311 -0.5449
 4243SOL    HW124362   3.741   2.049   9.065 -1.7964 -0.2138 -0.6145
 4243SOL    HW224363   3.653   1.995   9.168  0.3923 -0.3949 -0.6869
 4244SOL     OW24364   2.330   0.258   8.338 -0.3626 -0.2598  0.4081
 4244SOL    HW124365   2.273   0.301   8.400  0.1751  0.0415  0.6936
 4244SOL    HW224366   2.421   0.274   8.365 -0.8608  1.1026  1.2104
 4245SOL     OW24367   1.558   1.494  16.596  0.5413 -0.1159  0.2139
 4245SOL    HW124368   1.522   1.441  16.667 -0.8117 -0.9625 -1.1322
 4245SOL    HW224369   1.513   1.579  16.601 -0.0825 -0.4329 -0.1161
 4246SOL     OW24370   1.583   2.519   3.402  0.0814 -0.3645 -0.0810
 4246SOL    HW124371   1.583   2.429   3.433  1.1200 -0.3826 -0.1209
 4246SOL    HW224372   1.524   2.557   3.467  2.4384  1.3824  1.0222
 4247SOL     OW24373   1.389   3.269   0.519  0.4941  0.4343 -0.8059
 4247SOL    HW124374   1.433   3.201   0.570 -0.9181 -0.3254 -0.5909
 4247SOL    HW224375   1.382   3.223   0.435 -1.2096 -0.4589 -0.1815
 4248SOL     OW24376   2.902   4.091   8.226  0.7131 -0.4616  0.2612
 4248SOL    HW124377   2.920   4.000   8.251  0.0952 -0.8829 -0.8202
 4248SOL    HW224378   2.882   4.134   8.309  0.7840  0.0673  0.0013
 4249SOL     OW24379   1.468   2.033  12.984 -0.6257  0.0959  0.3070
 4249SOL    HW124380   1.428   2.120  12.986  1.7991  1.1862  0.9021
 4249SOL    HW224381   1.465   2.028  12.889 -2.7507  3.2815  0.1911
 4250SOL     OW24382   3.042   0.783   3.850  0.2068 -0.6517  0.5642
 4250SOL    HW124383   3.101   0.721   3.807  1.2592  1.7102 -1.3407
 4250SOL    HW224384   3.099   0.826   3.914  0.5621 -0.9127  0.4182
 4251SOL     OW24385   1.358   3.264   8.010  0.9628  0.4170  0.5610
 4251SOL    HW124386   1.412   3.258   8.089 -0.2230  0.2998  1.3639
 4251SOL    HW224387   1.377   3.175   7.981 -3.3257 -0.1019 -0.6826
 4252SOL     OW24388   2.592   4.494   8.433 -0.5391  0.0929  0.4898
 4252SOL    HW124389   2.515   4.550   8.443 -0.2628  0.6219 -0.3841
 4252SOL    HW224390   2.645   4.527   8.506  0.3686 -2.3160  0.9198
 4253SOL     OW24391   1.695   4.227   7.131 -0.3253 -0.1040  0.5246
 4253SOL    HW124392   1.701   4.140   7.091  0.8345 -0.7969  2.1850
 4253SOL    HW224393   1.629   4.262   7.071  0.1729  2.3413  1.3785
 4254SOL     OW24394   3.880   0.536  10.377 -0.1154 -0.2412  0.7236
 4254SOL    HW124395   3.838   0.506  10.296  1.9794 -0.8629 -0.1438
 4254SOL    HW224396   3.975   0.531  10.367  0.1854  2.7633  2.1125
 4255SOL     OW24397   2.512   4.194   7.960  0.1246  0.7162  0.1652
 4255SOL    HW124398   2.421   4.215   7.941 -0.5113 -0.7585  1.5466
 4255SOL    HW224399   2.550   4.279   7.937  0.4460  0.4608 -0.2263
 4256SOL     OW24400   0.637   4.365   4.831  0.1843  0.2935  0.0598
 4256SOL    HW124401   0.630   4.397   4.921 -2.9955 -0.3238  0.0010
 4256SOL    HW224402   0.547   4.340   4.815  0.6153  0.9821 -3.6427
 4257SOL     OW24403   1.507   2.606   8.353  0.0156  0.6553  0.6069
 4257SOL    HW124404   1.451   2.530   8.370  0.9035 -0.5292 -1.7191
 4257SOL    HW224405   1.500   2.617   8.258  2.0088  2.1443  0.6389
 4258SOL     OW24406   4.003   0.892   0.136 -0.0945  0.1559  0.7991
 4258SOL    HW124407   4.069   0.871   0.070 -0.4833  0.7253  0.2265
 4258SOL    HW224408   4.057   0.935   0.202  0.8276  2.4311 -1.4443
 4259SOL     OW24409   1.165   3.069   6.400  0.4202 -0.0219 -0.4428
 4259SOL    HW124410   1.150   3.035   6.311  0.1037  1.4779 -0.9582
 4259SOL    HW224411   1.229   3.137   6.379 -0.1681  0.8515  0.6093
 4260SOL     OW24412   0.105   3.197   5.865 -0.1519 -0.0282  0.4877
 4260SOL    HW124413   0.087   3.256   5.938 -0.7370  0.3965 -0.0024
 4260SOL    HW224414   0.036   3.131   5.880 -0.1804  0.1402  1.1125
 4261SOL     OW24415   0.665   0.196  13.705  0.0093  0.1182  0.8949
 4261SOL    HW124416   0.572   0.212  13.718  0.1613  1.7347  0.0472
 4261SOL    HW224417   0.661   0.102  13.686 -0.1814  0.1552  0.7519
 4262SOL     OW24418   2.169   2.173   6.678 -0.0557 -0.2190  0.2260
 4262SOL    HW124419   2.099   2.233   6.650  1.0259 -0.0778 -2.1238
 4262SOL    HW224420   2.127   2.099   6.633 -0.9667  0.5445 -0.1841
 4263SOL     OW24421   1.332   1.886   3.565  0.8854  0.1734  0.1004
 4263SOL    HW124422   1.425   1.905   3.573  1.2061 -1.1851 -0.5140
 4263SOL    HW224423   1.312   1.859   3.476  1.8152 -0.4805  0.0965
 4264SOL     OW24424   4.507   1.517   8.421  0.4413  0.5846 -0.2472
 4264SOL    HW124425   4.516   1.495   8.329 -1.9345 -2.2354  0.1884
 4264SOL    HW224426   4.485   1.610   8.421  1.1376  0.7571  1.0173
 4265SOL     OW24427   0.346   3.750   3.598 -0.0543 -0.0328  0.4997
 4265SOL    HW124428   0.357   3.672   3.544 -1.1796  0.0668  0.1287
 4265SOL    HW224429   0.353   3.715   3.687 -3.5523 -0.2477  0.7166
 4266SOL     OW24430   1.353   2.411   4.076 -0.8341 -0.2022 -0.1085
 4266SOL    HW124431   1.260   2.430   4.061 -0.2170  3.0950  0.2220
 4266SOL    HW224432   1.371   2.356   4.000 -1.4031 -0.4814 -0.0402
 4267SOL     OW24433   4.411   0.195   2.224 -0.3140 -0.6601 -0.2754
 4267SOL    HW124434   4.461   0.267   2.263 -1.3211 -1.7618  3.0922
 4267SOL    HW224435   4.325   0.236   2.239  0.5920  1.0464  0.2948
 4268SOL     OW24436   2.372   1.860  17.639 -0.2448 -0.4336 -0.2199
 4268SOL    HW124437   2.312   1.828  17.706 -1.7738 -0.2468 -1.4886
 4268SOL    HW224438   2.444   1.891  17.694 -0.7282 -0.1359  0.2368
 4269SOL     OW24439   3.515   1.413   3.545 -0.4246  0.3938  0.1807
 4269SOL    HW124440   3.568   1.414   3.466 -2.6774  2.3500 -1.2999
 4269SOL    HW224441   3.496   1.320   3.556  1.9036 -0.0767  0.2042
 4270SOL     OW24442   3.016   4.557   8.028  0.4331 -0.7892 -0.0372
 4270SOL    HW124443   2.939   4.533   7.976  0.6924 -0.6259 -0.4982
 4270SOL    HW224444   3.027   4.485   8.090 -0.0005  0.6877  1.7775
 4271SOL     OW24445   0.697   4.357  13.981  0.0164  0.0193 -0.0269
 4271SOL    HW124446   0.725   4.352  14.073  0.0200 -1.1833 -0.0930
 4271SOL    HW224447   0.614   4.314  13.996 -0.6676  1.4286  0.2538
 4272SOL     OW24448   1.909   1.646   5.265  0.1142 -0.0147  0.1770
 4272SOL    HW124449   1.959   1.646   5.346 -0.2284 -1.1513  0.3864
 4272SOL    HW224450   1.827   1.688   5.293 -0.7136 -1.6009  0.1526
 4273SOL     OW24451   0.712   1.913  17.279  0.1289 -0.2414 -0.3093
 4273SOL    HW124452   0.626   1.919  17.322 -1.3208  3.2530 -3.6194
 4273SOL    HW224453   0.720   1.819  17.268  1.3821 -0.2716  0.8412
 4274SOL     OW24454   1.108   3.268   4.400  0.9017 -0.1646 -0.6133
 4274SOL    HW124455   1.059   3.325   4.339  0.4137 -1.5546 -1.5126
 4274SOL    HW224456   1.113   3.189   4.347 -0.6537 -0.5088 -0.2507
 4275SOL     OW24457   4.068   3.962   6.717 -0.3240  0.1937 -0.3602
 4275SOL    HW124458   4.106   4.050   6.720  1.1426 -0.5646  2.7657
 4275SOL    HW224459   3.992   3.979   6.661 -2.0934  2.8557  2.8459
 4276SOL     OW24460   1.277   4.527  10.423  0.2608  0.4572  0.1229
 4276SOL    HW124461   1.196   4.480  10.403 -0.1528 -0.1769  3.3042
 4276SOL    HW224462   1.272   4.521  10.518 -0.8796  0.7195  0.0881
 4277SOL     OW24463   3.645   4.650   0.771  0.1931  0.0771 -0.0369
 4277SOL    HW124464   3.698   4.674   0.847 -0.6990 -2.0833  1.2759
 4277SOL    HW224465   3.668   4.559   0.757 -0.2508  0.2608 -2.0147
 4278SOL     OW24466   1.746   2.427   3.928  0.7593 -0.0015 -0.4065
 4278SOL    HW124467   1.678   2.445   3.994 -0.3252 -1.4653 -1.1244
 4278SOL    HW224468   1.793   2.355   3.970 -1.0779 -1.7395 -1.2985
 4279SOL     OW24469   3.174   3.982   2.994 -0.0456  0.0011  0.2347
 4279SOL    HW124470   3.230   3.982   2.917 -0.1358  2.0631  0.1688
 4279SOL    HW224471   3.139   4.071   2.997  0.7071  0.3435 -1.5712
 4280SOL     OW24472   3.357   3.879  12.402 -0.5361 -0.3142 -0.2452
 4280SOL    HW124473   3.362   3.840  12.314  0.4957  0.7481 -0.6689
 4280SOL    HW224474   3.263   3.894  12.410 -0.8056 -0.6034 -2.8662
 4281SOL     OW24475   0.005   4.681  14.008  0.3655  0.2036  0.4896
 4281SOL    HW124476   4.646   4.688  13.988  0.4212  0.7481  0.4003
 4281SOL    HW224477   0.041   4.655  13.923  0.4345  0.8975  0.3011
 4282SOL     OW24478   0.475   3.669   7.753  0.1650  0.0120 -0.9433
 4282SOL    HW124479   0.437   3.638   7.670 -1.3792 -0.2191 -0.1478
 4282SOL    HW224480   0.567   3.644   7.754  0.7283  2.1841  0.3834
 4283SOL     OW24481   0.897   0.821   8.924 -0.2644 -0.5808  0.0793
 4283SOL    HW124482   0.874   0.884   8.991  0.2802  0.2557 -0.5253
 4283SOL    HW224483   0.865   0.738   8.959 -1.4496 -0.9649 -1.8621
 4284SOL     OW24484   3.884   2.061   4.901  0.4149  0.4271 -0.5803
 4284SOL    HW124485   3.884   2.107   4.817 -0.5790  1.4570 -0.0065
 4284SOL    HW224486   3.979   2.046   4.902  0.5091  1.2696  2.6185
 4285SOL     OW24487   1.700   3.962   8.755  0.0191  0.1407 -0.4236
 4285SOL    HW124488   1.641   3.970   8.829  1.2742  0.2766  0.5677
 4285SOL    HW224489   1.763   4.030   8.780  0.3673  0.0766 -1.1110
 4286SOL     OW24490   1.208   2.747   9.163 -0.1507  0.0691  0.1214
 4286SOL    HW124491   1.158   2.666   9.156  0.9870 -0.5578 -0.6996
 4286SOL    HW224492   1.288   2.724   9.210 -0.3700 -0.2109  0.3647
 4287SOL     OW24493   2.900   4.117   5.182  0.0655 -0.1210 -0.2126
 4287SOL    HW124494   2.843   4.121   5.259  1.1054 -2.2279  0.6658
 4287SOL    HW224495   2.882   4.206   5.152 -0.0206 -0.4185 -1.0504
 4288SOL     OW24496   2.824   1.922   5.890  0.0391 -0.4386 -0.6532
 4288SOL    HW124497   2.840   1.828   5.883  1.1551 -0.1022 -2.7567
 4288SOL    HW224498   2.743   1.925   5.941  0.6759 -0.1103  0.3479
 4289SOL     OW24499   2.246   0.842   3.123  0.0760 -0.5333 -0.8295
 4289SOL    HW124500   2.312   0.820   3.188  0.8735  1.3344 -1.0170
 4289SOL    HW224501   2.280   0.811   3.039 -0.2572  0.0026 -1.1630
 4290SOL     OW24502   1.647   2.028  11.724  0.0188  0.1238 -0.5510
 4290SOL    HW124503   1.571   1.971  11.711  0.6311 -0.4877 -1.4342
 4290SOL    HW224504   1.618   2.118  11.708 -3.8160 -0.6231  2.3444
 4291SOL     OW24505   0.954   0.059  11.164  0.0108  0.2246  0.5483
 4291SOL    HW124506   0.888   0.120  11.197  0.1605  0.7648 -0.1621
 4291SOL    HW224507   0.927   4.713  11.208  1.3537 -1.2477 -1.3221
 4292SOL     OW24508   3.088   2.237   2.517 -0.0504  0.1236  0.0907
 4292SOL    HW124509   3.052   2.174   2.455  2.1162 -1.9012  0.8915
 4292SOL    HW224510   3.035   2.217   2.594  0.5960 -2.1462 -0.0555
 4293SOL     OW24511   0.375   4.256   3.301 -0.0068  0.6115 -0.3429
 4293SOL    HW124512   0.391   4.213   3.217 -1.4932 -0.2331 -0.1964
 4293SOL    HW224513   0.319   4.328   3.275 -1.3369  0.2405  1.5529
 4294SOL     OW24514   0.889   1.634  14.793  0.5574  0.3264 -0.0900
 4294SOL    HW124515   0.834   1.699  14.749  1.8947  0.0569 -2.1635
 4294SOL    HW224516   0.907   1.568  14.727  0.9445  1.3852 -1.0478
 4295SOL     OW24517   3.975   0.547   4.450 -0.2321 -0.0278  0.0503
 4295SOL    HW124518   3.911   0.506   4.391 -0.4870  0.3257  0.0845
 4295SOL    HW224519   3.915   0.593   4.508  1.2351  0.9777  0.7570
 4296SOL     OW24520   3.844   2.293   4.722 -0.5655 -0.3190  0.3871
 4296SOL    HW124521   3.922   2.326   4.678 -0.4795  0.3886  1.0583
 4296SOL    HW224522   3.845   2.359   4.791 -0.0526  0.0889 -0.0135
 4297SOL     OW24523   0.150   0.482  12.514 -0.1520 -0.6379 -0.4038
 4297SOL    HW124524   0.175   0.558  12.462 -0.0890 -0.2797  0.1602
 4297SOL    HW224525   0.192   0.505  12.597  2.3313 -2.2021 -1.2339
 4298SOL     OW24526   1.192   3.919   9.337  0.3814 -0.3430  0.3223
 4298SOL    HW124527   1.223   3.852   9.276  0.5787 -0.4633  0.5508
 4298SOL    HW224528   1.154   3.979   9.273 -0.6978  1.5355  2.6985
 4299SOL     OW24529   0.302   0.995   3.678 -0.1511  0.0830 -0.3190
 4299SOL    HW124530   0.370   0.927   3.668 -1.2450 -1.0939  0.2888
 4299SOL    HW224531   0.264   0.974   3.763 -1.4257 -3.8325 -1.8114
 4300SOL     OW24532   3.282   1.312   9.692 -0.7970 -0.0142 -0.1178
 4300SOL    HW124533   3.218   1.312   9.762  1.4832 -2.0301  1.9573
 4300SOL    HW224534   3.260   1.383   9.631  1.1579 -0.0962 -0.9235
 4301SOL     OW24535   2.291   3.315   7.458 -0.1754 -0.2363  0.6521
 4301SOL    HW124536   2.348   3.391   7.464 -2.7101  1.5785  2.3126
 4301SOL    HW224537   2.254   3.293   7.544 -0.1108  2.2224  1.2989
 4302SOL     OW24538   4.096   4.363  13.306 -0.2795  0.4771  0.3159
 4302SOL    HW124539   4.086   4.441  13.362  1.2671  1.5638 -0.9358
 4302SOL    HW224540   4.094   4.300  13.378  0.6647 -1.7651 -1.6543
 4303SOL     OW24541   3.368   1.382   5.592 -0.1257 -0.1629  0.0300
 4303SOL    HW124542   3.291   1.329   5.569  0.7079 -0.6777 -1.5218
 4303SOL    HW224543   3.398   1.333   5.669 -0.8900 -0.4300  0.1625
 4304SOL     OW24544   1.807   0.326  15.918  0.2741 -0.0133  0.1455
 4304SOL    HW124545   1.827   0.300  16.008  1.4413  3.7802  0.9956
 4304SOL    HW224546   1.859   0.406  15.907  0.3548 -0.1476 -0.4235
 4305SOL     OW24547   3.993   2.326   4.111  0.1599 -0.2964  0.7884
 4305SOL    HW124548   3.913   2.305   4.063  0.3892  1.5671 -0.4113
 4305SOL    HW224549   4.045   2.378   4.050 -0.7123  2.2495  2.2283
 4306SOL     OW24550   1.529   0.265   4.604  0.6792 -0.9461  0.3475
 4306SOL    HW124551   1.521   0.237   4.513  1.1699 -0.6275  0.2074
 4306SOL    HW224552   1.446   0.309   4.624 -0.7298 -2.4032 -2.2935
 4307SOL     OW24553   1.671   2.507  13.717  0.0197  0.0071  0.4424
 4307SOL    HW124554   1.683   2.582  13.775  0.2618  0.9034 -0.7609
 4307SOL    HW224555   1.576   2.496  13.720 -0.0201  0.5169  0.9638
 4308SOL     OW24556   3.956   0.402   3.172 -0.5850 -0.1611  0.4842
 4308SOL    HW124557   4.004   0.472   3.216  0.5398 -2.5104  2.9953
 4308SOL    HW224558   3.931   0.348   3.247  0.1487  2.4535  2.6025
 4309SOL     OW24559   4.311   3.977  14.461 -0.6148  0.1411  0.0973
 4309SOL    HW124560   4.363   4.034  14.405  0.0797 -1.4598 -0.8850
 4309SOL    HW224561   4.224   3.980  14.420 -0.7506 -0.8506  0.3079
 4310SOL     OW24562   4.722   2.606   4.017  0.2662 -0.5280 -0.7516
 4310SOL    HW124563   0.031   2.646   3.942  0.8273 -0.0465 -0.1817
 4310SOL    HW224564   4.639   2.580   3.979 -0.1725  0.6978 -0.6447
 4311SOL     OW24565   2.079   1.239   8.622 -0.7245  0.0477  0.5467
 4311SOL    HW124566   2.130   1.231   8.541  0.5191  0.1377  1.3060
 4311SOL    HW224567   1.993   1.270   8.594  0.2619  2.5699  0.3052
 4312SOL     OW24568   0.579   1.043   9.083  0.5122 -0.4500  0.0192
 4312SOL    HW124569   0.545   0.954   9.091 -1.1007  0.2545  0.9368
 4312SOL    HW224570   0.526   1.073   9.156 -0.8788 -1.1289 -0.7005
 4313SOL     OW24571   0.495   1.306   8.969  0.6139  0.3792 -0.6029
 4313SOL    HW124572   0.529   1.218   8.985 -1.3684 -0.3197 -0.2310
 4313SOL    HW224573   0.555   1.365   9.014  0.5721  0.6783 -0.9325
 4314SOL     OW24574   4.269   0.040   6.817  0.5344 -0.0977  0.4620
 4314SOL    HW124575   4.243   0.124   6.779  1.2386 -1.4027 -2.9125
 4314SOL    HW224576   4.184   4.733   6.833  0.8114 -0.8706 -0.0773
 4315SOL     OW24577   1.537   2.073  12.358  0.4992 -0.0634 -0.2637
 4315SOL    HW124578   1.571   2.074  12.448 -2.2631 -0.4817  0.7984
 4315SOL    HW224579   1.476   2.147  12.359  2.1486  1.3462 -2.2273
 4316SOL     OW24580   4.111   0.062  10.351  0.0659 -0.4618  0.3565
 4316SOL    HW124581   4.103   0.138  10.293  1.4757 -0.1819  0.5317
 4316SOL    HW224582   4.156   0.002  10.291 -0.7707  0.5248 -1.2639
 4317SOL     OW24583   1.243   1.277   5.575  0.7401 -0.1776 -0.0869
 4317SOL    HW124584   1.203   1.355   5.536  2.1863  0.7433  0.2390
 4317SOL    HW224585   1.210   1.282   5.664 -1.2963 -0.7060 -0.8248
 4318SOL     OW24586   2.010   0.734   3.296  0.0345  0.3236  0.5658
 4318SOL    HW124587   2.070   0.792   3.249 -0.2431  0.9332  0.9685
 4318SOL    HW224588   1.988   0.671   3.227 -0.6203 -0.9538  1.9494
 4319SOL     OW24589   3.367   2.253   4.341 -0.3791 -0.2659 -0.5039
 4319SOL    HW124590   3.276   2.224   4.337 -0.4665 -0.0204 -0.3007
 4319SOL    HW224591   3.372   2.329   4.400  1.6755 -2.2307  1.8390
 4320SOL     OW24592   1.327   2.035   0.940 -0.2023  0.5528 -0.6207
 4320SOL    HW124593   1.364   2.070   1.021  0.5685 -0.3092 -0.5916
 4320SOL    HW224594   1.410   1.995   0.913 -0.6731 -1.7336  1.4200
 4321SOL     OW24595   0.146   2.160  17.624  0.1461  0.5932  0.6018
 4321SOL    HW124596   0.109   2.135  17.539  1.5470 -0.5962  0.3404
 4321SOL    HW224597   0.218   2.222  17.611 -1.2529  1.5049 -2.8827
 4322SOL     OW24598   0.881   1.838  16.817  0.1223 -0.3116  0.3249
 4322SOL    HW124599   0.803   1.893  16.824  0.4331 -0.1614  2.7466
 4322SOL    HW224600   0.917   1.872  16.735 -0.7016 -1.5115 -0.5379
 4323SOL     OW24601   3.294   2.211   7.086  0.2454  0.4784  0.0975
 4323SOL    HW124602   3.245   2.133   7.112  0.9352  0.0088  0.0035
 4323SOL    HW224603   3.306   2.203   6.991  2.4131 -3.2825  0.6427
 4324SOL     OW24604   2.909   2.432   7.566  0.0893  0.6158  0.2759
 4324SOL    HW124605   2.960   2.359   7.529 -1.4413  1.1119 -2.7853
 4324SOL    HW224606   2.827   2.402   7.605  0.0828 -1.6686 -1.5123
 4325SOL     OW24607   0.330   4.497   8.323  0.6900  0.6302  0.7328
 4325SOL    HW124608   0.373   4.442   8.258  2.4164  2.2757  0.5036
 4325SOL    HW224609   0.250   4.506   8.271  2.0169  0.0670 -1.3649
 4326SOL     OW24610   4.346   0.466   7.511  0.1364 -0.5716  0.2766
 4326SOL    HW124611   4.411   0.400   7.489 -1.5834 -2.1503 -0.0778
 4326SOL    HW224612   4.376   0.544   7.464  0.0735 -1.9851 -2.0599
 4327SOL     OW24613   3.114   4.363  15.695 -0.4041 -0.6709 -0.2002
 4327SOL    HW124614   3.098   4.283  15.745 -0.5289  0.6313  1.8209
 4327SOL    HW224615   3.199   4.388  15.731 -0.1540 -0.3984 -0.9792
 4328SOL     OW24616   4.540   1.900   7.865  0.2827  0.9242  0.2283
 4328SOL    HW124617   4.624   1.862   7.888  0.8147  3.1348  1.9835
 4328SOL    HW224618   4.559   1.913   7.773 -0.3676 -3.0398 -0.4591
 4329SOL     OW24619   4.030   3.607  10.255 -0.6258  0.2086  0.2416
 4329SOL    HW124620   4.085   3.677  10.290  0.3462  0.2344 -1.3230
 4329SOL    HW224621   3.976   3.656  10.193  0.5952  1.0830 -0.1328
 4330SOL     OW24622   0.352   1.865   3.279 -0.3003  0.1699  0.0751
 4330SOL    HW124623   0.257   1.861   3.289 -0.4348  0.8531 -0.9200
 4330SOL    HW224624   0.353   1.938   3.217  0.2872 -1.7146 -2.0931
 4331SOL     OW24625   0.526   0.021  16.648 -0.1094 -0.0972  0.3966
 4331SOL    HW124626   0.561   4.668  16.628 -0.5665  0.2133 -1.7800
 4331SOL    HW224627   0.517   0.065  16.563 -3.6870 -1.8947 -0.1308
 4332SOL     OW24628   3.167   0.414   6.389  0.0346 -0.0225  0.2964
 4332SOL    HW124629   3.162   0.402   6.484 -1.4171 -1.8078 -0.0080
 4332SOL    HW224630   3.151   0.325   6.359  0.4140  0.4894 -1.4042
 4333SOL     OW24631   1.079   0.732   2.098 -0.2994  0.4008  0.2348
 4333SOL    HW124632   0.999   0.685   2.122  0.2237 -0.0867  1.0449
 4333SOL    HW224633   1.146   0.665   2.113  2.3369  2.7286 -1.0559
 4334SOL     OW24634   2.996   3.051   5.246  0.8095 -0.1164  0.6963
 4334SOL    HW124635   2.916   3.087   5.206 -0.3413 -2.8761  0.4934
 4334SOL    HW224636   2.967   3.016   5.330 -2.9891 -0.1446 -0.6167
 4335SOL     OW24637   3.584   4.508  15.179  0.9188  0.5401 -0.3037
 4335SOL    HW124638   3.557   4.568  15.110  0.2414  1.2742  0.5973
 4335SOL    HW224639   3.509   4.502  15.238  1.3713  1.2481  0.3443
 4336SOL     OW24640   0.507   3.828   0.207  0.3998  0.0285  0.2454
 4336SOL    HW124641   0.594   3.866   0.196 -0.1101  0.9850 -0.3738
 4336SOL    HW224642   0.517   3.734   0.192 -0.1611  0.0217 -0.0478
 4337SOL     OW24643   1.039   1.680   3.954 -0.5144  0.2895 -0.5866
 4337SOL    HW124644   1.127   1.714   3.943 -1.5466  2.8426 -0.9525
 4337SOL    HW224645   1.049   1.598   3.906 -0.8169  0.4867 -0.9845
 4338SOL     OW24646   4.509   1.347   4.034 -0.1710 -0.0808  0.1522
 4338SOL    HW124647   4.485   1.260   4.068  2.1489 -0.7788  0.0245
 4338SOL    HW224648   4.592   1.326   3.991 -0.5813  1.7644 -1.5558
 4339SOL     OW24649   3.278   4.573   3.321 -0.5827 -0.5471  0.3399
 4339SOL    HW124650   3.363   4.583   3.279  0.3175 -1.1250  1.9984
 4339SOL    HW224651   3.234   4.540   3.243  0.8710  0.0678 -0.7348
 4340SOL     OW24652   3.587   3.551   7.237  0.2648  0.0726 -0.1750
 4340SOL    HW124653   3.644   3.620   7.271 -0.0469  0.5061 -0.5458
 4340SOL    HW224654   3.572   3.581   7.148 -0.1720  0.0851 -0.0974
 4341SOL     OW24655   0.537   3.245   1.190  0.3324  0.3876  0.4908
 4341SOL    HW124656   0.541   3.337   1.217 -0.3582  0.8404 -0.9439
 4341SOL    HW224657   0.493   3.249   1.105 -0.5163 -1.0214  0.8691
 4342SOL     OW24658   3.179   3.394   7.580 -0.1106 -0.0998  0.3380
 4342SOL    HW124659   3.258   3.426   7.536 -0.9008  1.4453  0.0453
 4342SOL    HW224660   3.191   3.302   7.601  0.8035 -0.3956 -1.4813
 4343SOL     OW24661   4.594   3.249   6.104  0.0314 -0.1694 -0.5776
 4343SOL    HW124662   4.528   3.304   6.147  0.0097 -1.0196  0.4755
 4343SOL    HW224663   4.615   3.189   6.175  2.1575  0.8971 -0.2946
 4344SOL     OW24664   3.937   3.660   4.684  0.3941  0.0548  0.1500
 4344SOL    HW124665   4.000   3.629   4.749 -1.8571 -0.2636  2.1701
 4344SOL    HW224666   3.959   3.613   4.604 -2.0620 -1.0361  0.1078
 4345SOL     OW24667   4.150   3.542   5.503 -0.3936  0.1706  0.3691
 4345SOL    HW124668   4.235   3.582   5.523  1.1318 -2.7102 -0.4560
 4345SOL    HW224669   4.164   3.511   5.414 -3.3940 -1.6833  0.5712
 4346SOL     OW24670   1.284   0.887   9.492  0.2130 -0.0336  0.2095
 4346SOL    HW124671   1.240   0.930   9.419  1.9575 -0.3194 -1.0095
 4346SOL    HW224672   1.372   0.922   9.474 -0.7819  0.4306 -3.7136
 4347SOL     OW24673   0.577   2.731  16.791  0.0023 -0.1460  0.7605
 4347SOL    HW124674   0.486   2.701  16.793 -0.6284  1.6922 -0.0988
 4347SOL    HW224675   0.603   2.700  16.704 -0.1506 -2.5848  1.5807
 4348SOL     OW24676   3.235   1.977  16.105 -0.5013  0.0659  0.8756
 4348SOL    HW124677   3.205   2.054  16.154 -2.5185 -1.6782  2.3564
 4348SOL    HW224678   3.187   1.901  16.137  0.0256 -0.8106 -0.4008
 4349SOL     OW24679   2.030   0.155   5.810  0.5844 -0.6628  0.0128
 4349SOL    HW124680   2.021   0.074   5.861 -3.3072 -0.5172 -0.4265
 4349SOL    HW224681   2.088   0.135   5.737  0.1631  1.1631 -0.8025
 4350SOL     OW24682   0.565   1.839   9.184  0.3263  0.1924 -0.0722
 4350SOL    HW124683   0.581   1.931   9.204  0.2449  0.3168 -0.5835
 4350SOL    HW224684   0.585   1.836   9.090 -0.1274  1.5910 -0.2091
 4351SOL     OW24685   1.512   0.079  12.849  0.6730  0.1870  0.0415
 4351SOL    HW124686   1.427   0.093  12.808  0.7293  1.0440  0.2229
 4351SOL    HW224687   1.482   0.017  12.916  1.8285  2.0041  2.2338
 4352SOL     OW24688   1.414   1.238   7.937  0.4360  0.0122 -0.2487
 4352SOL    HW124689   1.343   1.182   7.967  1.0405 -0.4113  0.3902
 4352SOL    HW224690   1.459   1.241   8.021  0.7546  0.5045 -0.4304
 4353SOL     OW24691   1.425   3.827   4.375  0.1505  0.0934 -0.4514
 4353SOL    HW124692   1.403   3.796   4.463  1.7327  1.7963  0.5405
 4353SOL    HW224693   1.342   3.873   4.362 -1.2386 -2.3482 -0.1951
 4354SOL     OW24694   2.944   1.174   7.266  0.0702 -0.4870 -0.2263
 4354SOL    HW124695   2.971   1.196   7.355 -1.9972  1.3477 -0.0447
 4354SOL    HW224696   2.992   1.250   7.234 -0.8020  1.1068  2.2651
 4355SOL     OW24697   2.452   0.911   7.401 -0.0334 -0.0383  0.1577
 4355SOL    HW124698   2.509   0.868   7.338 -1.3911  2.8324 -3.0040
 4355SOL    HW224699   2.364   0.921   7.365  0.7534  0.3097 -1.6571
 4356SOL     OW24700   3.052   4.724   8.584  0.0669  0.2964 -0.1465
 4356SOL    HW124701   3.129   4.685   8.542  0.0227  0.9581 -0.8551
 4356SOL    HW224702   3.014   0.053   8.523 -1.4275  0.7297  1.2458
 4357SOL     OW24703   1.285   0.128  15.896  0.0887 -0.3207 -0.3220
 4357SOL    HW124704   1.364   0.171  15.928 -1.5885  1.1215  1.8262
 4357SOL    HW224705   1.299   0.034  15.909 -0.1498 -0.3997 -0.6403
 4358SOL     OW24706   1.451   2.944  13.275 -0.1542 -0.2550  0.4120
 4358SOL    HW124707   1.525   2.977  13.224  0.5745 -0.5910  1.2560
 4358SOL    HW224708   1.411   3.025  13.307 -2.2578 -1.3409  0.5437
 4359SOL     OW24709   3.791   0.124  10.819 -0.2940  0.3897 -0.0170
 4359SOL    HW124710   3.786   0.182  10.894 -3.4511 -2.5116  2.0297
 4359SOL    HW224711   3.738   0.056  10.860  0.0547 -0.3553 -0.7945
 4360SOL     OW24712   1.363   1.355   2.294 -0.2043 -0.1402  0.5068
 4360SOL    HW124713   1.379   1.262   2.310 -1.3654 -0.2747  0.9008
 4360SOL    HW224714   1.438   1.372   2.237  1.2564  0.3939  2.6332
 4361SOL     OW24715   3.619   3.966   8.919 -0.2376 -0.6136  0.7221
 4361SOL    HW124716   3.535   3.951   8.877  1.1508  0.4478 -2.4088
 4361SOL    HW224717   3.584   4.003   9.000  1.3672  1.2769  0.5770
 4362SOL     OW24718   3.120   3.372   2.041 -0.3004 -0.1415 -0.4177
 4362SOL    HW124719   3.042   3.365   2.096  0.5721  0.3570  0.9163
 4362SOL    HW224720   3.149   3.463   2.053 -0.9765 -0.2545  2.1862
 4363SOL     OW24721   0.434   3.329  12.032  0.1685  0.0091 -0.4316
 4363SOL    HW124722   0.339   3.333  12.033  0.1762 -0.0321  0.1439
 4363SOL    HW224723   0.442   3.234  12.027 -0.2783 -0.0962  0.9178
 4364SOL     OW24724   4.465   1.134   1.433 -0.1152  0.2712  0.3356
 4364SOL    HW124725   4.389   1.081   1.458 -0.7286  0.5709 -0.8825
 4364SOL    HW224726   4.423   1.193   1.370  0.6381  0.8431  0.3642
 4365SOL     OW24727   3.328   3.540  14.405  0.3284  0.4168 -0.3838
 4365SOL    HW124728   3.291   3.475  14.466  2.5234 -0.8199 -0.3481
 4365SOL    HW224729   3.412   3.497  14.392 -0.1483 -0.6821  0.1478
 4366SOL     OW24730   0.996   1.784   3.035 -0.1616 -0.4668 -0.2689
 4366SOL    HW124731   0.963   1.774   3.125  0.8809 -1.7913 -0.0346
 4366SOL    HW224732   0.978   1.876   3.016  2.3590 -0.1927 -1.2226
 4367SOL     OW24733   1.653   0.552  10.348 -0.0658 -0.5504  0.0202
 4367SOL    HW124734   1.579   0.602  10.382  0.8329 -0.1422  1.3611
 4367SOL    HW224735   1.685   0.604  10.274  0.3511  0.2726  0.7775
 4368SOL     OW24736   0.018   3.933   8.171 -0.0132 -0.0931 -0.1879
 4368SOL    HW124737   0.038   3.974   8.255 -4.1069  1.5550 -0.0309
 4368SOL    HW224738   0.098   3.942   8.119  1.0968 -2.1540  1.1635
 4369SOL     OW24739   3.055   2.729   8.678 -0.5415  0.4632  0.1580
 4369SOL    HW124740   3.065   2.730   8.773  0.9811  0.5801 -0.0030
 4369SOL    HW224741   3.077   2.819   8.654  1.1828  0.1218  0.4644
 4370SOL     OW24742   1.007   1.827   7.012  0.3370 -0.3526  0.5789
 4370SOL    HW124743   0.987   1.910   7.054 -1.9831 -1.2825  1.3249
 4370SOL    HW224744   0.936   1.767   7.033 -0.2653 -0.1625 -0.8859
 4371SOL     OW24745   1.052   3.074   1.960  0.4613  0.0632 -0.5446
 4371SOL    HW124746   1.130   3.057   2.012  0.6257 -1.6262 -1.3258
 4371SOL    HW224747   1.018   2.984   1.966  0.6429  0.0757  0.8145
 4372SOL     OW24748   3.892   1.322   7.016  0.7831 -0.1579 -0.1201
 4372SOL    HW124749   3.840   1.345   6.939 -3.0053  0.1198  2.4975
 4372SOL    HW224750   3.929   1.409   7.030  0.8018 -0.3564  1.0628
 4373SOL     OW24751   4.129   1.521  16.903 -0.2120 -0.0170  0.1878
 4373SOL    HW124752   4.165   1.598  16.946  2.4020 -1.6098  0.8790
 4373SOL    HW224753   4.071   1.496  16.974  1.4528 -0.3550  1.4229
 4374SOL     OW24754   0.580   3.927  17.210 -0.3472  0.4931  0.2505
 4374SOL    HW124755   0.504   3.874  17.182 -0.1558 -0.2597  1.1558
 4374SOL    HW224756   0.567   4.016  17.177  1.5782  0.0935 -1.5655
 4375SOL     OW24757   1.334   0.134  15.396  0.2027  0.1399 -0.0173
 4375SOL    HW124758   1.305   0.166  15.482  2.8444  1.0660  0.5402
 4375SOL    HW224759   1.424   0.112  15.420  0.1778 -0.4587 -0.4924
 4376SOL     OW24760   0.236   2.574   8.745  0.0066  0.3435 -0.4616
 4376SOL    HW124761   0.151   2.547   8.709  0.0755  0.5017 -0.7372
 4376SOL    HW224762   0.262   2.633   8.675 -3.0285  3.9152  1.4135
 4377SOL     OW24763   2.090   4.653  11.093  0.6666  0.3906 -0.0925
 4377SOL    HW124764   2.017   4.630  11.150 -1.1646 -0.5483 -2.8092
 4377SOL    HW224765   2.148   4.709  11.144  0.0832  0.4163  0.5457
 4378SOL     OW24766   1.480   4.233   3.546 -0.4034  0.2975  0.1002
 4378SOL    HW124767   1.564   4.188   3.558 -0.1556  0.6684 -0.2501
 4378SOL    HW224768   1.503   4.318   3.509 -0.0744  0.2530  0.2001
 4379SOL     OW24769   2.319   1.340   1.001 -0.2715 -0.4791 -0.0670
 4379SOL    HW124770   2.346   1.260   1.045 -0.2184 -0.6119 -0.3388
 4379SOL    HW224771   2.241   1.367   1.051  2.1119  1.5612  2.5800
 4380SOL     OW24772   2.525   2.733   3.954 -0.2171 -0.1257 -0.0668
 4380SOL    HW124773   2.543   2.785   3.875  2.9357 -0.6010  0.3070
 4380SOL    HW224774   2.471   2.796   4.001 -0.1584  0.3022 -0.5698
 4381SOL     OW24775   1.143   0.231   8.482  0.1883  0.2861  0.1604
 4381SOL    HW124776   1.195   0.289   8.426 -2.0866  0.5430 -1.6638
 4381SOL    HW224777   1.052   0.242   8.456  0.0920 -0.4301  0.1891
 4382SOL     OW24778   3.672   3.483  12.664 -0.1723 -0.6132 -0.4707
 4382SOL    HW124779   3.694   3.451  12.576  1.2502 -0.3964 -0.1950
 4382SOL    HW224780   3.577   3.483  12.666 -0.1634 -0.6155 -0.0146
 4383SOL     OW24781   1.437   4.245  17.433  0.2237 -0.7713 -0.4179
 4383SOL    HW124782   1.477   4.266  17.348  0.8853 -2.3547 -0.5163
 4383SOL    HW224783   1.356   4.294  17.438  0.0309 -1.0892 -0.4111
 4384SOL     OW24784   0.909   4.033  17.680  0.4491 -0.0860  0.4501
 4384SOL    HW124785   0.858   4.110  17.656  1.3442  0.5252  0.5189
 4384SOL    HW224786   0.996   4.070  17.695  0.1656  0.1753  1.4319
 4385SOL     OW24787   2.847   2.539   1.273 -0.4362 -0.2516  0.0769
 4385SOL    HW124788   2.771   2.541   1.214  0.5259 -0.4998 -1.1634
 4385SOL    HW224789   2.919   2.541   1.211 -0.5220  0.9295  0.0088
 4386SOL     OW24790   3.109   1.625   3.714 -0.5103  0.1221 -0.0113
 4386SOL    HW124791   3.055   1.595   3.787 -0.3053  0.3466  0.2300
 4386SOL    HW224792   3.177   1.675   3.758  0.8712 -0.7619 -1.1435
 4387SOL     OW24793   0.487   0.399   2.542 -0.9473  0.1153 -0.1765
 4387SOL    HW124794   0.581   0.412   2.556 -0.7639 -2.9447  1.4923
 4387SOL    HW224795   0.460   0.372   2.629 -1.4332 -0.4454 -0.5011
 4388SOL     OW24796   3.952   2.839   8.861 -0.8202  0.0019  0.0992
 4388SOL    HW124797   3.903   2.872   8.937  3.0876 -1.1657  3.1176
 4388SOL    HW224798   3.933   2.746   8.864 -3.0261  0.4573  0.7781
 4389SOL     OW24799   1.699   4.053   6.087 -0.2077 -0.5178 -0.3228
 4389SOL    HW124800   1.638   4.107   6.136 -1.5694 -1.4166 -1.0329
 4389SOL    HW224801   1.780   4.071   6.135 -0.3763 -3.2201  1.0048
 4390SOL     OW24802   4.593   3.511   7.427  0.4516  0.5258 -0.3768
 4390SOL    HW124803   4.680   3.495   7.390  0.5447  0.0805  0.0327
 4390SOL    HW224804   4.553   3.425   7.410  1.4666 -0.2600  1.2014
 4391SOL     OW24805   1.789   1.076  15.501 -0.0689 -0.6471  0.3319
 4391SOL    HW124806   1.881   1.071  15.525 -0.2508 -0.1759  1.1329
 4391SOL    HW224807   1.752   1.008  15.557 -2.0397  0.5413  0.4922
 4392SOL     OW24808   3.368   4.199  15.604 -0.2413 -0.4140 -0.2688
 4392SOL    HW124809   3.450   4.223  15.648 -0.6572  0.6400 -0.0668
 4392SOL    HW224810   3.318   4.269  15.646 -0.4406 -0.4743 -0.4078
 4393SOL     OW24811   2.811   4.359   5.175 -0.0795  0.1642  0.4787
 4393SOL    HW124812   2.771   4.413   5.108  1.4984 -0.1356 -0.6936
 4393SOL    HW224813   2.759   4.382   5.252  1.4525  0.9454  1.2856
 4394SOL     OW24814   4.620   3.789  16.778  0.2742 -0.4330 -0.2493
 4394SOL    HW124815   4.617   3.780  16.683  1.2463  2.3492 -0.5303
 4394SOL    HW224816   4.587   3.703  16.804  0.8230 -1.0748 -1.6714
 4395SOL     OW24817   2.221   4.441   4.201 -0.0763  0.5285 -0.5849
 4395SOL    HW124818   2.309   4.409   4.220 -0.1530  0.8108  0.2263
 4395SOL    HW224819   2.233   4.481   4.115 -2.3855  0.5661 -0.9046
 4396SOL     OW24820   2.894   4.165   6.989 -0.0252 -0.0616 -0.1519
 4396SOL    HW124821   2.877   4.210   7.073  1.0216  1.7748 -0.9229
 4396SOL    HW224822   2.856   4.229   6.929 -0.5320 -1.2201 -1.0584
 4397SOL     OW24823   0.743   2.844   2.137 -0.1123  0.2394 -0.3349
 4397SOL    HW124824   0.817   2.863   2.194 -0.5832  0.3212  0.2550
 4397SOL    HW224825   0.671   2.865   2.197  1.1785  3.0913  0.2078
 4398SOL     OW24826   1.156   2.652  11.674  0.8030 -0.0065 -0.0151
 4398SOL    HW124827   1.078   2.661  11.729  0.9664  1.3144 -0.0010
 4398SOL    HW224828   1.144   2.725  11.614  1.0788  0.8060  0.9151
 4399SOL     OW24829   0.700   0.424   6.482 -0.2412  0.2900 -0.0806
 4399SOL    HW124830   0.775   0.477   6.456 -0.3873  1.2774  1.5133
 4399SOL    HW224831   0.733   0.339   6.454 -1.7978 -1.0122  1.9538
 4400SOL     OW24832   3.473   3.173   3.529 -0.0894  0.4567 -0.4216
 4400SOL    HW124833   3.419   3.163   3.607  0.2083  0.9887 -0.1409
 4400SOL    HW224834   3.421   3.235   3.478 -0.4785  0.7463  0.3282
 4401SOL     OW24835   1.189   0.918   8.225  0.4732 -0.6572 -0.2157
 4401SOL    HW124836   1.260   0.855   8.211 -0.4300 -1.6130 -0.4833
 4401SOL    HW224837   1.110   0.865   8.213 -0.9498  1.1040  1.4389
 4402SOL     OW24838   0.730   3.584   4.496  0.7094  0.7324  0.2000
 4402SOL    HW124839   0.730   3.615   4.587  0.4769 -0.8783  0.7391
 4402SOL    HW224840   0.803   3.635   4.461 -1.5256  3.9959  0.1916
 4403SOL     OW24841   3.008   2.006  14.544  0.1303  0.1300  0.3899
 4403SOL    HW124842   2.980   1.914  14.542 -1.9451  0.7316  1.2407
 4403SOL    HW224843   3.053   2.013  14.628  1.8116 -0.1209 -0.5000
 4404SOL     OW24844   1.119   2.566  17.467  0.2297  0.0584  0.1799
 4404SOL    HW124845   1.109   2.589  17.560 -0.1154  0.1385  0.1208
 4404SOL    HW224846   1.183   2.628  17.434  1.7025 -1.7019 -0.2762
 4405SOL     OW24847   3.502   1.804   7.256 -0.3331  0.1804 -0.3921
 4405SOL    HW124848   3.498   1.880   7.314 -4.0093 -1.1418  1.0945
 4405SOL    HW224849   3.451   1.831   7.180 -1.3385  0.7218  0.4824
 4406SOL     OW24850   1.586   1.772   7.910 -0.1908  0.1712  0.3875
 4406SOL    HW124851   1.649   1.779   7.838  0.1592  0.6514  0.7456
 4406SOL    HW224852   1.508   1.755   7.857  0.7261 -2.1621 -0.2287
 4407SOL     OW24853   2.798   0.165   1.649  0.3932  0.4188 -0.3401
 4407SOL    HW124854   2.875   0.151   1.595  1.0830 -1.1788  1.0150
 4407SOL    HW224855   2.800   0.257   1.674  2.8594  0.3512 -0.2715
 4408SOL     OW24856   0.372   4.234  10.232 -0.5698  0.0246 -0.2171
 4408SOL    HW124857   0.283   4.198  10.230 -0.1665 -0.8182 -3.7832
 4408SOL    HW224858   0.426   4.168  10.274 -3.8684 -2.0685  0.7452
 4409SOL     OW24859   2.266   2.829   3.889  0.0867  0.3544  0.3909
 4409SOL    HW124860   2.279   2.827   3.794  1.9384 -0.7143  0.6561
 4409SOL    HW224861   2.182   2.783   3.885 -0.4241  1.4008 -1.0121
 4410SOL     OW24862   2.333   3.780   2.324  0.0443 -0.0713 -0.0581
 4410SOL    HW124863   2.355   3.692   2.354 -2.2734 -0.9587 -1.0471
 4410SOL    HW224864   2.261   3.766   2.263 -0.6994 -0.6720  0.9739
 4411SOL     OW24865   0.804   3.852   1.433  0.3493  0.2650  0.2047
 4411SOL    HW124866   0.853   3.842   1.515 -0.1870 -0.4134  0.4421
 4411SOL    HW224867   0.869   3.908   1.390  1.7283  0.0638  2.0017
 4412SOL     OW24868   2.609   1.985   5.996  0.4012 -0.1260  0.3022
 4412SOL    HW124869   2.519   1.955   5.984  1.1002 -1.6553 -1.0504
 4412SOL    HW224870   2.589   2.041   6.072 -0.5946 -0.0118 -0.0364
 4413SOL     OW24871   3.414   0.909   0.020 -0.0660  0.0836  0.0136
 4413SOL    HW124872   3.322   0.935   0.025 -0.2062 -0.9531  2.8914
 4413SOL    HW224873   3.458   0.973   0.077 -1.3704 -0.6206  1.8234
 4414SOL     OW24874   1.171   3.084   3.697  0.0054 -0.1171  0.0311
 4414SOL    HW124875   1.181   3.159   3.639 -0.0111 -0.7962 -0.8415
 4414SOL    HW224876   1.084   3.055   3.670  0.1887 -1.6159  1.0250
 4415SOL     OW24877   2.247   3.226   7.192 -0.0621 -0.4582  0.0229
 4415SOL    HW124878   2.322   3.272   7.157  1.9223 -2.1841  1.9741
 4415SOL    HW224879   2.260   3.233   7.287 -0.7719  3.3328 -0.1572
 4416SOL     OW24880   0.831   0.110   4.122  0.3704  0.1329 -0.2032
 4416SOL    HW124881   0.916   0.151   4.139  0.6029  0.0683 -1.2025
 4416SOL    HW224882   0.770   0.156   4.180 -1.8529 -1.1195 -1.5631
 4417SOL     OW24883   1.729   0.875   8.458 -0.5193  0.5983 -0.1120
 4417SOL    HW124884   1.670   0.864   8.532 -0.1247 -1.3187 -0.0800
 4417SOL    HW224885   1.812   0.843   8.495 -1.4148  0.2434  1.5962
 4418SOL     OW24886   1.413   3.840   2.820  0.2012 -0.4393  0.1396
 4418SOL    HW124887   1.331   3.889   2.825  0.9988  0.7081  1.8935
 4418SOL    HW224888   1.365   3.760   2.845  0.3661 -0.7203 -0.4607
 4419SOL     OW24889   2.740   1.347   7.990 -0.2262  0.5963 -0.2690
 4419SOL    HW124890   2.805   1.408   8.024  0.6847  0.1386 -1.1808
 4419SOL    HW224891   2.666   1.368   8.047  1.3976 -0.3673  2.1608
 4420SOL     OW24892   1.605   4.190  11.500 -0.5882 -0.8676 -0.3033
 4420SOL    HW124893   1.676   4.234  11.546 -0.0942  0.7528 -2.6290
 4420SOL    HW224894   1.658   4.136  11.442  3.4562  0.8425  1.8456
 4421SOL     OW24895   1.844   4.544  14.662  0.6274  0.1965  0.0478
 4421SOL    HW124896   1.924   4.524  14.710  0.5281 -2.2066 -0.7688
 4421SOL    HW224897   1.792   4.602  14.718  1.2889  1.3475 -0.5342
 4422SOL     OW24898   1.362   3.241   7.558 -0.5572  0.6018 -0.0297
 4422SOL    HW124899   1.324   3.153   7.566 -1.0041  0.8797  0.8427
 4422SOL    HW224900   1.449   3.221   7.594 -1.7117 -3.5668  0.4166
 4423SOL     OW24901   4.442   4.305   1.430 -0.0313 -0.1170  0.0945
 4423SOL    HW124902   4.448   4.325   1.524  0.8741 -1.7233  0.3808
 4423SOL    HW224903   4.474   4.381   1.381  1.2395  0.3759  1.6706
 4424SOL     OW24904   1.566   4.547  16.745  0.2633 -0.1144  0.2096
 4424SOL    HW124905   1.531   4.458  16.740  1.6475 -0.7111  0.9369
 4424SOL    HW224906   1.555   4.557  16.840 -2.7237  0.4823 -0.2084
 4425SOL     OW24907   3.302   3.624   3.252 -0.3324 -0.4312 -0.0507
 4425SOL    HW124908   3.221   3.666   3.280 -0.4027 -0.9000  0.4532
 4425SOL    HW224909   3.269   3.554   3.195  0.1602  0.8613 -1.9170
 4426SOL     OW24910   3.888   0.259   0.838  0.6667 -0.4852 -0.0799
 4426SOL    HW124911   3.980   0.259   0.812  0.0350  0.1842 -2.3921
 4426SOL    HW224912   3.860   0.189   0.779 -1.9901  0.8065 -0.3692
 4427SOL     OW24913   2.882   3.406   8.341 -0.6461  0.3052  0.0699
 4427SOL    HW124914   2.922   3.436   8.423 -1.4687  0.9493  0.2409
 4427SOL    HW224915   2.821   3.478   8.322 -0.7799 -0.4671 -2.5111
 4428SOL     OW24916   3.747   2.840   0.727  0.2779 -0.2743  0.3177
 4428SOL    HW124917   3.666   2.802   0.691  0.4404  0.2985 -0.6436
 4428SOL    HW224918   3.705   2.921   0.755 -0.1267 -0.1207 -0.6983
 4429SOL     OW24919   1.335   0.397  15.586 -0.4371 -0.2438 -0.1940
 4429SOL    HW124920   1.406   0.374  15.646 -0.7584 -2.8481 -0.8023
 4429SOL    HW224921   1.288   0.455  15.645  2.4936  1.3172  0.6217
 4430SOL     OW24922   1.629   1.937   3.603  0.0264  0.1893  0.0336
 4430SOL    HW124923   1.621   1.972   3.691 -1.8347  2.1427 -0.9378
 4430SOL    HW224924   1.719   1.958   3.578  0.2219  1.8508  2.1304
 4431SOL     OW24925   4.507   4.502   2.817 -0.7224  0.2173  0.6197
 4431SOL    HW124926   4.447   4.459   2.756 -0.5568  1.4620 -0.4251
 4431SOL    HW224927   4.569   4.545   2.757  0.7641 -0.3180  1.7606
 4432SOL     OW24928   4.650   2.341  11.201  0.0597  0.1784 -0.0752
 4432SOL    HW124929   4.604   2.257  11.200 -2.3719  1.4804  3.4892
 4432SOL    HW224930   4.612   2.387  11.275  1.2256 -1.0878  1.2908
 4433SOL     OW24931   2.915   2.021   8.191 -0.2465  0.0187  0.0066
 4433SOL    HW124932   2.853   2.067   8.134  1.4978  0.8960 -1.2018
 4433SOL    HW224933   2.922   2.085   8.261  2.2837  0.6865 -0.8501
 4434SOL     OW24934   4.284   2.316   3.222 -0.4601  0.3847  0.3328
 4434SOL    HW124935   4.207   2.263   3.202 -1.8563  2.0780  1.2475
 4434SOL    HW224936   4.239   2.394   3.253  0.9605  0.9837  0.8965
 4435SOL     OW24937   3.853   2.826   8.009 -0.3779 -0.2523  0.1734
 4435SOL    HW124938   3.871   2.757   7.944 -1.8926 -1.3542  0.9309
 4435SOL    HW224939   3.938   2.828   8.054 -0.2462  1.6129 -0.1806
 4436SOL     OW24940   2.171   4.616   2.233 -0.0211 -0.1277 -0.6107
 4436SOL    HW124941   2.221   4.547   2.277  0.7927  0.5242 -0.4980
 4436SOL    HW224942   2.175   4.584   2.143  1.5274 -1.2512 -0.1492
 4437SOL     OW24943   1.667   2.687  13.332 -0.3220 -0.5566 -0.0561
 4437SOL    HW124944   1.637   2.760  13.387 -0.9165 -1.3917  0.7265
 4437SOL    HW224945   1.759   2.674  13.357  0.1307  0.5061 -1.1668
 4438SOL     OW24946   3.822   0.211   3.662 -1.1981 -0.0073 -0.1030
 4438SOL    HW124947   3.810   0.292   3.713 -0.3179 -0.7687  1.3069
 4438SOL    HW224948   3.760   0.160   3.715 -0.5456 -1.1946 -0.5053
 4439SOL     OW24949   3.900   2.816   3.949  0.4927 -0.1054  0.6407
 4439SOL    HW124950   3.882   2.750   4.016  0.7069 -0.3883  0.4169
 4439SOL    HW224951   3.917   2.894   4.001 -0.4121  0.1281  0.5962
 4440SOL     OW24952   1.856   4.680  11.247  0.9956  0.0097  0.1691
 4440SOL    HW124953   1.792   4.643  11.309 -1.5216  3.0433 -0.6078
 4440SOL    HW224954   1.917   4.716  11.311  2.5539 -0.3099 -1.1569
 4441SOL     OW24955   3.448   2.495  15.184 -0.0218  0.0590 -0.0674
 4441SOL    HW124956   3.506   2.449  15.244 -1.8985 -2.5511 -0.2592
 4441SOL    HW224957   3.422   2.421  15.129  3.1615 -0.5827 -0.7408
 4442SOL     OW24958   3.669   2.847   8.245  0.3194  0.1566  0.3207
 4442SOL    HW124959   3.737   2.850   8.177 -0.7338  0.8989 -0.6961
 4442SOL    HW224960   3.704   2.780   8.304  0.0248  0.1042  0.4368
 4443SOL     OW24961   0.594   3.221   0.275 -0.2098  0.7302 -0.4347
 4443SOL    HW124962   0.560   3.133   0.259  2.4372 -0.3878  0.1359
 4443SOL    HW224963   0.536   3.252   0.344  2.6131  0.3320  2.1381
 4444SOL     OW24964   2.304   0.190  17.334  0.3415  0.4657 -0.5358
 4444SOL    HW124965   2.306   0.096  17.352 -0.7973  0.8766  1.6836
 4444SOL    HW224966   2.312   0.171  17.240 -0.3789 -2.7548  0.0630
 4445SOL     OW24967   1.825   2.330  12.804  0.0426  0.0093  0.0522
 4445SOL    HW124968   1.870   2.250  12.778 -0.2217 -0.0887 -0.1134
 4445SOL    HW224969   1.766   2.346  12.730  0.0995  0.7994  0.1762
 4446SOL     OW24970   2.258   3.859  17.469 -0.4945  0.1976  0.2234
 4446SOL    HW124971   2.173   3.856  17.426 -0.0442  1.5303 -0.7697
 4446SOL    HW224972   2.262   3.949  17.502  0.2172  0.1455  0.2840
 4447SOL     OW24973   2.821   2.213  14.644  0.1821 -0.3857  0.0417
 4447SOL    HW124974   2.762   2.167  14.584  0.5273 -0.9845  0.1627
 4447SOL    HW224975   2.896   2.158  14.621  0.6781 -0.9823  3.1216
 4448SOL     OW24976   0.856   1.057  16.120 -0.0381  0.2529 -0.1126
 4448SOL    HW124977   0.779   1.094  16.163  0.5174  1.4448 -0.1486
 4448SOL    HW224978   0.891   1.009  16.195  1.4639 -0.3420 -1.2059
 4449SOL     OW24979   4.252   4.448  12.828 -0.0162  0.4453  0.8923
 4449SOL    HW124980   4.301   4.440  12.910  1.5913  1.9254  0.0644
 4449SOL    HW224981   4.291   4.516  12.774 -0.4619 -1.9810 -2.5460
 4450SOL     OW24982   0.218   3.786   5.664 -0.1122  0.0164  0.1875
 4450SOL    HW124983   0.199   3.870   5.621 -0.9346  1.3445  3.1233
 4450SOL    HW224984   0.313   3.798   5.671 -0.0839  1.1440 -2.1426
 4451SOL     OW24985   1.774   4.289   3.624  0.2129  0.6390  0.5205
 4451SOL    HW124986   1.751   4.221   3.688 -3.4141  1.5963  0.2340
 4451SOL    HW224987   1.772   4.370   3.675 -2.6744  0.5041  0.6438
 4452SOL     OW24988   0.068   3.837   6.264 -0.4510 -0.0574  0.2266
 4452SOL    HW124989   0.073   3.884   6.347  0.4550  0.6884 -0.2557
 4452SOL    HW224990   0.156   3.804   6.248 -0.4555 -0.7562  1.5900
 4453SOL     OW24991   1.246   2.213   3.162 -0.1834 -0.8057  0.3258
 4453SOL    HW124992   1.291   2.297   3.161  2.1921 -2.0912 -3.2374
 4453SOL    HW224993   1.172   2.225   3.102 -0.2555 -1.0990  0.3558
 4454SOL     OW24994   1.060   3.514   7.467  0.3246 -0.2177 -0.5520
 4454SOL    HW124995   1.024   3.592   7.506  2.1216  1.0689 -1.4396
 4454SOL    HW224996   1.028   3.517   7.377 -1.8940  1.4291  0.3148
 4455SOL     OW24997   4.417   2.133  17.677  0.1779 -0.1960  0.6013
 4455SOL    HW124998   4.402   2.121  17.583  2.2272  0.4944  0.1706
 4455SOL    HW224999   4.474   2.210  17.685  1.0609 -0.8120  0.2431
 4456SOL     OW25000   0.935   4.325  15.020 -0.0112  0.2201 -0.6521
 4456SOL    HW125001   0.947   4.311  14.926  0.1480 -2.8625 -0.1625
 4456SOL    HW225002   0.946   4.420  15.030  0.6993  0.0764 -0.0715
 4457SOL     OW25003   3.990   4.371   7.545 -0.1608  0.6273 -0.0110
 4457SOL    HW125004   3.904   4.376   7.503 -0.2029 -0.0193  0.0034
 4457SOL    HW225005   4.040   4.441   7.502 -1.9887  0.0560 -3.1351
 4458SOL     OW25006   2.985   0.714   6.250 -0.0172 -0.7721  0.1242
 4458SOL    HW125007   3.056   0.660   6.285 -1.4943 -2.2093  0.8996
 4458SOL    HW225008   2.910   0.656   6.241 -1.9948  2.0602 -1.6501
 4459SOL     OW25009   1.384   2.445   1.694  0.0593 -0.3665 -0.1341
 4459SOL    HW125010   1.289   2.448   1.681  0.1355 -0.2064 -0.6401
 4459SOL    HW225011   1.392   2.465   1.788  0.9401  0.7350 -0.4504
 4460SOL     OW25012   0.698   4.174   2.286  0.6183  0.8427  0.5569
 4460SOL    HW125013   0.610   4.209   2.274  0.2104 -1.6439 -3.8952
 4460SOL    HW225014   0.710   4.153   2.193 -0.0511  0.9891  0.4406
 4461SOL     OW25015   1.055   3.118  16.219 -0.1781 -0.5374 -0.6124
 4461SOL    HW125016   0.981   3.118  16.159  0.3576 -1.4744 -1.2921
 4461SOL    HW225017   1.026   3.147  16.306 -2.6160 -1.6462 -1.0697
 4462SOL     OW25018   1.936   4.087  14.165  0.9755  0.2066  0.0406
 4462SOL    HW125019   1.951   4.079  14.070  1.1353 -0.5909  0.1323
 4462SOL    HW225020   1.897   4.001  14.181  0.9276  0.0650 -0.7945
 4463SOL     OW25021   1.976   0.163   4.485  0.2284  0.1040 -0.0192
 4463SOL    HW125022   1.916   0.237   4.486 -0.0193 -0.1046  0.8748
 4463SOL    HW225023   1.913   0.098   4.455  0.1020  0.1534  0.1365
 4464SOL     OW25024   1.310   1.836   1.684 -0.4620  0.1775  0.0111
 4464SOL    HW125025   1.292   1.769   1.618  0.0906 -0.0865  0.1201
 4464SOL    HW225026   1.405   1.846   1.676 -0.2187 -1.2187  0.9470
 4465SOL     OW25027   0.541   1.692  15.149 -0.2586  0.1007  0.0333
 4465SOL    HW125028   0.455   1.700  15.109 -0.4698 -2.3723  0.0203
 4465SOL    HW225029   0.582   1.634  15.085 -1.5072 -0.2892 -0.4076
 4466SOL     OW25030   2.798   0.226   5.050  0.2978  0.1360 -0.1453
 4466SOL    HW125031   2.870   0.264   5.001  1.1390 -0.3932  0.6746
 4466SOL    HW225032   2.720   0.261   5.006  0.5687 -0.8749 -1.4312
 4467SOL     OW25033   2.480   2.286   7.873 -0.4997 -0.0122  0.1514
 4467SOL    HW125034   2.447   2.239   7.950 -1.5510 -0.8110 -0.7741
 4467SOL    HW225035   2.392   2.318   7.852  0.1606  1.4778 -0.2871
 4468SOL     OW25036   2.310   3.831   6.711 -0.8959 -0.0882  0.0747
 4468SOL    HW125037   2.376   3.900   6.707 -0.0790 -0.9253 -1.0516
 4468SOL    HW225038   2.308   3.816   6.805  0.5782 -0.0968  0.1034
 4469SOL     OW25039   3.902   0.037  14.106 -0.0496 -0.0976 -0.1246
 4469SOL    HW125040   3.854   0.096  14.164  2.0369 -0.3274  1.8516
 4469SOL    HW225041   3.962   4.733  14.171  2.6351 -0.2860 -2.7266
 4470SOL     OW25042   3.085   2.046   4.519 -0.2283  0.4170 -0.2233
 4470SOL    HW125043   3.090   2.045   4.615 -1.3430  2.6300 -0.1541
 4470SOL    HW225044   3.177   2.025   4.499 -0.0330  2.3547 -1.3083
 4471SOL     OW25045   0.474   2.978   2.010  0.5305 -0.7277 -0.1998
 4471SOL    HW125046   0.541   3.025   1.960  0.7408 -0.8539 -0.0351
 4471SOL    HW225047   0.426   3.052   2.046  0.1247  0.0737 -2.3445
 4472SOL     OW25048   3.837   0.838   4.454  0.2661  0.2617  0.0387
 4472SOL    HW125049   3.901   0.818   4.386 -1.4184  0.4333 -1.5996
 4472SOL    HW225050   3.821   0.929   4.429  1.5331  0.1506 -1.2005
 4473SOL     OW25051   0.515   4.226   5.588 -0.3954 -0.9584  0.8297
 4473SOL    HW125052   0.520   4.131   5.585  2.4466 -0.7511 -0.5403
 4473SOL    HW225053   0.573   4.245   5.661  1.8967 -3.0250 -0.4552
 4474SOL     OW25054   3.812   0.751   9.174  0.5333  0.0632 -0.2761
 4474SOL    HW125055   3.846   0.821   9.230  0.2672  0.9335 -1.1981
 4474SOL    HW225056   3.873   0.764   9.101  0.5488 -1.8266 -0.5947
 4475SOL     OW25057   2.606   3.522   6.828  0.7714 -0.0052  0.0295
 4475SOL    HW125058   2.627   3.512   6.921 -0.5189 -1.1927  0.1816
 4475SOL    HW225059   2.641   3.610   6.809 -0.3057  0.8819  2.1446
 4476SOL     OW25060   2.044   4.431  16.011 -0.3803 -0.2010 -0.2460
 4476SOL    HW125061   1.990   4.486  16.067  0.6426  1.2301 -0.6366
 4476SOL    HW225062   2.077   4.493  15.946 -0.9545  0.7970  0.4180
 4477SOL     OW25063   4.316   3.903   6.362 -0.2150  0.0230  0.5488
 4477SOL    HW125064   4.263   3.851   6.301 -0.1347  2.2858 -1.4258
 4477SOL    HW225065   4.397   3.867   6.327 -1.4676 -0.3922 -1.8936
 4478SOL     OW25066   0.637   2.402  16.689 -0.1176  0.0444  0.0804
 4478SOL    HW125067   0.700   2.352  16.742 -1.4303 -0.3675  1.2870
 4478SOL    HW225068   0.623   2.476  16.748 -0.5966 -0.5206  0.6831
 4479SOL     OW25069   2.697   0.311   8.085  0.5237  0.2455 -0.1451
 4479SOL    HW125070   2.623   0.305   8.024  0.9819 -1.8989 -0.5026
 4479SOL    HW225071   2.678   0.399   8.118 -0.7998  0.1674 -0.6769
 4480SOL     OW25072   0.866   4.469  12.049  0.1428  0.3815  0.6757
 4480SOL    HW125073   0.943   4.413  12.037 -1.2136 -1.2110 -0.5973
 4480SOL    HW225074   0.811   4.423  11.986  3.1266  0.1560 -1.7512
 4481SOL     OW25075   3.134   3.200   8.199  0.3653 -0.0230 -0.2406
 4481SOL    HW125076   3.137   3.132   8.131  0.4778 -0.3279  0.0673
 4481SOL    HW225077   3.114   3.271   8.139  1.6294  0.6355  0.1303
 4482SOL     OW25078   0.789   1.211   6.453  0.5237  0.7656 -0.1900
 4482SOL    HW125079   0.873   1.197   6.497  1.3325 -2.9613 -2.9132
 4482SOL    HW225080   0.803   1.171   6.367 -0.8748  0.4798 -0.2789
 4483SOL     OW25081   2.567   1.488   5.790  0.0576 -0.1827  0.4208
 4483SOL    HW125082   2.539   1.407   5.834 -0.5289  0.1005  0.5785
 4483SOL    HW225083   2.525   1.475   5.705 -1.1542  0.4731  0.9129
 4484SOL     OW25084   4.595   2.755  14.615 -0.2022  0.0325  0.6110
 4484SOL    HW125085   4.651   2.783  14.688  0.3094  0.5730  0.0066
 4484SOL    HW225086   4.514   2.800  14.637 -0.7415 -0.6652  0.0351
 4485SOL     OW25087   3.886   2.575   6.799  0.1697 -0.2467 -0.0585
 4485SOL    HW125088   3.868   2.487   6.766  0.0595 -0.3291  0.2245
 4485SOL    HW225089   3.962   2.589   6.742  0.5905  0.3977  0.6530
 4486SOL     OW25090   2.747   3.854   2.069  0.0548 -0.2035 -0.2300
 4486SOL    HW125091   2.662   3.809   2.069 -0.4677  0.7957  0.8547
 4486SOL    HW225092   2.758   3.867   1.975  2.0671  1.9271  0.3176
 4487SOL     OW25093   3.127   3.605  13.966 -0.4908  0.3011  0.7478
 4487SOL    HW125094   3.080   3.678  14.006 -1.5338  1.0537 -1.8194
 4487SOL    HW225095   3.189   3.571  14.031 -0.0354  1.4817  0.9414
 4488SOL     OW25096   3.166   0.936   9.091  0.5394  0.1948 -0.2911
 4488SOL    HW125097   3.231   0.949   9.159  0.7872  0.6572 -0.6157
 4488SOL    HW225098   3.218   0.975   9.021  1.5734 -1.4320 -0.4407
 4489SOL     OW25099   0.356   2.832  14.366  0.1161  0.8029  0.0102
 4489SOL    HW125100   0.283   2.841  14.427  0.0058  0.4897 -0.0759
 4489SOL    HW225101   0.396   2.754  14.402  0.7957 -0.1215 -2.7563
 4490SOL     OW25102   0.499   4.711   3.012 -0.2631 -0.0192  0.1585
 4490SOL    HW125103   0.553   0.035   3.065  2.2181  0.9298 -3.3813
 4490SOL    HW225104   0.555   4.696   2.936  0.7800  0.4785  0.8253
 4491SOL     OW25105   3.071   1.577   8.368 -0.1366  0.4573  0.1145
 4491SOL    HW125106   3.113   1.625   8.296 -1.3034  0.6495 -0.4446
 4491SOL    HW225107   3.037   1.654   8.415  0.9036  1.4933 -0.8186
 4492SOL     OW25108   3.683   3.601   1.595 -1.2490  0.1439  0.0114
 4492SOL    HW125109   3.743   3.676   1.599 -1.2774  0.1138  0.9171
 4492SOL    HW225110   3.714   3.544   1.665 -0.9298 -0.8256 -0.9214
 4493SOL     OW25111   2.083   0.739   2.792 -0.3271 -0.3370  0.0512
 4493SOL    HW125112   2.093   0.801   2.864 -1.6015  0.3259 -0.3393
 4493SOL    HW225113   2.162   0.756   2.740 -0.0363  0.4391  0.7463
 4494SOL     OW25114   1.264   2.495  16.368 -0.1264 -0.0484  0.0131
 4494SOL    HW125115   1.173   2.471  16.382 -0.1730 -0.4831 -1.0952
 4494SOL    HW225116   1.307   2.413  16.390 -0.0063  0.0835  0.2738
 4495SOL     OW25117   1.889   4.617  16.151  0.3066  0.2502  0.2527
 4495SOL    HW125118   1.823   4.574  16.206 -1.5542  0.6194 -1.7087
 4495SOL    HW225119   1.838   4.656  16.080  0.6520  0.0969 -0.0805
 4496SOL     OW25120   1.237   1.654   3.373  0.2087  0.1356  0.4157
 4496SOL    HW125121   1.265   1.698   3.292  0.5801 -0.6110  0.1334
 4496SOL    HW225122   1.170   1.593   3.343  1.0103 -1.2652  1.4882
 4497SOL     OW25123   0.753   4.644  13.870  0.3310  0.2173 -0.0238
 4497SOL    HW125124   0.782   4.553  13.866  1.7705  0.6716 -0.1788
 4497SOL    HW225125   0.660   4.643  13.849  0.6270 -0.4309 -1.2525
 4498SOL     OW25126   4.632   1.020   7.471  0.3431  0.0407 -0.4704
 4498SOL    HW125127   4.724   1.036   7.491  0.2184 -0.0349  0.1485
 4498SOL    HW225128   4.584   1.000   7.551  1.0736 -1.6022 -0.4454
 4499SOL     OW25129   4.141   1.205   7.567 -0.0032 -0.0343  0.0710
 4499SOL    HW125130   4.207   1.186   7.633 -0.8039  1.1727  1.2183
 4499SOL    HW225131   4.091   1.281   7.596 -0.4582 -1.3336  2.6282
 4500SOL     OW25132   2.773   3.565   0.011 -0.0113  0.0241 -0.7558
 4500SOL    HW125133   2.763   3.473  17.722 -0.7511  0.6450 -2.7766
 4500SOL    HW225134   2.816   3.559   0.096 -3.2996  0.6838  0.9296
 4501SOL     OW25135   2.153   0.040   4.637  0.6654  0.1131 -0.3909
 4501SOL    HW125136   2.084   0.091   4.593  0.8822  0.4788 -0.3123
 4501SOL    HW225137   2.107   4.712   4.693  2.3738  0.4692  1.4174
 4502SOL     OW25138   3.292   0.819   7.212  0.2666  0.1912 -0.3961
 4502SOL    HW125139   3.256   0.862   7.134 -0.8671 -0.3950 -0.1841
 4502SOL    HW225140   3.355   0.755   7.177 -0.8378 -1.7926  1.2751
 4503SOL     OW25141   0.828   1.457   7.336  0.1328 -0.1673 -0.2261
 4503SOL    HW125142   0.862   1.484   7.250  0.5158 -2.2966 -0.7560
 4503SOL    HW225143   0.794   1.368   7.325  2.3277 -1.0691  0.2874
 4504SOL     OW25144   3.208   1.754   1.681 -0.1507 -0.1292 -0.0873
 4504SOL    HW125145   3.244   1.717   1.601 -0.0122  2.4827 -1.2480
 4504SOL    HW225146   3.211   1.686   1.748  3.6434  1.6022  1.5104
 4505SOL     OW25147   1.917   1.598   4.113  0.6438 -0.2100  0.3535
 4505SOL    HW125148   1.964   1.654   4.175  0.3901  1.8261 -1.3035
 4505SOL    HW225149   1.985   1.533   4.099 -0.1353 -0.4993 -2.0849
 4506SOL     OW25150   4.324   4.180  15.689 -0.0606  0.3969  0.2553
 4506SOL    HW125151   4.323   4.231  15.608  0.3760  1.1373  0.7206
 4506SOL    HW225152   4.327   4.258  15.744 -1.4467  0.4439  0.2735
 4507SOL     OW25153   2.705   1.198   4.294  0.2589  0.2675 -0.3660
 4507SOL    HW125154   2.668   1.118   4.257 -0.1218 -0.0143  0.5985
 4507SOL    HW225155   2.625   1.250   4.304  0.6256  0.5137  1.4041
 4508SOL     OW25156   1.963   1.463   8.271 -0.2172 -0.2670 -0.0887
 4508SOL    HW125157   1.899   1.439   8.204 -2.6713  0.1764  2.1069
 4508SOL    HW225158   1.904   1.489   8.342  2.1232  2.0804  0.9848
 4509SOL     OW25159   3.013   0.417   5.457 -0.4085 -0.0969 -0.2350
 4509SOL    HW125160   3.098   0.416   5.502 -1.0487  2.9177  1.0697
 4509SOL    HW225161   3.046   0.400   5.369  0.3626  0.6849 -0.0942
 4510SOL     OW25162   3.232   3.130  16.359  0.6484 -0.0969  0.0681
 4510SOL    HW125163   3.196   3.142  16.271 -1.4441  0.0872  0.9667
 4510SOL    HW225164   3.322   3.097  16.349  0.4229 -0.0781 -2.0366
 4511SOL     OW25165   0.027   0.484   4.008 -0.1590 -0.1102 -0.5999
 4511SOL    HW125166   4.694   0.501   4.075  1.1540  0.3237  0.6121
 4511SOL    HW225167   0.098   0.543   4.033 -0.8078  0.6765 -0.6196
 4512SOL     OW25168   1.892   3.002  12.259  0.3220 -0.1491  0.2459
 4512SOL    HW125169   1.872   3.083  12.305  1.2005 -1.2295  2.5227
 4512SOL    HW225170   1.973   3.020  12.211 -0.1534  1.0319 -0.1162
 4513SOL     OW25171   3.142   3.625   1.637  0.1980  0.1794 -0.2822
 4513SOL    HW125172   3.091   3.653   1.713  0.4003 -0.9706  0.2764
 4513SOL    HW225173   3.133   3.532   1.658  0.4372  0.5701  1.5943
 4514SOL     OW25174   1.760   4.501  15.741  1.0156 -0.6051  0.2896
 4514SOL    HW125175   1.841   4.552  15.732  3.0005 -3.5957  1.2762
 4514SOL    HW225176   1.731   4.479  15.652  0.6042 -0.7186  0.4488
 4515SOL     OW25177   0.417   3.829   5.383 -0.1999 -0.6270  0.3918
 4515SOL    HW125178   0.419   3.861   5.293 -1.4247  2.1685  1.3572
 4515SOL    HW225179   0.327   3.850   5.410 -0.0847 -1.8034  1.6741
 4516SOL     OW25180   4.528   0.554   4.619 -0.4241  0.2209  0.5907
 4516SOL    HW125181   4.487   0.473   4.649 -1.3183  0.1950 -0.6878
 4516SOL    HW225182   4.480   0.623   4.665 -1.2515  0.4383 -0.6228
 4517SOL     OW25183   2.108   1.297   5.246 -0.3560  0.1288  0.2516
 4517SOL    HW125184   2.139   1.352   5.174  1.4602 -1.0534  0.1301
 4517SOL    HW225185   2.192   1.260   5.274 -0.8279 -1.5013 -0.4806
 4518SOL     OW25186   0.017   2.469  13.328 -0.1834 -0.0866  0.5251
 4518SOL    HW125187   4.681   2.427  13.378 -0.6777  0.8486  0.6136
 4518SOL    HW225188   0.094   2.454  13.384 -0.1878  2.1093  1.1031
 4519SOL     OW25189   3.318   3.056   4.829  0.4734  0.0305 -0.2994
 4519SOL    HW125190   3.251   3.124   4.823  0.1278 -0.1498  1.8312
 4519SOL    HW225191   3.372   3.081   4.753 -2.2041 -1.9093 -2.8618
 4520SOL     OW25192   3.550   0.855  13.457 -0.3796 -0.3021 -0.2216
 4520SOL    HW125193   3.529   0.882  13.368 -0.4336 -1.6612 -0.6251
 4520SOL    HW225194   3.491   0.780  13.467 -1.5103  0.6574  0.3323
 4521SOL     OW25195   1.692   0.620   2.894 -0.4726 -0.4048  0.6333
 4521SOL    HW125196   1.689   0.525   2.904  3.8536 -0.6913 -0.7864
 4521SOL    HW225197   1.629   0.651   2.959 -1.1471 -2.0232  0.7599
 4522SOL     OW25198   3.999   1.353   5.569  0.0019 -0.1842  0.2209
 4522SOL    HW125199   3.998   1.441   5.531  1.7858 -0.1663  0.2150
 4522SOL    HW225200   4.087   1.319   5.553  0.1176  1.0183 -1.6289
 4523SOL     OW25201   0.883   4.464   2.700  0.3449 -0.2036  0.3154
 4523SOL    HW125202   0.819   4.406   2.658  1.0532 -0.8138  0.0607
 4523SOL    HW225203   0.825   4.503   2.765 -1.2969  0.3457 -1.4991
 4524SOL     OW25204   3.847   1.833  10.721 -0.3192 -0.0863 -0.1152
 4524SOL    HW125205   3.758   1.825  10.755  0.2649 -0.8519  1.1873
 4524SOL    HW225206   3.856   1.928  10.714 -1.4061 -0.0645 -1.4021
 4525SOL     OW25207   1.233   2.970   9.009 -0.4885  0.0870  0.1735
 4525SOL    HW125208   1.275   3.030   9.071 -0.8921  1.2698 -0.6901
 4525SOL    HW225209   1.219   2.894   9.065  1.9085  0.4052  1.1981
 4526SOL     OW25210   1.691   3.452  11.239 -0.0937  0.5044  0.6075
 4526SOL    HW125211   1.780   3.448  11.203 -0.7808  0.8277 -1.1304
 4526SOL    HW225212   1.643   3.454  11.156 -0.3634 -3.1701  0.6795
 4527SOL     OW25213   2.008   2.332   8.103 -0.4716  0.3834  0.4987
 4527SOL    HW125214   1.913   2.321   8.111 -0.6972  2.5879  0.7035
 4527SOL    HW225215   2.003   2.401   8.169  0.0412  1.1028 -0.2213
 4528SOL     OW25216   3.922   4.198   3.711 -0.5635  0.6808 -0.5575
 4528SOL    HW125217   4.014   4.172   3.709 -0.5571  0.6362  0.3466
 4528SOL    HW225218   3.928   4.291   3.733 -0.7992  0.5174  0.1966
 4529SOL     OW25219   3.594   0.721   4.434  0.2281 -0.7074 -0.7039
 4529SOL    HW125220   3.674   0.773   4.436 -0.2302  0.0456 -1.9214
 4529SOL    HW225221   3.632   0.634   4.444  1.0568 -0.2287  0.3111
 4530SOL     OW25222   4.229   1.226  12.599 -0.5112  0.5510  0.3076
 4530SOL    HW125223   4.225   1.321  12.605  0.2398  0.4687  2.1552
 4530SOL    HW225224   4.316   1.211  12.563 -1.5042 -3.6713 -0.2840
 4531SOL     OW25225   2.036   2.685  12.091 -0.1327  0.1382  0.1164
 4531SOL    HW125226   2.106   2.650  12.035  0.2448  1.3417 -0.1494
 4531SOL    HW225227   2.002   2.751  12.031  2.5814  1.9999  0.6618
 4532SOL     OW25228   3.525   1.317   9.807 -0.6103 -0.4785 -0.3339
 4532SOL    HW125229   3.558   1.390   9.754  0.6351  0.8287  2.2433
 4532SOL    HW225230   3.435   1.327   9.774 -0.6989 -2.2106 -0.6035
 4533SOL     OW25231   1.606   0.813  12.135 -0.1035  0.1203 -0.3294
 4533SOL    HW125232   1.662   0.831  12.059 -0.1531 -0.0806 -0.4139
 4533SOL    HW225233   1.667   0.785  12.203  1.1401  0.8386 -1.1509
 4534SOL     OW25234   2.299   4.021   7.580 -0.0619 -0.0228 -0.3614
 4534SOL    HW125235   2.339   3.950   7.630 -2.0172 -0.3138  0.7739
 4534SOL    HW225236   2.339   4.092   7.630  2.1438 -1.2998 -0.3032
 4535SOL     OW25237   2.404   0.757   2.918  0.1119  0.0077  0.0390
 4535SOL    HW125238   2.426   0.770   2.826 -1.8121 -0.6781 -0.5318
 4535SOL    HW225239   2.485   0.721   2.954  1.1684  0.0594 -2.3015
 4536SOL     OW25240   1.719   4.178   6.483  0.4718 -0.2953  0.2156
 4536SOL    HW125241   1.689   4.108   6.540 -1.1546  1.0966  1.0998
 4536SOL    HW225242   1.725   4.258   6.535  1.4449 -0.4421  0.3323
 4537SOL     OW25243   2.311   1.656  10.583 -0.5323 -0.0152  0.0047
 4537SOL    HW125244   2.340   1.681  10.496  1.3512  0.5478  0.7935
 4537SOL    HW225245   2.398   1.661  10.623 -0.1055  1.3169 -1.1056
 4538SOL     OW25246   4.385   2.022   1.718 -0.4055  0.2190  0.0612
 4538SOL    HW125247   4.465   2.029   1.770 -0.8866  2.7063  0.4651
 4538SOL    HW225248   4.401   1.943   1.668 -0.4500  0.9021 -1.0322
 4539SOL     OW25249   0.678   0.736   3.068 -0.1786  0.2207  0.5136
 4539SOL    HW125250   0.614   0.797   3.103 -0.0651  2.1152 -2.5804
 4539SOL    HW225251   0.628   0.677   3.012 -1.2017  1.5936  0.0047
 4540SOL     OW25252   3.129   1.362  15.659  0.4048  0.6704  0.5138
 4540SOL    HW125253   3.035   1.380  15.659  0.2748 -0.0292 -0.2930
 4540SOL    HW225254   3.138   1.267  15.664  0.9931  0.7596  1.1134
 4541SOL     OW25255   1.888   0.636   6.390 -0.0449 -0.7518  0.1521
 4541SOL    HW125256   1.809   0.643   6.337  0.5548 -1.8348 -0.9073
 4541SOL    HW225257   1.872   0.571   6.459 -0.0474 -1.3953 -0.4458
 4542SOL     OW25258   3.872   1.955   8.744  0.4625 -0.3762 -0.4715
 4542SOL    HW125259   3.851   1.864   8.762 -2.6933  0.7790  1.6876
 4542SOL    HW225260   3.801   1.995   8.794 -1.5936 -0.2122 -3.5175
 4543SOL     OW25261   4.135   0.976   9.174  0.1216  0.2741 -0.0729
 4543SOL    HW125262   4.095   0.890   9.168 -0.3549  0.7127 -3.0831
 4543SOL    HW225263   4.097   1.013   9.253  1.7435  0.2682  0.7082
 4544SOL     OW25264   0.085   3.834   5.886  0.2286 -0.2481  0.0107
 4544SOL    HW125265   0.132   3.819   5.804 -0.2719  0.8462 -0.4771
 4544SOL    HW225266   0.106   3.926   5.899 -0.3279 -0.0096 -0.7876
 4545SOL     OW25267   3.280   2.059   2.804  0.3866 -0.5376 -0.6060
 4545SOL    HW125268   3.297   2.093   2.892 -2.3524  2.0063 -1.0665
 4545SOL    HW225269   3.198   2.019   2.833  0.7328  1.5767  3.3043
 4546SOL     OW25270   1.281   2.559  10.151 -0.3816 -0.2399  1.0060
 4546SOL    HW125271   1.197   2.529  10.116  1.2991 -2.4792 -1.0842
 4546SOL    HW225272   1.278   2.655  10.145  1.7192 -0.1853  0.8816
 4547SOL     OW25273   3.490   2.202   5.576 -0.2297  0.2053  0.0136
 4547SOL    HW125274   3.436   2.164   5.507  1.7676 -0.4924 -1.1456
 4547SOL    HW225275   3.498   2.125   5.633  0.7835  0.3489  0.0648
 4548SOL     OW25276   4.190   1.116   4.954 -0.3770  0.1208 -0.4241
 4548SOL    HW125277   4.153   1.045   4.901  4.4552 -1.7915 -1.2161
 4548SOL    HW225278   4.280   1.121   4.921  0.0497  0.1148  0.7364
 4549SOL     OW25279   2.845   0.335   0.016 -0.3961 -0.5175 -0.3557
 4549SOL    HW125280   2.832   0.360  17.661 -0.5030  0.2136 -0.1362
 4549SOL    HW225281   2.760   0.367   0.047 -0.4756 -3.6695  2.6890
 4550SOL     OW25282   2.244   0.824   9.062  0.0839 -0.1403  0.3391
 4550SOL    HW125283   2.232   0.915   9.087  0.7590 -0.4205  1.6398
 4550SOL    HW225284   2.183   0.781   9.121 -1.7968  0.9477 -0.8185
 4551SOL     OW25285   2.533   3.724  12.346  0.1694 -0.6590 -0.2475
 4551SOL    HW125286   2.466   3.681  12.400 -1.0991  1.6668  0.0316
 4551SOL    HW225287   2.535   3.677  12.263  2.9171  0.4135 -0.7958
 4552SOL     OW25288   2.263   3.099   4.907  0.5534 -0.0035 -0.0624
 4552SOL    HW125289   2.211   3.023   4.932  2.5189 -1.1413  0.5967
 4552SOL    HW225290   2.352   3.066   4.894  0.7591 -0.0814  1.5992
 4553SOL     OW25291   0.874   0.167  13.313 -0.6596 -0.2762 -0.2846
 4553SOL    HW125292   0.783   0.196  13.319 -0.3838  0.4535  0.3041
 4553SOL    HW225293   0.860   0.074  13.328  0.7210 -0.4688 -0.2501
 4554SOL     OW25294   1.133   0.108   5.627 -0.3918  0.2071  0.1653
 4554SOL    HW125295   1.088   0.189   5.650  2.1991  1.5959  0.3168
 4554SOL    HW225296   1.204   0.099   5.691 -1.6488  1.8151  1.7665
 4555SOL     OW25297   0.746   3.780   8.366 -0.1340 -0.1623  0.3017
 4555SOL    HW125298   0.751   3.866   8.408  2.9840 -0.5649  0.7879
 4555SOL    HW225299   0.650   3.777   8.368 -0.1989  2.4063  0.8123
 4556SOL     OW25300   3.933   1.584   6.632 -0.3013  0.5905 -0.3842
 4556SOL    HW125301   4.020   1.575   6.592 -0.6463 -1.3092 -0.7249
 4556SOL    HW225302   3.912   1.664   6.584  0.5825  0.8227 -0.3795
 4557SOL     OW25303   2.472   3.406   2.475 -0.0773 -0.4704  0.1935
 4557SOL    HW125304   2.500   3.327   2.429  0.7676 -0.3941  0.5820
 4557SOL    HW225305   2.386   3.415   2.433  1.0189 -2.0946 -2.3692
 4558SOL     OW25306   3.133   0.056   0.267 -0.3526 -0.0219  0.7003
 4558SOL    HW125307   3.105   0.009   0.345 -0.9035 -0.2443  0.3669
 4558SOL    HW225308   3.172   0.133   0.308 -0.9145 -0.2677  1.6831
 4559SOL     OW25309   4.567   0.475   6.417  0.4720 -0.1301  0.0427
 4559SOL    HW125310   4.573   0.528   6.496  0.0448 -1.6281  1.0799
 4559SOL    HW225311   4.661   0.462   6.403  0.7106  3.6901 -1.8837
 4560SOL     OW25312   3.624   1.953   4.321 -0.3033 -0.1346  0.8684
 4560SOL    HW125313   3.631   2.046   4.343  1.0730  0.2326 -1.1790
 4560SOL    HW225314   3.531   1.954   4.301  0.3545 -0.7122 -2.1463
 4561SOL     OW25315   2.426   4.165  14.426 -0.6395  0.6424  0.0409
 4561SOL    HW125316   2.409   4.112  14.504 -0.1627  1.9348  1.0034
 4561SOL    HW225317   2.382   4.114  14.357  1.2399 -2.6359  1.2569
 4562SOL     OW25318   0.143   2.259   0.156  0.6943  0.2894  0.7553
 4562SOL    HW125319   0.120   2.234   0.066  2.1551  1.0109  0.1986
 4562SOL    HW225320   0.068   2.302   0.197  0.5521  0.0877  0.7069
 4563SOL     OW25321   3.186   4.363   3.498  0.5976  0.6838  0.3792
 4563SOL    HW125322   3.226   4.419   3.564 -1.6913  1.6179  0.9523
 4563SOL    HW225323   3.216   4.413   3.423 -1.2639  1.7884  0.3817
 4564SOL     OW25324   4.162   1.334   1.627  0.6618  0.2706 -0.0215
 4564SOL    HW125325   4.216   1.390   1.682 -1.2754  1.0529  1.1114
 4564SOL    HW225326   4.091   1.303   1.685  0.3892 -2.3498 -1.7474
 4565SOL     OW25327   4.152   1.788   1.585  0.2059  0.1213 -0.1785
 4565SOL    HW125328   4.162   1.739   1.666 -2.3411 -0.1924 -0.0734
 4565SOL    HW225329   4.082   1.736   1.546 -0.3840  1.8825 -1.5112
 4566SOL     OW25330   3.764   4.541   8.599 -0.2510  0.5506  0.8891
 4566SOL    HW125331   3.759   4.636   8.611 -0.4897  0.7125 -0.5000
 4566SOL    HW225332   3.842   4.539   8.542 -0.3290 -0.3857  0.8159
 4567SOL     OW25333   1.732   4.684   8.808 -0.1253 -0.0342 -0.4703
 4567SOL    HW125334   1.779   0.019   8.855  1.6776 -1.5622 -0.0399
 4567SOL    HW225335   1.725   4.730   8.724 -1.4028 -0.5397 -0.6479
 4568SOL     OW25336   0.227   0.724  12.376 -0.4074 -0.4681  0.1621
 4568SOL    HW125337   0.189   0.807  12.347  1.5343 -0.7815 -3.2518
 4568SOL    HW225338   0.233   0.683  12.290 -1.4836 -0.7832  0.2343
 4569SOL     OW25339   4.374   0.075   8.781  0.0350 -0.3728 -0.1133
 4569SOL    HW125340   4.279   0.087   8.780  0.1722  0.7335  0.8258
 4569SOL    HW225341   4.406   0.119   8.859  0.1399 -1.5082  0.4809
 4570SOL     OW25342   4.629   2.834   2.741  0.2062 -0.1317 -0.5203
 4570SOL    HW125343   4.614   2.926   2.764  1.3755 -0.3601  1.1196
 4570SOL    HW225344   4.722   2.845   2.723  0.0176  1.7119 -0.3720
 4571SOL     OW25345   0.856   1.900   0.962 -0.0163 -0.1899 -0.2105
 4571SOL    HW125346   0.884   1.814   0.931  1.1716 -0.1630  0.7868
 4571SOL    HW225347   0.913   1.961   0.915 -2.0567  1.1365 -0.9845
 4572SOL     OW25348   4.596   4.462   4.308  0.4112 -0.2753 -0.2651
 4572SOL    HW125349   4.661   4.483   4.242  1.9977 -1.4567  0.9156
 4572SOL    HW225350   4.535   4.411   4.255  1.6161 -1.1254 -0.8302
 4573SOL     OW25351   0.250   3.644   0.237  0.1825 -0.0626 -0.0193
 4573SOL    HW125352   0.337   3.607   0.225 -0.1681 -0.7339 -0.5310
 4573SOL    HW225353   0.265   3.735   0.212  0.0340 -0.2980 -0.9629
 4574SOL     OW25354   0.283   4.545  17.274 -0.1512 -0.5970 -0.3218
 4574SOL    HW125355   0.228   4.479  17.231  0.2823 -0.0887 -1.6616
 4574SOL    HW225356   0.228   4.623  17.274  0.0704 -0.4381  0.4035
 4575SOL     OW25357   0.775   3.455   6.700 -0.3720 -0.5585  0.2173
 4575SOL    HW125358   0.820   3.498   6.628  0.6518  0.4701  1.4691
 4575SOL    HW225359   0.802   3.364   6.688  0.3101 -0.5273  1.4632
 4576SOL     OW25360   0.355   0.714   3.189 -0.1818 -0.0659 -1.0466
 4576SOL    HW125361   0.319   0.801   3.206  0.4004 -0.8705  4.1053
 4576SOL    HW225362   0.290   0.682   3.126  0.5473  0.4688 -2.0730
 4577SOL     OW25363   1.702   0.309   8.917 -0.3680  0.4315 -0.2155
 4577SOL    HW125364   1.679   0.402   8.920  1.7085  1.0007 -1.8136
 4577SOL    HW225365   1.647   0.265   8.982  0.6413 -0.6731 -0.1160
 4578SOL     OW25366   2.696   4.051   4.194 -0.5259 -0.2233  0.2688
 4578SOL    HW125367   2.627   3.984   4.186  1.0185 -1.5584 -2.1272
 4578SOL    HW225368   2.774   3.998   4.213  0.1863  0.7935  0.1883
 4579SOL     OW25369   0.814   0.858   6.384  0.4377 -0.6854  0.2979
 4579SOL    HW125370   0.731   0.826   6.348  0.2258 -0.2762  0.4217
 4579SOL    HW225371   0.821   0.944   6.344  0.1647 -0.5883  0.4587
 4580SOL     OW25372   1.658   2.774   3.372 -0.2608  0.1716  0.5485
 4580SOL    HW125373   1.638   2.681   3.362 -1.1316  0.6680 -2.0667
 4580SOL    HW225374   1.641   2.797   3.464  1.4930  0.7349  0.7409
 4581SOL     OW25375   4.693   4.242  10.510  0.1951  0.2132 -0.0988
 4581SOL    HW125376   4.636   4.198  10.573 -0.4440  0.2604 -0.6470
 4581SOL    HW225377   4.623   4.285  10.461  1.4775  0.4964 -1.6712
 4582SOL     OW25378   1.147   3.938   2.822 -0.2503  0.3033  0.0824
 4582SOL    HW125379   1.074   3.886   2.790  0.9892 -0.4628 -1.4876
 4582SOL    HW225380   1.149   4.015   2.765 -0.2217 -0.8612 -1.4870
 4583SOL     OW25381   4.561   3.066   3.113 -0.4823  0.1524 -0.0928
 4583SOL    HW125382   4.485   3.045   3.058 -1.4485 -2.1596  2.1396
 4583SOL    HW225383   4.637   3.048   3.058  1.5570 -0.3767  2.9292
 4584SOL     OW25384   2.776   0.857   5.708 -0.3805 -0.1644  0.1784
 4584SOL    HW125385   2.715   0.817   5.645 -0.4209 -0.4161  0.3770
 4584SOL    HW225386   2.724   0.895   5.779 -1.5748  0.3813 -0.9823
 4585SOL     OW25387   3.462   1.405   7.366 -0.3096 -0.3462  0.0913
 4585SOL    HW125388   3.462   1.336   7.299 -0.5426  0.4702 -0.7495
 4585SOL    HW225389   3.419   1.358   7.437  0.1483 -0.1272  0.5110
 4586SOL     OW25390   2.625   0.553   9.660 -0.2624 -0.1923  0.3051
 4586SOL    HW125391   2.543   0.513   9.631  0.3043 -1.0568 -0.1041
 4586SOL    HW225392   2.685   0.499   9.607 -1.6549 -0.1774 -1.2959
 4587SOL     OW25393   4.088   1.781   2.739  0.3211  0.0705 -0.7442
 4587SOL    HW125394   4.102   1.869   2.703 -1.1096  0.9574  0.8776
 4587SOL    HW225395   3.998   1.798   2.768  1.2474  0.0862  2.0721
 4588SOL     OW25396   1.004   0.645   5.166 -0.0259 -0.5071  0.6926
 4588SOL    HW125397   1.093   0.646   5.132 -0.1099 -0.7901  0.4626
 4588SOL    HW225398   1.016   0.603   5.251  0.0432  0.2179  1.0470
 4589SOL     OW25399   2.039   0.911  16.808  0.2149 -0.0796 -0.3869
 4589SOL    HW125400   1.965   0.875  16.759 -1.2136  0.1072  1.6377
 4589SOL    HW225401   2.025   1.005  16.813 -0.3904 -0.0962 -1.7368
 4590SOL     OW25402   2.880   2.066   9.595 -0.1757 -0.4993  0.1501
 4590SOL    HW125403   2.791   2.060   9.631 -0.5320  1.8480 -0.2838
 4590SOL    HW225404   2.892   1.993   9.534 -1.7407  0.3281 -1.1644
 4591SOL     OW25405   1.850   4.506   0.076  0.3161  0.3198  0.0597
 4591SOL    HW125406   1.788   4.458   0.021 -0.1015  1.6881 -0.6657
 4591SOL    HW225407   1.865   4.441   0.145  1.6459  0.8910  0.3110
 4592SOL     OW25408   0.157   0.017   3.259 -0.1630 -0.4234 -0.2054
 4592SOL    HW125409   0.227   0.078   3.236 -1.7018  1.9304  1.3456
 4592SOL    HW225410   0.211   4.682   3.299  0.6896  2.3523  3.4627
 4593SOL     OW25411   1.783   0.754   5.074  0.0934 -0.0333 -0.8559
 4593SOL    HW125412   1.735   0.673   5.056  0.1720 -0.0491 -0.9897
 4593SOL    HW225413   1.753   0.812   5.005  2.0864  2.0598  0.0244
 4594SOL     OW25414   0.691   2.837   0.162  0.3374  0.0671 -0.6256
 4594SOL    HW125415   0.711   2.873   0.075  1.3833 -1.0717 -0.8588
 4594SOL    HW225416   0.681   2.743   0.147  1.5536  0.2135 -2.4633
 4595SOL     OW25417   0.228   3.154   3.076  0.2458  0.1559 -0.1710
 4595SOL    HW125418   0.209   3.146   3.169 -0.4859  0.3763 -0.3026
 4595SOL    HW225419   0.323   3.165   3.076  0.3954 -1.1701  1.7421
 4596SOL     OW25420   0.798   2.901  15.952 -0.0618  0.2993 -0.0601
 4596SOL    HW125421   0.829   2.991  15.943  0.0822  0.2352 -0.2025
 4596SOL    HW225422   0.873   2.843  15.965  0.0867 -0.0107 -2.2748
 4597SOL     OW25423   0.172   2.434   6.324 -0.2118  0.1753 -0.2705
 4597SOL    HW125424   0.248   2.384   6.355 -2.4398 -3.2400 -0.4038
 4597SOL    HW225425   0.203   2.523   6.304  0.8309 -0.5508 -1.8949
 4598SOL     OW25426   4.091   2.917   0.359 -0.0078 -0.0582  0.3296
 4598SOL    HW125427   4.173   2.877   0.333  0.4533  0.9990  0.1413
 4598SOL    HW225428   4.059   2.932   0.270 -1.8266 -1.6956  0.7073
 4599SOL     OW25429   1.332   0.229   8.183 -0.3695  0.3393  0.2087
 4599SOL    HW125430   1.406   0.232   8.123 -1.0558  0.1353 -0.6480
 4599SOL    HW225431   1.324   0.313   8.227  3.6081  1.7905 -1.8245
 4600SOL     OW25432   0.508   3.817  15.020  0.0965  0.4138 -0.0688
 4600SOL    HW125433   0.531   3.881  14.953  0.7378  0.5290  0.2615
 4600SOL    HW225434   0.466   3.878  15.081 -0.8560  1.3192 -1.6252
 4601SOL     OW25435   3.056   2.407   6.972 -0.3688 -0.0682 -0.5108
 4601SOL    HW125436   2.965   2.434   6.975 -0.7081 -1.5116  2.1578
 4601SOL    HW225437   3.082   2.432   6.884 -0.8633 -0.9393 -0.8986
 4602SOL     OW25438   1.922   2.132   8.925  0.0870  1.0428 -0.0992
 4602SOL    HW125439   1.991   2.162   8.866 -1.3091 -1.0746 -2.8301
 4602SOL    HW225440   1.945   2.166   9.011 -0.0721  1.6186 -0.2884
 4603SOL     OW25441   1.750   4.510   5.859 -0.1250  0.2399 -0.0639
 4603SOL    HW125442   1.713   4.449   5.923  0.7920  0.9852  1.1833
 4603SOL    HW225443   1.807   4.574   5.903  2.3994 -1.3109 -1.0810
 4604SOL     OW25444   0.439   0.757   9.874  0.0059 -0.1647  0.2076
 4604SOL    HW125445   0.346   0.775   9.891 -0.1639  0.5588 -1.4723
 4604SOL    HW225446   0.445   0.668   9.908 -3.1802  0.5792  2.7751
 4605SOL     OW25447   3.314   4.368  13.449 -0.0186 -0.1770  0.4907
 4605SOL    HW125448   3.274   4.287  13.480 -2.1647  0.4497 -0.6400
 4605SOL    HW225449   3.403   4.333  13.451 -0.1382 -0.5067 -0.0181
 4606SOL     OW25450   1.851   3.730   7.681 -0.0954  0.7399  0.0195
 4606SOL    HW125451   1.840   3.670   7.754 -1.2112  2.7335  1.5026
 4606SOL    HW225452   1.873   3.812   7.725 -0.0629 -0.5398  2.3949
 4607SOL     OW25453   3.402   0.863   3.226  0.7530 -0.3278 -0.3008
 4607SOL    HW125454   3.330   0.906   3.181  2.2931  2.4949 -0.0439
 4607SOL    HW225455   3.369   0.774   3.216  2.1268 -0.6174 -2.0865
 4608SOL     OW25456   0.713   2.196   6.036 -0.1948 -0.4252  0.1812
 4608SOL    HW125457   0.778   2.218   5.970 -0.1749  1.5005  0.8498
 4608SOL    HW225458   0.646   2.161   5.977 -0.5019 -0.2215  0.4126
 4609SOL     OW25459   4.002   0.777   5.373 -0.0003  0.0409  0.3991
 4609SOL    HW125460   4.095   0.759   5.358 -0.6940 -3.8406  0.6485
 4609SOL    HW225461   3.973   0.788   5.282  2.2470  3.0363  0.0498
 4610SOL     OW25462   2.042   0.540   6.790 -0.4633  0.8266 -0.3010
 4610SOL    HW125463   1.997   0.597   6.727  0.7310 -1.8925 -3.6319
 4610SOL    HW225464   2.092   0.604   6.841  1.0310 -0.1051 -0.5881
 4611SOL     OW25465   3.604   0.429   5.924 -0.0143  0.1360  0.1461
 4611SOL    HW125466   3.590   0.513   5.880 -0.2227 -0.3723 -0.7613
 4611SOL    HW225467   3.517   0.419   5.963 -0.3220  1.5853 -0.1922
 4612SOL     OW25468   1.865   2.506   6.063  0.9136 -0.1095  0.2351
 4612SOL    HW125469   1.951   2.546   6.047  1.1722 -2.0464 -3.3257
 4612SOL    HW225470   1.876   2.444   6.135 -0.4128 -1.0774 -0.3870
 4613SOL     OW25471   1.414   2.631  12.436 -0.0713 -0.5415 -0.0619
 4613SOL    HW125472   1.488   2.673  12.392  0.0449  0.9436  1.5475
 4613SOL    HW225473   1.396   2.674  12.519 -0.2763 -0.4101 -0.1752
 4614SOL     OW25474   1.318   4.077  11.483  0.1773  0.9194  0.0924
 4614SOL    HW125475   1.277   4.049  11.401 -1.0240  2.7652  0.0462
 4614SOL    HW225476   1.408   4.103  11.460  0.9694 -1.0950  0.8849
 4615SOL     OW25477   3.476   1.359  15.515 -0.1530  0.2875  0.1274
 4615SOL    HW125478   3.543   1.301  15.552 -1.6655 -0.8098  1.1258
 4615SOL    HW225479   3.536   1.427  15.483  0.8790  0.5294  2.5791
 4616SOL     OW25480   4.340   2.240   8.295 -0.4051  0.0473 -0.2816
 4616SOL    HW125481   4.382   2.307   8.348 -0.7529  1.3577 -1.6742
 4616SOL    HW225482   4.416   2.200   8.253 -2.4241 -2.4913 -1.5646
 4617SOL     OW25483   3.318   4.207  16.026  0.2133 -0.0518  0.6215
 4617SOL    HW125484   3.391   4.266  16.009 -0.2707  0.3082 -0.1914
 4617SOL    HW225485   3.347   4.131  15.975 -1.0307  0.3104 -0.6338
 4618SOL     OW25486   0.656   4.413   3.249 -0.0098  0.2079  0.0883
 4618SOL    HW125487   0.683   4.471   3.321 -1.3697  1.0200 -0.0627
 4618SOL    HW225488   0.646   4.333   3.300 -1.1992  0.6551  0.5658
 4619SOL     OW25489   0.018   1.736  11.165 -0.0288 -0.2101  0.2306
 4619SOL    HW125490   0.083   1.687  11.114 -0.7191 -0.3863 -0.4796
 4619SOL    HW225491   4.669   1.721  11.120  0.2660  1.5098 -0.8969
 4620SOL     OW25492   4.197   0.180  14.247  0.3606  0.0510  0.4947
 4620SOL    HW125493   4.138   0.116  14.288 -0.7175 -0.6319 -2.1709
 4620SOL    HW225494   4.152   0.218  14.171 -0.4681 -1.9888 -0.0292
 4621SOL     OW25495   3.031   2.601   4.184  0.1575 -0.5515 -0.0516
 4621SOL    HW125496   2.961   2.641   4.235 -1.4254 -0.3825 -2.3687
 4621SOL    HW225497   3.038   2.518   4.232  1.2790 -0.9050 -0.8268
 4622SOL     OW25498   3.345   4.206   4.401 -0.3258 -0.5700  0.4640
 4622SOL    HW125499   3.314   4.294   4.421 -0.1521 -0.4885  0.3760
 4622SOL    HW225500   3.266   4.173   4.358 -1.0384  2.6228 -0.6598
 4623SOL     OW25501   1.203   1.091   3.337 -0.6094  0.4075  0.1193
 4623SOL    HW125502   1.264   1.021   3.311  1.6108  1.0564  3.6141
 4623SOL    HW225503   1.204   1.147   3.260 -0.0740  0.8938  0.4823
 4624SOL     OW25504   0.809   2.182   1.860  0.7751  0.5312 -0.5504
 4624SOL    HW125505   0.850   2.231   1.930  0.8777 -0.0727 -0.1834
 4624SOL    HW225506   0.851   2.205   1.777  0.4997 -0.1799 -0.8984
 4625SOL     OW25507   3.951   1.934   9.287  0.1758  0.2582 -0.0706
 4625SOL    HW125508   3.943   2.018   9.331 -1.3459  0.5891 -0.9605
 4625SOL    HW225509   3.871   1.940   9.235 -0.2133 -0.0726  0.4999
 4626SOL     OW25510   3.235   0.929  12.792  0.0083  0.0500 -0.4723
 4626SOL    HW125511   3.266   1.020  12.795  0.4553 -0.1207  0.0502
 4626SOL    HW225512   3.235   0.927  12.696 -2.0042  0.9280 -0.4923
 4627SOL     OW25513   3.345   1.504   4.786  0.3443 -0.0564 -0.0883
 4627SOL    HW125514   3.295   1.427   4.813 -0.4605 -0.3803 -2.5261
 4627SOL    HW225515   3.410   1.505   4.856 -0.8691  3.9129  0.9769
 4628SOL     OW25516   1.088   1.482   3.155  0.3698  0.0359 -0.7460
 4628SOL    HW125517   1.038   1.474   3.236  1.1496  1.5814 -0.1145
 4628SOL    HW225518   1.018   1.468   3.091  0.7879  0.7512 -1.3599
 4629SOL     OW25519   4.188   1.090   5.224 -0.0065  0.0587 -0.1828
 4629SOL    HW125520   4.238   1.169   5.246 -0.1857  1.3116 -4.4021
 4629SOL    HW225521   4.181   1.106   5.130  1.6454 -1.5384 -0.5855
 4630SOL     OW25522   1.354   3.902   4.069 -0.2636  0.2205 -0.2052
 4630SOL    HW125523   1.279   3.947   4.029 -1.0092 -3.4326 -2.8954
 4630SOL    HW225524   1.388   3.962   4.136 -1.3558 -1.3327  1.7295
 4631SOL     OW25525   1.056   1.972   2.839  0.3614 -0.3094  0.0129
 4631SOL    HW125526   1.042   1.985   2.745 -1.3710  1.5428  0.5234
 4631SOL    HW225527   1.129   1.910   2.844  1.6442  1.1448 -0.6128
 4632SOL     OW25528   3.952   1.579   8.620 -0.5024  0.1639 -0.2341
 4632SOL    HW125529   3.993   1.658   8.654 -1.8058 -0.5639  2.9750
 4632SOL    HW225530   4.017   1.513   8.645 -1.6686 -1.7256 -2.0885
 4633SOL     OW25531   1.162   4.573   4.052  0.0594  0.2059  0.1133
 4633SOL    HW125532   1.217   4.581   3.974 -0.1543 -1.2600 -0.1904
 4633SOL    HW225533   1.201   4.640   4.108  0.8984  0.7588 -1.1277
 4634SOL     OW25534   3.693   4.284   6.332  0.4697  0.3261  0.1527
 4634SOL    HW125535   3.721   4.213   6.274 -2.0299  1.0306 -1.9046
 4634SOL    HW225536   3.606   4.250   6.353 -0.3008  0.0701 -3.3982
 4635SOL     OW25537   4.183   0.001  16.193  0.1418  0.8080  0.1471
 4635SOL    HW125538   4.199   4.705  16.282  2.0185  2.8947  0.5051
 4635SOL    HW225539   4.248   0.071  16.186  0.1187  0.7358 -0.8762
 4636SOL     OW25540   3.772   1.659   8.128  0.3190 -0.6062 -0.8862
 4636SOL    HW125541   3.764   1.694   8.039 -0.6679  1.2671 -0.0718
 4636SOL    HW225542   3.781   1.747   8.165 -1.5119 -0.8743  0.2106
 4637SOL     OW25543   0.462   2.815   2.315 -0.2367 -0.2547  0.2861
 4637SOL    HW125544   0.430   2.757   2.246  1.7326  0.3624 -1.1284
 4637SOL    HW225545   0.387   2.874   2.326  0.4171  0.8451 -1.2519
 4638SOL     OW25546   2.934   4.638   4.774 -0.0555  0.1602 -0.0366
 4638SOL    HW125547   2.907   4.548   4.756  3.8379 -0.6051 -2.0602
 4638SOL    HW225548   2.852   4.688   4.772 -0.3420 -0.3068 -0.1373
 4639SOL     OW25549   0.450   4.291  13.937  1.0345 -0.2171  0.0938
 4639SOL    HW125550   0.357   4.296  13.962  1.0690 -0.9586  0.3826
 4639SOL    HW225551   0.436   4.209  13.889  1.7757 -1.3693  1.8667
 4640SOL     OW25552   0.053   1.405  17.325 -0.1089 -0.0467 -0.9726
 4640SOL    HW125553   0.120   1.368  17.382 -1.6684  1.5944  1.9310
 4640SOL    HW225554   0.094   1.484  17.289  1.9407 -1.0382 -0.8299
 4641SOL     OW25555   4.060   2.272   8.370 -0.1570 -0.3890 -0.0605
 4641SOL    HW125556   4.155   2.283   8.374 -0.4707  2.5840 -1.1779
 4641SOL    HW225557   4.041   2.202   8.433  1.7818  0.9196  2.0054
 4642SOL     OW25558   4.633   1.485   8.674  0.1131  0.0032  0.5250
 4642SOL    HW125559   4.609   1.558   8.730 -0.5009  0.6420 -0.5693
 4642SOL    HW225560   4.605   1.507   8.585  0.0614 -1.8851  0.0774
 4643SOL     OW25561   1.117   1.143  16.110 -0.6495 -0.0042  0.2724
 4643SOL    HW125562   1.043   1.204  16.106 -1.0501 -0.6061 -1.5249
 4643SOL    HW225563   1.099   1.104  16.195  0.0389 -0.6435  0.1292
 4644SOL     OW25564   0.709   3.679   2.512 -0.1221  0.2181  0.5607
 4644SOL    HW125565   0.682   3.593   2.543 -1.6158  1.8381  3.6543
 4644SOL    HW225566   0.798   3.666   2.479  0.0114 -0.9805  1.4090
 4645SOL     OW25567   0.347   0.494   8.851 -0.2438 -0.1674  0.1167
 4645SOL    HW125568   0.381   0.411   8.884  1.3086  1.0041  1.5226
 4645SOL    HW225569   0.307   0.461   8.771 -0.1775 -0.3915  0.1757
 4646SOL     OW25570   3.371   2.746   7.370  0.1231 -0.7896  0.0567
 4646SOL    HW125571   3.288   2.711   7.402  0.2166 -2.5815 -1.6224
 4646SOL    HW225572   3.425   2.728   7.447  0.4107 -1.2309 -0.2416
 4647SOL     OW25573   2.282   3.554   6.368  0.1093  0.3801 -1.1537
 4647SOL    HW125574   2.258   3.464   6.390 -2.6522  0.8525 -2.2426
 4647SOL    HW225575   2.347   3.557   6.437 -0.8258  1.0404 -0.2988
 4648SOL     OW25576   2.613   1.339   4.539 -0.1387 -0.3294  0.3350
 4648SOL    HW125577   2.664   1.414   4.510 -0.0101 -0.1767  0.9523
 4648SOL    HW225578   2.634   1.350   4.632  1.7902 -0.5790 -0.0821
 4649SOL     OW25579   4.031   1.165   3.690  0.7861  0.4254  0.2779
 4649SOL    HW125580   3.956   1.218   3.663  0.2937 -1.0690 -1.3065
 4649SOL    HW225581   4.100   1.217   3.648 -0.7553  0.0171 -2.7854
 4650SOL     OW25582   1.786   2.323  12.365 -0.5748 -0.5569 -0.3810
 4650SOL    HW125583   1.835   2.245  12.338  1.1339 -0.7452  3.2584
 4650SOL    HW225584   1.771   2.360  12.278  1.2015 -1.8829 -1.2471
 4651SOL     OW25585   0.626   1.654  13.287  0.5159 -0.1443 -0.2629
 4651SOL    HW125586   0.547   1.663  13.340 -0.9601 -1.9531 -2.1536
 4651SOL    HW225587   0.659   1.738  13.319 -0.1996 -0.3034  0.8609
 4652SOL     OW25588   0.633   2.161   3.735 -0.2499 -0.1713  0.1539
 4652SOL    HW125589   0.721   2.149   3.700 -1.3247  0.3954 -2.8135
 4652SOL    HW225590   0.622   2.254   3.712 -1.2835  0.6844  4.1944
 4653SOL     OW25591   0.860   4.071   3.365  0.4580  0.6352  0.3435
 4653SOL    HW125592   0.766   4.087   3.352  0.6902 -1.0543 -3.3938
 4653SOL    HW225593   0.857   4.054   3.459  0.8317 -1.0364  0.0600
 4654SOL     OW25594   4.247   1.616   9.534 -0.3700  0.7539 -0.1594
 4654SOL    HW125595   4.160   1.646   9.559  0.1673 -0.9338  3.6516
 4654SOL    HW225596   4.268   1.672   9.459  0.3003 -1.6448 -1.7561
 4655SOL     OW25597   1.691   0.042  10.624  0.3694  0.1651 -0.0111
 4655SOL    HW125598   1.601   0.020  10.602  0.1180  3.1573 -2.0157
 4655SOL    HW225599   1.740   4.714  10.571  0.4947  2.1593 -2.2371
 4656SOL     OW25600   2.333   2.171   3.797  0.2594  0.1410 -0.1752
 4656SOL    HW125601   2.402   2.213   3.849  0.3984 -0.8383  0.4186
 4656SOL    HW225602   2.356   2.202   3.709  0.7829  1.9906  0.6048
 4657SOL     OW25603   0.759   3.068   3.932 -0.2018 -0.5820 -0.1796
 4657SOL    HW125604   0.706   3.107   3.862  0.8676 -0.6272 -1.0182
 4657SOL    HW225605   0.738   3.127   4.005  0.1688  0.5538 -0.9863
 4658SOL     OW25606   3.092   2.200   0.081 -0.6343  0.1128 -0.3965
 4658SOL    HW125607   3.040   2.141   0.134 -0.6208 -1.1969 -1.8305
 4658SOL    HW225608   3.091   2.152  17.734  1.1226 -1.2636  0.3741
 4659SOL     OW25609   1.672   4.524  11.465  0.9592  0.2003 -0.2966
 4659SOL    HW125610   1.760   4.487  11.473  1.2807  0.5039 -2.3776
 4659SOL    HW225611   1.684   4.604  11.516  1.2512  0.3239 -0.5626
 4660SOL     OW25612   3.985   4.048   5.425  0.2261 -0.0725  0.4599
 4660SOL    HW125613   4.077   4.057   5.399  0.0428 -1.0715 -0.5242
 4660SOL    HW225614   3.935   4.002   5.357  0.7544  0.5156 -0.3345
 4661SOL     OW25615   0.263   4.512   7.241  0.3731 -0.1843  0.1798
 4661SOL    HW125616   0.318   4.490   7.166 -0.2890 -0.8196 -0.1246
 4661SOL    HW225617   0.225   4.596   7.216 -0.1592 -0.3895  0.2852
 4662SOL     OW25618   2.622   4.144  15.394 -0.3709 -0.3091 -0.0542
 4662SOL    HW125619   2.545   4.111  15.440 -0.2013 -3.0466 -1.7711
 4662SOL    HW225620   2.600   4.100  15.312 -0.5274 -0.4966  0.0889
 4663SOL     OW25621   1.764   3.712   8.927 -0.0556  0.1602 -0.4687
 4663SOL    HW125622   1.698   3.776   8.898 -0.1602  0.5378  0.6091
 4663SOL    HW225623   1.801   3.750   9.006 -1.6292  1.1356 -0.1949
 4664SOL     OW25624   2.870   4.667   7.052  0.9338 -0.1807 -0.0382
 4664SOL    HW125625   2.925   4.595   7.082  0.5090  0.3481  1.9829
 4664SOL    HW225626   2.849   4.649   6.960 -1.2760  1.8513  0.0797
 4665SOL     OW25627   0.846   0.971  11.694 -0.1572  0.0171 -0.3416
 4665SOL    HW125628   0.811   1.001  11.778 -1.1984 -2.5737  0.1715
 4665SOL    HW225629   0.837   1.052  11.644 -0.6578  1.6324  2.3786
 4666SOL     OW25630   2.058   2.931  15.098 -0.2885 -0.7710 -0.6353
 4666SOL    HW125631   1.962   2.927  15.102 -0.2956 -0.2395 -0.2045
 4666SOL    HW225632   2.081   2.872  15.168 -1.2032 -1.4759 -0.9252
 4667SOL     OW25633   3.780   2.478   4.317 -0.1670 -0.2460  0.3151
 4667SOL    HW125634   3.725   2.503   4.391  2.5041 -0.2435  2.2732
 4667SOL    HW225635   3.809   2.397   4.357 -1.2131 -0.7329  0.0781
 4668SOL     OW25636   0.327   3.853   9.566  0.2103 -0.2225 -0.6606
 4668SOL    HW125637   0.273   3.921   9.526  0.4753  0.9269  0.9186
 4668SOL    HW225638   0.297   3.772   9.525 -0.9546  0.4164 -1.0755
 4669SOL     OW25639   0.550   4.439  16.997  0.0368 -0.5899 -0.1673
 4669SOL    HW125640   0.596   4.504  17.052 -2.1392 -0.6410  1.7182
 4669SOL    HW225641   0.498   4.504  16.950 -0.0409 -1.7617 -1.6659
 4670SOL     OW25642   0.434   4.344   8.130  0.2724  0.2311  0.7482
 4670SOL    HW125643   0.424   4.278   8.062 -2.9521  0.1305  1.3492
 4670SOL    HW225644   0.527   4.366   8.119 -0.0694  0.2203 -2.1416
 4671SOL     OW25645   1.759   0.971  12.884 -0.1111  0.0055 -0.2118
 4671SOL    HW125646   1.704   0.936  12.954  0.4547 -1.1748 -0.3635
 4671SOL    HW225647   1.803   0.895  12.845  1.0742  0.1739  0.7916
 4672SOL     OW25648   3.265   1.871   5.763  0.4050 -0.5059 -0.3099
 4672SOL    HW125649   3.338   1.926   5.793  1.6264 -0.2703 -3.7094
 4672SOL    HW225650   3.236   1.828   5.843  0.9095  1.7097  1.0678
 4673SOL     OW25651   3.349   2.442   1.246  0.1358  0.2222  0.7675
 4673SOL    HW125652   3.313   2.455   1.158  1.3461  0.7470  0.3397
 4673SOL    HW225653   3.416   2.511   1.239  1.2105 -1.0269 -1.1363
 4674SOL     OW25654   3.380   0.668   9.307 -0.6237 -0.0573  0.4219
 4674SOL    HW125655   3.314   0.609   9.270  1.1934 -0.9480 -1.3882
 4674SOL    HW225656   3.462   0.631   9.276 -0.2235 -0.1111  1.5613
 4675SOL     OW25657   1.009   1.199   4.714 -0.4290 -0.1007 -0.5037
 4675SOL    HW125658   1.016   1.114   4.671  1.8034  0.8137 -1.9811
 4675SOL    HW225659   1.069   1.258   4.668 -0.5772 -0.2412 -0.8794
 4676SOL     OW25660   2.259   1.607   3.628  0.0527  0.3409  0.1496
 4676SOL    HW125661   2.265   1.546   3.701  0.5495 -1.0647 -1.0568
 4676SOL    HW225662   2.221   1.679   3.678 -0.9143  1.0081 -1.5438
 4677SOL     OW25663   0.455   2.288   8.447  0.2192  0.3946  0.2194
 4677SOL    HW125664   0.527   2.349   8.464 -0.9213  1.6093  0.7495
 4677SOL    HW225665   0.502   2.208   8.424 -0.8184  0.1226 -1.0293
 4678SOL     OW25666   3.817   4.199   3.999 -0.0747  0.1542 -0.3216
 4678SOL    HW125667   3.819   4.169   3.908  1.6510 -0.0765 -0.2068
 4678SOL    HW225668   3.722   4.201   4.011  0.1605  0.2976  1.3973
 4679SOL     OW25669   3.951   3.337   8.985 -0.3176 -0.1846  0.3286
 4679SOL    HW125670   3.988   3.424   8.970 -2.8090  0.9459  0.6695
 4679SOL    HW225671   3.864   3.343   8.946 -0.8857  0.1078  1.6432
 4680SOL     OW25672   4.272   0.970   4.150 -0.2535  1.0846  0.4079
 4680SOL    HW125673   4.313   1.052   4.179 -0.2723  0.3361  2.5470
 4680SOL    HW225674   4.342   0.908   4.169  0.1940  0.6818 -2.5236
 4681SOL     OW25675   3.807   1.326   3.040 -0.7667 -0.1456  0.0458
 4681SOL    HW125676   3.758   1.400   3.004 -0.4852 -0.0402 -0.1222
 4681SOL    HW225677   3.777   1.253   2.985 -0.2976 -1.2523  1.2664
 4682SOL     OW25678   4.137   1.161  16.076 -0.2824 -0.2929  0.2241
 4682SOL    HW125679   4.042   1.170  16.065  0.2234  2.4146 -1.9995
 4682SOL    HW225680   4.171   1.226  16.014  3.3886 -0.1289  2.4716
 4683SOL     OW25681   1.653   3.981   2.746 -0.2901 -0.4155 -0.0298
 4683SOL    HW125682   1.683   4.024   2.826  1.7240 -1.0238 -0.4659
 4683SOL    HW225683   1.566   3.952   2.774 -0.0656 -0.8689  0.1964
 4684SOL     OW25684   3.086   3.890   3.491 -0.3362  0.1177 -0.6052
 4684SOL    HW125685   3.180   3.904   3.506 -0.8303  1.0326  1.6020
 4684SOL    HW225686   3.086   3.830   3.417  0.5136 -0.7531  0.1006
 4685SOL     OW25687   4.252   0.537   8.251 -0.4666 -0.7007  0.2756
 4685SOL    HW125688   4.335   0.582   8.231  0.1755 -1.3223  1.5539
 4685SOL    HW225689   4.230   0.595   8.325 -1.4250  1.5778 -1.7954
 4686SOL     OW25690   3.899   4.501   4.325  0.5518  0.4606 -0.3809
 4686SOL    HW125691   3.914   4.475   4.416  0.8296 -1.9777 -1.1299
 4686SOL    HW225692   3.876   4.593   4.335  2.4166  0.5694  2.8522
 4687SOL     OW25693   2.590   0.993   3.894 -0.3160  1.1469  0.0935
 4687SOL    HW125694   2.636   0.909   3.904  0.9114  1.9910  1.4740
 4687SOL    HW225695   2.613   1.020   3.805  1.5901  1.1319  0.5810
 4688SOL     OW25696   0.496   3.601   3.367 -0.1480 -0.3585  0.0803
 4688SOL    HW125697   0.575   3.611   3.314 -1.2088 -1.7950 -1.7500
 4688SOL    HW225698   0.448   3.681   3.343 -0.4230 -1.6974 -3.8194
 4689SOL     OW25699   3.874   1.035   8.080 -0.1718 -0.1073 -0.0067
 4689SOL    HW125700   3.863   1.029   7.985 -1.6709 -0.1668  0.1638
 4689SOL    HW225701   3.845   0.945   8.099  0.3791 -0.5217 -1.1772
 4690SOL     OW25702   0.283   4.544   9.530 -0.7671  0.2275  0.2658
 4690SOL    HW125703   0.279   4.565   9.436  0.1235 -0.3663  0.1003
 4690SOL    HW225704   0.328   4.460   9.527 -2.0777 -0.3768 -3.0772
 4691SOL     OW25705   2.451   3.699  16.615 -0.1067 -0.2564  0.3651
 4691SOL    HW125706   2.505   3.623  16.597 -0.2371 -0.8060  2.2879
 4691SOL    HW225707   2.428   3.734  16.529 -2.3999  0.4180  1.2535
 4692SOL     OW25708   3.469   1.010   5.691 -0.1336 -0.4343 -0.3027
 4692SOL    HW125709   3.383   0.982   5.658 -0.5347  0.0287  0.3333
 4692SOL    HW225710   3.520   1.031   5.614 -1.3809  1.5843 -0.5868
 4693SOL     OW25711   3.998   2.287  14.691  0.3833 -0.3854  0.4334
 4693SOL    HW125712   3.921   2.245  14.729  0.4147  1.2733  2.3345
 4693SOL    HW225713   4.024   2.316  14.778  1.1347 -0.6813  0.3071
 4694SOL     OW25714   1.936   4.164  10.724 -0.4222 -0.2842 -0.2984
 4694SOL    HW125715   1.893   4.079  10.727 -1.6640  0.3243 -0.8513
 4694SOL    HW225716   1.860   4.221  10.726  1.2106  1.7851  2.0628
 4695SOL     OW25717   2.682   4.533  11.879  0.2062  0.0360  0.1204
 4695SOL    HW125718   2.680   4.570  11.791 -0.0174 -3.1329 -1.1985
 4695SOL    HW225719   2.704   4.600  11.944  1.0402 -0.7016  0.5986
 4696SOL     OW25720   4.389   4.269  17.636 -0.2816  0.1134 -0.3949
 4696SOL    HW125721   4.462   4.212  17.611  0.1701  0.1026  0.9718
 4696SOL    HW225722   4.407   4.335  17.569  1.6261  0.9821  0.9916
 4697SOL     OW25723   4.701   4.138  12.692  0.3279  0.5708 -0.2073
 4697SOL    HW125724   0.036   4.102  12.636  0.1148 -2.0883  1.2298
 4697SOL    HW225725   4.695   4.227  12.658  1.7673  1.0127  0.6947
 4698SOL     OW25726   3.198   0.139   9.156 -0.2615 -0.0434 -0.5226
 4698SOL    HW125727   3.228   0.168   9.070  1.3679 -0.5975 -0.1464
 4698SOL    HW225728   3.286   0.118   9.188  0.5460 -0.7978 -3.2844
 4699SOL     OW25729   2.986   4.108   5.673  0.2228 -0.4681 -0.2101
 4699SOL    HW125730   2.917   4.042   5.679 -0.0094 -0.3584 -1.6410
 4699SOL    HW225731   3.020   4.122   5.762  0.6239 -0.5405 -0.3538
 4700SOL     OW25732   1.580   2.043   3.837  0.3144  0.6851  0.2072
 4700SOL    HW125733   1.654   2.037   3.898 -0.0724 -1.1706  0.5077
 4700SOL    HW225734   1.519   1.975   3.865 -0.0172  0.3493 -1.3352
 4701SOL     OW25735   4.508   1.103  17.138 -0.4770 -0.6126 -0.1543
 4701SOL    HW125736   4.459   1.136  17.063  2.4704  2.2706 -0.8195
 4701SOL    HW225737   4.448   1.039  17.176 -0.2472  0.4112  1.9892
 4702SOL     OW25738   0.166   3.562  12.751 -0.5813 -0.8272  0.2427
 4702SOL    HW125739   0.171   3.511  12.832 -1.2961 -0.9109  0.2364
 4702SOL    HW225740   0.249   3.608  12.753  0.4185 -2.6587  0.3651
 4703SOL     OW25741   4.634   3.287   6.849  0.1862  0.2421  0.5915
 4703SOL    HW125742   4.689   3.346   6.798  0.0531  1.9956  2.4654
 4703SOL    HW225743   4.650   3.323   6.936 -1.0697  0.2278  0.8179
 4704SOL     OW25744   1.289   3.315  12.859 -0.3881 -0.4205 -0.6394
 4704SOL    HW125745   1.205   3.300  12.815 -1.8539  4.7400  0.4697
 4704SOL    HW225746   1.340   3.272  12.790 -2.4379 -0.4819 -2.1334
 4705SOL     OW25747   1.398   0.703   7.227 -0.3337  0.1911 -0.1528
 4705SOL    HW125748   1.412   0.672   7.317 -3.2609  1.2548  0.6769
 4705SOL    HW225749   1.481   0.704   7.180  1.1145  2.0879  2.4190
 4706SOL     OW25750   4.520   3.032   8.117 -0.2394 -0.1574 -0.3064
 4706SOL    HW125751   4.425   3.027   8.109 -0.4327  1.9096  0.6391
 4706SOL    HW225752   4.537   2.950   8.071  0.4313  0.7290 -1.6426
 4707SOL     OW25753   3.369   0.283   6.733 -0.0531 -0.0024 -0.0404
 4707SOL    HW125754   3.464   0.286   6.726 -0.1262  1.2832 -0.5014
 4707SOL    HW225755   3.346   0.306   6.643  0.2826 -0.9204 -0.3537
 4708SOL     OW25756   4.396   3.578   5.673  0.1445  0.3054 -0.1110
 4708SOL    HW125757   4.315   3.540   5.709  1.1387 -1.7220 -0.0307
 4708SOL    HW225758   4.394   3.663   5.717 -1.0696  0.3546 -0.2506
 4709SOL     OW25759   1.974   0.835   0.586  0.5267 -0.2479 -0.4639
 4709SOL    HW125760   2.024   0.883   0.521  1.6306 -0.6411  0.1066
 4709SOL    HW225761   1.890   0.826   0.540  1.1372  1.1631 -1.8519
 4710SOL     OW25762   4.489   4.036   4.600  0.2337 -0.1465  0.1373
 4710SOL    HW125763   4.405   4.079   4.583 -0.2018 -0.5298  1.3114
 4710SOL    HW225764   4.451   3.948   4.607  1.4228 -0.5020  2.0933
 4711SOL     OW25765   4.395   2.837   1.499  0.4104 -0.1473 -0.1085
 4711SOL    HW125766   4.417   2.904   1.434 -0.0947  0.0269 -0.0968
 4711SOL    HW225767   4.310   2.803   1.474 -0.1576  1.6247 -0.5754
 4712SOL     OW25768   3.535   0.509   2.153 -0.3668  0.1985 -0.3643
 4712SOL    HW125769   3.580   0.460   2.084 -1.0979  1.8332 -2.0082
 4712SOL    HW225770   3.606   0.544   2.207  0.4937  0.5346 -1.7061
 4713SOL     OW25771   0.276   1.699  14.264  0.3424 -0.4901 -0.1324
 4713SOL    HW125772   0.334   1.685  14.339 -0.1153  1.0241  0.5241
 4713SOL    HW225773   0.202   1.740  14.309  0.2662 -2.0481  1.1509
 4714SOL     OW25774   4.089   2.763  17.316  0.8893 -0.0210 -0.6809
 4714SOL    HW125775   4.103   2.790  17.407  0.0581 -1.0624 -0.2460
 4714SOL    HW225776   4.133   2.835  17.272 -0.6106  0.3661 -1.5396
 4715SOL     OW25777   4.451   3.872   0.635 -0.9347  0.7613  0.3261
 4715SOL    HW125778   4.464   3.926   0.557 -0.1480  0.6111  0.3508
 4715SOL    HW225779   4.408   3.797   0.595 -0.8173  0.0316  1.5616
 4716SOL     OW25780   1.395   2.343  12.425  0.0739 -0.3394  0.1803
 4716SOL    HW125781   1.313   2.332  12.474  0.4408 -0.8486  0.6668
 4716SOL    HW225782   1.405   2.439  12.427  0.1611 -0.3544  0.3804
 4717SOL     OW25783   3.227   3.202  15.018  0.4415  0.2891  0.1211
 4717SOL    HW125784   3.222   3.199  14.922  1.0773  0.9839  0.0721
 4717SOL    HW225785   3.175   3.276  15.047  0.4625 -0.6351  2.5042
 4718SOL     OW25786   0.725   4.432   3.849  0.5404 -0.0614  0.0769
 4718SOL    HW125787   0.782   4.357   3.831  0.7671  0.1898 -0.2518
 4718SOL    HW225788   0.735   4.440   3.944  2.2036  0.5622 -0.1537
 4719SOL     OW25789   2.787   2.276  16.613 -0.1503 -0.8363  0.0404
 4719SOL    HW125790   2.781   2.216  16.687  3.7968 -1.9171 -0.5384
 4719SOL    HW225791   2.704   2.256  16.569 -0.1796 -0.4484 -0.0829
 4720SOL     OW25792   1.610   2.002  13.243  0.7418  0.0408 -0.0598
 4720SOL    HW125793   1.567   1.969  13.163  0.7076 -0.2792  0.0906
 4720SOL    HW225794   1.691   2.038  13.207  2.4794 -2.4026  1.4352
 4721SOL     OW25795   1.040   3.877   8.780 -0.1915  0.1820  0.2725
 4721SOL    HW125796   1.053   3.970   8.796 -1.3565  0.6888 -1.6931
 4721SOL    HW225797   0.955   3.872   8.824 -0.8266  0.1919 -0.9389
 4722SOL     OW25798   0.762   4.394   2.414 -0.3831 -0.3114  0.6130
 4722SOL    HW125799   0.809   4.329   2.363  0.2519  1.1859 -0.6987
 4722SOL    HW225800   0.750   4.347   2.497 -2.6130  1.4984  1.3204
 4723SOL     OW25801   1.264   3.368   5.727  0.2635  1.0816 -0.2853
 4723SOL    HW125802   1.335   3.433   5.718  0.9613  0.6208  1.8842
 4723SOL    HW225803   1.277   3.347   5.820  1.0818  3.5644  0.1727
 4724SOL     OW25804   4.163   0.069  16.484  0.3209 -0.1203 -0.0080
 4724SOL    HW125805   4.078   0.024  16.487  1.1857 -1.5945  1.9824
 4724SOL    HW225806   4.188   0.065  16.576 -0.7670  3.6478  0.4680
 4725SOL     OW25807   1.262   1.394  16.520  0.2019  0.4828 -0.1459
 4725SOL    HW125808   1.291   1.475  16.479  1.1375  0.0178 -0.3935
 4725SOL    HW225809   1.336   1.377  16.577  1.0915  0.2781 -1.3610
 4726SOL     OW25810   0.014   1.748   6.970 -0.5924 -0.5396  0.3942
 4726SOL    HW125811   4.710   1.688   6.906  0.6145  0.9033 -1.6993
 4726SOL    HW225812   4.671   1.788   7.010 -0.4831  1.4687 -1.3686
 4727SOL     OW25813   0.730   1.379   8.475 -0.4721  0.3472 -0.1871
 4727SOL    HW125814   0.794   1.325   8.522 -1.4923  0.4080  1.2875
 4727SOL    HW225815   0.752   1.463   8.515 -1.5426  0.5284  0.0125
 4728SOL     OW25816   2.049   0.033   8.563 -0.2707 -0.0862  0.0077
 4728SOL    HW125817   2.081   4.685   8.528 -0.0084 -0.0937  0.2656
 4728SOL    HW225818   1.953   0.030   8.560 -0.4426  2.9178  1.7938
 4729SOL     OW25819   1.393   1.701   2.358 -0.0174  0.3139 -0.2128
 4729SOL    HW125820   1.465   1.643   2.382  0.0560  0.6043  0.2594
 4729SOL    HW225821   1.345   1.720   2.438 -0.3773  2.4156 -0.9321
 4730SOL     OW25822   0.274   2.794   8.300 -0.4772  0.1943  0.2711
 4730SOL    HW125823   0.272   2.874   8.353  1.8904 -0.6295  1.6097
 4730SOL    HW225824   0.300   2.822   8.212 -0.5158  0.0984  0.2283
 4731SOL     OW25825   0.114   1.596   9.405  0.4649  0.6044  0.2068
 4731SOL    HW125826   0.123   1.559   9.493 -1.7818  0.1230  0.2327
 4731SOL    HW225827   0.188   1.656   9.394  1.2305 -0.1857  1.0047
 4732SOL     OW25828   0.455   1.695   5.428  0.4946  0.8125  0.4556
 4732SOL    HW125829   0.512   1.651   5.364  0.2171 -0.7920  1.3135
 4732SOL    HW225830   0.477   1.655   5.512  2.3145  3.3509  1.1766
 4733SOL     OW25831   3.631   3.979   8.303 -0.4684  0.2150 -0.0950
 4733SOL    HW125832   3.647   4.057   8.356  1.7435 -0.8952  0.9011
 4733SOL    HW225833   3.539   3.979   8.330  0.7289 -1.1034  4.0391
 4734SOL     OW25834   2.702   0.033   3.909  0.0468  0.2117  0.0325
 4734SOL    HW125835   2.723   4.681   3.944 -1.2802 -0.0064  0.2976
 4734SOL    HW225836   2.753   0.090   3.967 -0.9702  1.1177  0.0463
 4735SOL     OW25837   1.279   3.972  16.443  0.1050  0.0392 -0.2135
 4735SOL    HW125838   1.297   3.888  16.486 -0.5387  0.6192  1.2008
 4735SOL    HW225839   1.253   3.943  16.355 -0.5595 -1.6538  0.5445
 4736SOL     OW25840   1.443   2.651   2.963 -0.5325 -0.2491 -0.1872
 4736SOL    HW125841   1.524   2.699   2.979  0.7196 -2.0484 -1.2746
 4736SOL    HW225842   1.404   2.692   2.886 -0.4912 -1.4336 -0.8374
 4737SOL     OW25843   3.573   2.502   8.373 -0.5122 -0.4232  0.3524
 4737SOL    HW125844   3.658   2.509   8.328 -1.8029 -1.1038 -2.2132
 4737SOL    HW225845   3.518   2.443   8.322  0.5481 -0.9023 -0.2414
 4738SOL     OW25846   0.585   1.463   3.593 -0.1215  0.2193 -0.2159
 4738SOL    HW125847   0.540   1.404   3.654 -0.3074  0.2945 -0.2827
 4738SOL    HW225848   0.542   1.545   3.618 -0.8477 -0.2708  0.1450
 4739SOL     OW25849   2.256   1.402   3.123 -0.0692  0.1919 -0.0403
 4739SOL    HW125850   2.297   1.347   3.055  1.2795  0.0698  0.8813
 4739SOL    HW225851   2.333   1.430   3.172  0.9243 -1.1990 -0.8059
 4740SOL     OW25852   0.053   0.334  17.180  0.7160 -0.1562 -0.2220
 4740SOL    HW125853   0.097   0.419  17.172  0.6818  0.1336  2.6859
 4740SOL    HW225854   4.723   0.332  17.109  0.0990  3.0393  0.2772
 4741SOL     OW25855   2.457   4.475   4.852  0.5045  0.1872 -0.1420
 4741SOL    HW125856   2.459   4.397   4.797  0.1054  0.3908 -0.4388
 4741SOL    HW225857   2.428   4.439   4.936 -0.5492  0.7422 -0.2811
 4742SOL     OW25858   2.288   4.270   2.621 -0.0918  0.6347  0.2511
 4742SOL    HW125859   2.247   4.323   2.689  0.6068  1.5571 -0.0409
 4742SOL    HW225860   2.319   4.201   2.680  1.1630  0.0162 -1.1294
 4743SOL     OW25861   3.240   0.348   4.320 -0.0762 -0.9823 -0.1181
 4743SOL    HW125862   3.221   0.437   4.291  1.5386 -0.7853 -0.6232
 4743SOL    HW225863   3.277   0.359   4.408 -0.2421  1.3814 -0.3477
 4744SOL     OW25864   3.343   1.164   3.374 -0.4585 -0.2588  0.1851
 4744SOL    HW125865   3.400   1.201   3.307  1.0052 -0.5829  1.2455
 4744SOL    HW225866   3.274   1.229   3.379 -0.4677 -0.1424 -1.4677
 4745SOL     OW25867   0.309   0.377  10.351 -0.2780 -0.1614  0.2365
 4745SOL    HW125868   0.270   0.302  10.305 -0.0679 -0.7953  1.0879
 4745SOL    HW225869   0.340   0.340  10.434  0.0866 -0.2020  0.0820
 4746SOL     OW25870   3.829   3.015   6.353 -0.1861  0.8055 -0.1937
 4746SOL    HW125871   3.827   2.925   6.319  1.9967  0.4967  0.4874
 4746SOL    HW225872   3.736   3.036   6.349 -0.8527 -1.7965  1.2760
 4747SOL     OW25873   1.596   1.122  12.154 -0.3067  0.1947  0.3931
 4747SOL    HW125874   1.688   1.099  12.159 -0.3142 -0.1880 -1.2725
 4747SOL    HW225875   1.568   1.034  12.131  1.3890 -0.4797  0.9182
 4748SOL     OW25876   1.319   2.239  16.160 -0.0934 -0.1393  0.5824
 4748SOL    HW125877   1.346   2.235  16.251  0.9483 -1.0061  0.2419
 4748SOL    HW225878   1.312   2.145  16.143  3.7725 -0.2506 -0.4311
 4749SOL     OW25879   4.253   0.203   5.814 -0.3140  0.0004 -0.3375
 4749SOL    HW125880   4.228   0.271   5.751  0.4178  0.1476 -0.4636
 4749SOL    HW225881   4.222   0.234   5.899 -0.3137  0.4192 -0.4895
 4750SOL     OW25882   4.269   4.347   7.228  0.2463 -0.0881  0.3912
 4750SOL    HW125883   4.236   4.343   7.139  1.7833  1.9441 -0.2424
 4750SOL    HW225884   4.200   4.391   7.279  1.9332  2.1263  0.7553
 4751SOL     OW25885   3.210   1.706  16.428  0.5342  0.1687  0.0244
 4751SOL    HW125886   3.202   1.702  16.333  3.2863 -0.0836 -0.1988
 4751SOL    HW225887   3.305   1.695  16.429  0.9864  4.3894  2.7282
 4752SOL     OW25888   3.824   0.903   3.979 -0.2675 -0.8242  0.3760
 4752SOL    HW125889   3.913   0.937   3.973 -0.8206  0.8429  1.7344
 4752SOL    HW225890   3.768   0.973   3.946  1.2229  0.7339  1.1647
 4753SOL     OW25891   1.766   4.404   2.135  0.3024  0.0294 -0.3622
 4753SOL    HW125892   1.762   4.354   2.217 -1.4130  4.2034  2.0806
 4753SOL    HW225893   1.772   4.495   2.162  1.4039 -0.1058 -0.1520
 4754SOL     OW25894   3.407   0.023   6.883 -0.2588  0.0047  0.1269
 4754SOL    HW125895   3.408   0.119   6.881 -1.6564 -0.0027 -0.9273
 4754SOL    HW225896   3.314   0.006   6.896 -0.3118 -0.8337 -1.3017
 4755SOL     OW25897   0.651   4.044   7.809 -0.6474 -0.5321 -0.3377
 4755SOL    HW125898   0.740   4.034   7.774 -1.4035 -2.1332 -1.8269
 4755SOL    HW225899   0.652   3.975   7.875  0.6647 -0.1577  0.0164
 4756SOL     OW25900   3.824   2.330   8.475 -0.1059  1.0247 -0.6653
 4756SOL    HW125901   3.902   2.298   8.430 -0.3425 -1.5004  0.7195
 4756SOL    HW225902   3.768   2.254   8.460  0.8246  0.3388 -0.6941
 4757SOL     OW25903   1.451   0.741  13.499 -0.1810  0.0779 -0.1081
 4757SOL    HW125904   1.391   0.797  13.548 -2.1812 -2.4866  0.4065
 4757SOL    HW225905   1.460   0.789  13.416 -2.0453  0.2512 -0.2135
 4758SOL     OW25906   4.601   1.321  14.407  0.0796 -0.3891  0.5055
 4758SOL    HW125907   4.666   1.317  14.476  1.5576 -2.0999 -0.9812
 4758SOL    HW225908   4.539   1.384  14.443 -2.6872 -1.6202 -2.0511
 4759SOL     OW25909   3.354   0.303   9.539  0.0235 -0.2077 -0.0594
 4759SOL    HW125910   3.276   0.332   9.491  1.2620  0.7578 -1.4840
 4759SOL    HW225911   3.318   0.236   9.598  0.6440 -0.5657 -0.0869
 4760SOL     OW25912   0.259   2.788   5.869  0.3874  0.4957 -0.2099
 4760SOL    HW125913   0.167   2.762   5.855  0.9809 -1.7032 -0.0307
 4760SOL    HW225914   0.256   2.801   5.964 -1.1616  1.0464 -0.3219
 4761SOL     OW25915   4.094   0.242   6.736  0.1418 -0.1718  0.2030
 4761SOL    HW125916   4.112   0.320   6.789 -1.7746  0.4866 -0.1349
 4761SOL    HW225917   4.002   0.224   6.755 -0.3800  0.6298 -1.5546
 4762SOL     OW25918   4.656   4.246   5.199  0.3089  0.2760 -0.4161
 4762SOL    HW125919   4.594   4.279   5.265  1.4192 -0.9420  1.2360
 4762SOL    HW225920   4.680   4.328   5.156 -1.2168  1.7958  1.5918
 4763SOL     OW25921   0.704   0.475   3.445 -0.1196  0.8411  0.2741
 4763SOL    HW125922   0.717   0.526   3.525 -1.9168 -0.9752  1.7233
 4763SOL    HW225923   0.707   0.543   3.378  0.6208  2.1638  1.6387
 4764SOL     OW25924   2.311   4.232  11.852  0.0349 -0.5650 -0.1659
 4764SOL    HW125925   2.340   4.306  11.906  0.0752 -1.5236  1.1061
 4764SOL    HW225926   2.326   4.165  11.918 -0.8010 -1.9720 -1.4184
 4765SOL     OW25927   3.571   0.230   5.227  0.1393 -0.2101 -0.2890
 4765SOL    HW125928   3.580   0.185   5.142  1.5977 -0.2644 -0.1175
 4765SOL    HW225929   3.616   0.169   5.285  2.4609  2.5992  0.8577
 4766SOL     OW25930   0.371   4.176   2.266  0.5838 -0.0780 -0.1559
 4766SOL    HW125931   0.311   4.227   2.212  0.1819 -1.7005 -1.2345
 4766SOL    HW225932   0.338   4.186   2.355  0.0690 -1.4221 -0.2067
 4767SOL     OW25933   4.506   3.500  14.038 -0.1767  0.6770  0.3767
 4767SOL    HW125934   4.596   3.530  14.031 -0.0289 -0.3913 -2.4508
 4767SOL    HW225935   4.490   3.468  13.949  0.6204  1.3453 -0.0090
 4768SOL     OW25936   4.504   4.142   7.029  0.0295 -0.1580  0.2112
 4768SOL    HW125937   4.464   4.156   7.115  1.5694 -2.6764  1.3190
 4768SOL    HW225938   4.568   4.080   7.062 -2.9592 -1.5652  3.4713
 4769SOL     OW25939   1.601   2.855   3.638 -0.0034  0.5956  0.5503
 4769SOL    HW125940   1.612   2.945   3.668 -1.5002  1.5091 -1.6444
 4769SOL    HW225941   1.650   2.810   3.706  1.7454  2.3236  0.4408
 4770SOL     OW25942   3.792   0.228   6.033 -0.0092 -0.2173 -0.1580
 4770SOL    HW125943   3.809   0.152   5.977  1.2899  0.6798 -0.9871
 4770SOL    HW225944   3.736   0.286   5.982  1.3822  0.9634 -0.3293
 4771SOL     OW25945   4.633   2.795  15.352 -0.0393 -0.2310  0.6059
 4771SOL    HW125946   4.614   2.707  15.384 -2.7616  0.1962  0.2188
 4771SOL    HW225947   4.596   2.842  15.427  1.9890  2.0702  0.1613
 4772SOL     OW25948   0.979   0.837  10.907  0.2379 -0.1557 -0.1609
 4772SOL    HW125949   0.936   0.897  10.968  0.4085 -0.9950  0.7799
 4772SOL    HW225950   1.060   0.822  10.956  0.1903 -0.4079 -0.1628
 4773SOL     OW25951   3.215   3.776   2.639  0.6719 -0.3435 -0.2499
 4773SOL    HW125952   3.256   3.776   2.552 -0.4825  1.5658 -0.7991
 4773SOL    HW225953   3.279   3.838   2.675 -0.1840  0.3474  0.0700
 4774SOL     OW25954   3.747   3.135  17.314  0.0793  0.0104 -0.1072
 4774SOL    HW125955   3.832   3.110  17.278  1.7654  1.5882  2.7906
 4774SOL    HW225956   3.750   3.230  17.299  0.9865 -0.1498 -0.9345
 4775SOL     OW25957   3.833   3.754   8.836  0.0900  0.4261 -0.5600
 4775SOL    HW125958   3.765   3.724   8.776  0.8847 -1.7385 -0.3968
 4775SOL    HW225959   3.843   3.846   8.812  1.6323 -0.1036 -1.9135
 4776SOL     OW25960   1.172   2.415   8.793  0.2838 -0.1571 -0.0840
 4776SOL    HW125961   1.104   2.392   8.730 -0.1742 -2.4592  1.2562
 4776SOL    HW225962   1.199   2.501   8.760  0.7246  0.0554  0.8337
 4777SOL     OW25963   1.357   0.167  13.581  0.3864 -0.0677 -0.1961
 4777SOL    HW125964   1.329   0.201  13.666 -0.9319 -2.3212  0.2768
 4777SOL    HW225965   1.268   0.159  13.545  0.1551  1.8441 -0.0669
 4778SOL     OW25966   1.613   4.555  17.015  0.0241  0.7922  0.5143
 4778SOL    HW125967   1.569   4.502  17.082 -0.8141 -0.7063 -1.2191
 4778SOL    HW225968   1.596   4.645  17.041 -0.1246  0.4691  1.5539
 4779SOL     OW25969   0.590   1.942   4.450 -0.2947 -0.2935 -0.1409
 4779SOL    HW125970   0.670   1.890   4.459 -0.3171 -0.5790 -1.6140
 4779SOL    HW225971   0.610   2.015   4.509 -1.2308  0.3555 -0.6256
 4780SOL     OW25972   4.340   2.813   0.273 -0.5808 -0.1543  0.3114
 4780SOL    HW125973   4.425   2.782   0.305  0.1602 -0.0332 -1.5297
 4780SOL    HW225974   4.300   2.730   0.248  0.3380 -0.2024 -1.0387
 4781SOL     OW25975   1.993   3.948  15.471 -0.0478 -0.2906 -0.4015
 4781SOL    HW125976   1.902   3.972  15.458 -0.1849 -0.8385 -0.4792
 4781SOL    HW225977   2.015   3.904  15.388  1.4484 -0.8942  0.3104
 4782SOL     OW25978   3.031   0.930   4.573  0.6006  0.8077 -0.2668
 4782SOL    HW125979   3.094   0.997   4.549  0.5560  1.2731  0.9097
 4782SOL    HW225980   3.086   0.852   4.568 -1.5918 -0.7750  0.3050
 4783SOL     OW25981   1.487   3.163   7.187  0.2500  0.1074  0.0974
 4783SOL    HW125982   1.505   3.138   7.278 -3.4833  1.7121  1.2761
 4783SOL    HW225983   1.520   3.082   7.147 -1.0617 -0.8503  0.9475
 4784SOL     OW25984   2.514   2.009   4.573 -0.4308  0.2241  0.3724
 4784SOL    HW125985   2.584   2.069   4.599 -0.9755  0.9190  0.2142
 4784SOL    HW225986   2.528   1.944   4.642  1.7941 -0.5084 -0.7626
 4785SOL     OW25987   1.667   3.476   1.118  0.4414 -0.2078  0.3277
 4785SOL    HW125988   1.717   3.401   1.084  3.4479  0.9745  2.1757
 4785SOL    HW225989   1.664   3.540   1.046  1.4538  0.5289  0.9362
 4786SOL     OW25990   3.039   4.479   5.285 -0.7937  0.5953 -0.3149
 4786SOL    HW125991   3.077   4.446   5.366 -2.9205 -0.7864  0.1275
 4786SOL    HW225992   2.984   4.406   5.255 -2.7730  1.6191  0.7891
 4787SOL     OW25993   4.389   4.471   3.391 -0.1914  0.1368 -0.3115
 4787SOL    HW125994   4.360   4.542   3.333 -1.6450  1.2842  1.8108
 4787SOL    HW225995   4.453   4.419   3.343  0.3895  0.8735 -0.3379
 4788SOL     OW25996   3.212   0.783   5.233 -0.2656  0.2465  0.3457
 4788SOL    HW125997   3.199   0.853   5.169  0.2954  1.2368  1.3202
 4788SOL    HW225998   3.161   0.820   5.305  0.0518  1.2677  0.0435
 4789SOL     OW25999   0.567   2.367  11.234  0.6884  0.0428 -0.0220
 4789SOL    HW126000   0.556   2.286  11.283  0.9459 -0.6462 -1.1045
 4789SOL    HW226001   0.525   2.337  11.154  1.1965  3.2510 -1.5092
 4790SOL     OW26002   0.890   3.321   7.662 -0.4598  0.0056  0.3599
 4790SOL    HW126003   0.953   3.312   7.591 -0.2587  1.6180  0.3374
 4790SOL    HW226004   0.824   3.262   7.626  0.5730 -0.5828 -0.5774
 4791SOL     OW26005   2.321   2.173   5.293 -0.6849  0.2806 -0.0274
 4791SOL    HW126006   2.283   2.108   5.353 -1.5506 -0.9767 -1.9050
 4791SOL    HW226007   2.343   2.230   5.366 -0.2153  2.3422 -1.7815
 4792SOL     OW26008   0.966   2.054   9.378  0.3180  0.6088  0.5428
 4792SOL    HW126009   0.914   1.977   9.356  0.2795  0.7120  0.2744
 4792SOL    HW226010   1.055   2.018   9.386  0.0474 -0.7417 -2.5481
 4793SOL     OW26011   1.832   2.467   8.854 -0.2646  0.1560 -0.0543
 4793SOL    HW126012   1.860   2.383   8.818 -1.4992  0.2784 -1.2483
 4793SOL    HW226013   1.913   2.510   8.883 -0.8719  0.4502  1.2165
 4794SOL     OW26014   0.760   1.650   7.088  0.3287 -0.1116 -0.3385
 4794SOL    HW126015   0.706   1.607   7.022  0.6804 -1.3312  0.1682
 4794SOL    HW226016   0.690   1.672   7.150  1.2462 -0.9353  0.9710
 4795SOL     OW26017   0.950   1.477   9.632  0.0801 -0.6093 -0.0344
 4795SOL    HW126018   0.899   1.490   9.552  0.2167 -1.3209 -0.2418
 4795SOL    HW226019   0.887   1.426   9.682 -0.7348 -0.7003 -1.1535
 4796SOL     OW26020   0.658   2.452   6.126 -0.1944 -0.0776 -0.1661
 4796SOL    HW126021   0.695   2.366   6.105 -1.9282 -1.1792  1.1893
 4796SOL    HW226022   0.703   2.457   6.210  0.1452 -0.6843 -0.3096
 4797SOL     OW26023   2.602   0.324   6.569 -0.2162  0.1808  0.4800
 4797SOL    HW126024   2.527   0.311   6.510 -1.1450  1.6481  1.3048
 4797SOL    HW226025   2.663   0.258   6.538 -0.1700  0.9023 -0.9496
 4798SOL     OW26026   2.430   1.179  13.340 -0.0395  0.2193  0.1942
 4798SOL    HW126027   2.483   1.103  13.365 -1.5721 -0.9065  0.0846
 4798SOL    HW226028   2.342   1.145  13.356  1.9437 -3.4662  3.4545
 4799SOL     OW26029   0.260   1.098   8.666  0.3839 -0.0057  0.1029
 4799SOL    HW126030   0.234   1.176   8.617  2.0038  1.1076  1.0103
 4799SOL    HW226031   0.183   1.042   8.662 -0.1129  0.4456  3.4246
 4800SOL     OW26032   2.139   0.379  14.282  0.1069 -0.0570 -0.1191
 4800SOL    HW126033   2.224   0.420  14.291 -0.7548  1.4814  1.0710
 4800SOL    HW226034   2.156   0.291  14.316 -0.4243 -0.1588 -0.1063
 4801SOL     OW26035   0.178   0.198  14.932 -0.2085 -0.1411  0.6930
 4801SOL    HW126036   0.183   0.286  14.970 -0.0171  0.8425 -1.5704
 4801SOL    HW226037   0.124   0.201  14.853  0.6110  0.7318  0.1731
 4802SOL     OW26038   1.014   0.374   5.654  0.5352  0.1201  0.5402
 4802SOL    HW126039   0.932   0.350   5.698 -1.4061 -1.0596 -3.6609
 4802SOL    HW226040   1.053   0.409   5.734 -0.8966 -1.1096  1.7900
 4803SOL     OW26041   1.556   3.229   5.748 -0.0568  0.2135  0.6031
 4803SOL    HW126042   1.639   3.255   5.707  0.8814 -0.0787  2.2956
 4803SOL    HW226043   1.515   3.178   5.678 -2.3902  2.2969  0.4789
 4804SOL     OW26044   2.870   0.396   3.940  0.1534  0.1903  0.2192
 4804SOL    HW126045   2.854   0.326   4.004  0.1639 -0.6455 -0.6949
 4804SOL    HW226046   2.922   0.343   3.879  0.2314  0.7045 -0.1585
 4805SOL     OW26047   4.560   3.490  13.502 -0.9580 -0.3708  0.8646
 4805SOL    HW126048   4.624   3.469  13.434 -1.6439 -1.2687  0.4900
 4805SOL    HW226049   4.573   3.584  13.516  0.7821 -1.0281  3.5356
 4806SOL     OW26050   2.645   4.013   0.597  0.1190  0.6061 -0.4627
 4806SOL    HW126051   2.585   4.039   0.667 -1.2239 -1.1987 -0.9451
 4806SOL    HW226052   2.719   3.981   0.650  0.5645  0.3261 -1.2448
 4807SOL     OW26053   1.122   3.378   8.103 -0.1619  0.7917 -0.2384
 4807SOL    HW126054   1.141   3.464   8.067 -0.4893 -0.4362 -3.3075
 4807SOL    HW226055   1.203   3.328   8.089 -0.5578 -0.1948  0.9325
 4808SOL     OW26056   2.218   1.234   2.198  0.7865 -0.2952 -0.4949
 4808SOL    HW126057   2.200   1.140   2.195 -0.4832 -0.1246  1.3060
 4808SOL    HW226058   2.129   1.269   2.196  0.4650 -1.1744 -1.5954
 4809SOL     OW26059   4.012   1.226  10.642 -0.5898  0.1027  0.2190
 4809SOL    HW126060   3.945   1.277  10.595 -0.1796  1.2273  0.8486
 4809SOL    HW226061   4.020   1.283  10.719 -0.8428 -0.7653  0.8880
 4810SOL     OW26062   0.971   3.068   0.698  0.4632  0.3116 -0.2455
 4810SOL    HW126063   0.937   3.136   0.641 -1.3580  1.8428  2.6707
 4810SOL    HW226064   0.970   3.114   0.782  2.3678  1.1684 -0.6958
 4811SOL     OW26065   0.710   0.573  15.301 -0.2284  0.3043 -0.3185
 4811SOL    HW126066   0.684   0.484  15.321 -3.7671  1.1396 -1.2419
 4811SOL    HW226067   0.662   0.587  15.219  0.2242 -1.4408 -0.8668
 4812SOL     OW26068   4.596   4.287   7.679  0.1205  0.1846 -0.2403
 4812SOL    HW126069   4.551   4.218   7.728  2.1160  0.4027  1.8896
 4812SOL    HW226070   4.660   4.226   7.642  0.6294 -0.4087  1.5973
 4813SOL     OW26071   2.225   3.106  14.939 -0.4210  0.3097  0.4599
 4813SOL    HW126072   2.302   3.066  14.982  0.5197 -1.6469 -3.0624
 4813SOL    HW226073   2.155   3.064  14.989 -1.4209 -0.8004 -1.9186
 4814SOL     OW26074   0.923   1.633   8.968 -0.3459 -0.1404  0.3902
 4814SOL    HW126075   0.999   1.689   8.985  1.9239 -2.7924 -1.1931
 4814SOL    HW226076   0.872   1.690   8.909  0.1350  0.8364  0.9098
 4815SOL     OW26077   4.250   2.299   0.941  0.0442  0.5012 -0.0962
 4815SOL    HW126078   4.321   2.354   0.908  2.1274 -1.3517  1.3441
 4815SOL    HW226079   4.176   2.347   0.903 -0.8771 -1.3021 -0.5802
 4816SOL     OW26080   1.248   1.954   3.278  0.4629  0.0067 -0.1446
 4816SOL    HW126081   1.250   1.936   3.184 -0.0939  0.3401 -0.2198
 4816SOL    HW226082   1.243   2.049   3.282 -0.5656  0.0062 -1.4289
 4817SOL     OW26083   3.638   0.572   9.295  0.4390 -0.3849  0.1941
 4817SOL    HW126084   3.705   0.635   9.267  0.5182 -1.2297 -1.5386
 4817SOL    HW226085   3.625   0.525   9.212 -0.7807  0.0104  0.1511
 4818SOL     OW26086   0.875   1.858   6.001  0.5051  0.0315  0.5977
 4818SOL    HW126087   0.952   1.904   5.967  0.2837 -1.1496 -1.4873
 4818SOL    HW226088   0.881   1.872   6.096 -0.4234  0.9087  0.5305
 4819SOL     OW26089   1.909   3.100   8.722  0.2162  0.5019  0.2894
 4819SOL    HW126090   2.003   3.114   8.717  0.1439  1.8761  2.9609
 4819SOL    HW226091   1.882   3.145   8.641 -0.2376 -2.0110 -0.9595
 4820SOL     OW26092   4.393   0.297   2.860  0.4799 -0.1776 -0.7799
 4820SOL    HW126093   4.307   0.279   2.899  0.4640 -2.7958 -2.0425
 4820SOL    HW226094   4.422   0.206   2.858 -1.3453 -0.7791  0.0924
 4821SOL     OW26095   4.371   0.470   5.969  0.1830  0.0284  0.0410
 4821SOL    HW126096   4.294   0.427   6.006  0.3841 -0.2052  0.1908
 4821SOL    HW226097   4.338   0.528   5.901 -1.7174 -1.4435 -0.2800
 4822SOL     OW26098   3.205   0.635   6.006 -0.3623 -0.0646  0.4211
 4822SOL    HW126099   3.298   0.645   6.026 -0.5298  1.7898  0.3079
 4822SOL    HW226100   3.189   0.542   6.024 -1.0720  0.3707  2.0390
 4823SOL     OW26101   0.084   2.409   2.054  0.4438 -0.0001  0.6319
 4823SOL    HW126102   0.041   2.326   2.073  0.6103  0.3590  2.5810
 4823SOL    HW226103   0.145   2.383   1.986  1.8079  0.7024  1.5923
 4824SOL     OW26104   3.314   3.062   0.563 -0.1837 -0.0406 -0.4239
 4824SOL    HW126105   3.369   3.139   0.551  0.2644 -0.6182 -2.1021
 4824SOL    HW226106   3.305   3.054   0.658 -0.3536  0.8640 -0.3636
 4825SOL     OW26107   2.494   4.493  17.299 -0.2167  0.0518 -0.0699
 4825SOL    HW126108   2.561   4.434  17.334  0.2625 -0.3726 -1.6955
 4825SOL    HW226109   2.470   4.441  17.223 -0.3952 -1.0761  0.7557
 4826SOL     OW26110   2.051   2.413   4.226  0.0766 -0.5052 -0.6532
 4826SOL    HW126111   2.140   2.436   4.197 -0.1475  2.2635  0.9065
 4826SOL    HW226112   2.015   2.351   4.163  1.3015 -2.4708  0.5616
 4827SOL     OW26113   3.399   4.506   9.806  0.1635 -0.0737 -0.7339
 4827SOL    HW126114   3.426   4.487   9.896 -0.3905 -1.1655 -0.7909
 4827SOL    HW226115   3.314   4.463   9.796  0.8967 -1.5693 -0.5484
 4828SOL     OW26116   1.427   1.620   4.650 -0.2194 -0.1621  0.5873
 4828SOL    HW126117   1.462   1.548   4.598 -0.1175 -0.8371  1.6030
 4828SOL    HW226118   1.469   1.691   4.601 -3.3087  2.0940  1.1743
 4829SOL     OW26119   1.596   4.510  10.922  0.0697  0.7330 -0.1226
 4829SOL    HW126120   1.548   4.523  11.003  0.8538 -0.0656  0.4649
 4829SOL    HW226121   1.647   4.591  10.925 -0.0773  0.8009  0.4662
 4830SOL     OW26122   1.803   0.692   4.353  0.7932  0.4607  0.5401
 4830SOL    HW126123   1.898   0.686   4.343  1.0022  1.8925  1.7791
 4830SOL    HW226124   1.783   0.770   4.301  0.2376 -0.1253 -0.1256
 4831SOL     OW26125   2.916   0.261  15.364  0.0066 -0.3884 -0.3377
 4831SOL    HW126126   2.840   0.224  15.319 -0.5050  0.9488 -0.5578
 4831SOL    HW226127   2.979   0.242  15.294  1.7652 -0.9894  1.4083
 4832SOL     OW26128   2.931   3.613   9.743 -0.6896 -0.0864 -0.8718
 4832SOL    HW126129   2.996   3.544   9.754 -0.7930  0.0723  0.7277
 4832SOL    HW226130   2.851   3.573   9.709 -0.1521 -0.8571 -1.2225
 4833SOL     OW26131   0.505   1.647   3.293 -0.2957  0.3132 -0.6418
 4833SOL    HW126132   0.453   1.568   3.308  1.7502 -0.3483  3.0129
 4833SOL    HW226133   0.443   1.720   3.302 -3.8923 -2.6187 -1.4173
 4834SOL     OW26134   0.366   1.417   3.401  0.0661  0.3362  0.1310
 4834SOL    HW126135   0.407   1.458   3.477 -2.7916 -0.1208  1.8707
 4834SOL    HW226136   0.329   1.336   3.435 -1.2462  1.0209  0.3347
 4835SOL     OW26137   1.263   0.297   7.738 -0.1496  0.2435  0.3482
 4835SOL    HW126138   1.210   0.224   7.771 -1.8033  0.5091 -1.6999
 4835SOL    HW226139   1.202   0.326   7.670 -0.8742 -1.1571  0.3953
 4836SOL     OW26140   2.398   2.242   4.145 -0.4673 -0.2992  0.5818
 4836SOL    HW126141   2.492   2.255   4.140 -0.7160  1.4452  0.5670
 4836SOL    HW226142   2.390   2.222   4.239  0.6001 -3.2098  0.0437
 4837SOL     OW26143   0.179   2.484   1.023  0.0066  0.6496 -0.4604
 4837SOL    HW126144   0.151   2.499   1.113  0.3945 -1.0759 -0.0370
 4837SOL    HW226145   0.261   2.436   1.038  0.0333  1.1566  1.0011
 4838SOL     OW26146   3.732   1.146   3.252  0.0780  0.0118 -0.1333
 4838SOL    HW126147   3.794   1.194   3.196  1.4710  0.0663  1.4663
 4838SOL    HW226148   3.751   1.053   3.239  2.1187  0.0032  2.9153
 4839SOL     OW26149   2.570   1.798   9.448  0.3618  0.0465 -0.5302
 4839SOL    HW126150   2.569   1.802   9.543 -1.7630  0.6240 -0.5838
 4839SOL    HW226151   2.490   1.752   9.421  1.0658 -1.1876 -0.5278
 4840SOL     OW26152   2.778   0.479   2.391  0.3205  0.4005 -0.5095
 4840SOL    HW126153   2.827   0.550   2.350  0.4672  1.5294  1.6698
 4840SOL    HW226154   2.818   0.481   2.477  1.5310  1.5507 -1.1114
 4841SOL     OW26155   4.696   4.163   6.204  0.1058  0.0271  0.0329
 4841SOL    HW126156   0.054   4.168   6.177 -0.3870  0.4979 -1.5763
 4841SOL    HW226157   4.704   4.253   6.237  2.1909  0.7151 -2.3095
 4842SOL     OW26158   0.930   0.808   8.044  0.5722 -0.3525 -0.7581
 4842SOL    HW126159   0.922   0.902   8.029  0.0287 -0.7113 -2.8175
 4842SOL    HW226160   0.855   0.790   8.100 -0.3743  0.7667 -1.6700
 4843SOL     OW26161   2.248   0.379   3.353 -0.5103  0.4431 -0.4312
 4843SOL    HW126162   2.217   0.446   3.415 -0.9839  0.2140 -0.4159
 4843SOL    HW226163   2.197   0.405   3.277  1.2409 -1.9893 -2.4194
 4844SOL     OW26164   0.784   2.617   3.965  0.1741 -0.1931  0.0902
 4844SOL    HW126165   0.822   2.682   3.906  1.5608  0.5579  1.8183
 4844SOL    HW226166   0.790   2.535   3.916 -0.8977 -2.1420  3.2046
 4845SOL     OW26167   2.799   4.558  11.023  0.0437 -0.1579 -0.8596
 4845SOL    HW126168   2.821   4.466  11.008  0.8187 -0.0216 -0.5952
 4845SOL    HW226169   2.811   4.559  11.118 -4.0415  0.8231 -0.3539
 4846SOL     OW26170   3.470   4.324   6.799 -0.6018  0.2620 -0.8205
 4846SOL    HW126171   3.562   4.297   6.793 -0.5706  0.0426  0.7724
 4846SOL    HW226172   3.473   4.357   6.709  0.9624  0.1172 -0.8257
 4847SOL     OW26173   0.184   1.326   5.293  0.0080 -0.5553 -1.0004
 4847SOL    HW126174   0.193   1.337   5.388 -2.0462  1.5141 -1.0669
 4847SOL    HW226175   0.150   1.410   5.264 -0.0195 -0.2006  0.0561
 4848SOL     OW26176   3.563   3.686   5.620 -0.2093 -0.0423 -0.2539
 4848SOL    HW126177   3.612   3.740   5.557  0.5607  0.9788  1.2121
 4848SOL    HW226178   3.616   3.607   5.629  2.0402  1.4357 -0.5658
 4849SOL     OW26179   1.869   3.169  10.383 -0.0225 -0.4193  0.0599
 4849SOL    HW126180   1.793   3.206  10.428  1.7600  2.5186  0.6922
 4849SOL    HW226181   1.833   3.112  10.316  0.0236  0.0897 -0.3975
 4850SOL     OW26182   0.406   2.437   0.441  0.1312 -0.5883  0.1065
 4850SOL    HW126183   0.485   2.383   0.449  1.0569  0.9034  0.9602
 4850SOL    HW226184   0.336   2.372   0.441 -0.8040  0.4247  1.0005
 4851SOL     OW26185   3.980   1.834   1.882  0.6540 -0.3412  0.3136
 4851SOL    HW126186   3.977   1.741   1.905  0.5343 -0.7059 -1.1936
 4851SOL    HW226187   4.073   1.853   1.896  0.5636 -0.5127  1.1549
 4852SOL     OW26188   1.468   0.892   8.084  0.2196  0.1343  0.0048
 4852SOL    HW126189   1.550   0.939   8.073 -0.4669  1.5730  1.0689
 4852SOL    HW226190   1.441   0.935   8.165 -0.5880  1.8264 -1.1653
 4853SOL     OW26191   4.668   2.308   3.460  0.0733  0.1382 -0.0379
 4853SOL    HW126192   4.601   2.376   3.450  0.3460  0.3729 -0.2652
 4853SOL    HW226193   4.686   2.288   3.368  2.0514 -0.1906  0.4366
 4854SOL     OW26194   2.975   3.461   3.374 -0.3966  0.0673  0.3948
 4854SOL    HW126195   2.994   3.386   3.430 -0.7974 -1.3972 -1.4118
 4854SOL    HW226196   2.942   3.410   3.299  2.1858  0.3179 -0.9277
 4855SOL     OW26197   1.674   1.258   7.856 -0.1122 -0.6892 -0.1179
 4855SOL    HW126198   1.698   1.181   7.804  2.0799  0.3431 -0.6085
 4855SOL    HW226199   1.581   1.239   7.872  0.0034  0.2841  1.6516
 4856SOL     OW26200   1.709   1.670   6.611  0.2141 -0.8730  0.0040
 4856SOL    HW126201   1.645   1.710   6.553 -0.3585 -0.1639  1.1251
 4856SOL    HW226202   1.646   1.622   6.665  1.2768 -2.3425 -0.0273
 4857SOL     OW26203   0.337   3.186   3.350  0.1168  0.0285  0.1085
 4857SOL    HW126204   0.242   3.185   3.338  0.6744  0.0743 -4.1841
 4857SOL    HW226205   0.372   3.259   3.300  0.2502 -0.6889 -0.8390
 4858SOL     OW26206   3.151   4.414   5.685  0.1768 -0.3951  1.0091
 4858SOL    HW126207   3.169   4.504   5.712  0.8594 -0.6307  1.3373
 4858SOL    HW226208   3.196   4.364   5.753  2.4366  0.0082 -0.1852
 4859SOL     OW26209   3.056   0.102   3.559  0.1651  0.4349  0.2049
 4859SOL    HW126210   3.018   0.119   3.473 -0.8387 -0.2634  0.5127
 4859SOL    HW226211   2.983   0.055   3.600  0.1284 -1.2054 -1.7510
 4860SOL     OW26212   1.768   2.933   4.795  0.5075 -0.6413  0.4968
 4860SOL    HW126213   1.822   2.930   4.716 -0.3017 -1.1303 -0.0434
 4860SOL    HW226214   1.771   2.847   4.836 -1.0524 -0.5491  0.8278
 4861SOL     OW26215   1.296   1.988   2.285 -0.7371  0.2391  0.7876
 4861SOL    HW126216   1.338   1.903   2.271 -0.3807  0.9126 -2.3145
 4861SOL    HW226217   1.225   1.974   2.222  1.3420 -2.5524 -0.9591
 4862SOL     OW26218   4.080   3.860   3.780  0.1603 -0.2428  0.1604
 4862SOL    HW126219   4.067   3.838   3.872  2.5053 -2.6678 -0.0873
 4862SOL    HW226220   4.121   3.946   3.778 -2.0696  0.8144 -0.9680
 4863SOL     OW26221   2.178   2.966   3.054 -0.1705 -0.1521 -0.2114
 4863SOL    HW126222   2.132   3.046   3.081  2.9797  1.7446 -0.5510
 4863SOL    HW226223   2.140   2.890   3.097  0.9615 -1.6428 -1.8364
 4864SOL     OW26224   3.971   4.542   2.616  0.1393 -0.6474 -0.1657
 4864SOL    HW126225   4.042   4.480   2.630  0.8989 -0.1803 -2.0289
 4864SOL    HW226226   4.004   4.598   2.545 -0.4269  0.8340  0.7385
 4865SOL     OW26227   4.421   1.870   5.722 -0.2145 -0.3030 -0.5578
 4865SOL    HW126228   4.509   1.863   5.760 -0.3108  0.8900 -0.1005
 4865SOL    HW226229   4.433   1.850   5.629 -0.3935 -2.8340 -0.0119
 4866SOL     OW26230   0.412   4.141  11.249 -0.0537  0.4899  0.3587
 4866SOL    HW126231   0.491   4.088  11.246  0.1322  0.8320 -0.5042
 4866SOL    HW226232   0.415   4.162  11.343  0.1307 -1.1278  0.7136
 4867SOL     OW26233   2.198   0.097   3.813 -0.0054 -0.5947 -0.4406
 4867SOL    HW126234   2.284   0.111   3.853  0.0158  0.2609 -0.7866
 4867SOL    HW226235   2.201   0.175   3.758  2.1428 -0.5663 -0.2624
 4868SOL     OW26236   3.627   1.638   9.091  1.0777 -0.9267 -0.1189
 4868SOL    HW126237   3.550   1.639   9.147 -0.2936 -3.0217 -1.9573
 4868SOL    HW226238   3.643   1.732   9.082  1.7707 -1.0101  0.2682
 4869SOL     OW26239   0.874   2.977   2.942 -0.3827 -0.7710 -0.7211
 4869SOL    HW126240   0.869   3.038   3.015 -0.5721 -0.4769 -0.9779
 4869SOL    HW226241   0.887   2.891   2.981  1.4531 -0.7383 -1.2484
 4870SOL     OW26242   1.577   3.698  15.017 -0.2127 -0.2048 -0.0674
 4870SOL    HW126243   1.563   3.605  15.031 -0.5588 -0.0609  0.5664
 4870SOL    HW226244   1.484   3.716  15.002 -0.1609 -0.5865 -0.8104
 4871SOL     OW26245   0.064   1.018   4.361 -0.1060 -0.1779 -0.3603
 4871SOL    HW126246   0.039   1.017   4.454 -3.9525 -0.6004 -1.3730
 4871SOL    HW226247   0.019   1.100   4.341 -1.6115 -1.3413 -1.8055
 4872SOL     OW26248   0.769   2.265   2.909 -0.5964  0.2270  0.6024
 4872SOL    HW126249   0.706   2.266   2.837  0.2437  0.6846 -0.1434
 4872SOL    HW226250   0.757   2.187   2.962 -1.8435 -0.7725 -1.1365
 4873SOL     OW26251   0.703   4.522   3.526  0.0857  0.5729  0.4125
 4873SOL    HW126252   0.789   4.505   3.565 -0.6234 -0.7006  1.4224
 4873SOL    HW226253   0.681   4.604   3.571 -0.6159  0.0214  1.0853
 4874SOL     OW26254   2.036   0.537   2.043 -0.2384  0.2190  0.6445
 4874SOL    HW126255   2.125   0.556   2.071 -0.0485 -1.0175  0.8634
 4874SOL    HW226256   2.008   0.472   2.107  0.6883 -0.5739  0.2432
 4875SOL     OW26257   3.589   4.063   9.383 -0.4246  0.4678  0.3359
 4875SOL    HW126258   3.564   3.973   9.403 -0.7371  0.1637 -1.4808
 4875SOL    HW226259   3.512   4.113   9.410  1.4087  2.2227  2.4189
 4876SOL     OW26260   4.088   1.108   4.412 -0.1955 -0.1979 -0.1206
 4876SOL    HW126261   4.114   1.200   4.409 -0.5151 -0.0543  1.2773
 4876SOL    HW226262   4.063   1.093   4.321  1.6406 -1.0322 -0.4845
 4877SOL     OW26263   2.548   2.306   8.812  0.8181 -0.1996 -0.2049
 4877SOL    HW126264   2.572   2.239   8.876  0.7453  0.2374  0.2753
 4877SOL    HW226265   2.467   2.280   8.768  1.0036  1.2252 -1.4198
 4878SOL     OW26266   0.944   0.927   3.247 -0.1264 -0.1303  0.1511
 4878SOL    HW126267   0.968   0.989   3.178  0.2478  0.8245  1.1462
 4878SOL    HW226268   1.028   0.931   3.292  0.5718  0.4627 -1.1987
 4879SOL     OW26269   4.185   0.740  16.187 -0.1656  0.7020  0.5726
 4879SOL    HW126270   4.145   0.654  16.181 -0.3265  0.7324  1.2031
 4879SOL    HW226271   4.137   0.782  16.115 -0.8991 -1.2634 -0.0775
 4880SOL     OW26272   0.915   3.914  15.595  0.4713 -0.1984 -0.0577
 4880SOL    HW126273   0.829   3.923  15.636  0.4878 -0.5451  0.0590
 4880SOL    HW226274   0.916   3.829  15.550 -1.0886 -0.2008 -0.0742
 4881SOL     OW26275   0.903   2.152   3.745  0.1199  0.4004  0.5043
 4881SOL    HW126276   0.939   2.131   3.830 -0.7107  1.8519  1.2207
 4881SOL    HW226277   0.982   2.126   3.699  1.0888  1.7127  1.4427
 4882SOL     OW26278   0.231   4.528  11.890  0.0363  0.2067  0.1855
 4882SOL    HW126279   0.145   4.517  11.930 -0.0492  1.4236  0.3622
 4882SOL    HW226280   0.210   4.538  11.797 -0.7446  2.1634  0.5703
 4883SOL     OW26281   3.485   2.655   1.193  0.5595  0.4072 -0.1242
 4883SOL    HW126282   3.449   2.741   1.215  1.2565  0.1049  2.2921
 4883SOL    HW226283   3.563   2.690   1.151 -1.0176  2.0191 -1.7560
 4884SOL     OW26284   0.601   2.628   0.812 -0.3958 -0.0956 -0.1628
 4884SOL    HW126285   0.516   2.584   0.803 -0.7366  0.5757 -0.2622
 4884SOL    HW226286   0.632   2.609   0.900  1.1637 -2.1825 -1.1465
 4885SOL     OW26287   4.149   3.030   0.892 -0.6481 -0.6042 -0.4261
 4885SOL    HW126288   4.242   3.006   0.888 -0.1283  0.7086  4.1132
 4885SOL    HW226289   4.135   3.048   0.799  4.1482 -1.7180 -1.3602
 4886SOL     OW26290   1.408   2.923   7.625 -0.0165 -0.2303 -0.2271
 4886SOL    HW126291   1.429   2.830   7.623  0.8721  0.0169 -1.9164
 4886SOL    HW226292   1.314   2.921   7.643  0.2325  0.1354  1.1156
 4887SOL     OW26293   1.535   3.486   7.986  0.8076 -0.2715 -0.2372
 4887SOL    HW126294   1.489   3.407   8.016  0.5831  0.7757  2.2444
 4887SOL    HW226295   1.499   3.492   7.898 -1.0787  0.7095  0.5839
 4888SOL     OW26296   3.546   0.863   3.474 -0.5386 -0.4553  0.2445
 4888SOL    HW126297   3.490   0.859   3.397  2.2575  0.0884 -1.7957
 4888SOL    HW226298   3.610   0.795   3.456 -0.6355 -0.5053  0.0916
 4889SOL     OW26299   1.759   4.200  17.104 -0.0069 -0.4661  0.2293
 4889SOL    HW126300   1.750   4.167  17.015  0.6850  0.4923 -0.1959
 4889SOL    HW226301   1.678   4.170  17.145  0.1750 -0.7173  0.4077
 4890SOL     OW26302   1.506   2.848  10.352 -0.8105 -0.2702 -0.0808
 4890SOL    HW126303   1.557   2.781  10.397  0.8378  0.4855 -0.7813
 4890SOL    HW226304   1.512   2.810  10.264  0.7428 -1.1523  0.4032
 4891SOL     OW26305   4.363   0.468  12.898  0.1130 -0.1237 -0.8582
 4891SOL    HW126306   4.298   0.521  12.945  0.2509  0.2829 -1.1257
 4891SOL    HW226307   4.440   0.495  12.949 -1.1827  3.4128 -0.7790
 4892SOL     OW26308   3.568   4.156   4.550  0.0103 -0.4289 -0.5580
 4892SOL    HW126309   3.552   4.221   4.618  0.2378 -1.9323  0.9525
 4892SOL    HW226310   3.498   4.190   4.495  1.7659  1.8179 -1.4089
 4893SOL     OW26311   1.688   2.811   9.171 -0.4769  0.4674 -0.2773
 4893SOL    HW126312   1.755   2.783   9.109 -1.9032 -0.0735 -1.5488
 4893SOL    HW226313   1.652   2.732   9.211  0.8897 -1.7727 -3.4647
 4894SOL     OW26314   2.535   1.665   0.409  0.6529 -0.1210 -0.2517
 4894SOL    HW126315   2.532   1.585   0.462  1.7346 -0.0637 -0.1163
 4894SOL    HW226316   2.441   1.680   0.398  0.2601 -1.6757  1.0610
 4895SOL     OW26317   0.669   3.926  15.714 -0.7056  0.0047 -0.2505
 4895SOL    HW126318   0.578   3.947  15.692 -0.3395  0.8784 -0.9437
 4895SOL    HW226319   0.659   3.866  15.787 -0.5728  0.1920 -0.0792
 4896SOL     OW26320   4.566   4.376  12.837  0.3153  0.1965  0.3282
 4896SOL    HW126321   4.633   4.319  12.874 -0.3792 -2.3627 -2.4181
 4896SOL    HW226322   4.595   4.466  12.855 -0.8179  0.4824  0.7387
 4897SOL     OW26323   3.945   4.085   7.558 -0.1741  0.2529 -0.3337
 4897SOL    HW126324   3.897   4.068   7.639 -0.7855 -0.4818 -0.8501
 4897SOL    HW226325   3.947   4.181   7.555 -1.9413  0.2569 -1.1584
 4898SOL     OW26326   3.700   4.381  10.522  0.9069 -0.2019  0.3332
 4898SOL    HW126327   3.642   4.456  10.530  1.2214 -0.0386  1.1702
 4898SOL    HW226328   3.780   4.433  10.531  1.3712 -1.2924  2.5717
 4899SOL     OW26329   0.292   0.372  14.460  0.7224 -0.5013  0.2519
 4899SOL    HW126330   0.316   0.461  14.434  1.1070 -0.6644  0.0440
 4899SOL    HW226331   0.208   0.349  14.422  0.8414 -0.6750  0.0940
 4900SOL     OW26332   2.758   3.097   8.639 -0.8424  0.3492  0.8828
 4900SOL    HW126333   2.719   3.058   8.562  1.0414 -1.1764  0.6976
 4900SOL    HW226334   2.848   3.097   8.605 -0.7818 -1.0586  1.0488
 4901SOL     OW26335   1.504   0.469   5.935 -0.3658  0.1135 -0.0875
 4901SOL    HW126336   1.580   0.518   5.905 -0.4794  0.9194  0.9560
 4901SOL    HW226337   1.434   0.531   5.955 -0.9062 -0.4887 -0.0863
 4902SOL     OW26338   0.795   2.869  12.380 -0.3596  0.3743 -0.3766
 4902SOL    HW126339   0.704   2.900  12.376 -0.6520 -0.0520  2.3649
 4902SOL    HW226340   0.795   2.832  12.468 -3.8372  0.9778 -0.1075
 4903SOL     OW26341   3.429   2.875   5.098 -0.4716  0.1026  0.1132
 4903SOL    HW126342   3.361   2.931   5.135 -1.1591  0.2159 -1.3082
 4903SOL    HW226343   3.466   2.852   5.183 -0.2607 -1.9089 -0.5016
 4904SOL     OW26344   2.917   0.695   4.964  0.6234  0.0918 -0.6939
 4904SOL    HW126345   2.916   0.602   4.942  0.2788  1.0507 -4.7242
 4904SOL    HW226346   3.006   0.722   4.940 -0.0782  1.6095 -1.6342
 4905SOL     OW26347   3.617   2.181   8.237  0.2077 -0.8075 -0.4981
 4905SOL    HW126348   3.625   2.142   8.324  2.3408  0.9243  0.0757
 4905SOL    HW226349   3.535   2.228   8.251 -0.7341 -2.1369 -1.6292
 4906SOL     OW26350   1.883   2.948   0.826 -0.2120 -0.1522  0.1609
 4906SOL    HW126351   1.901   2.985   0.912  0.3389  1.2806 -0.5704
 4906SOL    HW226352   1.889   2.856   0.851 -0.8147 -0.0072  0.8198
 4907SOL     OW26353   3.921   3.767   5.314  0.2913 -0.2684 -0.0556
 4907SOL    HW126354   3.949   3.792   5.226  1.2347  0.6455  0.5148
 4907SOL    HW226355   3.912   3.671   5.311  0.3038 -0.3285  1.7682
 4908SOL     OW26356   1.937   1.114   6.221 -0.5395  0.0606 -0.2425
 4908SOL    HW126357   1.845   1.106   6.248 -0.5630 -0.9696 -0.6092
 4908SOL    HW226358   1.957   1.206   6.238 -1.5379  0.2270  0.0365
 4909SOL     OW26359   3.875   1.714   3.226 -0.5179 -0.1369 -0.0343
 4909SOL    HW126360   3.877   1.782   3.294 -0.9709 -0.3034  0.1481
 4909SOL    HW226361   3.922   1.757   3.156 -1.3290  1.5854  0.4735
 4910SOL     OW26362   3.006   4.267  16.798 -0.8746  0.5026  0.1600
 4910SOL    HW126363   3.007   4.172  16.784  0.8391  0.3787  1.1841
 4910SOL    HW226364   2.962   4.301  16.720 -0.8622 -2.3231 -1.0767
 4911SOL     OW26365   3.223   2.647   2.788 -0.0356  0.2010 -0.4586
 4911SOL    HW126366   3.131   2.623   2.798 -0.0209  0.5012  0.4167
 4911SOL    HW226367   3.242   2.603   2.705  0.4394  0.2718 -0.3906
 4912SOL     OW26368   1.557   0.941   1.734 -0.2036  0.1099  1.0632
 4912SOL    HW126369   1.488   1.003   1.716 -1.0990 -0.5378  2.2597
 4912SOL    HW226370   1.541   0.906   1.822  1.6861  0.6264  1.6286
 4913SOL     OW26371   3.554   3.659   8.333 -0.2644 -0.3050  0.2784
 4913SOL    HW126372   3.499   3.584   8.314 -1.7678  0.3893  1.8496
 4913SOL    HW226373   3.567   3.689   8.243 -0.7304 -2.5080 -0.5021
 4914SOL     OW26374   2.918   0.191   6.761  0.6326 -0.4490  0.2402
 4914SOL    HW126375   2.828   0.188   6.792  0.5874  3.5077  0.4615
 4914SOL    HW226376   2.918   0.107   6.715  0.9149  0.0571 -0.6795
 4915SOL     OW26377   3.681   0.386   4.128 -0.0072 -1.0323 -0.2972
 4915SOL    HW126378   3.706   0.354   4.215 -0.1668  0.5048  0.3070
 4915SOL    HW226379   3.728   0.468   4.141  0.4246 -0.9355 -2.4958
 4916SOL     OW26380   2.394   1.664   2.099 -0.0016 -0.1230 -0.1383
 4916SOL    HW126381   2.318   1.644   2.153  0.9214 -0.8658  0.8917
 4916SOL    HW226382   2.446   1.584   2.109  1.1380  0.8251  1.5366
 4917SOL     OW26383   0.401   0.135   5.433 -0.3785  0.2556 -0.4651
 4917SOL    HW126384   0.329   0.167   5.487  0.7816  0.6467  0.8826
 4917SOL    HW226385   0.363   0.147   5.346 -0.3837 -0.0878 -0.5079
 4918SOL     OW26386   2.079   1.056   3.657 -0.4393  0.1378 -0.0492
 4918SOL    HW126387   2.111   1.118   3.592 -1.2258 -0.3610 -0.9176
 4918SOL    HW226388   2.158   1.005   3.672 -0.7699 -0.3278  0.1248
 4919SOL     OW26389   1.590   2.122   6.253 -0.8654  0.4051  0.1176
 4919SOL    HW126390   1.513   2.122   6.195 -0.6303  2.2144 -0.2144
 4919SOL    HW226391   1.555   2.104   6.340  0.1506 -0.5960  0.3121
 4920SOL     OW26392   1.482   4.731   5.352 -0.1981  0.4074 -0.3569
 4920SOL    HW126393   1.483   0.023   5.260  0.4040 -0.1410 -0.5076
 4920SOL    HW226394   1.574   4.702   5.353 -0.9512 -2.0545 -2.6608
 4921SOL     OW26395   1.167   2.615   3.267  0.4143 -0.5045  0.5923
 4921SOL    HW126396   1.165   2.549   3.336  1.2153 -1.3677 -0.2026
 4921SOL    HW226397   1.238   2.580   3.213  0.1887 -1.0718  0.6613
 4922SOL     OW26398   0.546   3.423  14.106  0.1148 -0.3526 -0.2278
 4922SOL    HW126399   0.588   3.425  14.192  1.1272 -2.2805 -0.6807
 4922SOL    HW226400   0.505   3.509  14.098  1.4885  0.3849  0.7074
 4923SOL     OW26401   2.387   1.711  15.024 -0.3129 -0.9009  0.7487
 4923SOL    HW126402   2.314   1.649  15.027 -0.3485 -0.8750  0.3524
 4923SOL    HW226403   2.398   1.731  15.117 -0.4788  2.4503  0.0562
 4924SOL     OW26404   2.744   0.584   5.857 -0.5293 -0.1958  0.0576
 4924SOL    HW126405   2.796   0.664   5.847  0.9632 -1.1696  0.0538
 4924SOL    HW226406   2.776   0.536   5.780 -1.2173 -0.0341 -0.3304
 4925SOL     OW26407   3.898   4.064   3.470 -0.7021 -0.3458  0.8888
 4925SOL    HW126408   3.899   4.100   3.559  1.2945  1.5249  0.1094
 4925SOL    HW226409   3.927   3.975   3.489  1.6681  0.3200  0.4611
 4926SOL     OW26410   4.718   3.802  15.116 -0.2311 -0.5497  0.2281
 4926SOL    HW126411   4.718   3.713  15.152 -0.4959 -0.3586  0.6862
 4926SOL    HW226412   4.662   3.797  15.038  0.3217  1.5624 -0.3060
 4927SOL     OW26413   1.084   3.847   3.609  0.0422 -0.3608 -0.2100
 4927SOL    HW126414   1.145   3.921   3.609  0.2738 -0.5599  1.5481
 4927SOL    HW226415   1.051   3.845   3.519 -0.6698  2.2430 -0.0018
 4928SOL     OW26416   0.850   2.234   2.314 -0.2801 -0.3613  0.1651
 4928SOL    HW126417   0.836   2.311   2.370  1.8067  0.1570 -0.0189
 4928SOL    HW226418   0.856   2.168   2.383 -3.5631 -2.4901 -1.5610
 4929SOL     OW26419   3.343   0.568   1.366  0.3434 -0.3546  0.2527
 4929SOL    HW126420   3.328   0.662   1.371  0.2287 -0.3621  0.0201
 4929SOL    HW226421   3.342   0.546   1.273 -1.9719  0.1841  0.1483
 4930SOL     OW26422   3.440   0.898   4.583 -0.2035 -0.1108 -0.1557
 4930SOL    HW126423   3.496   0.837   4.534  0.3219  0.9854 -0.8981
 4930SOL    HW226424   3.493   0.970   4.615 -0.6408 -0.0933  0.5266
 4931SOL     OW26425   0.985   3.081  16.884 -0.8436  0.2252 -0.1552
 4931SOL    HW126426   0.971   2.989  16.863  0.6320 -0.1863  0.6872
 4931SOL    HW226427   1.079   3.090  16.871 -0.7249  1.3954  1.6071
 4932SOL     OW26428   2.512   2.699   9.510  0.2361  0.3687  0.5428
 4932SOL    HW126429   2.565   2.629   9.547  0.8555 -0.1997 -1.3983
 4932SOL    HW226430   2.528   2.766   9.576 -1.5763  3.4143 -2.0850
 4933SOL     OW26431   4.229   2.674   7.833 -0.2771 -0.4984  0.0347
 4933SOL    HW126432   4.277   2.647   7.912  0.3799 -0.1970 -0.2590
 4933SOL    HW226433   4.275   2.620   7.768  0.2586  0.3765 -0.3171
 4934SOL     OW26434   2.817   2.038   3.074 -0.6116  0.1788  0.0655
 4934SOL    HW126435   2.904   2.055   3.110  0.7596 -1.8297 -2.3123
 4934SOL    HW226436   2.794   2.125   3.042 -0.0949  0.4185  0.3593
 4935SOL     OW26437   4.602   0.886   3.271  0.5826 -0.2920 -0.5704
 4935SOL    HW126438   4.573   0.930   3.350 -0.3623  0.4730 -1.3482
 4935SOL    HW226439   4.623   0.953   3.206  1.3952  1.8160  1.8809
 4936SOL     OW26440   0.198   4.557  16.976 -0.1207 -0.2244 -0.1545
 4936SOL    HW126441   0.282   4.571  16.933  0.2190  0.3360  0.6855
 4936SOL    HW226442   0.168   4.646  16.994  1.3582  0.1966  0.2032
 4937SOL     OW26443   4.620   3.804  16.039  0.1676  0.7138 -1.0675
 4937SOL    HW126444   4.584   3.754  15.966 -0.8940 -1.5986  1.0543
 4937SOL    HW226445   4.713   3.783  16.032 -0.3190 -0.9169 -2.7122
 4938SOL     OW26446   0.441   1.846   2.200  0.5260 -0.2952 -0.7360
 4938SOL    HW126447   0.422   1.939   2.216  1.4403 -0.6060  2.0521
 4938SOL    HW226448   0.370   1.802   2.246  2.0591 -1.3141  0.6570
 4939SOL     OW26449   1.010   2.482  12.004 -0.2767 -0.0845 -0.2895
 4939SOL    HW126450   1.062   2.403  12.006  0.4066  0.3445 -1.0662
 4939SOL    HW226451   0.931   2.447  12.046  0.5144 -0.4154  0.8909
 4940SOL     OW26452   1.689   4.068  13.654 -0.0336  0.2694 -0.1812
 4940SOL    HW126453   1.615   4.010  13.674 -1.5741  3.0556  2.1515
 4940SOL    HW226454   1.707   4.109  13.739 -0.6286 -0.0584  0.1034
 4941SOL     OW26455   1.857   4.599   1.935  0.2354 -0.3597 -0.3855
 4941SOL    HW126456   1.765   4.621   1.918 -0.2420 -2.2586 -0.2790
 4941SOL    HW226457   1.846   4.550   2.016 -0.7067  0.2811 -0.1292
 4942SOL     OW26458   3.476   2.798   4.683 -0.2673  1.0060  0.1878
 4942SOL    HW126459   3.460   2.792   4.777 -2.1122 -0.9336 -0.2601
 4942SOL    HW226460   3.513   2.885   4.667  0.6096  0.7264  0.7134
 4943SOL     OW26461   0.977   0.944  16.318 -0.4077  0.3017  0.0362
 4943SOL    HW126462   1.037   1.007  16.358  0.0159  1.3884 -2.2899
 4943SOL    HW226463   0.980   0.880  16.389 -1.4045  0.0674 -0.1464
 4944SOL     OW26464   4.715   0.972   1.759  0.5769 -0.7646  0.7503
 4944SOL    HW126465   4.645   0.945   1.819  0.4986 -2.5035 -0.1178
 4944SOL    HW226466   0.032   0.892   1.767 -0.4758 -1.5862 -0.6722
 4945SOL     OW26467   4.160   2.481   3.952 -0.1107  0.5875  0.7485
 4945SOL    HW126468   4.220   2.521   4.015 -0.3130  1.4600  0.3856
 4945SOL    HW226469   4.163   2.538   3.876 -0.4381 -2.6939 -1.7486
 4946SOL     OW26470   0.482   1.735  17.035 -0.0662 -0.0014  0.0701
 4946SOL    HW126471   0.456   1.818  17.077 -0.9881  0.5194 -1.5368
 4946SOL    HW226472   0.409   1.712  16.978  0.0164 -2.3122  0.9103
 4947SOL     OW26473   0.425   0.189   7.072 -0.1156 -0.6675  0.3181
 4947SOL    HW126474   0.429   0.283   7.053  1.8026 -0.5021  1.5451
 4947SOL    HW226475   0.471   0.176   7.155  1.0043  1.7550  0.0750
 4948SOL     OW26476   1.403   2.649   9.299 -0.3403 -0.3307  0.7247
 4948SOL    HW126477   1.439   2.601   9.224 -2.2800  0.9267 -1.0098
 4948SOL    HW226478   1.483   2.665   9.349  0.6212 -1.0937 -0.5648
 4949SOL     OW26479   0.531   3.652  17.611 -0.2403 -0.0310 -0.0713
 4949SOL    HW126480   0.510   3.613  17.527 -1.7526  0.9199 -0.1331
 4949SOL    HW226481   0.612   3.703  17.602  0.0362 -0.5673 -0.5445
 4950SOL     OW26482   1.877   1.087   8.235 -0.3700  0.2794  0.1635
 4950SOL    HW126483   1.816   1.066   8.164 -1.7742  0.3917  1.3448
 4950SOL    HW226484   1.848   1.030   8.305  0.2340 -0.4450 -0.1722
 4951SOL     OW26485   2.297   0.650   4.896 -0.4188 -0.2871  0.5275
 4951SOL    HW126486   2.320   0.604   4.815 -2.1612 -2.2729  1.1850
 4951SOL    HW226487   2.255   0.584   4.950 -3.0558  1.0733  0.1229
 4952SOL     OW26488   0.477   3.135   6.354  0.3912 -0.2223  0.1252
 4952SOL    HW126489   0.543   3.196   6.321  2.5724 -0.7163  3.5578
 4952SOL    HW226490   0.410   3.170   6.296  1.1629  2.7036  0.9948
 4953SOL     OW26491   4.165   0.721   1.285 -0.3029  0.3437  0.1969
 4953SOL    HW126492   4.106   0.757   1.219 -1.5512  0.8957  1.6072
 4953SOL    HW226493   4.249   0.710   1.240 -0.9467 -0.1402 -0.8913
 4954SOL     OW26494   0.574   3.546  11.249  0.4977  1.0660  0.2699
 4954SOL    HW126495   0.608   3.632  11.273 -2.5530  1.7441  2.2327
 4954SOL    HW226496   0.641   3.489  11.286  0.4717  1.7718  1.4036
 4955SOL     OW26497   3.159   0.886   6.117  0.5604 -0.0258 -0.1446
 4955SOL    HW126498   3.199   0.818   6.063 -1.8675 -0.3032 -1.6008
 4955SOL    HW226499   3.146   0.828   6.191 -0.0844 -1.9566 -1.7700
 4956SOL     OW26500   0.285   4.603   7.912  0.1932 -0.2224 -0.4688
 4956SOL    HW126501   0.292   4.534   7.845 -0.0154 -0.4219 -0.2836
 4956SOL    HW226502   0.253   4.559   7.990  1.1534 -1.5003 -0.7822
 4957SOL     OW26503   0.464   1.136  10.255  0.1187  0.3261 -0.2363
 4957SOL    HW126504   0.487   1.044  10.241  2.1763  0.9861 -1.1831
 4957SOL    HW226505   0.396   1.124  10.322 -0.3288 -0.1776 -0.7789
 4958SOL     OW26506   3.471   0.104  12.233 -0.0279 -0.2627 -0.0250
 4958SOL    HW126507   3.544   0.157  12.265  0.4407 -2.4568  2.5529
 4958SOL    HW226508   3.461   0.147  12.148  2.5184  0.8918  0.2434
 4959SOL     OW26509   1.208   2.101   8.360 -0.3513  0.5361  0.1427
 4959SOL    HW126510   1.203   2.131   8.270 -0.1958 -0.8787 -0.3460
 4959SOL    HW226511   1.217   2.005   8.353 -2.1606  0.4156 -0.6346
 4960SOL     OW26512   4.332   0.224   1.816 -0.3205 -0.3432 -0.3280
 4960SOL    HW126513   4.308   0.278   1.740 -0.0689  0.2558  0.0227
 4960SOL    HW226514   4.246   0.186   1.836 -1.3018  1.2945 -1.3819
 4961SOL     OW26515   4.428   1.103   9.300 -0.4239 -0.2538 -0.4970
 4961SOL    HW126516   4.426   1.198   9.289 -1.3853 -0.2217 -0.0480
 4961SOL    HW226517   4.344   1.072   9.266 -1.3396  2.2086 -0.5048
 4962SOL     OW26518   3.249   4.662   7.877  0.1291 -0.0831  0.3851
 4962SOL    HW126519   3.255   0.023   7.887 -3.1326  0.1526  0.2034
 4962SOL    HW226520   3.163   4.638   7.911 -0.1220  1.7391  1.0624
 4963SOL     OW26521   3.944   0.304   5.006  0.3081 -0.2230 -0.5820
 4963SOL    HW126522   3.989   0.388   5.008  1.0161 -0.5832 -1.1489
 4963SOL    HW226523   3.873   0.323   5.067  0.6419 -2.2253  0.4609
 4964SOL     OW26524   1.063   4.052   1.765  0.0741 -0.6932  0.1347
 4964SOL    HW126525   1.115   4.130   1.787 -1.5635  0.6358 -0.6764
 4964SOL    HW226526   1.094   3.998   1.837  0.1439  1.7510  1.9734
 4965SOL     OW26527   4.173   0.885   7.128 -0.0654  0.7364 -0.2274
 4965SOL    HW126528   4.199   0.925   7.211 -0.2727 -0.8496  0.6019
 4965SOL    HW226529   4.245   0.899   7.066 -0.1125  0.5801 -0.3177
 4966SOL     OW26530   3.743   1.621   6.383 -0.0525 -0.0933 -0.4371
 4966SOL    HW126531   3.823   1.632   6.332 -1.0171 -0.1982 -1.9878
 4966SOL    HW226532   3.752   1.527   6.399 -0.0107  0.1108  0.7059
 4967SOL     OW26533   3.039   3.502   9.436  0.7405  0.0415  0.4270
 4967SOL    HW126534   2.964   3.524   9.381  1.1894 -2.1585 -1.0640
 4967SOL    HW226535   3.066   3.586   9.472 -1.3008  0.3069  1.3318
 4968SOL     OW26536   1.458   0.860   2.476  0.1272 -0.1717  0.0479
 4968SOL    HW126537   1.515   0.805   2.422  1.6728  2.3233 -0.8694
 4968SOL    HW226538   1.432   0.786   2.532 -2.2745  1.6084  1.2559
 4969SOL     OW26539   2.105   0.370   4.346  0.0511  0.7816 -0.0838
 4969SOL    HW126540   2.066   0.332   4.425  2.0056 -0.3082  0.3503
 4969SOL    HW226541   2.035   0.355   4.283  1.3287  0.6239 -1.4456
 4970SOL     OW26542   2.910   4.466   8.648  0.0500 -0.5974 -0.3911
 4970SOL    HW126543   2.827   4.498   8.683  0.9075  0.0344  1.0485
 4970SOL    HW226544   2.940   4.544   8.601  0.2849 -0.7379 -0.4736
 4971SOL     OW26545   1.582   3.492  12.895 -0.8303  0.1959 -0.4022
 4971SOL    HW126546   1.504   3.519  12.944  1.9086  2.8114  2.5145
 4971SOL    HW226547   1.610   3.573  12.853 -4.0372  1.4069 -0.2422
 4972SOL     OW26548   1.499   4.643   7.949  0.0046  0.0840 -0.5778
 4972SOL    HW126549   1.589   4.652   7.980 -0.4322 -0.6170  0.8895
 4972SOL    HW226550   1.444   4.631   8.026  0.4474  1.1148 -0.0934
 4973SOL     OW26551   1.852   1.992   5.757 -0.3178  0.0454 -0.5289
 4973SOL    HW126552   1.844   2.069   5.701  1.8142  2.1851  2.1058
 4973SOL    HW226553   1.942   1.962   5.742 -0.1040 -0.0424  0.9675
 4974SOL     OW26554   3.350   4.539   5.186 -0.0353  0.8845 -0.3658
 4974SOL    HW126555   3.362   4.559   5.278  0.6509  0.6199 -0.3921
 4974SOL    HW226556   3.309   4.622   5.162  0.0969  0.9284 -0.4405
 4975SOL     OW26557   1.667   3.615   9.568  0.7154 -0.3312 -0.3217
 4975SOL    HW126558   1.667   3.707   9.542  1.0356 -0.6968 -1.6176
 4975SOL    HW226559   1.642   3.622   9.660 -0.4256  2.1417 -0.8420
 4976SOL     OW26560   2.534   1.306   8.607  0.0775 -0.5989  0.1743
 4976SOL    HW126561   2.531   1.400   8.589  1.0367 -0.1459  2.3207
 4976SOL    HW226562   2.623   1.290   8.575  0.5137 -0.2822  1.2277
 4977SOL     OW26563   2.758   3.612   8.216  0.1136 -0.2932 -0.3331
 4977SOL    HW126564   2.686   3.552   8.198  0.0510  0.3690 -2.3121
 4977SOL    HW226565   2.724   3.695   8.183  0.7578  0.9520  2.1950
 4978SOL     OW26566   1.034   3.312   6.580  0.1206  0.5785  0.1034
 4978SOL    HW126567   0.995   3.280   6.499  2.6166 -0.7040 -0.6160
 4978SOL    HW226568   1.070   3.229   6.612  2.1229  0.4644 -2.4281
 4979SOL     OW26569   2.391   0.232   4.734  0.0095  0.1813  0.1848
 4979SOL    HW126570   2.426   0.306   4.684 -1.8758  1.4974  0.8395
 4979SOL    HW226571   2.299   0.245   4.755 -0.2036  0.9136 -1.1619
 4980SOL     OW26572   0.297   1.362   9.229  0.1052 -0.0729 -0.8932
 4980SOL    HW126573   0.350   1.366   9.309 -0.2584  0.7391 -0.6874
 4980SOL    HW226574   0.264   1.451   9.245  0.0200 -0.5301  1.5283
 4981SOL     OW26575   2.008   3.614   9.405 -0.2004  0.1219 -0.0059
 4981SOL    HW126576   1.942   3.546   9.396 -0.2078  0.6386 -3.7853
 4981SOL    HW226577   1.952   3.686   9.434 -0.3754 -0.8226  2.0238
 4982SOL     OW26578   2.547   3.490   9.190  0.8080 -0.0713 -0.0813
 4982SOL    HW126579   2.493   3.509   9.113 -1.6606 -0.3981  1.6154
 4982SOL    HW226580   2.546   3.577   9.230  1.3354  1.3190 -3.0054
 4983SOL     OW26581   0.014   4.247  13.214  0.2657  0.0565 -0.1814
 4983SOL    HW126582   4.675   4.305  13.232  0.9700  1.1769 -0.9235
 4983SOL    HW226583   0.008   4.239  13.119 -1.1409  1.4975 -0.2079
 4984SOL     OW26584   0.397   2.351   1.408 -0.2904  0.1360  0.2064
 4984SOL    HW126585   0.471   2.299   1.377 -0.3965 -1.1314  2.0623
 4984SOL    HW226586   0.416   2.330   1.500  0.5089 -0.5679 -0.1271
 4985SOL     OW26587   0.228   1.181   6.444 -0.4267  0.0654 -0.2087
 4985SOL    HW126588   0.286   1.192   6.369 -0.3919 -2.4962 -0.5325
 4985SOL    HW226589   0.245   1.259   6.498 -0.9030  0.6084 -0.8427
 4986SOL     OW26590   3.386   0.750   9.582  0.2070 -0.2656 -0.1520
 4986SOL    HW126591   3.317   0.815   9.594  0.6076  0.6520 -2.6781
 4986SOL    HW226592   3.373   0.725   9.490 -2.3557  2.7015 -0.6075
 4987SOL     OW26593   2.497   4.347   9.937  0.4347 -0.8074  0.4907
 4987SOL    HW126594   2.410   4.307   9.938 -0.1146  0.4444  2.0506
 4987SOL    HW226595   2.545   4.276   9.894  0.3911 -0.3610 -0.2844
 4988SOL     OW26596   1.557   4.213   0.036  0.0865  0.4209 -0.0330
 4988SOL    HW126597   1.538   4.303   0.013 -2.0665  0.0783  0.3473
 4988SOL    HW226598   1.515   4.217   0.123 -1.0417  2.2032 -0.6623
 4989SOL     OW26599   1.952   2.059   0.929 -0.8171  0.0607  0.5492
 4989SOL    HW126600   1.931   2.055   0.836 -0.0127 -0.2520  0.3805
 4989SOL    HW226601   1.967   2.153   0.942 -0.0286  0.0180 -0.0431
 4990SOL     OW26602   4.095   3.077   5.943  0.2591  0.2803 -0.4587
 4990SOL    HW126603   4.151   3.113   6.012  0.8740 -0.3577 -0.6186
 4990SOL    HW226604   4.162   3.065   5.876  2.1513 -0.2023  1.5223
 4991SOL     OW26605   0.795   1.845   2.100  0.3075  0.4017 -0.0716
 4991SOL    HW126606   0.737   1.884   2.035  0.2188  3.7501  2.0198
 4991SOL    HW226607   0.874   1.895   2.082 -0.6077  1.8088 -0.1251
 4992SOL     OW26608   3.657   2.752   7.106  0.1689  0.3285  0.1359
 4992SOL    HW126609   3.683   2.783   7.192  0.2954  2.0305 -0.5041
 4992SOL    HW226610   3.587   2.814   7.083  1.0185  1.4912  0.6546
 4993SOL     OW26611   0.981   3.627   4.217  0.3571 -0.4042 -0.3022
 4993SOL    HW126612   0.932   3.545   4.228 -0.5804 -0.0241 -1.6916
 4993SOL    HW226613   0.918   3.685   4.175  0.3398  0.0444  0.3334
 4994SOL     OW26614   0.054   3.072   8.853 -0.3982 -0.0765 -0.1811
 4994SOL    HW126615   0.080   3.089   8.944 -0.4707 -1.0835  0.0287
 4994SOL    HW226616   4.693   3.074   8.862 -0.4094  0.7149 -0.5131
 4995SOL     OW26617   1.140   3.875   8.237  0.2534  0.6567 -0.1651
 4995SOL    HW126618   1.142   3.949   8.176  0.1194 -0.0369 -1.0078
 4995SOL    HW226619   1.208   3.904   8.298  0.3525 -1.4999  0.7396
 4996SOL     OW26620   4.399   2.773   6.331 -0.1846  0.1905  0.3156
 4996SOL    HW126621   4.474   2.772   6.390 -0.1860 -2.3854  0.2952
 4996SOL    HW226622   4.434   2.722   6.257 -0.1693  0.3840  0.1890
 4997SOL     OW26623   2.951   1.859  12.664  0.2405  0.0839 -0.3095
 4997SOL    HW126624   3.024   1.906  12.625  0.7914  0.2700  0.9529
 4997SOL    HW226625   2.949   1.876  12.758 -0.3227  1.6906 -0.6183
 4998SOL     OW26626   0.453   1.426  10.254 -0.2179  0.3093 -0.0954
 4998SOL    HW126627   0.454   1.331  10.246 -2.6147  0.2314  0.3204
 4998SOL    HW226628   0.410   1.460  10.175 -1.4169 -1.8335 -0.3698
 4999SOL     OW26629   3.318   2.436   8.880  0.8825 -0.3119  0.0037
 4999SOL    HW126630   3.259   2.403   8.812 -0.8147  1.5481  0.5624
 4999SOL    HW226631   3.324   2.525   8.844 -1.3498  0.6089  1.8811
 5000SOL     OW26632   2.636   1.342  13.330  0.2081  0.5723  0.1432
 5000SOL    HW126633   2.592   1.425  13.348 -1.8025 -0.6756  0.9904
 5000SOL    HW226634   2.562   1.283  13.347  2.1308 -1.6354  0.7903
 5001SOL     OW26635   2.281   4.702   5.032 -0.3182 -0.5630 -0.3548
 5001SOL    HW126636   2.339   4.627   5.020 -1.1929 -1.1838 -0.6416
 5001SOL    HW226637   2.202   4.665   5.070 -0.6978  1.3299  0.7172
 5002SOL     OW26638   2.421   0.669   8.167  0.4544 -0.7616 -0.9117
 5002SOL    HW126639   2.448   0.723   8.093  0.2126  0.8073  0.1500
 5002SOL    HW226640   2.458   0.716   8.242 -1.0232 -0.9876 -0.0326
 5003SOL     OW26641   0.877   0.091   2.607  0.2247  0.0012  0.3783
 5003SOL    HW126642   0.940   0.089   2.679  0.3859 -0.3874  0.2264
 5003SOL    HW226643   0.904   0.018   2.551 -2.5231  0.1691 -1.1768
 5004SOL     OW26644   2.918   0.732  16.703 -0.5859  0.1332  0.4551
 5004SOL    HW126645   2.971   0.735  16.623 -0.9437 -0.8968  0.1767
 5004SOL    HW226646   2.834   0.733  16.657 -0.9896 -0.7732  1.1713
 5005SOL     OW26647   2.246   4.527   8.465  0.0188  0.0155  0.1240
 5005SOL    HW126648   2.307   4.512   8.537  1.4616  0.2028 -1.0689
 5005SOL    HW226649   2.202   4.442   8.451  0.2171  0.1958 -1.5903
 5006SOL     OW26650   0.224   1.098  14.491 -0.1161  0.5769  0.1351
 5006SOL    HW126651   0.162   1.154  14.538  1.3148  0.5587  2.0327
 5006SOL    HW226652   0.247   1.139  14.407  1.5130 -0.1726  0.2182
 5007SOL     OW26653   1.325   3.360   4.064  0.1191  0.1526  0.0635
 5007SOL    HW126654   1.310   3.452   4.040 -2.5473 -0.3091 -0.0775
 5007SOL    HW226655   1.241   3.321   4.037  2.1115 -4.5277  0.6423
 5008SOL     OW26656   2.107   3.875   5.706 -0.2060 -0.4443 -0.1708
 5008SOL    HW126657   2.069   3.911   5.627 -0.0595 -2.7470 -1.2867
 5008SOL    HW226658   2.040   3.818   5.746  1.7578 -0.6832  2.7998
 5009SOL     OW26659   4.253   2.258   1.696 -0.0308 -0.1632 -0.5373
 5009SOL    HW126660   4.215   2.249   1.609 -1.4587 -0.6884  0.1317
 5009SOL    HW226661   4.298   2.174   1.709  0.5467  0.2120 -0.1011
 5010SOL     OW26662   1.477   2.563   2.193  0.1107  0.3836 -0.4048
 5010SOL    HW126663   1.498   2.510   2.116 -2.3157  0.2572 -0.9805
 5010SOL    HW226664   1.448   2.498   2.257  0.4849 -0.4196 -1.0485
 5011SOL     OW26665   2.003   1.027   5.803  0.6883  0.1243  0.1527
 5011SOL    HW126666   2.029   1.088   5.734 -0.1550 -0.1653 -0.4247
 5011SOL    HW226667   1.949   0.964   5.754  0.6859 -1.8159  2.6686
 5012SOL     OW26668   2.983   4.489   2.290  0.8197  0.5374 -0.2147
 5012SOL    HW126669   3.024   4.538   2.362  0.8393  2.4103 -1.4829
 5012SOL    HW226670   2.896   4.492   2.329  2.0425 -2.1006  2.7356
 5013SOL     OW26671   0.945   1.827   5.319 -0.1608 -0.1140  0.0934
 5013SOL    HW126672   0.943   1.918   5.289  0.4238 -0.7209 -1.7689
 5013SOL    HW226673   0.916   1.776   5.243 -1.8132  0.3732  0.3916
 5014SOL     OW26674   3.111   3.522   4.054  0.0587 -0.1591 -0.7915
 5014SOL    HW126675   3.034   3.469   4.070  0.5193 -1.0271 -1.4285
 5014SOL    HW226676   3.128   3.498   3.963 -2.1217 -1.6278 -0.7973
 5015SOL     OW26677   0.240   3.808  10.199  0.7977 -0.0431 -0.2870
 5015SOL    HW126678   0.311   3.849  10.248  1.0567 -0.2289 -0.5062
 5015SOL    HW226679   0.171   3.876  10.195 -1.1820 -2.0539 -0.2616
 5016SOL     OW26680   0.543   0.578   2.863 -0.1011  0.0841 -0.1691
 5016SOL    HW126681   0.509   0.497   2.825  1.4418  0.6746 -2.8397
 5016SOL    HW226682   0.532   0.631   2.783  1.2226  0.7414  0.0878
 5017SOL     OW26683   0.556   1.768   6.252 -0.6535  0.3129  0.2459
 5017SOL    HW126684   0.613   1.692   6.238  0.1314  0.8837  0.3811
 5017SOL    HW226685   0.473   1.725   6.231 -0.2555 -0.1896 -0.2896
 5018SOL     OW26686   3.793   2.530   9.447 -0.5590 -0.0563  0.0184
 5018SOL    HW126687   3.866   2.495   9.498 -0.8508  0.4581  0.7891
 5018SOL    HW226688   3.838   2.587   9.385  0.2459 -3.1363 -2.1898
 5019SOL     OW26689   2.044   2.452   3.439  0.5447 -0.6899  0.0622
 5019SOL    HW126690   2.077   2.365   3.414  1.4732  0.2447 -1.9529
 5019SOL    HW226691   1.978   2.414   3.497  3.7530 -0.9649  3.5545
 5020SOL     OW26692   0.807   3.249   5.993  0.4174 -0.0511 -0.0723
 5020SOL    HW126693   0.714   3.268   5.999  0.3913 -0.2578  0.1702
 5020SOL    HW226694   0.839   3.309   6.061 -0.2716 -0.5633  0.6996
 5021SOL     OW26695   4.286   0.395   4.187 -0.0516 -0.4959 -0.3656
 5021SOL    HW126696   4.250   0.308   4.173 -1.9252  0.2713 -0.3396
 5021SOL    HW226697   4.347   0.387   4.261  0.0249  1.4139 -0.2221
 5022SOL     OW26698   0.271   2.601  14.636  0.4029 -0.6565 -0.2269
 5022SOL    HW126699   0.214   2.663  14.591  0.9152  0.4630  0.6733
 5022SOL    HW226700   0.344   2.595  14.575 -0.6920 -0.8053 -1.5189
 5023SOL     OW26701   2.848   3.371  13.203 -0.2949  0.2619 -0.4289
 5023SOL    HW126702   2.806   3.392  13.119 -0.0557  0.8578 -0.3953
 5023SOL    HW226703   2.889   3.452  13.232 -0.0920 -0.7811  2.1553
 5024SOL     OW26704   0.569   2.240   5.358 -0.2170  1.0821 -0.2105
 5024SOL    HW126705   0.655   2.266   5.323  0.3184  0.5967  0.7236
 5024SOL    HW226706   0.525   2.321   5.383 -1.4983  0.1647  0.4923
 5025SOL     OW26707   3.042   4.329   1.135  0.2752 -0.0859 -0.0287
 5025SOL    HW126708   3.081   4.243   1.122  0.6335 -0.0742  0.9086
 5025SOL    HW226709   3.117   4.379   1.167  0.5416  0.0116 -0.8234
 5026SOL     OW26710   3.349   3.767  16.660  0.4705 -0.8894 -0.1699
 5026SOL    HW126711   3.364   3.705  16.589 -2.2312 -0.2117 -1.3187
 5026SOL    HW226712   3.254   3.769  16.665  0.4946 -0.3470  0.0490
 5027SOL     OW26713   0.612   1.020   9.386 -0.2170  0.5005 -0.1409
 5027SOL    HW126714   0.586   1.034   9.477  0.7773  1.2455  0.0374
 5027SOL    HW226715   0.565   0.941   9.360  2.0145 -0.5975 -0.8348
 5028SOL     OW26716   1.215   2.687   5.325  0.1932 -0.1878 -0.1976
 5028SOL    HW126717   1.304   2.720   5.341 -0.2294  0.6090  0.4964
 5028SOL    HW226718   1.197   2.736   5.246  3.0396 -0.6759 -1.1736
 5029SOL     OW26719   1.190   2.141   8.075  0.6141  0.0074  1.0486
 5029SOL    HW126720   1.200   2.055   8.033 -0.6920 -0.2499  1.2386
 5029SOL    HW226721   1.141   2.186   8.006  0.5041 -0.4615  0.8160
 5030SOL     OW26722   2.330   1.445  12.100 -0.6525 -0.4477 -0.4573
 5030SOL    HW126723   2.291   1.481  12.020 -2.6497  1.6123  1.4446
 5030SOL    HW226724   2.353   1.523  12.152 -3.5679  0.5954 -0.7435
 5031SOL     OW26725   0.362   3.393   1.494  0.0548  0.4525 -0.5158
 5031SOL    HW126726   0.394   3.398   1.404  4.1807  2.6531  1.0852
 5031SOL    HW226727   0.444   3.385   1.543  0.7148 -0.3538 -1.7487
 5032SOL     OW26728   1.071   2.139  15.384  0.0075  0.0467  0.6766
 5032SOL    HW126729   0.997   2.192  15.355  0.5300  1.1949  1.4901
 5032SOL    HW226730   1.058   2.141  15.479  0.3668 -0.3341  0.7368
 5033SOL     OW26731   1.250   0.511   8.737  0.3829  0.5863  0.0621
 5033SOL    HW126732   1.254   0.600   8.771 -0.2510  0.2754  0.9493
 5033SOL    HW226733   1.174   0.527   8.682  0.6506 -1.9782 -1.0712
 5034SOL     OW26734   2.420   0.850   6.120 -0.4852 -0.8886  0.3523
 5034SOL    HW126735   2.383   0.881   6.037  1.9536  1.7106  0.2501
 5034SOL    HW226736   2.374   0.907   6.182 -1.3016 -0.4766 -0.6341
 5035SOL     OW26737   1.535   1.146   8.838  0.3608  0.2875 -0.1978
 5035SOL    HW126738   1.455   1.124   8.885 -1.5046  4.1430 -1.5361
 5035SOL    HW226739   1.601   1.085   8.871 -1.4706 -0.8874  1.2392
 5036SOL     OW26740   1.149   2.379   3.439 -0.0593 -1.0452 -0.5668
 5036SOL    HW126741   1.224   2.320   3.437 -0.1337 -1.1729  0.6504
 5036SOL    HW226742   1.170   2.427   3.519  1.5942  0.3609 -1.8190
 5037SOL     OW26743   1.490   2.805   0.480  0.2966  0.2992  0.1437
 5037SOL    HW126744   1.501   2.733   0.541  0.7035 -0.0429 -0.3369
 5037SOL    HW226745   1.513   2.772   0.393 -0.2968  0.8932 -0.2452
 5038SOL     OW26746   0.137   0.118  16.984 -0.0321  0.7956 -0.1891
 5038SOL    HW126747   0.191   0.161  16.918 -0.8189 -0.4952 -1.6781
 5038SOL    HW226748   0.052   0.149  16.952 -0.0056  1.3028  0.2258
 5039SOL     OW26749   1.279   0.359   4.507 -0.2732  0.3917  0.0143
 5039SOL    HW126750   1.211   0.322   4.451  1.5259 -1.3738 -1.0043
 5039SOL    HW226751   1.238   0.443   4.529 -1.2785 -0.0659 -0.1287
 5040SOL     OW26752   4.212   0.110   7.193  0.2347 -0.8564  0.2253
 5040SOL    HW126753   4.169   0.181   7.242 -0.1196 -0.7281 -0.2692
 5040SOL    HW226754   4.175   0.028   7.226 -2.3377 -1.0039 -2.9595
 5041SOL     OW26755   3.173   1.691  14.903  0.2360  0.4104  0.2400
 5041SOL    HW126756   3.172   1.596  14.918  1.2649  0.5294  1.0381
 5041SOL    HW226757   3.079   1.704  14.890  0.5630  0.7638 -1.6552
 5042SOL     OW26758   1.293   2.246  16.694  0.0405  0.1928 -0.6307
 5042SOL    HW126759   1.357   2.309  16.727 -1.2780  0.3072  1.7167
 5042SOL    HW226760   1.213   2.294  16.714  1.4676  1.8523  1.1628
 5043SOL     OW26761   1.167   3.398  16.414  0.2821  0.0969  0.0654
 5043SOL    HW126762   1.144   3.461  16.482  0.2938  0.7101 -0.4971
 5043SOL    HW226763   1.094   3.412  16.354  1.3573  1.0796 -1.0097
 5044SOL     OW26764   2.065   4.227   4.242 -0.7976  0.0321  0.1036
 5044SOL    HW126765   2.038   4.212   4.332 -2.6579  0.0594 -0.4430
 5044SOL    HW226766   2.114   4.309   4.242  0.1441 -0.5276  0.3504
 5045SOL     OW26767   1.343   0.608   3.206 -0.0522  0.8889  0.3523
 5045SOL    HW126768   1.355   0.529   3.154 -2.1712  1.4805 -1.0091
 5045SOL    HW226769   1.249   0.605   3.223  0.0017  0.6090  0.6166
 5046SOL     OW26770   4.669   3.643   5.998 -0.1417 -0.0428 -0.1809
 5046SOL    HW126771   4.718   3.725   5.984  0.1751 -0.0516  0.8427
 5046SOL    HW226772   4.585   3.673   5.964  0.7194 -0.2959 -2.5187
 5047SOL     OW26773   2.637   4.204   5.798  0.5316  0.3280  0.2393
 5047SOL    HW126774   2.659   4.217   5.891  0.1734 -0.4461  0.4344
 5047SOL    HW226775   2.542   4.201   5.810  0.8174 -2.7053  1.8747
 5048SOL     OW26776   3.696   4.503   3.870  0.2983  0.4041 -0.0030
 5048SOL    HW126777   3.782   4.481   3.834 -0.7080  0.6672 -2.5606
 5048SOL    HW226778   3.709   4.479   3.962  0.7509 -0.4665 -0.2922
 5049SOL     OW26779   1.060   2.289   5.052 -0.7697  0.7763 -0.1363
 5049SOL    HW126780   1.096   2.343   5.123 -2.2186  0.1892  1.0558
 5049SOL    HW226781   0.983   2.342   5.033  0.1843  1.4335 -2.0851
 5050SOL     OW26782   1.743   3.065   6.329 -0.7023 -0.6659  0.1770
 5050SOL    HW126783   1.793   3.145   6.344  0.5857 -1.4423  0.0092
 5050SOL    HW226784   1.653   3.084   6.356 -0.3319  0.2558  0.7232
 5051SOL     OW26785   2.529   1.863   9.905  0.2754 -0.0550 -0.1527
 5051SOL    HW126786   2.540   1.944   9.955  0.9106  0.7198 -1.5352
 5051SOL    HW226787   2.573   1.878   9.821 -0.1163 -0.3815 -0.4144
 5052SOL     OW26788   4.371   3.172  16.228  0.0507 -0.2776 -0.3322
 5052SOL    HW126789   4.461   3.138  16.223 -0.1992 -1.0029  0.0554
 5052SOL    HW226790   4.364   3.224  16.148  3.2468 -0.3495 -0.6629
 5053SOL     OW26791   1.088   3.096   2.849  0.0152  0.4847 -0.5989
 5053SOL    HW126792   1.019   3.050   2.897  0.2547  0.4896 -0.2541
 5053SOL    HW226793   1.086   3.044   2.768 -0.0457 -2.4340  1.2943
 5054SOL     OW26794   2.947   3.408   4.788  0.1476 -0.1071  0.7443
 5054SOL    HW126795   2.890   3.422   4.712  0.5571 -0.9840  0.2807
 5054SOL    HW226796   3.039   3.423   4.768  0.3772  0.1053  1.9626
 5055SOL     OW26797   1.882   1.724   0.180  0.2553  0.1358  0.1433
 5055SOL    HW126798   1.930   1.807   0.180  2.2992 -1.0451 -0.4185
 5055SOL    HW226799   1.829   1.733   0.101  2.9605 -0.0734 -1.6957
 5056SOL     OW26800   2.221   4.355   6.247  0.1809  0.0215 -0.4063
 5056SOL    HW126801   2.213   4.289   6.179 -2.4405 -1.7674  1.6200
 5056SOL    HW226802   2.222   4.302   6.327  2.5512  1.7786  0.7282
 5057SOL     OW26803   2.266   2.413   2.358 -0.0436 -0.9059  0.2005
 5057SOL    HW126804   2.267   2.435   2.451  4.4124 -0.4833  0.0660
 5057SOL    HW226805   2.215   2.483   2.316 -0.7244 -0.4853  1.7267
 5058SOL     OW26806   0.033   4.441   5.032  0.6768 -0.8826 -0.0071
 5058SOL    HW126807   4.710   4.391   4.973 -0.4768 -0.9104  1.1388
 5058SOL    HW226808   4.723   4.526   5.029  2.7790  0.0905 -3.2301
 5059SOL     OW26809   0.505   1.680  14.779  0.1964  0.6360  0.0715
 5059SOL    HW126810   0.559   1.744  14.826 -0.1912  1.2761 -0.3498
 5059SOL    HW226811   0.455   1.642  14.852 -0.8256  0.0723 -0.9347
 5060SOL     OW26812   3.605   4.080   7.956  0.5229 -0.0464  0.1255
 5060SOL    HW126813   3.549   4.047   8.026  0.1514  1.0600  0.3622
 5060SOL    HW226814   3.644   4.152   8.005 -0.9838  0.9252 -0.0795
 5061SOL     OW26815   0.299   1.317  17.425  0.8456 -0.8370 -0.0892
 5061SOL    HW126816   0.386   1.318  17.465  1.5314 -0.2894 -1.5879
 5061SOL    HW226817   0.320   1.382  17.358 -2.3574 -0.5306 -0.7575
 5062SOL     OW26818   0.791   3.800  17.581  0.4978 -0.1784  0.0653
 5062SOL    HW126819   0.851   3.868  17.613 -0.6129  0.4347  0.8686
 5062SOL    HW226820   0.848   3.723  17.578  1.4903  0.4908  1.8801
 5063SOL     OW26821   1.773   4.609   5.284  0.8268  0.0546 -0.4877
 5063SOL    HW126822   1.768   4.679   5.348 -1.4256 -0.6137  0.0901
 5063SOL    HW226823   1.741   4.533   5.333  2.0880  0.6280  1.2026
 5064SOL     OW26824   4.562   0.398   2.327 -0.7738 -0.1072 -0.2868
 5064SOL    HW126825   4.582   0.487   2.297 -0.6210  0.4514  1.4624
 5064SOL    HW226826   4.505   0.417   2.402  0.9279  1.3561  0.6242
 5065SOL     OW26827   4.128   3.477   7.160 -0.2845  0.7520  0.3385
 5065SOL    HW126828   4.217   3.506   7.174 -0.0148 -0.7268  1.7280
 5065SOL    HW226829   4.093   3.506   7.244 -0.2389  1.3494  0.1525
 5066SOL     OW26830   3.752   0.227  15.660  0.4911  0.2006 -0.4513
 5066SOL    HW126831   3.674   0.270  15.627  0.0893 -0.2329 -0.0742
 5066SOL    HW226832   3.822   0.265  15.607 -0.7073  0.0469 -2.1373
 5067SOL     OW26833   0.981   2.209  12.354 -0.1658  0.1158 -0.2650
 5067SOL    HW126834   1.005   2.219  12.262  1.6959  0.6110  0.2690
 5067SOL    HW226835   0.922   2.135  12.339  0.3732 -0.1724 -0.9908
 5068SOL     OW26836   1.495   1.337  12.024 -0.3125  0.2390 -0.2349
 5068SOL    HW126837   1.506   1.329  11.930  0.6308  0.1057 -0.1183
 5068SOL    HW226838   1.520   1.249  12.054 -1.9528 -1.0223 -2.6236
 5069SOL     OW26839   0.967   3.999   6.177 -0.3088 -0.2693 -0.1902
 5069SOL    HW126840   0.999   3.957   6.097 -0.5383 -0.3209 -0.2569
 5069SOL    HW226841   1.047   4.047   6.195 -2.8965  3.6331  0.8341
 5070SOL     OW26842   2.897   0.080  11.407  0.6701 -0.1522  0.1877
 5070SOL    HW126843   2.862   0.150  11.352 -0.1267  0.8258  1.9650
 5070SOL    HW226844   2.975   0.128  11.434  1.3736 -1.4957  0.5685
 5071SOL     OW26845   1.553   0.016   9.587  0.5043  0.5093  0.4746
 5071SOL    HW126846   1.588   4.684   9.646 -1.5065  1.1986  2.4236
 5071SOL    HW226847   1.460   0.009   9.608  1.2866 -3.7110  2.5729
 5072SOL     OW26848   1.765   1.562   9.106 -0.5342 -0.2937  0.0537
 5072SOL    HW126849   1.850   1.562   9.061 -1.5886  0.2462 -1.9373
 5072SOL    HW226850   1.795   1.548   9.196 -1.3225  2.4718  0.7384
 5073SOL     OW26851   1.363   4.667   8.191  0.3512  0.3411 -0.1628
 5073SOL    HW126852   1.341   4.702   8.278 -2.4828 -0.0384 -0.7384
 5073SOL    HW226853   1.343   0.008   8.136 -1.9850  0.6531  1.1014
 5074SOL     OW26854   2.324   1.367   1.408  0.1431  0.1868 -0.1583
 5074SOL    HW126855   2.317   1.272   1.412 -1.9724  0.3023 -0.7691
 5074SOL    HW226856   2.264   1.392   1.337 -1.0105  0.0525  0.7728
 5075SOL     OW26857   1.720   1.498  12.851  0.7124 -0.1201 -0.2161
 5075SOL    HW126858   1.693   1.589  12.864  1.3108  0.1978 -1.1130
 5075SOL    HW226859   1.786   1.517  12.783  1.0933 -1.8651 -0.3290
 5076SOL     OW26860   4.581   3.025  17.402  0.3515 -0.0886 -0.1960
 5076SOL    HW126861   4.645   2.962  17.435  1.1175  0.9454  0.2939
 5076SOL    HW226862   4.643   3.088  17.363 -1.0607  0.8157 -0.9790
 5077SOL     OW26863   2.092   2.360   6.198 -0.2216  0.6135 -0.0541
 5077SOL    HW126864   2.090   2.449   6.233 -0.8962  0.3768  0.5119
 5077SOL    HW226865   2.171   2.364   6.145  0.0620  2.6726  0.5146
 5078SOL     OW26866   4.487   3.855  14.942  0.0893 -0.1757 -0.6431
 5078SOL    HW126867   4.462   3.791  14.875 -0.7673 -1.1023  0.5497
 5078SOL    HW226868   4.454   3.935  14.901 -0.0402 -0.1314 -0.4561
 5079SOL     OW26869   4.268   2.495   0.607  0.1741  0.5400 -0.0939
 5079SOL    HW126870   4.181   2.481   0.643  1.0164  1.5163  2.3505
 5079SOL    HW226871   4.335   2.470   0.672  0.5085 -1.6488 -1.2872
 5080SOL     OW26872   4.514   3.095   2.115 -0.0171  0.1315  0.5383
 5080SOL    HW126873   4.443   3.150   2.148  0.5447  0.2536  1.5582
 5080SOL    HW226874   4.543   3.054   2.197 -1.9455  2.4502  2.3850
 5081SOL     OW26875   4.415   0.703  16.975 -0.3617 -0.6014 -0.3965
 5081SOL    HW126876   4.401   0.775  16.913  0.4522  1.1932  1.5257
 5081SOL    HW226877   4.331   0.707  17.020 -0.5931 -0.4271 -0.8497
 5082SOL     OW26878   1.749   3.834   5.675 -0.4451  0.3616 -0.8749
 5082SOL    HW126879   1.774   3.813   5.765 -1.3758 -0.3827 -0.7855
 5082SOL    HW226880   1.765   3.745   5.642  1.7566 -0.2663  1.8810
 5083SOL     OW26881   3.355   1.944   9.806  0.4500  0.3205 -0.3651
 5083SOL    HW126882   3.317   1.872   9.856  0.5215  0.3689 -0.2385
 5083SOL    HW226883   3.278   1.998   9.790 -1.0135 -2.2589 -2.1064
 5084SOL     OW26884   0.978   1.389  15.217 -0.0189 -0.3320 -0.1338
 5084SOL    HW126885   1.029   1.312  15.195 -0.4255 -0.5600 -0.2829
 5084SOL    HW226886   0.897   1.351  15.252  0.5982  0.8942  2.7026
 5085SOL     OW26887   1.654   1.801   5.703 -0.2360  0.3134 -0.1014
 5085SOL    HW126888   1.673   1.745   5.778 -1.9561  0.5289  0.4944
 5085SOL    HW226889   1.716   1.873   5.715  0.3415 -0.4574  1.5232
 5086SOL     OW26890   2.818   2.330   3.769  0.0152  0.1696 -0.4597
 5086SOL    HW126891   2.810   2.295   3.681 -1.9694 -0.0099 -0.2044
 5086SOL    HW226892   2.807   2.249   3.819  0.4149 -0.2925 -1.1155
 5087SOL     OW26893   0.523   0.748   4.781  0.2800  0.3440 -0.2203
 5087SOL    HW126894   0.607   0.759   4.825  0.8050 -0.0807 -1.1298
 5087SOL    HW226895   0.544   0.808   4.709  0.1969  0.5860 -0.0420
 5088SOL     OW26896   1.384   1.741   9.708  0.4450 -1.0074 -0.2713
 5088SOL    HW126897   1.336   1.785   9.638 -0.8855 -0.1678  1.1695
 5088SOL    HW226898   1.323   1.751   9.781  0.6225  0.8586 -0.3923
 5089SOL     OW26899   1.598   4.067   3.268  0.0036 -0.2188  0.0215
 5089SOL    HW126900   1.550   4.145   3.296  0.8342  0.2758  0.0577
 5089SOL    HW226901   1.535   3.997   3.249  0.0033  0.0294 -0.8944
 5090SOL     OW26902   3.330   4.141   8.274  0.3255 -0.0874 -0.7477
 5090SOL    HW126903   3.341   4.220   8.221 -1.4759  1.8316  1.7442
 5090SOL    HW226904   3.253   4.175   8.319  2.1915  0.2924  2.1968
 5091SOL     OW26905   4.080   0.561   5.054  0.3139  0.1575 -0.2947
 5091SOL    HW126906   4.117   0.594   4.972 -0.7919 -0.1137 -0.8940
 5091SOL    HW226907   4.051   0.644   5.091 -1.5618 -0.3719 -0.5869
 5092SOL     OW26908   0.626   1.503   6.231  0.7176  0.0006  0.5102
 5092SOL    HW126909   0.544   1.458   6.209 -0.5706  1.9045  1.4313
 5092SOL    HW226910   0.689   1.459   6.173 -1.0438 -2.6309  0.5714
 5093SOL     OW26911   0.047   1.903   5.439 -0.0013  0.1183 -0.4075
 5093SOL    HW126912   0.045   1.810   5.415 -0.6420 -0.5135  2.1685
 5093SOL    HW226913   0.143   1.912   5.442  0.2237 -2.4150 -0.4212
 5094SOL     OW26914   3.092   4.143   3.286 -0.0659 -0.6205 -0.6261
 5094SOL    HW126915   3.087   4.204   3.359  1.0201  0.4186 -1.4307
 5094SOL    HW226916   3.131   4.200   3.220  0.3867 -1.4057 -1.0349
 5095SOL     OW26917   2.958   1.797   8.472 -0.0153 -0.8127 -0.1953
 5095SOL    HW126918   2.871   1.817   8.505  0.2636  1.3917 -0.7782
 5095SOL    HW226919   2.965   1.862   8.402  1.6281 -0.1500  0.5761
 5096SOL     OW26920   4.035   0.377  12.330  0.2581 -0.2437  0.3524
 5096SOL    HW126921   3.968   0.440  12.354 -1.6645 -0.9992 -3.0338
 5096SOL    HW226922   4.031   0.317  12.405 -2.9471 -1.1171 -0.5214
 5097SOL     OW26923   2.311   2.923   6.842 -0.5150  0.6064  0.1815
 5097SOL    HW126924   2.257   2.929   6.920 -1.2995  0.4830 -0.3584
 5097SOL    HW226925   2.377   2.991   6.858 -0.8526  0.8945  0.3530
 5098SOL     OW26926   4.334   4.299   2.353  0.1038  0.8212  1.2248
 5098SOL    HW126927   4.334   4.391   2.327 -0.0477  0.9866  1.8078
 5098SOL    HW226928   4.326   4.254   2.269 -0.4609  0.7810  1.2948
 5099SOL     OW26929   1.075   1.030  15.804 -0.0930 -0.2953  0.0332
 5099SOL    HW126930   1.151   0.996  15.758 -0.1513  0.0844 -0.3481
 5099SOL    HW226931   1.130   1.076  15.868 -0.0549 -2.1006  1.2845
 5100SOL     OW26932   2.536   3.293   5.108 -0.1544  0.3325 -0.0013
 5100SOL    HW126933   2.519   3.383   5.135 -1.4422 -0.0749  0.5688
 5100SOL    HW226934   2.472   3.249   5.164 -0.3622 -0.2227 -0.6694
 5101SOL     OW26935   0.613   0.825  17.149 -0.1711 -0.7869 -0.0700
 5101SOL    HW126936   0.531   0.815  17.197 -1.6135  0.9407 -2.2017
 5101SOL    HW226937   0.677   0.792  17.212 -0.8581 -1.4115  0.3145
 5102SOL     OW26938   1.531   3.604   4.264  0.0732  0.3137 -0.2823
 5102SOL    HW126939   1.493   3.526   4.305  0.3099  0.1393 -0.3912
 5102SOL    HW226940   1.489   3.676   4.310 -0.3833 -1.3656  1.9578
 5103SOL     OW26941   1.998   2.419   4.491  0.8764  0.2989 -0.3226
 5103SOL    HW126942   2.061   2.427   4.419 -0.0155 -0.8727 -1.2243
 5103SOL    HW226943   1.917   2.393   4.449  0.4616  0.5548  0.3259
 5104SOL     OW26944   2.090   4.043   9.424 -0.6158 -0.1226  0.2376
 5104SOL    HW126945   2.174   4.064   9.466 -0.6753 -1.1888  0.8960
 5104SOL    HW226946   2.105   4.066   9.333 -1.5783  0.0232  0.1193
 5105SOL     OW26947   2.085   1.781   5.020  0.2945  0.3461 -0.4528
 5105SOL    HW126948   2.085   1.844   5.092 -0.3112  1.7155 -1.6327
 5105SOL    HW226949   2.127   1.706   5.063  0.1678  0.0178 -0.9027
 5106SOL     OW26950   1.040   4.210   4.458  0.4932  0.3518  0.3122
 5106SOL    HW126951   1.058   4.169   4.373  0.4979  0.2527  0.3618
 5106SOL    HW226952   1.071   4.298   4.435 -3.7491  1.9061  0.5473
 5107SOL     OW26953   4.660   4.348   7.386  0.0208 -0.3512 -0.4816
 5107SOL    HW126954   4.589   4.284   7.377 -0.7882  0.5937 -0.8484
 5107SOL    HW226955   4.622   4.419   7.334  1.2347 -1.3131 -2.6457
 5108SOL     OW26956   1.262   4.392  14.935 -0.2725 -0.3290  0.0571
 5108SOL    HW126957   1.256   4.410  14.841  0.4511 -1.4390 -0.2008
 5108SOL    HW226958   1.246   4.480  14.968  1.5427 -0.6742  1.7946
 5109SOL     OW26959   0.199   4.046  15.575  0.3574  0.1765  0.2090
 5109SOL    HW126960   0.121   4.002  15.539 -0.3142  0.2695  1.5708
 5109SOL    HW226961   0.186   4.139  15.556 -0.4708  0.5113  2.4087
 5110SOL     OW26962   0.591   3.063  16.561 -0.2776 -0.0858 -0.4562
 5110SOL    HW126963   0.513   3.034  16.514  0.3662 -0.8057 -1.0677
 5110SOL    HW226964   0.610   3.135  16.501 -0.0210  1.0402  0.9602
 5111SOL     OW26965   3.614   1.731   3.114  0.0863 -0.3657 -0.3120
 5111SOL    HW126966   3.654   1.814   3.089  0.4231 -0.0242  1.3215
 5111SOL    HW226967   3.687   1.702   3.169  1.2659 -0.5887 -1.9841
 5112SOL     OW26968   1.360   2.229  16.438  0.4589 -0.3632 -0.4819
 5112SOL    HW126969   1.452   2.210  16.458 -0.2863 -2.3052  1.0523
 5112SOL    HW226970   1.323   2.219  16.526 -1.0117  2.4631 -0.7766
 5113SOL     OW26971   3.345   2.199   6.718  0.4166 -0.0185 -0.2517
 5113SOL    HW126972   3.313   2.289   6.713 -1.4137 -0.6224  0.6806
 5113SOL    HW226973   3.380   2.181   6.631 -0.4975 -1.1912 -0.3670
 5114SOL     OW26974   3.082   1.131   9.272 -0.2653  0.0133 -0.6130
 5114SOL    HW126975   3.165   1.135   9.320 -0.8981  0.2287  0.4552
 5114SOL    HW226976   3.091   1.063   9.206 -1.7253  0.2038 -1.0185
 5115SOL     OW26977   1.795   0.023   6.141 -0.2570  0.5218  1.2221
 5115SOL    HW126978   1.700   0.015   6.133 -0.3430  2.1985  0.6051
 5115SOL    HW226979   1.800   0.117   6.122  0.1022  0.1327 -0.6236
 5116SOL     OW26980   1.597   3.630  16.736 -0.5684  0.5738  0.5942
 5116SOL    HW126981   1.596   3.726  16.731  1.5727  0.4939 -1.4626
 5116SOL    HW226982   1.566   3.620  16.826 -0.7901  2.6821  0.7519
 5117SOL     OW26983   0.175   2.880  10.525  0.0956  0.2427  0.6221
 5117SOL    HW126984   0.213   2.963  10.498  0.3696  0.4211  1.5397
 5117SOL    HW226985   0.115   2.916  10.590 -2.0513 -0.6675 -0.8874
 5118SOL     OW26986   4.108   1.323   5.819 -0.2547 -0.1976  0.3886
 5118SOL    HW126987   4.058   1.340   5.739 -1.8968 -0.3529  1.3641
 5118SOL    HW226988   4.038   1.371   5.865 -0.5602  0.9733 -1.3000
 5119SOL     OW26989   1.692   1.677   8.148  0.5456  0.5739  0.2796
 5119SOL    HW126990   1.656   1.706   8.064 -0.5985  0.9894  0.9194
 5119SOL    HW226991   1.739   1.597   8.123 -0.7222 -0.1603  0.2598
 5120SOL     OW26992   0.088   4.217   9.410  0.4240 -0.0042 -0.6111
 5120SOL    HW126993   0.130   4.131   9.421 -0.0613 -0.4719 -2.4863
 5120SOL    HW226994   0.013   4.197   9.354 -0.5414  0.1027  0.6400
 5121SOL     OW26995   2.851   0.993   4.969  0.6406 -0.0449  0.1488
 5121SOL    HW126996   2.815   0.969   5.054 -2.7675 -1.3374 -1.6786
 5121SOL    HW226997   2.807   0.931   4.911  2.3933 -0.8887 -0.2792
 5122SOL     OW26998   2.028   0.985   7.018  0.1969 -0.6276 -0.4735
 5122SOL    HW126999   2.010   1.066   7.066  0.6681 -2.2361  2.4046
 5122SOL    HW227000   1.940   0.947   7.020 -0.1813  0.1851 -1.4607
 5123SOL     OW27001   1.092   1.497  12.139 -0.3058  0.7331 -0.2323
 5123SOL    HW127002   1.014   1.513  12.193  1.3827  0.2558  2.3986
 5123SOL    HW227003   1.052   1.456  12.063 -0.2205  0.6546 -0.2354
 5124SOL     OW27004   1.887   2.488  16.895 -0.1287 -0.3191  0.2306
 5124SOL    HW127005   1.863   2.564  16.842 -3.5959 -0.2914  1.8065
 5124SOL    HW227006   1.951   2.527  16.953  0.5060 -0.9239 -0.0644
 5125SOL     OW27007   1.043   1.988  14.817  0.4309  0.1480 -0.3640
 5125SOL    HW127008   0.970   1.996  14.756  0.2453  1.7808  0.0863
 5125SOL    HW227009   0.999   2.010  14.899  2.2022  0.9773  0.3836
 5126SOL     OW27010   2.647   1.738   5.634 -0.0102  0.4154 -1.2724
 5126SOL    HW127011   2.704   1.666   5.661 -0.2699 -0.4180 -2.9720
 5126SOL    HW227012   2.563   1.694   5.626 -0.5593  1.3849 -0.8223
 5127SOL     OW27013   1.897   4.353   0.463  0.3253  0.1513 -0.0969
 5127SOL    HW127014   1.890   4.288   0.532  0.4389 -0.3052 -0.5120
 5127SOL    HW227015   1.936   4.416   0.524 -0.4712 -1.6071  2.2221
 5128SOL     OW27016   2.264   0.296   2.599  0.3085  0.4202 -0.5310
 5128SOL    HW127017   2.262   0.390   2.585  0.1712  0.3308 -1.1148
 5128SOL    HW227018   2.222   0.267   2.517 -1.1691 -0.2357  0.4563
 5129SOL     OW27019   1.372   0.491   4.824  0.2548 -0.6637  0.1393
 5129SOL    HW127020   1.293   0.438   4.816 -0.1611 -0.1989  1.3009
 5129SOL    HW227021   1.375   0.538   4.740  0.5362 -0.4036  0.2922
 5130SOL     OW27022   3.070   1.869   6.603  0.1508  0.5336  0.6149
 5130SOL    HW127023   3.021   1.945   6.636 -2.4613 -0.9780  0.2364
 5130SOL    HW227024   3.048   1.866   6.509  1.5728 -1.7912  0.3658
 5131SOL     OW27025   3.236   3.556   9.092  0.0877 -0.0571  0.0706
 5131SOL    HW127026   3.321   3.570   9.049 -0.6484  1.8670 -0.7639
 5131SOL    HW227027   3.255   3.578   9.183  1.5608 -0.0522 -0.2266
 5132SOL     OW27028   2.750   0.770  13.826  0.0328 -0.1592  0.5074
 5132SOL    HW127029   2.688   0.834  13.859  0.8245  1.6760 -1.5486
 5132SOL    HW227030   2.823   0.831  13.821 -0.6966  0.8150  2.0971
 5133SOL     OW27031   2.095   1.404   2.674 -0.2579 -0.1621 -0.2484
 5133SOL    HW127032   2.089   1.434   2.764 -0.1979 -0.1952 -0.2331
 5133SOL    HW227033   2.053   1.480   2.632 -1.5827 -1.3602 -1.0721
 5134SOL     OW27034   4.352   1.774  10.165  0.3848  0.2822 -0.9141
 5134SOL    HW127035   4.349   1.817  10.079 -0.2380 -0.4882 -1.2759
 5134SOL    HW227036   4.406   1.841  10.206 -0.2763 -0.4026  1.0656
 5135SOL     OW27037   2.925   0.454  14.604  0.2765 -0.0139 -0.7945
 5135SOL    HW127038   2.919   0.535  14.654  0.3898  0.4229 -1.4988
 5135SOL    HW227039   2.924   0.494  14.517 -0.7625  1.8210  0.0687
 5136SOL     OW27040   4.345   4.622   9.936  0.1566  0.2451 -0.0893
 5136SOL    HW127041   4.426   4.609   9.886  0.3945 -1.6791  0.7826
 5136SOL    HW227042   4.366   4.558  10.005 -0.5443 -1.0584 -1.0928
 5137SOL     OW27043   3.795   0.773   6.855  0.0407 -0.1256 -0.4154
 5137SOL    HW127044   3.775   0.845   6.795 -0.3213  0.8368  0.8838
 5137SOL    HW227045   3.821   0.706   6.792 -1.2707 -1.3844  0.3885
 5138SOL     OW27046   0.990   3.146  13.666 -0.1245  0.2146 -0.7112
 5138SOL    HW127047   0.983   3.213  13.734 -0.7252  0.7917 -1.3446
 5138SOL    HW227048   0.936   3.183  13.596 -0.5296 -0.8134 -0.9426
 5139SOL     OW27049   1.349   2.546  10.431  0.1201  0.3019 -0.5578
 5139SOL    HW127050   1.430   2.594  10.445 -0.1128  0.6707 -0.4949
 5139SOL    HW227051   1.348   2.519  10.339 -1.7281 -2.2375  0.2085
 5140SOL     OW27052   2.629   0.178   5.566  0.8205 -0.5014  0.3281
 5140SOL    HW127053   2.592   0.227   5.639 -0.1813  0.2659 -0.7046
 5140SOL    HW227054   2.573   0.208   5.495  0.6200 -0.5312  0.4743
 5141SOL     OW27055   1.539   1.890   6.920 -0.5841  0.0647  0.0926
 5141SOL    HW127056   1.574   1.871   7.007  2.3983  1.7768 -0.7173
 5141SOL    HW227057   1.444   1.890   6.933 -0.3321  0.5836  1.9132
 5142SOL     OW27058   4.722   1.394   6.579  0.1357  0.2482  0.4976
 5142SOL    HW127059   4.633   1.359   6.583 -0.2223  1.1176  0.1681
 5142SOL    HW227060   0.041   1.315   6.576 -0.2618  0.0205 -0.5334
 5143SOL     OW27061   4.625   4.489   7.852 -0.3580  0.0726  0.3923
 5143SOL    HW127062   4.718   4.481   7.872  0.6598  3.8368 -2.9318
 5143SOL    HW227063   4.609   4.438   7.773  3.4643 -0.7623  0.1699
 5144SOL     OW27064   3.496   3.917   7.251 -0.5557  0.0713 -0.5778
 5144SOL    HW127065   3.564   3.853   7.270 -0.1272  0.2877 -1.3847
 5144SOL    HW227066   3.496   3.955   7.339  0.4918  0.1978 -0.6412
 5145SOL     OW27067   4.287   3.230   6.076 -0.7989  0.3186  0.4549
 5145SOL    HW127068   4.294   3.191   6.163  2.2764  0.1962  0.1404
 5145SOL    HW227069   4.361   3.185   6.036  0.0347  1.6766  0.4798
 5146SOL     OW27070   0.514   4.722   2.505  0.2984  0.1430  0.1256
 5146SOL    HW127071   0.580   4.720   2.574  3.2930 -4.4582 -2.8624
 5146SOL    HW227072   0.466   0.069   2.518 -1.4592 -0.7343 -0.8647
 5147SOL     OW27073   1.139   0.007   6.720 -0.1038 -0.3378  0.7043
 5147SOL    HW127074   1.067   4.684   6.745 -1.0013  1.0053  1.2328
 5147SOL    HW227075   1.219   4.691   6.737  1.2306  1.5791  0.1749
 5148SOL     OW27076   1.034   4.266  14.263  0.5531  0.0661  0.1484
 5148SOL    HW127077   1.064   4.244  14.174 -2.3376  0.8405 -1.0242
 5148SOL    HW227078   0.990   4.184  14.287  1.3092 -0.4354 -0.1743
 5149SOL     OW27079   1.190   4.325   5.916 -0.6895 -0.1410  0.1831
 5149SOL    HW127080   1.225   4.404   5.958  1.0355 -0.0374 -1.4468
 5149SOL    HW227081   1.218   4.332   5.824  1.7317  0.6473  0.9707
 5150SOL     OW27082   1.434   2.390   1.198 -0.6355  0.3794  0.3249
 5150SOL    HW127083   1.371   2.372   1.267 -0.4591 -0.3661  0.2883
 5150SOL    HW227084   1.473   2.303   1.190 -0.9252  0.2963 -0.1850
 5151SOL     OW27085   1.445   3.745   8.425 -0.0402 -0.1084 -0.0547
 5151SOL    HW127086   1.452   3.825   8.372 -0.6145  0.1121  0.2031
 5151SOL    HW227087   1.525   3.750   8.477  0.8105 -0.9542 -1.2753
 5152SOL     OW27088   3.634   4.299   9.086  0.0872  0.3446  0.3054
 5152SOL    HW127089   3.649   4.344   9.003  0.1183 -0.2042  0.0089
 5152SOL    HW227090   3.614   4.368   9.148 -2.5210  0.5147 -0.7534
 5153SOL     OW27091   3.599   3.660   8.624  0.1375  0.1831 -0.1236
 5153SOL    HW127092   3.538   3.593   8.656  0.8150 -1.2896 -1.8900
 5153SOL    HW227093   3.580   3.660   8.530  0.9583  1.4470 -0.2870
 5154SOL     OW27094   0.189   3.810   1.520 -0.3361  0.0043  1.1001
 5154SOL    HW127095   0.219   3.735   1.571  0.4550  0.8187  1.8272
 5154SOL    HW227096   0.185   3.771   1.433  2.2486 -0.4068  1.1632
 5155SOL     OW27097   0.489   3.087   8.198  0.0307  0.2364  0.2172
 5155SOL    HW127098   0.430   3.024   8.157  1.2227  0.7090 -2.2714
 5155SOL    HW227099   0.453   3.090   8.286  1.3214 -1.4426  0.7832
 5156SOL     OW27100   2.025   1.300   9.928 -0.0188 -0.4339 -0.1017
 5156SOL    HW127101   2.027   1.374   9.868  3.1159  0.1792  0.7382
 5156SOL    HW227102   1.984   1.229   9.879 -1.1645 -0.4011  0.8172
 5157SOL     OW27103   3.334   3.643  10.028  0.3516 -0.5366 -0.1906
 5157SOL    HW127104   3.299   3.730  10.009 -0.0478 -0.5776  0.3676
 5157SOL    HW227105   3.293   3.609  10.107  0.8174  0.6604  0.5625
 5158SOL     OW27106   0.472   3.132   0.034 -0.4755 -0.4781  0.2608
 5158SOL    HW127107   0.443   3.045   0.061 -0.9799 -0.4618 -0.2266
 5158SOL    HW227108   0.451   3.129  17.677  1.3737 -1.8870 -0.1124
 5159SOL     OW27109   2.826   1.689   4.225 -0.2571  0.4251 -0.3962
 5159SOL    HW127110   2.754   1.748   4.247  0.6940  0.6918  2.0436
 5159SOL    HW227111   2.876   1.730   4.155  1.9452 -1.1560  0.2299
 5160SOL     OW27112   1.321   0.854   5.532 -0.2600 -0.3835  0.3900
 5160SOL    HW127113   1.258   0.923   5.552 -0.3644  0.0020 -1.2570
 5160SOL    HW227114   1.283   0.814   5.454  0.4132 -1.3463  0.5604
 5161SOL     OW27115   0.153   1.668   7.332 -0.3958 -0.2029  0.4059
 5161SOL    HW127116   0.181   1.578   7.351  1.8063  0.2331 -0.8628
 5161SOL    HW227117   0.059   1.651   7.344 -0.3864 -0.1968  0.4887
 5162SOL     OW27118   1.890   1.631   6.390 -0.2640 -0.0023 -0.2305
 5162SOL    HW127119   1.851   1.658   6.306 -0.6566 -2.9191 -0.9780
 5162SOL    HW227120   1.816   1.645   6.450  1.2983  2.4739  1.1052
 5163SOL     OW27121   4.030   2.457   9.594  0.0492 -0.2241 -0.0939
 5163SOL    HW127122   4.119   2.457   9.628  0.6138 -0.1437 -1.5461
 5163SOL    HW227123   3.981   2.470   9.675 -0.1995  1.3435 -0.5105
 5164SOL     OW27124   3.513   1.255   6.047  0.2384  0.5632 -0.1289
 5164SOL    HW127125   3.609   1.250   6.043  0.0841 -2.3994 -0.6077
 5164SOL    HW227126   3.502   1.330   6.105  1.1876 -0.1767  1.0215
 5165SOL     OW27127   1.320   2.126   1.602 -0.8335  0.3680  0.5841
 5165SOL    HW127128   1.403   2.174   1.601 -1.2416  1.0721  0.5947
 5165SOL    HW227129   1.346   2.042   1.564  2.0595  0.8854  1.3687
 5166SOL     OW27130   3.181   3.539   8.345  0.8014 -0.4388  0.1288
 5166SOL    HW127131   3.091   3.518   8.319  0.6696  0.1886  0.0774
 5166SOL    HW227132   3.169   3.628   8.378 -0.3400 -1.2318  1.8643
 5167SOL     OW27133   1.414   1.693  10.191  0.0354 -0.6081 -0.3050
 5167SOL    HW127134   1.441   1.601  10.192 -2.6822 -1.3758  1.3848
 5167SOL    HW227135   1.342   1.698  10.253 -0.1371  1.0453 -0.6389
 5168SOL     OW27136   1.338   3.396   7.299  0.4455 -0.8738 -0.6128
 5168SOL    HW127137   1.336   3.344   7.379  0.4478  0.5968  0.3335
 5168SOL    HW227138   1.382   3.339   7.236 -0.3271 -0.5021 -1.4915
 5169SOL     OW27139   3.712   0.605   4.984  0.0713  0.6593  0.1427
 5169SOL    HW127140   3.745   0.543   5.048  0.6281 -0.4313 -1.1971
 5169SOL    HW227141   3.659   0.566   4.915  0.9287  0.7072 -0.5487
 5170SOL     OW27142   0.234   1.562   3.193 -0.2558 -0.1062  0.3533
 5170SOL    HW127143   0.139   1.567   3.182 -0.1964 -0.6799 -0.4653
 5170SOL    HW227144   0.242   1.496   3.262 -3.6042  0.6437  1.4397
 5171SOL     OW27145   0.379   4.693   1.458 -0.5076  0.1896  0.1545
 5171SOL    HW127146   0.308   0.013   1.494 -0.2460  1.0183 -0.5852
 5171SOL    HW227147   0.355   4.623   1.519 -1.2546 -1.4957 -2.0921
 5172SOL     OW27148   2.427   4.246   2.986  0.3053  0.1358  0.0669
 5172SOL    HW127149   2.483   4.213   2.917 -0.1792 -0.6022  0.0230
 5172SOL    HW227150   2.476   4.202   3.056 -0.9271 -0.3588  0.6321
 5173SOL     OW27151   1.473   1.569  12.671 -0.3670 -0.0837 -0.3153
 5173SOL    HW127152   1.490   1.484  12.711 -0.0751  1.2508  2.3458
 5173SOL    HW227153   1.481   1.623  12.750 -3.5071  1.0174 -0.7128
 5174SOL     OW27154   1.737   2.659  17.201  0.1874 -0.2498  0.1382
 5174SOL    HW127155   1.831   2.644  17.206  0.2853  1.1986  2.5470
 5174SOL    HW227156   1.712   2.572  17.168  2.6419 -0.6449 -0.6453
 5175SOL     OW27157   2.884   0.670   4.358 -0.4655  0.5004  0.1957
 5175SOL    HW127158   2.794   0.700   4.375 -0.6681  0.2728 -0.5035
 5175SOL    HW227159   2.888   0.596   4.419  0.9455  1.0741  0.8047
 5176SOL     OW27160   4.153   2.997   8.827  0.0166 -0.6818  0.0591
 5176SOL    HW127161   4.091   2.929   8.852 -0.9925  0.1048 -0.2901
 5176SOL    HW227162   4.190   2.969   8.743 -0.2378  0.1482 -0.3348
 5177SOL     OW27163   3.205   0.257  12.261 -0.2947  0.0845 -0.4959
 5177SOL    HW127164   3.182   0.345  12.232 -0.3768  1.3977  3.5518
 5177SOL    HW227165   3.299   0.275  12.269 -0.2795 -0.3422  0.2865
 5178SOL     OW27166   0.055   4.547   6.999 -0.2696  0.0636 -0.4597
 5178SOL    HW127167   4.713   4.553   7.056  0.0786  0.3204 -0.0155
 5178SOL    HW227168   0.094   4.629   7.032  0.3332 -0.5117  0.2685
 5179SOL     OW27169   2.337   2.599   8.391  0.6044 -0.3002 -0.4158
 5179SOL    HW127170   2.391   2.635   8.461  0.7422 -0.3566 -0.4936
 5179SOL    HW227171   2.282   2.674   8.368  2.5233  0.3022 -3.0756
 5180SOL     OW27172   0.261   3.590   1.658  0.1583 -0.1124  0.0017
 5180SOL    HW127173   0.286   3.511   1.610  0.5606 -1.2477  2.0846
 5180SOL    HW227174   0.224   3.557   1.740  2.2306  0.7670  1.3251
 5181SOL     OW27175   3.828   0.139   7.397  0.2880 -0.1155 -0.1199
 5181SOL    HW127176   3.838   0.231   7.371 -2.3588 -0.5376 -2.6524
 5181SOL    HW227177   3.807   0.094   7.315  2.0876  1.4987 -1.4833
 5182SOL     OW27178   4.255   0.744  11.291  0.2791  0.0258  0.3566
 5182SOL    HW127179   4.247   0.691  11.369 -0.2602 -0.0974  0.2131
 5182SOL    HW227180   4.194   0.817  11.296  0.1117 -0.0269 -0.8563
 5183SOL     OW27181   0.496   3.788   4.070 -0.1015 -0.2224  0.3780
 5183SOL    HW127182   0.491   3.789   4.166 -0.7331 -0.8336  0.3462
 5183SOL    HW227183   0.552   3.864   4.053 -1.0220 -0.4227 -3.4096
 5184SOL     OW27184   1.000   4.213  11.912 -0.1165  0.1419  0.5120
 5184SOL    HW127185   1.069   4.160  11.872 -0.9753 -0.2219 -0.4871
 5184SOL    HW227186   1.028   4.207  12.003  2.0801  2.0971 -0.0575
 5185SOL     OW27187   1.205   1.941   4.571  0.1662  0.1577 -0.0935
 5185SOL    HW127188   1.276   1.903   4.521 -1.6863 -2.0482 -1.0338
 5185SOL    HW227189   1.179   2.013   4.513  1.0766  0.4501 -0.1298
 5186SOL     OW27190   4.377   3.820  13.622  0.1703  0.0493  0.0463
 5186SOL    HW127191   4.420   3.806  13.538  0.7000  2.7968 -0.1243
 5186SOL    HW227192   4.347   3.910  13.612 -0.0131 -0.0858 -0.6335
 5187SOL     OW27193   1.841   3.988   7.331  0.4758  0.1327 -0.2350
 5187SOL    HW127194   1.899   3.921   7.369 -0.0324 -1.3089 -2.0114
 5187SOL    HW227195   1.895   4.064   7.355 -2.0677  1.4785  1.1446
 5188SOL     OW27196   0.554   1.368   4.743  0.2682 -0.4877  0.0821
 5188SOL    HW127197   0.568   1.408   4.658 -0.5230  1.1717  0.7408
 5188SOL    HW227198   0.593   1.280   4.736 -1.3526 -1.2684  0.8054
 5189SOL     OW27199   2.538   2.186  16.489 -0.0876 -0.2890 -0.0489
 5189SOL    HW127200   2.527   2.244  16.413 -0.3637  0.6304  0.6909
 5189SOL    HW227201   2.589   2.117  16.447 -0.0193 -0.2532 -0.0240
 5190SOL     OW27202   2.769   0.886   4.570  0.4802  0.5624 -0.2081
 5190SOL    HW127203   2.864   0.892   4.564  0.5082  0.9900  0.6349
 5190SOL    HW227204   2.773   0.848   4.658  1.6088  0.6345 -0.2275
 5191SOL     OW27205   1.754   4.041   2.465 -0.3614 -0.5750 -0.3729
 5191SOL    HW127206   1.708   4.004   2.541 -1.1040  0.1449 -0.4674
 5191SOL    HW227207   1.817   3.969   2.460  0.6358  0.3878 -1.5306
 5192SOL     OW27208   3.695   2.111   8.890 -0.0202  0.0195 -0.2385
 5192SOL    HW127209   3.664   2.198   8.917 -0.5985  0.9657 -3.9048
 5192SOL    HW227210   3.619   2.066   8.852  1.4332 -2.0126 -0.7248
 5193SOL     OW27211   2.321   1.183   6.877  0.2867  0.1813  0.0379
 5193SOL    HW127212   2.229   1.203   6.861  0.4324  0.9141  0.1278
 5193SOL    HW227213   2.359   1.264   6.910  0.9279  0.0317 -0.3383
 5194SOL     OW27214   3.714   1.572   2.921 -1.0522 -0.0028  0.0693
 5194SOL    HW127215   3.673   1.607   3.000 -1.2583  0.7367 -0.3599
 5194SOL    HW227216   3.689   1.643   2.861 -0.0337 -0.0407 -0.3935
 5195SOL     OW27217   3.199   2.520   5.664  0.3738  0.4767  0.2431
 5195SOL    HW127218   3.174   2.582   5.732 -2.8463  0.6561 -1.0803
 5195SOL    HW227219   3.174   2.433   5.697 -1.6639  1.0204  0.1631
 5196SOL     OW27220   1.909   2.860   6.227 -0.3723 -0.1058 -0.7480
 5196SOL    HW127221   1.884   2.918   6.299 -0.0386 -2.1511  1.0240
 5196SOL    HW227222   1.975   2.916   6.186  0.7531  0.1954  1.4632
 5197SOL     OW27223   0.424   3.873   5.870 -0.3355 -0.0451 -0.0045
 5197SOL    HW127224   0.418   3.952   5.924 -1.0769  0.1909 -0.4196
 5197SOL    HW227225   0.503   3.886   5.818  0.1113  0.2364  0.7451
 5198SOL     OW27226   1.588   1.665  13.546  0.4163 -0.0648  0.2836
 5198SOL    HW127227   1.637   1.622  13.616 -1.0665  2.1537  2.7027
 5198SOL    HW227228   1.507   1.624  13.578  1.5505 -0.5577  2.5581
 5199SOL     OW27229   4.015   2.350   3.623 -0.5095 -0.7911  0.2964
 5199SOL    HW127230   4.095   2.397   3.599 -1.2487  1.3271  1.8911
 5199SOL    HW227231   3.961   2.402   3.563 -0.4985 -1.5678 -0.3875
 5200SOL     OW27232   0.483   3.030   0.838  0.2148 -0.1018  0.1511
 5200SOL    HW127233   0.559   2.986   0.878 -0.4446 -0.1823  1.3125
 5200SOL    HW227234   0.427   2.957   0.809  1.0197  0.1266 -2.0169
 5201SOL     OW27235   4.439   2.808   2.100 -0.5375 -0.1543  0.5195
 5201SOL    HW127236   4.444   2.898   2.068 -0.2397 -0.1135  0.6862
 5201SOL    HW227237   4.515   2.766   2.060 -0.0944  0.5554  0.6220
 5202SOL     OW27238   0.011   4.349   3.351 -0.5097  0.2562  0.4171
 5202SOL    HW127239   0.047   4.287   3.414 -2.3258  1.8273  2.9974
 5202SOL    HW227240   0.079   4.414   3.369  0.5084  0.0773 -2.8536
 5203SOL     OW27241   3.147   1.616   4.062 -0.3887  0.1641 -0.2486
 5203SOL    HW127242   3.187   1.639   4.146 -1.1594  0.2807  0.0886
 5203SOL    HW227243   3.215   1.638   3.998 -0.2822  1.2096  0.2300
 5204SOL     OW27244   3.366   4.187   9.415  0.5058  0.2880  0.2113
 5204SOL    HW127245   3.308   4.229   9.479 -0.0433 -1.7047  1.0134
 5204SOL    HW227246   3.311   4.149   9.347 -0.9379 -0.9040  2.0490
 5205SOL     OW27247   2.369   3.741   4.548 -0.3458  0.5809  0.3493
 5205SOL    HW127248   2.436   3.784   4.494 -1.2806 -0.7628 -1.8896
 5205SOL    HW227249   2.349   3.655   4.511 -0.0832  2.1144 -3.3710
 5206SOL     OW27250   3.372   2.184   3.869 -0.7594  0.2403 -0.1833
 5206SOL    HW127251   3.345   2.273   3.890  0.1003  0.2422  0.9489
 5206SOL    HW227252   3.307   2.156   3.805 -1.6750 -0.7061  1.1595
 5207SOL     OW27253   2.350   3.710   6.110 -0.0951 -0.0058  0.3811
 5207SOL    HW127254   2.410   3.751   6.173 -1.5442  1.5076  0.7796
 5207SOL    HW227255   2.406   3.660   6.051 -1.1391 -1.0667  0.2943
 5208SOL     OW27256   0.354   2.224  15.927  0.0189  0.6082  0.2013
 5208SOL    HW127257   0.323   2.153  15.984  0.8258 -0.1641 -0.3188
 5208SOL    HW227258   0.388   2.171  15.854 -1.8521 -2.1022  1.2874
 5209SOL     OW27259   3.780   0.141   4.862 -0.3691 -0.5145 -0.0011
 5209SOL    HW127260   3.738   0.085   4.927  1.8943 -1.3963  0.6991
 5209SOL    HW227261   3.842   0.199   4.905  0.9093 -1.6535 -0.3097
 5210SOL     OW27262   0.242   1.512  14.522 -0.3445  0.0734 -0.3561
 5210SOL    HW127263   0.248   1.607  14.518 -0.6011  0.0258 -1.8873
 5210SOL    HW227264   0.288   1.484  14.443  0.9713 -0.2000  0.5020
 5211SOL     OW27265   2.760   4.490  11.507  0.7755  0.7274  0.2064
 5211SOL    HW127266   2.675   4.450  11.487  1.6767 -0.6907 -0.7917
 5211SOL    HW227267   2.810   4.424  11.554  1.1497  1.4740  0.8529
 5212SOL     OW27268   3.133   3.082   6.232 -0.7000 -0.3674  0.1367
 5212SOL    HW127269   3.213   3.116   6.272 -1.9241 -0.0384  2.2544
 5212SOL    HW227270   3.084   3.164   6.237 -1.5593 -0.9737  1.6333
 5213SOL     OW27271   0.861   0.225   8.397  0.3062 -0.0061  0.1438
 5213SOL    HW127272   0.880   0.133   8.417 -0.1913 -0.9806 -3.8772
 5213SOL    HW227273   0.789   0.240   8.458 -0.6235 -0.9551 -0.7105
 5214SOL     OW27274   3.297   1.958   2.541 -0.3447 -0.3074 -0.4324
 5214SOL    HW127275   3.323   2.045   2.509  1.6463 -0.1924  1.5251
 5214SOL    HW227276   3.285   1.978   2.633  1.8973  1.5636 -0.5536
 5215SOL     OW27277   3.372   3.841   5.781  0.0859 -0.9847 -0.1636
 5215SOL    HW127278   3.421   3.762   5.759  0.9225 -0.6254  0.4036
 5215SOL    HW227279   3.411   3.914   5.732  0.3774 -0.4447  0.8667
 5216SOL     OW27280   2.878   1.863   2.193  0.2571  0.1972  0.0668
 5216SOL    HW127281   2.800   1.818   2.159 -0.8919  1.8341  0.5239
 5216SOL    HW227282   2.935   1.861   2.116 -0.6146  1.1540 -0.6035
 5217SOL     OW27283   4.434   0.082  14.158 -0.1064  0.0472  0.0649
 5217SOL    HW127284   4.354   0.127  14.183 -1.0009 -2.9200  2.6048
 5217SOL    HW227285   4.395   4.731  14.140 -2.1180  0.8445  0.6068
 5218SOL     OW27286   4.299   0.809   6.508  0.3286 -0.0380 -0.3064
 5218SOL    HW127287   4.300   0.764   6.592  1.2211 -0.4851 -0.5620
 5218SOL    HW227288   4.310   0.741   6.442 -2.7439 -0.8731  0.0382
 5219SOL     OW27289   3.876   3.719   6.592  0.1224 -0.0835 -0.6246
 5219SOL    HW127290   3.871   3.659   6.666 -1.5178 -0.5684 -1.1320
 5219SOL    HW227291   3.906   3.796   6.641  0.5490 -1.1343  0.7469
 5220SOL     OW27292   3.885   2.525   3.493 -0.1957  0.1585 -0.1574
 5220SOL    HW127293   3.802   2.537   3.446  0.1443 -0.5570 -0.9492
 5220SOL    HW227294   3.884   2.608   3.539  0.3082 -0.3062  0.7021
 5221SOL     OW27295   1.678   2.869  13.613 -0.1263  0.6955 -0.2087
 5221SOL    HW127296   1.738   2.828  13.552 -0.7718 -0.5143 -0.0237
 5221SOL    HW227297   1.730   2.939  13.653  2.7804 -0.1868 -2.4828
 5222SOL     OW27298   0.491   2.128   7.514  0.1071  0.3764  0.0766
 5222SOL    HW127299   0.450   2.044   7.495 -0.4310  0.9482 -1.3041
 5222SOL    HW227300   0.427   2.192   7.481 -0.7446 -0.4470  0.1414
 5223SOL     OW27301   1.174   4.300   5.369  0.1418  0.1062 -0.0426
 5223SOL    HW127302   1.156   4.363   5.299 -1.8538 -0.9012 -0.4147
 5223SOL    HW227303   1.263   4.320   5.398 -0.2115  0.8350  0.5328
 5224SOL     OW27304   0.617   0.573  15.047  0.0766  0.1810  0.2141
 5224SOL    HW127305   0.529   0.602  15.070  0.8102  1.6869  1.1336
 5224SOL    HW227306   0.598   0.484  15.016  0.3434  0.2067 -0.0199
 5225SOL     OW27307   2.424   3.541   1.323 -0.4757  0.1399 -0.2034
 5225SOL    HW127308   2.388   3.558   1.236  1.0936  0.0064 -0.8887
 5225SOL    HW227309   2.442   3.629   1.357 -2.6401  0.5747 -0.2347
 5226SOL     OW27310   1.036   2.707   2.492  0.2409  0.1302  0.5874
 5226SOL    HW127311   1.011   2.758   2.415 -1.1978 -0.7502  0.4650
 5226SOL    HW227312   1.109   2.656   2.457 -0.1463  0.2827 -0.4408
 5227SOL     OW27313   0.092   2.343   4.483  0.0601  0.1038  0.5235
 5227SOL    HW127314   0.169   2.289   4.464  2.6832  3.3317  2.0817
 5227SOL    HW227315   0.135   2.428   4.475 -0.9687  0.7460  1.7407
 5228SOL     OW27316   1.852   2.157   6.912 -0.2956 -0.4184 -0.5321
 5228SOL    HW127317   1.871   2.142   7.005 -1.7762 -2.2509 -0.5342
 5228SOL    HW227318   1.773   2.211   6.914  0.1059  0.1564 -0.0824
 5229SOL     OW27319   1.986   0.816   6.696  0.2978  0.1521 -0.4134
 5229SOL    HW127320   2.051   0.859   6.751 -0.7030 -0.4342  1.2271
 5229SOL    HW227321   1.992   0.867   6.615  0.8272 -0.3613 -0.6931
 5230SOL     OW27322   1.925   2.051   6.270 -0.8328 -0.4998  0.3216
 5230SOL    HW127323   1.971   2.135   6.279 -2.6823  0.5406  0.2762
 5230SOL    HW227324   1.931   2.028   6.363 -1.3133  1.2854  0.8065
 5231SOL     OW27325   3.415   3.415   8.293  0.0250  0.1223 -0.1511
 5231SOL    HW127326   3.421   3.361   8.214 -1.2466 -0.2207 -0.0133
 5231SOL    HW227327   3.332   3.463   8.291  1.1267  2.0064 -0.9977
 5232SOL     OW27328   2.716   2.279   2.974 -0.2318 -1.1345 -0.4703
 5232SOL    HW127329   2.688   2.337   2.904  0.4128 -0.8706 -0.5049
 5232SOL    HW227330   2.629   2.243   2.995 -0.2004  0.0180  1.6819
 5233SOL     OW27331   4.497   3.703   2.820 -0.4679  0.5540 -0.1960
 5233SOL    HW127332   4.576   3.756   2.834 -0.7090  0.5983  1.0232
 5233SOL    HW227333   4.466   3.683   2.909  0.8841 -1.7185 -0.2159
 5234SOL     OW27334   2.870   3.304  11.908  0.0347  0.1044  0.4489
 5234SOL    HW127335   2.949   3.277  11.861 -0.2600 -0.5529  0.3343
 5234SOL    HW227336   2.893   3.293  12.001 -2.0012 -0.5422  0.8700
 5235SOL     OW27337   0.874   2.733  17.490  0.0243 -0.5722  0.0389
 5235SOL    HW127338   0.950   2.728  17.432 -0.9197  0.7155 -1.2926
 5235SOL    HW227339   0.800   2.744  17.431 -0.3911 -0.0415  0.6629
 5236SOL     OW27340   0.096   1.888   3.222  0.1433 -0.0148  0.2611
 5236SOL    HW127341   0.032   1.929   3.279  0.6976  1.3863 -0.1162
 5236SOL    HW227342   0.044   1.830   3.166 -1.5745  1.8373 -0.0414
 5237SOL     OW27343   1.872   1.069   9.059  0.2345 -0.2844 -0.3887
 5237SOL    HW127344   1.813   1.130   9.102  0.4388 -0.6241  0.3826
 5237SOL    HW227345   1.869   1.000   9.125 -2.5802  0.0708 -0.1596
 5238SOL     OW27346   2.902   0.139   8.950 -0.8760 -0.1485  0.0110
 5238SOL    HW127347   2.956   0.145   9.029  0.0019  0.0543 -0.6069
 5238SOL    HW227348   2.954   0.088   8.889  0.7556 -1.7692  2.7459
 5239SOL     OW27349   1.753   3.108  13.729 -0.4611  0.2589 -0.3201
 5239SOL    HW127350   1.689   3.154  13.783 -1.9298 -1.9921 -0.1089
 5239SOL    HW227351   1.739   3.154  13.646 -0.7893 -0.4153 -0.6469
 5240SOL     OW27352   2.515   3.265  17.213 -0.3444 -0.2225  0.1552
 5240SOL    HW127353   2.479   3.283  17.300  1.0100  0.0357  0.6627
 5240SOL    HW227354   2.535   3.357  17.194  0.8361 -0.6693 -0.7200
 5241SOL     OW27355   0.646   4.002   6.461  0.2739 -0.2246 -0.0177
 5241SOL    HW127356   0.628   3.969   6.372  1.5240  1.0061 -0.7264
 5241SOL    HW227357   0.645   4.096   6.443  1.5865 -0.2779 -0.3682
 5242SOL     OW27358   1.164   1.994  10.277  0.5051 -0.4485 -0.3741
 5242SOL    HW127359   1.202   2.056  10.339  0.4220 -0.4003 -0.3712
 5242SOL    HW227360   1.181   1.912  10.324 -0.8090 -1.3765 -1.4886
 5243SOL     OW27361   0.522   1.243   3.752 -0.6516  0.2342 -0.2619
 5243SOL    HW127362   0.607   1.227   3.794 -1.7935 -1.4946  1.4008
 5243SOL    HW227363   0.504   1.165   3.700 -1.7187 -0.1649  0.7149
 5244SOL     OW27364   4.387   3.031  16.457  0.2403 -0.0102 -0.1451
 5244SOL    HW127365   4.451   2.967  16.426 -1.1498 -0.6652 -1.6802
 5244SOL    HW227366   4.382   3.079  16.375  2.1190 -1.3803 -1.0532
 5245SOL     OW27367   0.172   4.640   2.950  0.0142 -0.0304 -0.4652
 5245SOL    HW127368   0.129   4.690   2.880 -2.4568  0.3580  1.3593
 5245SOL    HW227369   0.096   4.601   2.992  0.4790 -0.4383 -0.0080
 5246SOL     OW27370   0.748   2.666   0.598  0.7653 -0.3171 -0.1111
 5246SOL    HW127371   0.733   2.662   0.692  0.7895  0.5539 -0.0692
 5246SOL    HW227372   0.796   2.586   0.577  2.6102  0.8494 -0.3966
 5247SOL     OW27373   4.343   2.358   4.596 -0.0628  0.2772  0.1174
 5247SOL    HW127374   4.393   2.298   4.541 -0.0171  0.9196 -0.5500
 5247SOL    HW227375   4.373   2.445   4.568 -0.2324 -0.5009 -2.4822
 5248SOL     OW27376   3.263   0.175  17.601 -0.4612  0.4416  0.5114
 5248SOL    HW127377   3.236   0.144  17.514 -0.5117  1.1203  0.2912
 5248SOL    HW227378   3.180   0.158  17.646 -1.2945  1.2088 -0.7434
 5249SOL     OW27379   2.321   2.793   9.871 -0.0814  0.3289  0.2321
 5249SOL    HW127380   2.325   2.823   9.781  0.5045  1.5535  0.6652
 5249SOL    HW227381   2.367   2.861   9.919  0.3112  0.3414 -0.1619
 5250SOL     OW27382   0.903   4.327   8.528  0.5691 -0.1052 -0.2555
 5250SOL    HW127383   0.923   4.236   8.549 -2.4319 -1.2415 -2.1878
 5250SOL    HW227384   0.825   4.321   8.472  0.8561 -3.3331 -0.2873
 5251SOL     OW27385   0.645   0.301  13.330 -0.5368  0.1001 -0.1606
 5251SOL    HW127386   0.706   0.352  13.276 -0.6419  0.0747 -0.3036
 5251SOL    HW227387   0.634   0.365  13.401 -0.6870  0.6058 -0.6383
 5252SOL     OW27388   4.133   2.064   2.145  0.0075 -0.1830 -0.2281
 5252SOL    HW127389   4.043   2.040   2.121  0.5555 -1.2833 -1.1508
 5252SOL    HW227390   4.173   2.034   2.064  2.1499  1.3604  0.2766
 5253SOL     OW27391   4.243   0.410  11.409 -0.1507 -0.0011 -0.2278
 5253SOL    HW127392   4.285   0.483  11.455 -1.7483  1.3799 -0.9630
 5253SOL    HW227393   4.173   0.456  11.363 -0.1104 -1.9108 -2.1952
 5254SOL     OW27394   0.053   4.479   5.975 -0.0661 -0.2406 -0.0470
 5254SOL    HW127395   0.148   4.469   5.963 -0.4805 -1.8472 -1.9726
 5254SOL    HW227396   0.037   4.462   6.067 -3.5305 -1.1141 -0.8243
 5255SOL     OW27397   3.476   2.007   9.212  0.7113  0.3827 -0.4200
 5255SOL    HW127398   3.476   1.944   9.284  0.4651  0.9502  0.0738
 5255SOL    HW227399   3.381   2.009   9.200  1.0432 -0.8644 -3.3580
 5256SOL     OW27400   3.966   0.172  12.516 -0.3515 -0.7851  0.1030
 5256SOL    HW127401   3.935   0.128  12.437  2.5383  0.8907 -1.9646
 5256SOL    HW227402   4.045   0.121  12.530 -1.7746 -2.5479  1.8413
 5257SOL     OW27403   4.003   4.528   3.452  0.0116 -0.0230 -0.2431
 5257SOL    HW127404   4.026   4.572   3.370  0.9847 -0.3862 -0.1726
 5257SOL    HW227405   3.945   4.461   3.415  1.9334 -2.3108  0.8625
 5258SOL     OW27406   1.377   1.869  10.932  0.4034 -0.3902 -0.5727
 5258SOL    HW127407   1.330   1.792  10.901  0.5969 -1.3344  1.5192
 5258SOL    HW227408   1.389   1.833  11.019 -2.4507  0.7076  0.3064
 5259SOL     OW27409   4.037   3.136   0.135  0.3464  0.0768 -0.2985
 5259SOL    HW127410   4.031   3.047   0.099 -1.3451 -0.7899  2.1554
 5259SOL    HW227411   3.958   3.182   0.107  0.2330 -1.8112 -3.1218
 5260SOL     OW27412   1.334   3.193   1.904 -0.2398  0.0923 -0.9025
 5260SOL    HW127413   1.396   3.128   1.938 -0.3376  1.0669  1.1681
 5260SOL    HW227414   1.272   3.138   1.856  1.0965 -1.1876 -1.1810
 5261SOL     OW27415   4.030   1.287   1.877 -0.0755 -0.1948  0.4205
 5261SOL    HW127416   3.950   1.268   1.927 -0.2987 -1.2824 -0.3602
 5261SOL    HW227417   4.086   1.294   1.954  1.4741  3.7526 -1.0601
 5262SOL     OW27418   4.547   0.721   8.330 -0.1129 -0.2835  0.3985
 5262SOL    HW127419   4.560   0.814   8.309 -0.9679  0.2932  2.4261
 5262SOL    HW227420   4.543   0.734   8.425 -2.9764 -0.8619  0.3332
 5263SOL     OW27421   1.010   0.189   7.043  0.0640  0.0168 -0.5977
 5263SOL    HW127422   1.053   0.231   6.968 -3.0609  0.7412 -1.9975
 5263SOL    HW227423   1.056   0.232   7.115 -1.5144 -0.2742  0.5868
 5264SOL     OW27424   2.012   3.208   1.987  0.2149  0.0808  0.0224
 5264SOL    HW127425   1.940   3.243   1.935 -0.3416 -0.0942  0.6727
 5264SOL    HW227426   1.968   3.127   2.015 -0.2285 -0.0047 -0.9499
 5265SOL     OW27427   2.660   3.488   2.939  0.3260 -0.3448 -0.3316
 5265SOL    HW127428   2.733   3.528   2.891  1.0921 -0.7480  0.5034
 5265SOL    HW227429   2.612   3.569   2.957  0.1554 -0.0652 -1.9733
 5266SOL     OW27430   3.270   4.148   6.882  0.6369  0.0727 -0.1629
 5266SOL    HW127431   3.337   4.200   6.836  0.8109 -0.2383 -0.2605
 5266SOL    HW227432   3.207   4.158   6.811  1.6025  1.4785 -0.8129
 5267SOL     OW27433   3.587   0.629   2.578 -0.1531 -0.7097 -0.1405
 5267SOL    HW127434   3.671   0.653   2.619 -1.0674  0.1517  1.2564
 5267SOL    HW227435   3.577   0.690   2.505 -0.0819  2.3386  2.3615
 5268SOL     OW27436   0.755   1.492  15.041  0.0120 -0.0443  0.3138
 5268SOL    HW127437   0.771   1.553  14.969 -0.0333 -0.3128  0.0748
 5268SOL    HW227438   0.844   1.474  15.071  0.3165 -0.1463 -0.6486
 5269SOL     OW27439   3.362   2.047   4.757 -0.2852  0.1164  0.0618
 5269SOL    HW127440   3.438   2.089   4.717 -1.0282  0.4286 -1.0497
 5269SOL    HW227441   3.388   1.955   4.767 -0.7564  0.1552  1.6246
 5270SOL     OW27442   3.050   0.162   1.547 -0.3659 -0.4628 -0.1119
 5270SOL    HW127443   3.072   0.204   1.630  0.1351 -1.0318  0.0507
 5270SOL    HW227444   3.106   0.213   1.488 -2.4516 -1.1144 -2.6192
 5271SOL     OW27445   1.530   4.533   9.157 -0.3056  0.2890 -0.0468
 5271SOL    HW127446   1.496   4.480   9.085  2.7053 -1.7718  0.0567
 5271SOL    HW227447   1.596   4.477   9.197 -0.2391  0.1870 -0.2972
 5272SOL     OW27448   3.025   1.885  15.920 -0.1162  0.2182  0.5121
 5272SOL    HW127449   3.118   1.908  15.930  0.5691 -2.2167 -0.2889
 5272SOL    HW227450   3.030   1.803  15.872  0.8174  0.0810  0.8445
 5273SOL     OW27451   3.123   2.057   8.567  0.4874 -0.1813  0.3224
 5273SOL    HW127452   3.095   1.981   8.618  0.9393  0.8923  2.1493
 5273SOL    HW227453   3.192   2.025   8.509  1.6877 -1.8337  2.6708
 5274SOL     OW27454   4.087   1.765   6.053  0.1966  0.0224  0.4666
 5274SOL    HW127455   4.088   1.702   5.980 -0.3190  1.3308 -0.6801
 5274SOL    HW227456   4.153   1.827   6.021 -1.0040  1.2754  0.4308
 5275SOL     OW27457   3.621   1.503   2.506 -0.3047  0.0033 -0.1168
 5275SOL    HW127458   3.683   1.574   2.523  0.2708  0.1435 -2.9215
 5275SOL    HW227459   3.641   1.444   2.579  0.8099  0.3996 -0.1089
 5276SOL     OW27460   1.209   3.804  17.650  0.1976 -0.0608  0.0736
 5276SOL    HW127461   1.268   3.879  17.652 -1.3109  1.1310  0.2392
 5276SOL    HW227462   1.129   3.829  17.696  0.3556  0.3521  0.1178
 5277SOL     OW27463   3.540   0.233   4.574 -0.8118  0.0751 -0.2596
 5277SOL    HW127464   3.461   0.252   4.625 -0.2669  2.3926 -0.2585
 5277SOL    HW227465   3.558   0.145   4.606  2.1361  1.2271  1.2659
 5278SOL     OW27466   1.546   0.753  11.788  0.2830  0.4451 -0.0265
 5278SOL    HW127467   1.455   0.750  11.817  0.6398 -1.9317  0.8258
 5278SOL    HW227468   1.548   0.822  11.722 -0.4528  1.4543  1.0185
 5279SOL     OW27469   0.929   2.339   8.684 -0.0378  0.1135  0.0212
 5279SOL    HW127470   0.873   2.364   8.610 -0.2627 -1.8206 -0.4558
 5279SOL    HW227471   0.865   2.358   8.753  0.2940 -0.3586  0.4657
 5280SOL     OW27472   0.848   1.099   7.183 -0.1372  0.0612  0.2383
 5280SOL    HW127473   0.783   1.116   7.115  0.9897  0.2030 -0.8109
 5280SOL    HW227474   0.793   1.081   7.259  2.4391 -1.3576  1.7824
 5281SOL     OW27475   0.886   1.333  12.010 -1.1473  0.0366 -0.1666
 5281SOL    HW127476   0.935   1.340  11.927 -0.0328 -2.0504  0.3142
 5281SOL    HW227477   0.836   1.255  11.987  0.0461 -0.8734  0.3419
 5282SOL     OW27478   1.204   3.662   5.689 -0.2443 -0.3636 -0.0889
 5282SOL    HW127479   1.185   3.634   5.599  0.1833  0.4003 -0.4173
 5282SOL    HW227480   1.297   3.643   5.698 -0.0946 -0.9530 -2.8374
 5283SOL     OW27481   3.083   2.305  11.447 -0.0477  0.4993 -0.0300
 5283SOL    HW127482   3.023   2.236  11.473 -0.6258  0.2531 -2.0257
 5283SOL    HW227483   3.164   2.286  11.494 -0.7018 -0.6662  0.6172
 5284SOL     OW27484   1.310   2.287   4.435 -0.2095 -0.1226  0.1505
 5284SOL    HW127485   1.281   2.293   4.526 -1.3098 -0.0631 -0.2070
 5284SOL    HW227486   1.243   2.241   4.385 -0.7161 -0.7971  1.4536
 5285SOL     OW27487   1.845   1.074   2.696  0.1232  0.2982 -0.6564
 5285SOL    HW127488   1.772   1.027   2.738  1.3274 -0.7551  0.2490
 5285SOL    HW227489   1.884   1.115   2.773  0.5294 -2.1361  0.4187
 5286SOL     OW27490   3.645   3.998   1.546  0.5170  0.4112  0.0726
 5286SOL    HW127491   3.620   3.970   1.634  1.2592 -2.4978 -0.6129
 5286SOL    HW227492   3.572   3.966   1.494  2.4145 -1.6032 -1.3717
 5287SOL     OW27493   3.397   0.860   8.516  0.5917 -0.2645 -0.1953
 5287SOL    HW127494   3.446   0.796   8.568  0.7831  1.7187  2.0446
 5287SOL    HW227495   3.448   0.941   8.525  0.6517 -0.1979 -1.1559
 5288SOL     OW27496   2.436   4.234   4.722  0.2459 -0.0124  0.8823
 5288SOL    HW127497   2.385   4.249   4.643  3.9287 -1.5643 -1.8268
 5288SOL    HW227498   2.399   4.150   4.748 -1.0298 -0.1914 -1.5501
 5289SOL     OW27499   1.642   0.558   4.930 -0.1233 -0.1065  0.5572
 5289SOL    HW127500   1.648   0.586   4.838 -2.5668 -0.2678  0.3416
 5289SOL    HW227501   1.566   0.502   4.916 -1.9461  2.1485  1.3965
 5290SOL     OW27502   0.413   2.236   6.836  0.9143 -0.0784 -0.0203
 5290SOL    HW127503   0.369   2.316   6.809  0.5360 -0.0298  0.7325
 5290SOL    HW227504   0.498   2.246   6.794  1.3534  0.4881  1.0215
 5291SOL     OW27505   2.467   1.308   9.456 -0.5127  0.0723 -0.2252
 5291SOL    HW127506   2.382   1.344   9.481 -0.7808 -2.0994  1.9363
 5291SOL    HW227507   2.473   1.225   9.503 -0.4020  0.8160  1.0714
 5292SOL     OW27508   2.360   2.961   2.346  0.0871  0.4504 -0.8425
 5292SOL    HW127509   2.276   2.951   2.303  0.3827  0.7986 -1.4984
 5292SOL    HW227510   2.409   2.970   2.264 -1.0770  0.4885 -1.5283
 5293SOL     OW27511   3.259   2.862   0.414  0.0251 -0.3980  0.0875
 5293SOL    HW127512   3.298   2.938   0.458 -1.6130  1.0608 -0.9716
 5293SOL    HW227513   3.172   2.902   0.412 -0.1232 -0.6507  1.6718
 5294SOL     OW27514   2.143   4.423  10.302 -0.2449  0.3270 -0.1998
 5294SOL    HW127515   2.081   4.368  10.350  0.8579 -0.8286 -0.0823
 5294SOL    HW227516   2.173   4.481  10.373 -1.0833  0.8207 -0.2513
 5295SOL     OW27517   4.278   3.492   9.097 -0.3576 -0.4314  0.2942
 5295SOL    HW127518   4.225   3.421   9.133 -1.8737  1.2100  1.3073
 5295SOL    HW227519   4.210   3.550   9.062  0.0953 -1.5173 -2.4361
 5296SOL     OW27520   0.824   2.666  14.779 -0.5224 -0.3756 -0.0926
 5296SOL    HW127521   0.755   2.730  14.764  0.8943  0.5503 -2.7266
 5296SOL    HW227522   0.771   2.588  14.790 -0.8512 -0.5204 -2.8237
 5297SOL     OW27523   3.322   0.590   5.068  0.0976 -0.6860 -0.0756
 5297SOL    HW127524   3.382   0.657   5.034 -2.9504  0.8497 -2.4503
 5297SOL    HW227525   3.289   0.640   5.143 -1.0422 -0.5953 -0.6395
 5298SOL     OW27526   1.216   3.756   6.556  0.1356 -0.8246 -0.1602
 5298SOL    HW127527   1.311   3.753   6.544  0.0835  1.5437 -1.1121
 5298SOL    HW227528   1.216   3.842   6.599 -1.4066 -1.4757  1.1712
 5299SOL     OW27529   2.416   1.168  13.050 -0.0004 -0.3130 -0.7288
 5299SOL    HW127530   2.496   1.117  13.059 -1.1592 -1.8709  0.7092
 5299SOL    HW227531   2.418   1.196  13.142 -0.8184  1.6082 -1.2900
 5300SOL     OW27532   1.794   1.559  13.687  0.1425 -0.1600 -0.0521
 5300SOL    HW127533   1.801   1.579  13.781  1.7373 -2.0760  0.2269
 5300SOL    HW227534   1.886   1.557  13.663  0.8287  0.9404  2.4357
 5301SOL     OW27535   3.794   3.799   4.122  0.1604 -0.0025 -0.4538
 5301SOL    HW127536   3.778   3.834   4.210 -1.1950  0.0940 -0.7314
 5301SOL    HW227537   3.726   3.839   4.068  0.4061  0.2811 -0.5567
 5302SOL     OW27538   4.222   1.143   8.350 -0.1299  0.1765  0.2216
 5302SOL    HW127539   4.299   1.088   8.338  1.6747  3.2527 -2.3191
 5302SOL    HW227540   4.265   1.207   8.407 -0.3004  1.4877 -1.1296
 5303SOL     OW27541   1.593   0.956   3.231  0.0973 -0.1259 -0.1095
 5303SOL    HW127542   1.555   0.914   3.154 -0.0439 -1.5530  0.7538
 5303SOL    HW227543   1.544   0.910   3.299  0.4357  0.7799  0.7541
 5304SOL     OW27544   4.503   3.590  11.835  0.3218 -0.1765 -0.1453
 5304SOL    HW127545   4.452   3.661  11.797 -0.0637 -0.3126  0.1088
 5304SOL    HW227546   4.566   3.568  11.767 -0.4497  0.7503 -1.1496
 5305SOL     OW27547   1.158   2.933   5.781  0.0804  0.0613 -0.5369
 5305SOL    HW127548   1.085   2.991   5.802 -1.1221 -1.8852  0.6314
 5305SOL    HW227549   1.232   2.958   5.837  0.2613  1.6453 -1.4876
 5306SOL     OW27550   1.611   2.063  15.578 -0.0890 -0.4360  0.0805
 5306SOL    HW127551   1.608   2.149  15.537  0.6145  0.0720  1.0861
 5306SOL    HW227552   1.537   2.020  15.536 -0.9335  2.4621 -1.4132
 5307SOL     OW27553   0.199   0.951   9.300 -0.5229  0.8712  0.1230
 5307SOL    HW127554   0.227   1.017   9.363 -0.4420  0.3912  0.5853
 5307SOL    HW227555   0.126   0.993   9.254 -1.0334 -0.4476 -0.3000
 5308SOL     OW27556   4.584   3.179  10.711  0.1991  0.0037  0.4238
 5308SOL    HW127557   4.627   3.162  10.627  0.4932 -3.6301  1.3210
 5308SOL    HW227558   4.545   3.095  10.735  0.5417 -0.8402 -1.8858
 5309SOL     OW27559   4.116   4.230  14.967  0.3518 -0.6654 -0.2757
 5309SOL    HW127560   4.141   4.138  14.961  0.8204 -0.7317  2.5150
 5309SOL    HW227561   4.117   4.251  15.060 -0.4943 -0.0665 -0.3982
 5310SOL     OW27562   1.035   3.679   7.857 -0.2426  0.1724 -0.2550
 5310SOL    HW127563   1.101   3.698   7.791  0.0916 -0.1207 -0.0015
 5310SOL    HW227564   1.084   3.676   7.939  1.3015 -1.4202 -1.2389
 5311SOL     OW27565   0.949   0.501  11.173  0.8077  0.4392 -0.1401
 5311SOL    HW127566   0.914   0.535  11.255  0.5487 -2.0241  0.7604
 5311SOL    HW227567   0.915   0.412  11.184 -1.1232  1.1066 -0.6848
 5312SOL     OW27568   0.222   3.264  15.304 -0.0445 -0.0758  0.4602
 5312SOL    HW127569   0.179   3.192  15.259 -0.6917  0.5269  0.1082
 5312SOL    HW227570   0.146   3.316  15.330  0.8580  0.3961  2.1983
 5313SOL     OW27571   1.780   0.272   8.287  0.0369  0.4830  0.0828
 5313SOL    HW127572   1.697   0.264   8.334 -0.0481  2.1365  0.2233
 5313SOL    HW227573   1.816   0.351   8.328 -0.2099 -1.0601  3.2558
 5314SOL     OW27574   2.303   3.331   6.120 -0.2894 -0.0260 -0.3886
 5314SOL    HW127575   2.225   3.348   6.068 -0.1594  1.0721 -0.2215
 5314SOL    HW227576   2.263   3.343   6.207  0.4845 -1.7212  0.1966
 5315SOL     OW27577   1.365   3.583  12.556  0.3380  0.1014  0.6710
 5315SOL    HW127578   1.410   3.503  12.584  1.4454  0.4593 -0.0733
 5315SOL    HW227579   1.274   3.554  12.550  0.0256  1.3855 -0.5562
 5316SOL     OW27580   0.903   3.838   2.700 -1.0456 -0.6587  0.1214
 5316SOL    HW127581   0.876   3.748   2.718 -1.0764 -0.8927 -1.1493
 5316SOL    HW227582   0.899   3.832   2.605  0.1284  0.3953  0.0094
 5317SOL     OW27583   0.337   0.243   4.781 -0.7911  0.6795  0.5165
 5317SOL    HW127584   0.333   0.339   4.776  1.2956  0.6373 -2.5529
 5317SOL    HW227585   0.367   0.215   4.694 -1.9518  3.4026 -0.7775
 5318SOL     OW27586   1.999   3.633   8.624 -0.3455 -0.4458 -0.3579
 5318SOL    HW127587   2.054   3.693   8.676 -1.0304 -0.1426  0.0116
 5318SOL    HW227588   1.978   3.563   8.686 -3.6103  0.7085 -0.1634
 5319SOL     OW27589   2.810   0.913  12.920 -0.2032  0.4795 -0.2613
 5319SOL    HW127590   2.831   0.950  12.834  0.7284  1.0217  0.2024
 5319SOL    HW227591   2.890   0.868  12.949 -0.3322  0.1874 -0.3526
 5320SOL     OW27592   2.294   1.553   8.422 -0.2804 -0.7840  0.5534
 5320SOL    HW127593   2.248   1.471   8.408 -1.9985  0.1452  0.7151
 5320SOL    HW227594   2.322   1.569   8.332 -0.2018  2.1875  1.1069
 5321SOL     OW27595   0.161   0.298   2.619 -0.0656  0.5533 -0.2048
 5321SOL    HW127596   0.151   0.393   2.623 -1.2586  0.4446 -0.7253
 5321SOL    HW227597   0.105   0.281   2.543 -0.8825  0.0228  0.5122
 5322SOL     OW27598   4.349   3.536   3.253  0.3197 -0.6013 -0.0765
 5322SOL    HW127599   4.277   3.565   3.197 -0.2182 -0.2833  0.7887
 5322SOL    HW227600   4.357   3.448   3.216  3.8727  1.3635 -3.8395
 5323SOL     OW27601   4.244   0.638   8.502  0.5134 -0.3116 -0.6273
 5323SOL    HW127602   4.331   0.651   8.539  0.0398  0.0528  0.3535
 5323SOL    HW227603   4.196   0.636   8.585  0.9864  1.0507 -0.3161
 5324SOL     OW27604   2.515   2.285   6.596  0.1581  0.0042 -0.5856
 5324SOL    HW127605   2.493   2.204   6.643 -0.2463  1.2713  1.4243
 5324SOL    HW227606   2.444   2.278   6.532 -1.0553 -2.2743  0.9805
 5325SOL     OW27607   4.120   3.683  17.723 -0.1763 -0.4772  0.2747
 5325SOL    HW127608   4.167   3.702  17.641 -1.5275 -0.0695 -0.4136
 5325SOL    HW227609   4.180   3.634   0.042 -0.2516 -1.0615 -0.1622
 5326SOL     OW27610   3.876   3.442   3.655 -0.2681 -0.6944  0.0985
 5326SOL    HW127611   3.803   3.503   3.652  1.6458  1.7519  3.2494
 5326SOL    HW227612   3.824   3.367   3.624 -1.1147  0.0968 -0.3827
 5327SOL     OW27613   3.713   2.069   8.489  0.0231  0.2180 -0.3575
 5327SOL    HW127614   3.679   2.049   8.576 -3.6656 -0.2896 -1.9479
 5327SOL    HW227615   3.785   2.006   8.498 -0.7410 -0.6063 -0.0664
 5328SOL     OW27616   0.070   0.290  14.681 -0.6166  0.8106  0.2277
 5328SOL    HW127617   0.068   0.280  14.586  0.6995 -2.8899  0.6015
 5328SOL    HW227618   0.056   0.384  14.689  0.2149  1.1618 -2.4173
 5329SOL     OW27619   1.858   2.921   5.161  0.1109 -0.0955 -0.1475
 5329SOL    HW127620   1.823   2.866   5.231 -0.6105  1.1007  0.4455
 5329SOL    HW227621   1.778   2.963   5.128 -0.0468 -1.0101 -0.9416
 5330SOL     OW27622   0.473   0.154  12.729  0.7074  0.3837  0.3925
 5330SOL    HW127623   0.530   0.158  12.806 -1.9573  0.0454  2.3674
 5330SOL    HW227624   0.463   0.246  12.707 -2.1899 -0.3460 -1.2503
 5331SOL     OW27625   4.202   0.387   8.854  0.1001  0.2545 -0.3310
 5331SOL    HW127626   4.158   0.472   8.848 -1.0688 -0.2360  1.3003
 5331SOL    HW227627   4.156   0.352   8.930  2.1944 -1.0584  0.3354
 5332SOL     OW27628   1.771   1.081   7.665  0.1468  0.0243 -0.6723
 5332SOL    HW127629   1.764   1.149   7.597  2.3090  2.0706  1.1453
 5332SOL    HW227630   1.722   1.007   7.628  0.8544 -0.2483 -1.0570
 5333SOL     OW27631   3.342   0.475   8.485  0.1743 -0.6750  0.1972
 5333SOL    HW127632   3.370   0.565   8.506 -2.6383 -0.0299  1.1350
 5333SOL    HW227633   3.261   0.456   8.530 -0.4790  1.3855 -0.0761
 5334SOL     OW27634   2.202   1.975  17.318  0.4556  0.2135  0.0721
 5334SOL    HW127635   2.121   1.951  17.271  0.3517  0.3091  0.2033
 5334SOL    HW227636   2.168   1.975  17.407 -2.5059 -0.1345 -1.0350
 5335SOL     OW27637   4.410   2.516  10.805  0.2022  0.1219  1.0998
 5335SOL    HW127638   4.331   2.469  10.834  0.9625 -0.3457  2.4076
 5335SOL    HW227639   4.404   2.587  10.869 -0.5708  1.0392  0.0027
 5336SOL     OW27640   4.087   0.342   5.990 -0.1320 -0.1042  0.2698
 5336SOL    HW127641   3.996   0.316   6.002 -0.2295  0.4104  0.6278
 5336SOL    HW227642   4.090   0.433   6.017 -1.7995  0.0108  0.0764
 5337SOL     OW27643   2.376   4.580   4.589  0.1034 -0.2134 -0.1682
 5337SOL    HW127644   2.374   4.559   4.683 -2.5314 -0.2441 -0.2149
 5337SOL    HW227645   2.285   4.581   4.557  0.2142  0.2855 -0.4555
 5338SOL     OW27646   0.400   2.412   4.309  0.0867 -0.6621  0.2660
 5338SOL    HW127647   0.451   2.378   4.236 -1.2942 -0.8390 -0.6211
 5338SOL    HW227648   0.315   2.373   4.287  0.2824 -0.5950 -0.5953
 5339SOL     OW27649   0.983   2.964   8.890 -0.0388 -0.2880 -0.4242
 5339SOL    HW127650   0.980   3.055   8.863 -1.2514 -0.1068  0.3418
 5339SOL    HW227651   1.079   2.955   8.895  0.0793  2.0419  1.4175
 5340SOL     OW27652   4.712   3.655   5.029 -0.4886 -0.5684 -0.0299
 5340SOL    HW127653   4.684   3.647   5.121  0.9921  0.7057  0.5175
 5340SOL    HW227654   0.035   3.730   5.037  0.5142 -1.1710 -1.5756
 5341SOL     OW27655   1.402   4.026  17.608  0.1391  0.3140 -0.2695
 5341SOL    HW127656   1.461   4.076  17.664  0.3198 -2.1347  1.7168
 5341SOL    HW227657   1.400   4.089  17.536 -2.4811 -1.1381 -1.4555
 5342SOL     OW27658   2.410   2.061  12.525  0.8857 -0.1391  0.1096
 5342SOL    HW127659   2.442   2.072  12.436 -0.3220 -2.8714 -0.6576
 5342SOL    HW227660   2.446   1.976  12.552  0.3779 -1.2684 -2.8196
 5343SOL     OW27661   0.897   3.310   0.545  0.2185 -0.6968 -0.5545
 5343SOL    HW127662   0.905   3.335   0.453 -2.4160  0.5272 -0.4480
 5343SOL    HW227663   0.978   3.345   0.582  0.1486 -0.6791 -0.4148
 5344SOL     OW27664   1.566   4.430   4.779 -0.6108 -0.7489  0.0602
 5344SOL    HW127665   1.502   4.434   4.709  1.0168 -0.0816 -1.3892
 5344SOL    HW227666   1.543   4.513   4.822 -2.0147 -1.8513  1.4571
 5345SOL     OW27667   2.237   0.561   9.296 -0.6631  0.2637 -0.0281
 5345SOL    HW127668   2.179   0.638   9.303 -1.1119 -0.2861  2.1128
 5345SOL    HW227669   2.303   0.598   9.237 -0.7310 -0.5158 -0.5982
 5346SOL     OW27670   3.128   3.648   8.756 -0.6368 -0.5466  0.4016
 5346SOL    HW127671   3.063   3.708   8.794 -1.5520  0.3849 -2.6874
 5346SOL    HW227672   3.199   3.651   8.821 -0.0709 -2.3352 -0.1400
 5347SOL     OW27673   0.028   0.419   5.400 -0.2845 -0.1772 -0.0604
 5347SOL    HW127674   0.089   0.490   5.421 -1.1574 -0.5191  3.6156
 5347SOL    HW227675   0.028   0.418   5.305 -0.1971  4.2777 -0.1113
 5348SOL     OW27676   0.427   3.383   3.939 -0.2974 -0.2792  0.2407
 5348SOL    HW127677   0.509   3.428   3.958 -1.0271  0.7407  0.9048
 5348SOL    HW227678   0.406   3.347   4.025 -0.0794 -1.5671 -0.2362
 5349SOL     OW27679   3.585   3.362  12.378 -0.2986 -0.3370 -0.5366
 5349SOL    HW127680   3.582   3.411  12.295 -0.4448  0.3973 -0.0989
 5349SOL    HW227681   3.677   3.371  12.401 -0.0541 -0.8273 -1.3180
 5350SOL     OW27682   0.631   4.473   5.091 -0.2655  0.2992  0.5843
 5350SOL    HW127683   0.720   4.466   5.125  0.8201 -0.6815 -2.4447
 5350SOL    HW227684   0.578   4.422   5.152 -0.9482 -0.0411 -0.2806
 5351SOL     OW27685   1.906   1.977  11.823  0.4075  0.5370 -0.3699
 5351SOL    HW127686   1.918   2.060  11.777 -0.2454  1.3834  0.9686
 5351SOL    HW227687   1.812   1.968  11.806 -0.0699 -0.2041  2.5492
 5352SOL     OW27688   1.996   0.771   3.845  0.0094 -0.0732 -0.4564
 5352SOL    HW127689   1.945   0.788   3.766 -1.2923 -1.4978  0.0810
 5352SOL    HW227690   2.082   0.809   3.826  0.2250 -0.8292 -0.9894
 5353SOL     OW27691   2.252   3.515   2.342  0.2180 -0.7027  0.1342
 5353SOL    HW127692   2.195   3.504   2.265  1.8547 -1.5894 -0.9516
 5353SOL    HW227693   2.183   3.530   2.407 -0.2324 -1.5297 -0.1513
 5354SOL     OW27694   3.356   1.207  16.520 -0.4206  0.0241  0.3853
 5354SOL    HW127695   3.348   1.303  16.525  0.8026  0.1736 -0.3833
 5354SOL    HW227696   3.451   1.193  16.517 -0.1718  1.1477  2.6219
 5355SOL     OW27697   0.883   3.402   2.116 -0.2171  0.2420  0.3717
 5355SOL    HW127698   0.802   3.451   2.101 -1.1189 -1.9957 -2.0023
 5355SOL    HW227699   0.922   3.404   2.029 -1.2634  0.9022 -0.0850
 5356SOL     OW27700   0.497   0.947   5.440 -0.4981 -0.4113 -0.1503
 5356SOL    HW127701   0.578   0.924   5.395  0.4211  1.7475  0.3750
 5356SOL    HW227702   0.483   0.860   5.479 -0.1707 -0.0678  0.7437
 5357SOL     OW27703   0.710   0.913  15.603 -0.5674  0.3722 -0.4113
 5357SOL    HW127704   0.730   0.823  15.578 -0.5925  0.2926 -0.1468
 5357SOL    HW227705   0.745   0.949  15.522  1.5614  1.7235  1.1065
 5358SOL     OW27706   3.286   3.498   4.523  0.0164 -0.2667 -0.0739
 5358SOL    HW127707   3.287   3.471   4.431  2.7952  1.1825 -0.4668
 5358SOL    HW227708   3.274   3.593   4.512 -1.2106 -0.3122  0.8221
 5359SOL     OW27709   1.679   1.399   2.557  0.0808 -0.3702  0.2242
 5359SOL    HW127710   1.708   1.360   2.475 -1.1455 -0.6944 -0.0451
 5359SOL    HW227711   1.594   1.355   2.567 -0.4306 -0.2060 -3.5973
 5360SOL     OW27712   3.862   4.586  10.299  0.1894 -0.2188 -0.4513
 5360SOL    HW127713   3.887   4.603  10.389  5.1363  2.0828 -2.2837
 5360SOL    HW227714   3.931   4.634  10.253  0.1623 -0.2903 -0.5676
 5361SOL     OW27715   3.543   0.066   2.285 -0.2171 -0.3025  0.0301
 5361SOL    HW127716   3.519   4.713   2.255  2.6842 -0.6718 -1.2629
 5361SOL    HW227717   3.515   0.123   2.213  2.0546  0.3988 -0.2976
 5362SOL     OW27718   3.139   2.054  10.511 -0.0665  0.5506  0.2524
 5362SOL    HW127719   3.073   2.096  10.566  0.0860 -0.9883  1.6298
 5362SOL    HW227720   3.156   2.129  10.455  1.8869  1.2160  1.7474
 5363SOL     OW27721   3.330   1.525  16.969 -0.0352 -0.1388 -0.4689
 5363SOL    HW127722   3.417   1.564  16.957 -0.1760  0.0461 -0.9028
 5363SOL    HW227723   3.359   1.463  17.035 -0.9303 -0.5744 -0.4951
 5364SOL     OW27724   1.981   4.518   6.566 -0.0642 -0.7206 -0.5584
 5364SOL    HW127725   2.045   4.455   6.599 -0.7663 -0.3453  1.4770
 5364SOL    HW227726   2.040   4.588   6.538  1.4741 -1.1885  1.5779
 5365SOL     OW27727   4.585   1.759   6.622 -0.7420 -0.1584 -0.3696
 5365SOL    HW127728   4.626   1.681   6.659 -0.4888 -0.0197 -0.3504
 5365SOL    HW227729   4.493   1.732   6.624 -0.0880 -2.2264  1.8127
 5366SOL     OW27730   3.362   1.792   4.158 -0.1535  0.2891 -0.0157
 5366SOL    HW127731   3.449   1.752   4.168 -0.7934 -1.4953 -1.4566
 5366SOL    HW227732   3.378   1.885   4.143 -1.3165  0.2848 -1.3933
 5367SOL     OW27733   2.172   3.766   8.778  0.5104 -0.0187  0.3116
 5367SOL    HW127734   2.247   3.746   8.834  0.4768 -0.2210  0.2828
 5367SOL    HW227735   2.147   3.851   8.816  0.6166 -0.6825  1.8445
 5368SOL     OW27736   4.238   0.961   3.131  0.5389  0.1777 -0.1845
 5368SOL    HW127737   4.262   0.893   3.194 -0.0034  0.0486 -0.1158
 5368SOL    HW227738   4.148   0.946   3.101 -0.6222 -0.3076  3.5380
 5369SOL     OW27739   2.817   1.488   2.438 -0.1098  0.3087  0.1176
 5369SOL    HW127740   2.802   1.581   2.456 -0.7946  0.4103 -0.9893
 5369SOL    HW227741   2.908   1.472   2.463 -0.9634 -0.9931  2.3359
 5370SOL     OW27742   3.498   0.668  13.070  0.1750 -0.0549 -0.7744
 5370SOL    HW127743   3.403   0.673  13.055  0.3276  1.5764 -1.1321
 5370SOL    HW227744   3.525   0.585  13.030  0.4928 -0.4366  0.2252
 5371SOL     OW27745   3.546   0.619   1.878 -0.2702  0.0247 -0.0519
 5371SOL    HW127746   3.498   0.663   1.949 -0.9217  1.2535 -1.2503
 5371SOL    HW227747   3.635   0.645   1.899  0.3492 -1.8081 -0.4559
 5372SOL     OW27748   2.448   4.130   6.790 -0.0514 -0.4323  0.4777
 5372SOL    HW127749   2.398   4.204   6.826  0.3848  0.1823 -0.1721
 5372SOL    HW227750   2.485   4.176   6.714  0.3547  2.3326  2.3557
 5373SOL     OW27751   4.586   0.564   4.324 -0.2072 -0.4834  0.5861
 5373SOL    HW127752   4.608   0.576   4.416 -0.1249 -1.3934  0.6810
 5373SOL    HW227753   4.563   0.471   4.323 -1.3483 -0.1958 -0.2130
 5374SOL     OW27754   3.345   1.217   5.851 -0.3518  0.2130  0.3074
 5374SOL    HW127755   3.385   1.147   5.799 -0.4073  1.5022 -1.4936
 5374SOL    HW227756   3.413   1.234   5.916 -1.2264  0.9587  1.0073
 5375SOL     OW27757   3.870   1.877   7.489  0.2415 -0.4012 -0.7501
 5375SOL    HW127758   3.844   1.951   7.544  1.4277 -0.1753 -0.4966
 5375SOL    HW227759   3.812   1.810   7.525  0.4884  0.4766  1.2683
 5376SOL     OW27760   2.289   0.598   6.554  0.4537  0.4516  0.0004
 5376SOL    HW127761   2.262   0.512   6.586  1.0614 -0.2480 -1.3660
 5376SOL    HW227762   2.237   0.611   6.475 -1.2953 -0.8481  0.9461
 5377SOL     OW27763   2.713   0.754  11.613 -0.4538 -0.0322 -0.3888
 5377SOL    HW127764   2.743   0.794  11.532 -0.1543  1.3766  0.3968
 5377SOL    HW227765   2.686   0.671  11.575  0.7873 -0.9336  0.6865
 5378SOL     OW27766   3.075   3.148   3.262  0.4984  0.9724  0.7279
 5378SOL    HW127767   3.025   3.129   3.183 -1.2481  2.6474  1.4142
 5378SOL    HW227768   3.149   3.202   3.234  1.9255 -0.8462  0.9503
 5379SOL     OW27769   4.496   0.807   4.165 -0.0766  0.4820 -0.1200
 5379SOL    HW127770   4.480   0.735   4.103 -0.1952  2.5263 -2.4938
 5379SOL    HW227771   4.540   0.753   4.230  0.4987  1.1071  0.0088
 5380SOL     OW27772   0.868   4.023   2.431 -0.0225  0.3197 -0.3162
 5380SOL    HW127773   0.924   4.008   2.354  0.9642 -0.9498  0.6538
 5380SOL    HW227774   0.805   4.083   2.391  0.8656  0.8892 -0.8799
 5381SOL     OW27775   3.325   1.771   2.774  0.6040  0.0377 -0.1470
 5381SOL    HW127776   3.274   1.852   2.782 -0.1940 -0.5133  0.2501
 5381SOL    HW227777   3.342   1.774   2.680 -1.9444 -1.9334 -0.6427
 5382SOL     OW27778   3.822   3.272   2.158  0.6464 -0.4503  0.2888
 5382SOL    HW127779   3.899   3.215   2.149  0.8403 -0.0553 -0.5739
 5382SOL    HW227780   3.823   3.312   2.071  2.7686 -0.9323  0.0712
 5383SOL     OW27781   4.536   3.062   8.937 -0.1694 -0.3015  1.0009
 5383SOL    HW127782   4.491   3.142   8.909  3.2396  0.6951 -1.5009
 5383SOL    HW227783   4.534   3.073   9.032 -1.6041 -2.5293  1.2463
 5384SOL     OW27784   4.683   2.830   9.079  0.0428 -0.3866 -0.5755
 5384SOL    HW127785   0.028   2.883   9.092  0.8271 -2.0211  1.3263
 5384SOL    HW227786   4.641   2.885   9.013 -1.4432 -0.3340  0.4079
 5385SOL     OW27787   4.147   4.522   3.126 -0.4184 -0.4170 -0.5957
 5385SOL    HW127788   4.219   4.581   3.147 -1.3084  0.4306  0.0788
 5385SOL    HW227789   4.182   4.433   3.135 -0.8099 -0.5172 -0.0858
 5386SOL     OW27790   4.371   1.244   4.329 -0.0960  0.1999  0.6099
 5386SOL    HW127791   4.286   1.287   4.336  0.0403  0.4704  0.6067
 5386SOL    HW227792   4.413   1.292   4.400  0.8036  0.7092 -0.2713
 5387SOL     OW27793   1.740   2.267   8.060 -0.5894 -0.8318 -0.5784
 5387SOL    HW127794   1.645   2.273   8.072 -0.3405  3.7275 -0.9574
 5387SOL    HW227795   1.740   2.196   7.996 -0.7343 -0.8804 -0.5238
 5388SOL     OW27796   3.637   2.417   5.482  0.0841  0.3283  0.1420
 5388SOL    HW127797   3.576   2.358   5.524  0.5927 -0.9999 -0.9662
 5388SOL    HW227798   3.723   2.382   5.507  0.2264  1.1145  0.7419
 5389SOL     OW27799   0.377   0.853  14.488 -0.4433  0.1927 -0.0754
 5389SOL    HW127800   0.334   0.816  14.410  0.3604  1.1311 -0.9646
 5389SOL    HW227801   0.344   0.941  14.501 -1.4149 -0.3032  0.7849
 5390SOL     OW27802   2.653   2.242   1.915 -0.3498  0.5754 -0.0804
 5390SOL    HW127803   2.703   2.262   1.836  0.3431  0.0087  0.2154
 5390SOL    HW227804   2.637   2.151   1.937 -0.5250  0.0259 -2.5210
 5391SOL     OW27805   3.123   2.420   9.234 -0.6495  0.0639  0.3449
 5391SOL    HW127806   3.179   2.453   9.305 -1.0371 -1.8454  1.5320
 5391SOL    HW227807   3.179   2.362   9.184  0.6836  1.9714 -0.3885
 5392SOL     OW27808   2.298   2.859   8.082 -0.3660 -0.5849  0.0581
 5392SOL    HW127809   2.286   2.947   8.046 -1.4652 -1.1998 -1.0590
 5392SOL    HW227810   2.254   2.874   8.166 -1.9820 -1.1141 -0.7027
 5393SOL     OW27811   0.265   1.741   5.781 -0.1277 -0.0491 -0.3715
 5393SOL    HW127812   0.219   1.825   5.780  0.3635  0.2413  1.2079
 5393SOL    HW227813   0.189   1.689   5.757 -0.8151  0.6694  0.2485
 5394SOL     OW27814   3.236   2.440   5.990  0.1751  0.5555  0.2623
 5394SOL    HW127815   3.291   2.442   6.069  0.2666  0.4701  0.2009
 5394SOL    HW227816   3.306   2.429   5.925 -0.4393  3.3803 -0.8956
 5395SOL     OW27817   1.936   0.408   7.698  0.1398  0.2979  0.1802
 5395SOL    HW127818   2.014   0.380   7.650 -1.0981  0.8131 -2.1346
 5395SOL    HW227819   1.900   0.325   7.727  0.6256  0.4506  1.2329
 5396SOL     OW27820   2.597   0.766  16.449  0.2825  0.2406 -0.1553
 5396SOL    HW127821   2.669   0.821  16.418  1.5035 -1.2415  0.0828
 5396SOL    HW227822   2.650   0.700  16.493 -0.2499 -0.5739 -0.7279
 5397SOL     OW27823   3.767   3.738   7.293 -0.2330 -0.0125  0.3540
 5397SOL    HW127824   3.844   3.737   7.235  0.1681 -1.4779  0.9228
 5397SOL    HW227825   3.801   3.779   7.372 -1.1755  0.9013  0.2871
 5398SOL     OW27826   3.439   0.454  12.848  0.0974  0.2061  0.3161
 5398SOL    HW127827   3.422   0.361  12.864  0.7200 -0.0449 -0.4427
 5398SOL    HW227828   3.454   0.457  12.753  1.7627 -2.2021  0.4929
 5399SOL     OW27829   1.101   3.516  12.513  0.9560  0.0970 -0.6099
 5399SOL    HW127830   1.051   3.493  12.435  0.2668  2.0367 -0.7318
 5399SOL    HW227831   1.118   3.435  12.562  0.3055  1.0928  1.2601
 5400SOL     OW27832   4.409   1.356   2.298 -0.2448 -0.2895 -0.4457
 5400SOL    HW127833   4.412   1.431   2.356  3.6665 -0.7082 -0.1354
 5400SOL    HW227834   4.319   1.328   2.316  0.1572 -0.7883  0.8174
 5401SOL     OW27835   3.488   2.140  13.677  0.3131  0.0877  0.4235
 5401SOL    HW127836   3.503   2.149  13.771 -0.6535  1.1788  0.4843
 5401SOL    HW227837   3.422   2.070  13.672  0.4753  0.0948 -2.1313
 5402SOL     OW27838   1.606   3.765   7.125 -0.1317 -0.8790  0.3587
 5402SOL    HW127839   1.515   3.790   7.107 -0.7660 -0.9912  3.4637
 5402SOL    HW227840   1.616   3.684   7.075  0.8371 -0.5652  0.0536
 5403SOL     OW27841   4.409   3.454   4.292  0.0664  0.1997 -0.3434
 5403SOL    HW127842   4.316   3.477   4.293 -0.3978 -1.6437 -2.3294
 5403SOL    HW227843   4.430   3.431   4.202  0.4138 -0.0405 -0.2028
 5404SOL     OW27844   3.541   2.388   4.004 -0.1951  0.1407  0.2359
 5404SOL    HW127845   3.582   2.474   3.992  1.9231 -0.8950  0.0346
 5404SOL    HW227846   3.546   2.394   4.099 -3.5299  0.9078  0.3811
 5405SOL     OW27847   4.469   0.317   5.301 -0.7940 -0.1960  0.1358
 5405SOL    HW127848   4.510   0.367   5.372  0.5231  0.8750 -1.3879
 5405SOL    HW227849   4.375   0.336   5.310 -0.4349  1.9249 -0.6700
 5406SOL     OW27850   1.632   2.790   2.096  1.1858  0.3174 -0.2815
 5406SOL    HW127851   1.566   2.733   2.134  0.8893  0.1196 -1.1061
 5406SOL    HW227852   1.688   2.722   2.059 -0.1863 -1.6109  1.1887
 5407SOL     OW27853   2.235   0.718  12.007  0.7220 -0.0458 -0.0418
 5407SOL    HW127854   2.237   0.700  12.101 -3.0103 -1.5988 -0.2581
 5407SOL    HW227855   2.300   0.651  11.987  3.0057  2.1608 -0.0003
 5408SOL     OW27856   4.412   1.222   2.735 -0.3358 -0.1198 -0.4135
 5408SOL    HW127857   4.321   1.206   2.710 -0.2761 -0.0208 -0.6969
 5408SOL    HW227858   4.432   1.284   2.665  1.2996  1.2162  1.2105
 5409SOL     OW27859   0.820   2.601   7.557 -0.6364  0.1562  0.3727
 5409SOL    HW127860   0.740   2.584   7.507 -0.4281  0.4809 -0.0771
 5409SOL    HW227861   0.827   2.696   7.544 -0.8184  0.1840  0.4740
 5410SOL     OW27862   0.369   1.405   2.024  0.3727 -0.2321 -0.5158
 5410SOL    HW127863   0.396   1.403   2.115 -0.5001  1.6711 -0.1989
 5410SOL    HW227864   0.297   1.343   2.034 -0.9428  1.5836  1.2754
 5411SOL     OW27865   2.723   2.171  12.350 -0.2847  0.0131 -0.1863
 5411SOL    HW127866   2.630   2.185  12.333 -0.3212  1.5469  1.2879
 5411SOL    HW227867   2.728   2.151  12.443  0.6986  0.0103 -0.2452
 5412SOL     OW27868   1.240   0.528  13.492  0.0339 -0.1343  0.0173
 5412SOL    HW127869   1.276   0.450  13.449  2.2806  1.5226 -1.1098
 5412SOL    HW227870   1.296   0.606  13.494 -0.9708  0.4973  3.6258
 5413SOL     OW27871   2.083   4.498   4.473 -0.2719 -0.0341 -0.0442
 5413SOL    HW127872   2.056   4.550   4.397  1.8418  1.8137  0.4807
 5413SOL    HW227873   2.137   4.430   4.433 -0.6749 -0.0100 -0.6287
 5414SOL     OW27874   4.559   1.183   2.406 -0.4635 -0.1966  0.0939
 5414SOL    HW127875   4.496   1.241   2.364  0.2844  2.3160  2.4357
 5414SOL    HW227876   4.626   1.188   2.337  1.2808 -0.7400  1.7460
 5415SOL     OW27877   1.161   4.646  10.197  0.2358 -0.1506  0.2717
 5415SOL    HW127878   1.255   4.666  10.203  0.5179 -0.8719 -1.9198
 5415SOL    HW227879   1.146   4.599  10.279  0.8881 -0.3004  0.3096
 5416SOL     OW27880   1.469   2.412  17.602 -0.7287  0.3284 -0.0450
 5416SOL    HW127881   1.406   2.385  17.535 -2.3060  2.3351  0.6289
 5416SOL    HW227882   1.547   2.437  17.553 -0.5368  2.5796  1.4261
 5417SOL     OW27883   4.542   3.902   5.644  0.1920 -0.1115 -0.1724
 5417SOL    HW127884   4.454   3.904   5.681  0.6377 -0.7840  0.9681
 5417SOL    HW227885   4.579   3.964   5.707  1.0065 -0.6659 -0.0882
 5418SOL     OW27886   4.112   4.119   2.745  0.3948 -0.3720  0.3860
 5418SOL    HW127887   4.188   4.062   2.756  0.6012 -0.4056 -1.2564
 5418SOL    HW227888   4.038   4.067   2.774  1.9405 -3.1541 -0.6851
 5419SOL     OW27889   3.764   0.735   2.781 -0.2694  0.0610 -0.2657
 5419SOL    HW127890   3.849   0.776   2.799 -0.0377 -0.4827 -0.1000
 5419SOL    HW227891   3.771   0.653   2.831  0.1898 -0.1006 -0.5871
 5420SOL     OW27892   3.544   2.853   9.632  0.0062  0.2557  0.0663
 5420SOL    HW127893   3.607   2.810   9.690 -1.1358 -0.1139  1.0326
 5420SOL    HW227894   3.532   2.783   9.568 -3.3969  1.2962 -0.4348
 5421SOL     OW27895   3.045   4.467   7.156  0.7182  0.2195  0.8457
 5421SOL    HW127896   3.092   4.427   7.084  1.3779 -2.4015  2.7337
 5421SOL    HW227897   2.982   4.402   7.187 -0.7123  0.7813 -0.9190
 5422SOL     OW27898   2.708   2.865   2.659  0.1598  0.2997  0.3738
 5422SOL    HW127899   2.670   2.857   2.571 -1.0506  0.6337  0.8800
 5422SOL    HW227900   2.730   2.958   2.655 -0.3792  0.3987 -0.3386
 5423SOL     OW27901   1.343   4.002   8.376 -0.1047  0.3522  0.7467
 5423SOL    HW127902   1.379   4.071   8.320 -0.3580 -0.3959 -0.3493
 5423SOL    HW227903   1.374   4.033   8.461 -0.5450 -0.4926  1.2060
 5424SOL     OW27904   0.767   3.976   2.070 -0.4903  0.7405 -0.2343
 5424SOL    HW127905   0.676   3.949   2.085  0.3003 -1.4328  0.6651
 5424SOL    HW227906   0.771   3.971   1.975  1.8049 -0.1760 -0.0865
 5425SOL     OW27907   2.911   0.031   7.353 -0.2655 -0.0800 -0.2858
 5425SOL    HW127908   2.861   4.711   7.292 -0.6580  0.8123 -0.7582
 5425SOL    HW227909   2.900   0.107   7.296  0.9170 -0.5142 -1.1116
 5426SOL     OW27910   2.820   3.941   3.514 -0.0022 -0.0704 -0.1704
 5426SOL    HW127911   2.842   3.963   3.604  1.6202  1.9587 -1.0643
 5426SOL    HW227912   2.910   3.917   3.492 -0.9887 -0.8377 -3.4662
 5427SOL     OW27913   0.411   1.203  15.224  0.7283 -0.1819  0.0145
 5427SOL    HW127914   0.384   1.114  15.248  1.7209  0.4446  3.4221
 5427SOL    HW227915   0.350   1.218  15.152  0.7635  0.1454  0.0531
 5428SOL     OW27916   4.560   0.083   4.255 -0.0312 -0.0269  0.0622
 5428SOL    HW127917   4.525   0.081   4.166 -1.1665  0.3108  0.5065
 5428SOL    HW227918   4.653   0.101   4.243 -0.2810  0.7217 -0.6906
 5429SOL     OW27919   4.261   2.916  14.075  0.4487 -0.3680 -0.1895
 5429SOL    HW127920   4.338   2.908  14.018  1.5117 -1.9068  1.4311
 5429SOL    HW227921   4.198   2.962  14.020 -0.0841 -0.2076  0.5548
 5430SOL     OW27922   0.698   2.210   6.954 -0.2910  0.3029 -0.4235
 5430SOL    HW127923   0.672   2.123   6.925 -2.2102  0.5330  0.6045
 5430SOL    HW227924   0.639   2.220   7.029 -0.5258 -0.4952 -0.5052
 5431SOL     OW27925   1.124   1.339   2.935  0.1002  0.5983 -0.3010
 5431SOL    HW127926   1.191   1.379   2.879  0.6071 -1.0289 -0.8569
 5431SOL    HW227927   1.149   1.373   3.021  0.7952 -0.2568 -0.1605
 5432SOL     OW27928   1.627   1.664   3.781  0.4724 -0.3028 -0.5709
 5432SOL    HW127929   1.614   1.569   3.778 -2.5405  0.1481 -2.2368
 5432SOL    HW227930   1.562   1.698   3.719 -0.6669 -0.4439  0.5504
 5433SOL     OW27931   3.765   1.353   8.007 -0.0827 -0.3228 -0.5964
 5433SOL    HW127932   3.690   1.340   7.950  1.6256 -1.7712 -2.5211
 5433SOL    HW227933   3.767   1.283   8.073 -0.5726  0.1258 -0.1074
 5434SOL     OW27934   2.023   4.035   3.899 -0.9018 -0.3635 -0.4282
 5434SOL    HW127935   1.944   3.981   3.911  0.0080 -1.4954  0.4210
 5434SOL    HW227936   2.081   3.976   3.946 -1.1102  0.8765  1.3606
 5435SOL     OW27937   2.695   2.452   8.413 -0.1030 -0.1237 -0.4736
 5435SOL    HW127938   2.623   2.402   8.374 -0.5606  0.6742 -0.6401
 5435SOL    HW227939   2.755   2.462   8.339 -0.8880  0.1935 -1.0664
 5436SOL     OW27940   1.662   2.238   8.331 -0.1299  0.3022 -0.6693
 5436SOL    HW127941   1.741   2.223   8.384  1.0607 -0.7036 -2.7371
 5436SOL    HW227942   1.666   2.166   8.268  1.5441  0.8422 -1.1977
 5437SOL     OW27943   1.978   1.384   3.765 -0.2037  0.3560 -0.1066
 5437SOL    HW127944   2.074   1.384   3.768 -0.1823 -0.5322 -1.0941
 5437SOL    HW227945   1.967   1.296   3.801  0.2521  0.5375  0.4863
 5438SOL     OW27946   1.180   2.170  14.529 -0.2738 -0.7846  0.5646
 5438SOL    HW127947   1.269   2.193  14.503 -1.3503  1.4515 -1.1262
 5438SOL    HW227948   1.147   2.100  14.473 -0.3222 -1.2464  1.1699
 5439SOL     OW27949   0.701   0.950  14.832 -0.4367 -0.3440  0.8465
 5439SOL    HW127950   0.702   1.042  14.859  0.1839 -0.1992  0.3299
 5439SOL    HW227951   0.780   0.950  14.777  0.9629  1.7222  2.8403
 5440SOL     OW27952   2.136   3.862   4.104 -0.0492 -0.4581 -0.0938
 5440SOL    HW127953   2.053   3.865   4.152 -0.5483 -4.0659 -0.7276
 5440SOL    HW227954   2.141   3.770   4.077 -3.4110 -0.7282  0.2327
 5441SOL     OW27955   4.416   4.455   4.997  0.8658  0.1765  0.3588
 5441SOL    HW127956   4.446   4.544   5.015  0.4924  0.4846 -0.5825
 5441SOL    HW227957   4.479   4.427   4.930  2.4264  0.1528  1.8382
 5442SOL     OW27958   1.033   0.489   4.474  0.0797 -0.5328  0.0943
 5442SOL    HW127959   1.044   0.571   4.521 -0.7535  0.0760 -0.7542
 5442SOL    HW227960   1.019   0.520   4.384 -1.7873  1.0367  0.9379
 5443SOL     OW27961   3.799   1.925   5.113 -0.5037  0.1097  0.2202
 5443SOL    HW127962   3.830   1.955   5.028 -0.2579 -1.2349 -0.1747
 5443SOL    HW227963   3.727   1.867   5.087 -1.7321  0.5625  2.5525
 5444SOL     OW27964   4.489   0.319   4.370 -0.3589 -0.2318 -0.3046
 5444SOL    HW127965   4.428   0.288   4.437  1.5696 -3.4641 -0.0681
 5444SOL    HW227966   4.506   0.232   4.335 -0.0530 -0.0867 -0.5236
 5445SOL     OW27967   0.991   0.711   5.540 -0.2342  0.2605 -0.0065
 5445SOL    HW127968   0.952   0.796   5.561  0.6560  1.3313 -2.7326
 5445SOL    HW227969   1.029   0.692   5.626 -1.1743  0.8296  0.5370
 5446SOL     OW27970   0.162   1.311   4.998 -0.5404  0.2155 -0.6015
 5446SOL    HW127971   0.068   1.307   4.983 -0.8348  0.9973  1.0242
 5446SOL    HW227972   0.180   1.233   5.050  1.1074  0.6005 -0.5815
 5447SOL     OW27973   0.190   2.812   3.526  0.8049 -0.4561 -0.1457
 5447SOL    HW127974   0.244   2.839   3.451  0.1674  0.7115 -0.1830
 5447SOL    HW227975   0.179   2.894   3.575  2.4875 -0.0665 -0.4000
 5448SOL     OW27976   2.407   4.447   5.115  0.0067 -1.0660 -0.2073
 5448SOL    HW127977   2.460   4.371   5.141  1.5268  0.5458  1.4207
 5448SOL    HW227978   2.342   4.437   5.184 -0.1215 -0.9526 -0.3106
 5449SOL     OW27979   4.117   0.770   6.819 -0.1672  0.0488  0.6423
 5449SOL    HW127980   4.129   0.856   6.861 -1.4663  1.6096 -2.1471
 5449SOL    HW227981   4.071   0.794   6.739 -0.4954  0.5144  0.9670
 5450SOL     OW27982   1.515   1.005   3.751 -0.0071 -0.0814  0.1652
 5450SOL    HW127983   1.594   1.052   3.777 -0.3295  0.6645 -0.2273
 5450SOL    HW227984   1.494   0.960   3.833 -0.6520  0.4793  0.3034
 5451SOL     OW27985   3.716   0.351   6.282  0.4390 -0.1538 -0.1322
 5451SOL    HW127986   3.638   0.299   6.264 -0.5520  1.1976  0.3365
 5451SOL    HW227987   3.768   0.314   6.210  0.5926  1.1621 -0.6883
 5452SOL     OW27988   1.161   4.131  17.720 -0.1754 -0.3696 -0.4347
 5452SOL    HW127989   1.225   4.090  17.662  1.3058  1.5853 -0.1874
 5452SOL    HW227990   1.216   4.178   0.047 -2.3565  2.5895 -0.7324
 5453SOL     OW27991   2.073   2.764  12.334 -0.0671 -0.3050 -0.1740
 5453SOL    HW127992   2.029   2.706  12.272  0.4470  0.3886 -1.1866
 5453SOL    HW227993   2.093   2.833  12.271 -0.2159 -2.4244 -2.5339
 5454SOL     OW27994   1.738   4.344  10.758 -0.0485  0.1107  0.2368
 5454SOL    HW127995   1.810   4.406  10.751 -0.7792  1.1371  1.8332
 5454SOL    HW227996   1.671   4.378  10.817 -1.5099 -0.0080 -1.3628
 5455SOL     OW27997   3.183   1.319   6.943 -0.4482  0.0667 -0.0219
 5455SOL    HW127998   3.136   1.247   6.901  0.0864 -1.2983  1.6909
 5455SOL    HW227999   3.248   1.329   6.874 -2.3014  0.7312 -1.6548
 5456SOL     OW28000   3.015   3.006  17.624 -0.0796 -0.5478  0.5491
 5456SOL    HW128001   2.964   3.085  17.603  0.8476  0.3750  1.7618
 5456SOL    HW228002   3.022   2.999  17.719 -0.9737  1.7126  0.7829
 5457SOL     OW28003   2.295   2.499   4.138 -0.5426 -0.4681 -0.1192
 5457SOL    HW128004   2.357   2.428   4.155  0.4811  1.2604  3.1755
 5457SOL    HW228005   2.335   2.534   4.058  1.3187  0.3014  1.1525
 5458SOL     OW28006   2.875   4.639   6.679 -0.1201 -0.5713 -0.4609
 5458SOL    HW128007   2.798   4.610   6.727 -1.4537  1.6582 -1.2402
 5458SOL    HW228008   2.923   4.557   6.688  0.1261 -0.1189  2.3984
 5459SOL     OW28009   1.207   3.725   8.956 -0.6155 -0.3931  0.2122
 5459SOL    HW128010   1.234   3.644   8.913 -0.5939  0.3231 -1.1272
 5459SOL    HW228011   1.192   3.781   8.881 -0.1918 -3.2986 -2.0541
 5460SOL     OW28012   2.774   1.540   4.461 -0.0547 -0.6379 -0.3015
 5460SOL    HW128013   2.864   1.515   4.484 -0.1538 -0.9979 -0.3027
 5460SOL    HW228014   2.785   1.592   4.382 -1.1022 -1.2177 -0.8290
 5461SOL     OW28015   0.520   3.630   6.011  0.0909  0.2739  0.4551
 5461SOL    HW128016   0.455   3.659   5.947 -0.2168  0.8397  1.0255
 5461SOL    HW228017   0.603   3.649   5.967 -0.4652 -1.5930 -1.3698
 5462SOL     OW28018   0.269   0.209  15.697 -0.1252  0.1511  0.6233
 5462SOL    HW128019   0.295   0.201  15.605  0.2623 -0.3711  0.7793
 5462SOL    HW228020   0.247   0.123  15.731  2.5505 -0.0853  1.7726
 5463SOL     OW28021   4.152   0.753   7.701 -0.3722 -0.6922  0.4842
 5463SOL    HW128022   4.229   0.792   7.742 -1.1792  1.0739  0.3053
 5463SOL    HW228023   4.103   0.822   7.657 -1.1796 -0.1456  2.2185
 5464SOL     OW28024   1.402   3.872   2.547  0.2885  0.2760 -0.4268
 5464SOL    HW128025   1.443   3.871   2.634 -0.1604 -1.0235 -0.2216
 5464SOL    HW228026   1.474   3.851   2.487 -1.1079 -0.2608 -1.9037
 5465SOL     OW28027   2.404   1.058   4.108 -0.6988 -0.0482  0.3914
 5465SOL    HW128028   2.469   1.084   4.043 -0.1716  0.4325  1.1127
 5465SOL    HW228029   2.437   0.968   4.117  0.1911  0.3046  0.7183
 5466SOL     OW28030   3.341   3.955   4.217  0.2103 -0.0872  0.7579
 5466SOL    HW128031   3.275   4.022   4.204 -0.9395 -1.3327  0.1793
 5466SOL    HW228032   3.419   4.010   4.212  0.3592 -0.7814 -4.3073
 5467SOL     OW28033   2.519   3.231   4.303 -0.5366 -0.7835  0.5984
 5467SOL    HW128034   2.612   3.221   4.281 -0.3643  2.4622 -0.0810
 5467SOL    HW228035   2.483   3.247   4.216  0.2300  1.7402  0.7420
 5468SOL     OW28036   3.415   0.060   5.067  0.6425 -0.4651  0.3389
 5468SOL    HW128037   3.333   0.076   5.114  1.2010 -0.3086  1.2385
 5468SOL    HW228038   3.381   0.035   4.981 -0.2975  1.4514  0.1577
 5469SOL     OW28039   1.379   4.289   9.070 -0.0618 -0.2107  0.5925
 5469SOL    HW128040   1.362   4.247   9.155 -0.6943 -0.3697  0.3838
 5469SOL    HW228041   1.297   4.329   9.043  0.1120 -0.7267 -0.6617
 5470SOL     OW28042   2.129   1.767   3.827 -0.0168  0.1176 -0.0581
 5470SOL    HW128043   2.035   1.764   3.845  0.4460 -0.5518  2.2120
 5470SOL    HW228044   2.123   1.854   3.788 -1.3043 -0.1431 -0.4246
 5471SOL     OW28045   2.768   2.892   9.823 -0.2936 -0.1788 -0.5123
 5471SOL    HW128046   2.833   2.961   9.806 -0.3186 -0.1251 -0.3913
 5471SOL    HW228047   2.789   2.843   9.744 -0.1890 -0.7677 -0.1151
 5472SOL     OW28048   1.614   2.658  10.506 -0.3548  0.7573 -0.2937
 5472SOL    HW128049   1.682   2.595  10.528  0.8457  3.2264  3.0843
 5472SOL    HW228050   1.617   2.700  10.592 -1.8308 -1.6160  0.9088
 5473SOL     OW28051   3.868   3.949   2.790 -0.3338 -0.2995  0.0153
 5473SOL    HW128052   3.888   3.892   2.864  0.0891 -2.4604 -1.7665
 5473SOL    HW228053   3.790   3.905   2.756 -1.4471  0.7495  1.1828
 5474SOL     OW28054   2.349   1.558   8.148  0.3112  0.2961 -0.0470
 5474SOL    HW128055   2.283   1.514   8.093 -0.7254  0.7701  0.8261
 5474SOL    HW228056   2.374   1.623   8.082 -1.0734 -0.6366 -1.4965
 5475SOL     OW28057   2.395   3.255   1.291  0.1198 -0.3902  0.6811
 5475SOL    HW128058   2.442   3.186   1.244  3.4259  2.9898 -0.9017
 5475SOL    HW228059   2.461   3.323   1.282 -2.8578  2.1782 -1.8895
 5476SOL     OW28060   3.649   4.183   5.982 -0.1594 -0.0472  0.4387
 5476SOL    HW128061   3.714   4.162   6.049 -0.7232 -0.7909  0.7639
 5476SOL    HW228062   3.663   4.116   5.915  0.2345 -0.0268  0.5035
 5477SOL     OW28063   1.788   2.932  15.348  0.5319 -0.0204  0.1635
 5477SOL    HW128064   1.878   2.904  15.367  0.8510  0.5009 -0.5633
 5477SOL    HW228065   1.784   2.939  15.253 -1.1803  2.0090  0.3996
 5478SOL     OW28066   4.589   2.769   8.139  0.2731 -0.1227 -0.1616
 5478SOL    HW128067   4.661   2.707   8.153  0.1601 -0.5418 -1.4226
 5478SOL    HW228068   4.593   2.815   8.222  0.9642 -1.6484  0.6589
 5479SOL     OW28069   0.395   3.436   8.162  0.0577  0.0957 -0.2777
 5479SOL    HW128070   0.480   3.415   8.123  0.1897  0.0296  0.0454
 5479SOL    HW228071   0.353   3.478   8.087 -0.4952  1.8443  1.0067
 5480SOL     OW28072   2.814   2.738   1.491  0.5976  0.3896 -0.1821
 5480SOL    HW128073   2.772   2.722   1.407  0.6372 -1.5012  0.1482
 5480SOL    HW228074   2.886   2.675   1.488  0.2955 -0.0043  0.7340
 5481SOL     OW28075   0.002   4.352   0.655  0.9616  0.2841 -0.1414
 5481SOL    HW128076   4.719   4.336   0.563  2.6795 -0.2768 -0.3673
 5481SOL    HW228077   4.660   4.323   0.706  0.7395 -0.5328 -0.9486
 5482SOL     OW28078   0.594   1.094   1.329  0.3439  0.4156 -0.6455
 5482SOL    HW128079   0.562   1.131   1.246 -0.7556 -0.0886 -0.4495
 5482SOL    HW228080   0.665   1.157   1.341  1.1191 -0.9405  1.8312
 5483SOL     OW28081   2.796   4.458   9.424  0.0828  0.4027 -0.1199
 5483SOL    HW128082   2.767   4.538   9.380  0.0914 -0.4491 -1.6780
 5483SOL    HW228083   2.750   4.464   9.508 -0.3538  0.3840 -0.3554
 5484SOL     OW28084   2.635   0.468   3.876  0.2465  0.1806 -0.2899
 5484SOL    HW128085   2.654   0.526   3.801 -0.8751  1.2118  0.2218
 5484SOL    HW228086   2.723   0.446   3.905 -0.7650 -2.7352  0.5806
 5485SOL     OW28087   3.475   1.846  12.526  0.1364  0.4036  0.1741
 5485SOL    HW128088   3.505   1.935  12.508 -0.1332  0.7273  1.3323
 5485SOL    HW228089   3.472   1.819  12.434  1.9091 -2.6477  1.0370
 5486SOL     OW28090   1.787   4.698   2.492  0.2352  0.0793 -0.1153
 5486SOL    HW128091   1.784   4.729   2.401 -1.9219 -2.2412 -0.8460
 5486SOL    HW228092   1.878   4.669   2.491  0.5048  0.9391 -0.0855
 5487SOL     OW28093   1.161   0.295   7.258 -0.5296 -0.0749  0.1557
 5487SOL    HW128094   1.176   0.335   7.344  1.9468  2.4094 -1.4380
 5487SOL    HW228095   1.154   0.369   7.197  3.0835 -0.5375 -0.8068
 5488SOL     OW28096   3.710   2.860   7.660 -0.0708 -0.3426  0.0705
 5488SOL    HW128097   3.749   2.863   7.747 -1.1438 -1.2383  0.5779
 5488SOL    HW228098   3.762   2.925   7.613 -0.3907 -0.5816 -0.6211
 5489SOL     OW28099   1.475   1.294  11.720 -0.3350 -0.5690 -0.0597
 5489SOL    HW128100   1.425   1.242  11.657  2.9652 -1.1735 -2.1759
 5489SOL    HW228101   1.431   1.380  11.720  1.0307  0.1542 -3.4925
 5490SOL     OW28102   2.392   2.034   0.655 -0.0291  0.1503 -0.2447
 5490SOL    HW128103   2.312   2.068   0.617 -0.4036 -0.3133  0.1306
 5490SOL    HW228104   2.365   1.968   0.719  2.7223 -1.0456 -0.2963
 5491SOL     OW28105   1.012   2.798   1.955 -0.4586 -0.0222 -0.0540
 5491SOL    HW128106   0.991   2.720   2.007 -0.3878 -0.5662 -0.8395
 5491SOL    HW228107   0.930   2.801   1.906 -1.0348 -2.1690  0.7632
 5492SOL     OW28108   1.853   3.711   5.118 -0.0793  0.1235  0.0249
 5492SOL    HW128109   1.819   3.622   5.106 -0.4762  0.0267  1.8692
 5492SOL    HW228110   1.925   3.721   5.055 -2.4892 -2.0429 -3.0301
 5493SOL     OW28111   4.288   3.719   1.525 -0.1368 -0.4168 -0.2062
 5493SOL    HW128112   4.367   3.690   1.570 -1.1149 -1.7438  0.6587
 5493SOL    HW228113   4.304   3.685   1.437  1.6526  0.7514 -0.3386
 5494SOL     OW28114   4.080   0.218   3.562 -0.4472  0.0043 -0.7265
 5494SOL    HW128115   4.100   0.299   3.609  1.2622  0.1766 -1.7622
 5494SOL    HW228116   3.985   0.226   3.552 -0.2242  1.8989 -1.4248
 5495SOL     OW28117   0.658   2.636  16.547 -0.1119  0.1703  0.2244
 5495SOL    HW128118   0.666   2.655  16.454 -0.2269 -1.2516 -0.0854
 5495SOL    HW228119   0.678   2.542  16.554 -0.6722  0.0023 -0.4884
 5496SOL     OW28120   4.652   1.134   4.816 -0.2784  0.4134  0.0150
 5496SOL    HW128121   4.561   1.128   4.786 -0.1237 -0.5536 -0.2596
 5496SOL    HW228122   4.638   1.098   4.903 -2.6163  2.1562  0.3510
 5497SOL     OW28123   2.583   2.156   0.260 -0.1092 -0.1038 -0.2884
 5497SOL    HW128124   2.627   2.209   0.193  0.6934 -0.2464  0.1224
 5497SOL    HW228125   2.661   2.126   0.308  0.3375  2.4828  0.5926
 5498SOL     OW28126   0.818   1.575   3.697 -0.5751 -0.0051 -0.1761
 5498SOL    HW128127   0.746   1.539   3.646 -1.1856  0.5135  0.3137
 5498SOL    HW228128   0.842   1.516   3.769  1.7179 -1.0889 -1.8453
 5499SOL     OW28129   3.431   2.072   4.142 -0.2636 -0.3348  0.0138
 5499SOL    HW128130   3.422   2.095   4.049 -0.7195  1.3500  0.4764
 5499SOL    HW228131   3.382   2.137   4.193  0.0690  1.1920 -1.5986
 5500SOL     OW28132   1.963   0.047   6.853  0.3909  0.2203  0.2518
 5500SOL    HW128133   1.870   0.065   6.866  0.1764 -0.0762 -0.8622
 5500SOL    HW228134   2.001   0.135   6.844 -0.4956  0.6962  1.2004
 5501SOL     OW28135   4.723   4.164   1.593 -0.0186  0.7096  0.1950
 5501SOL    HW128136   0.059   4.225   1.572  1.4760 -0.9600  0.3650
 5501SOL    HW228137   4.672   4.158   1.513  1.2077  0.5685 -0.5736
 5502SOL     OW28138   2.781   2.819   8.458 -0.5970  0.0442  0.4823
 5502SOL    HW128139   2.743   2.746   8.410  0.9461 -0.0217 -0.6518
 5502SOL    HW228140   2.839   2.784   8.526 -2.5198 -0.9135  1.6210
 5503SOL     OW28141   1.628   4.330   8.410  0.1814 -0.4538  0.4254
 5503SOL    HW128142   1.575   4.278   8.349  0.2261  1.3174 -1.1006
 5503SOL    HW228143   1.659   4.255   8.462 -0.5433 -1.6179 -0.8374
 5504SOL     OW28144   2.579   1.016   1.402  0.4423  0.6840  0.1287
 5504SOL    HW128145   2.484   1.012   1.387  0.2503  1.5108  1.0788
 5504SOL    HW228146   2.580   1.070   1.481  1.0694  1.3516 -0.3358
 5505SOL     OW28147   2.683   3.288  17.726 -0.2001  0.2688 -0.4686
 5505SOL    HW128148   2.632   3.282   0.070 -1.2542  2.3984 -0.9849
 5505SOL    HW228149   2.618   3.306  17.658  0.1012 -0.2671 -0.9009
 5506SOL     OW28150   3.863   3.579   5.839 -0.4235 -0.1137  0.1166
 5506SOL    HW128151   3.835   3.487   5.842  0.8022 -0.4908 -0.1256
 5506SOL    HW228152   3.835   3.615   5.754 -0.8055 -0.4461  0.1033
 5507SOL     OW28153   2.913   0.537  11.233 -0.3556  0.5541 -0.4925
 5507SOL    HW128154   2.936   0.596  11.305 -2.1897  0.2724  0.3276
 5507SOL    HW228155   2.945   0.590  11.160 -1.4781  1.7724 -0.0776
 5508SOL     OW28156   4.341   0.717   3.179 -0.4762  0.0078 -0.1387
 5508SOL    HW128157   4.367   0.668   3.101  1.0990 -1.0571  1.0476
 5508SOL    HW228158   4.430   0.748   3.194 -0.0279 -2.0817  1.4449
 5509SOL     OW28159   3.656   2.250   5.923  0.6819 -0.2928 -0.0848
 5509SOL    HW128160   3.724   2.317   5.934 -1.0314  1.3730  0.4206
 5509SOL    HW228161   3.689   2.182   5.982  0.1328  1.5258  2.3263
 5510SOL     OW28162   4.273   2.793   0.674  0.2336 -0.0120  0.4374
 5510SOL    HW128163   4.201   2.855   0.669  1.9401  1.7523 -2.4032
 5510SOL    HW228164   4.227   2.712   0.653 -2.3272  0.8282  2.8521
 5511SOL     OW28165   1.724   0.310   3.607 -0.7513 -0.0916 -0.1334
 5511SOL    HW128166   1.815   0.336   3.620 -1.5753  2.1506  1.1776
 5511SOL    HW228167   1.707   0.331   3.515  0.4928 -2.1157 -0.8184
 5512SOL     OW28168   1.358   3.474   4.699 -0.6180  0.3867 -0.3583
 5512SOL    HW128169   1.271   3.489   4.662 -0.6149  0.1946 -0.4440
 5512SOL    HW228170   1.360   3.379   4.703 -0.5998  0.3424 -1.3418
 5513SOL     OW28171   3.727   0.809   0.924 -0.4244  0.4477  0.4551
 5513SOL    HW128172   3.708   0.804   0.830 -1.8539 -1.2974  0.8235
 5513SOL    HW228173   3.708   0.900   0.948  1.0167  0.7966  0.2164
 5514SOL     OW28174   2.469   3.270   8.392 -0.0462 -0.2438  0.0432
 5514SOL    HW128175   2.429   3.337   8.336  0.2525  0.7314  0.9893
 5514SOL    HW228176   2.528   3.318   8.450  0.9791 -1.8350  0.3169
 5515SOL     OW28177   4.136   2.057   8.105  0.1909 -0.2375 -0.2615
 5515SOL    HW128178   4.197   2.023   8.040  1.9753  1.4678  0.5154
 5515SOL    HW228179   4.207   2.075   8.166  0.7385  0.2500 -1.0387
 5516SOL     OW28180   0.588   1.445  16.055  0.7103  0.3138 -0.3026
 5516SOL    HW128181   0.606   1.367  16.003  0.9243 -1.1445  1.9330
 5516SOL    HW228182   0.516   1.410  16.108 -0.2606  0.4010 -1.5785
 5517SOL     OW28183   3.420   4.496   6.544  0.3240  0.2625 -0.4171
 5517SOL    HW128184   3.485   4.513   6.476  1.5432 -0.2027  0.6391
 5517SOL    HW228185   3.424   4.580   6.590 -1.4993  0.9915 -1.6077
 5518SOL     OW28186   3.565   3.808   5.150  0.0565 -0.0693 -0.3874
 5518SOL    HW128187   3.487   3.773   5.105 -1.7820  2.6997  0.6453
 5518SOL    HW228188   3.549   3.774   5.238 -2.2728  0.0808 -0.7335
 5519SOL     OW28189   3.848   2.560   7.064  0.1321  0.3474  0.5062
 5519SOL    HW128190   3.780   2.628   7.069  1.3772  1.4168  2.6118
 5519SOL    HW228191   3.852   2.550   6.969  2.2610 -1.0561  0.7574
 5520SOL     OW28192   3.551   2.509   2.334  0.4723  0.2426 -0.6520
 5520SOL    HW128193   3.470   2.560   2.325 -0.0644 -1.1365 -3.4916
 5520SOL    HW228194   3.523   2.433   2.283  1.3582  0.5082 -1.5283
 5521SOL     OW28195   1.392   1.026   5.247 -0.0001  0.1435 -0.1225
 5521SOL    HW128196   1.419   1.079   5.322 -1.7407  0.1941  0.4643
 5521SOL    HW228197   1.417   0.936   5.266  1.2096  0.5729  0.3364
 5522SOL     OW28198   2.862   2.815   2.323 -0.0441  0.4268 -0.2063
 5522SOL    HW128199   2.846   2.788   2.414 -0.1020 -0.0754 -0.3683
 5522SOL    HW228200   2.958   2.820   2.322  0.0857 -0.8724  3.2220
 5523SOL     OW28201   1.579   2.170   4.431  0.0118 -0.0303 -0.6668
 5523SOL    HW128202   1.566   2.088   4.480 -0.7183  1.1332  1.1086
 5523SOL    HW228203   1.486   2.189   4.422 -0.0007  0.2454  0.0731
 5524SOL     OW28204   4.660   1.608   2.928 -0.1877 -0.5756  0.1995
 5524SOL    HW128205   4.618   1.522   2.924  2.1192 -1.6094 -1.9518
 5524SOL    HW228206   4.681   1.620   3.020 -0.2247  1.5321 -0.0647
 5525SOL     OW28207   2.863   4.312   7.279 -0.4154  0.0458 -0.3302
 5525SOL    HW128208   2.769   4.298   7.269 -0.5961  1.3952 -0.5954
 5525SOL    HW228209   2.862   4.356   7.364  0.9865 -1.3153  0.3729
 5526SOL     OW28210   0.606   3.151   4.665 -0.5422  0.1061 -0.5606
 5526SOL    HW128211   0.551   3.109   4.598 -1.1877  1.7545 -1.0592
 5526SOL    HW228212   0.642   3.073   4.706  0.0415  0.1029 -1.0753
 5527SOL     OW28213   2.045   2.022   6.021 -0.0648  0.4455  0.0741
 5527SOL    HW128214   1.960   2.001   5.983 -0.2380 -0.7276  1.0959
 5527SOL    HW228215   2.019   2.031   6.113 -0.4903  1.4708 -0.1549
 5528SOL     OW28216   3.418   1.794  13.557  0.3342  0.0783 -0.8525
 5528SOL    HW128217   3.420   1.865  13.493 -2.5058  0.6476 -0.3189
 5528SOL    HW228218   3.323   1.798  13.562  0.3004 -0.5394 -0.9224
 5529SOL     OW28219   3.314   0.641  12.197  1.1400  0.3232  0.2140
 5529SOL    HW128220   3.287   0.694  12.122  1.9136 -0.6359 -0.7344
 5529SOL    HW228221   3.371   0.581  12.150  0.2806 -0.7927  0.5929
 5530SOL     OW28222   3.459   0.601   4.215 -0.1631 -0.2377  0.1533
 5530SOL    HW128223   3.520   0.638   4.278 -0.7738 -0.5173  0.9013
 5530SOL    HW228224   3.373   0.606   4.258 -0.5720 -0.9022 -0.5895
 5531SOL     OW28225   1.949   1.103   7.866  0.0957  0.0666 -0.0527
 5531SOL    HW128226   1.888   1.087   7.794 -0.8041 -2.2036  1.1937
 5531SOL    HW228227   2.029   1.064   7.831  1.1979  0.7549  1.7065
 5532SOL     OW28228   2.551   1.468   3.229 -0.2193 -0.0759  0.3409
 5532SOL    HW128229   2.514   1.504   3.310 -2.7815  0.1742 -0.9674
 5532SOL    HW228230   2.637   1.443   3.264 -1.1718 -2.1505  1.2262
 5533SOL     OW28231   0.222   3.179  16.312 -0.1084 -0.4453  0.3701
 5533SOL    HW128232   0.293   3.125  16.345  0.4944  1.3079  1.9000
 5533SOL    HW228233   0.259   3.266  16.326  0.4845 -0.9154  1.7095
 5534SOL     OW28234   0.680   2.577   6.422  0.0654  0.3948  0.3224
 5534SOL    HW128235   0.749   2.563   6.487  0.7102 -0.2798 -0.5111
 5534SOL    HW228236   0.598   2.552   6.463 -1.0158  0.2039 -1.9906
 5535SOL     OW28237   2.347   4.189   3.938  0.2434 -0.8886  0.4104
 5535SOL    HW128238   2.253   4.199   3.925  0.5534  0.4132 -0.8926
 5535SOL    HW228239   2.368   4.280   3.917  0.4597 -0.8393  0.8430
 5536SOL     OW28240   1.730   2.983   3.882 -0.0033 -0.5462 -0.3782
 5536SOL    HW128241   1.715   3.017   3.970 -1.1926  0.8205 -1.1214
 5536SOL    HW228242   1.751   2.892   3.903 -0.1929  0.3873  3.8824
 5537SOL     OW28243   2.609   3.323   7.282 -0.3280 -0.1150  0.1984
 5537SOL    HW128244   2.634   3.387   7.216 -0.4924 -1.2709 -0.9815
 5537SOL    HW228245   2.697   3.291   7.303  0.7083  1.3441 -1.8593
 5538SOL     OW28246   1.986   3.860   1.613 -0.1691  0.1736 -0.6017
 5538SOL    HW128247   2.077   3.857   1.582  0.9760 -0.8984  2.8016
 5538SOL    HW228248   2.013   3.820   1.696  2.5915  1.4392 -0.8911
 5539SOL     OW28249   1.572   4.114   2.233 -0.2130 -0.4131  0.2724
 5539SOL    HW128250   1.568   4.019   2.242 -1.5970 -0.1320  2.6257
 5539SOL    HW228251   1.642   4.126   2.297  1.4372  3.5630 -2.2631
 5540SOL     OW28252   1.435   2.939   4.558 -0.2288 -0.3039 -0.3602
 5540SOL    HW128253   1.492   2.866   4.534  2.7182  2.4050 -1.6316
 5540SOL    HW228254   1.498   3.011   4.562 -1.2691  0.6108 -0.3620
 5541SOL     OW28255   0.400   4.033   7.237 -0.0564 -0.2391  0.0207
 5541SOL    HW128256   0.460   3.959   7.253  1.6095  0.7120 -1.8615
 5541SOL    HW228257   0.378   4.016   7.146  1.9828  0.3519 -0.6009
 5542SOL     OW28258   2.891   3.001  16.979  0.2659 -0.1306 -0.7278
 5542SOL    HW128259   2.898   3.031  17.069  1.9219 -1.8401 -0.2678
 5542SOL    HW228260   2.797   2.997  16.963 -0.0207  0.0775  0.9129
 5543SOL     OW28261   4.664   3.305  16.421  0.3190  0.0118  0.1089
 5543SOL    HW128262   4.679   3.257  16.503  0.7300  2.0157  1.2057
 5543SOL    HW228263   4.731   3.373  16.429  0.0719  0.1862  0.7008
 5544SOL     OW28264   4.315   2.299   5.223 -0.0616 -0.2951 -0.3666
 5544SOL    HW128265   4.323   2.266   5.313 -1.3016  1.3730  0.3495
 5544SOL    HW228266   4.306   2.216   5.176 -0.7426  0.7302 -2.0131
 5545SOL     OW28267   1.514   0.362   2.624  0.2472  0.2217  0.2807
 5545SOL    HW128268   1.497   0.274   2.590  1.0734  0.1461  0.0631
 5545SOL    HW228269   1.467   0.359   2.707  0.0149  3.1758  0.2511
 5546SOL     OW28270   2.968   3.599  14.465 -0.2242 -0.2857  0.3799
 5546SOL    HW128271   2.969   3.535  14.394 -2.3566  1.2476 -1.0379
 5546SOL    HW228272   2.990   3.673  14.408  1.3167 -0.5724  0.5969
 5547SOL     OW28273   2.461   0.771   9.243 -0.1483  0.0133 -0.2989
 5547SOL    HW128274   2.405   0.780   9.166  0.6574 -0.5846 -0.9585
 5547SOL    HW228275   2.541   0.794   9.196  0.5115 -0.3892  0.6260
 5548SOL     OW28276   0.006   2.908   6.169 -0.0021  0.8822 -0.5199
 5548SOL    HW128277   4.705   2.977   6.225  1.0192  0.8102  0.2088
 5548SOL    HW228278   0.094   2.941   6.153  1.0442 -1.6637 -0.0010
 5549SOL     OW28279   1.721   2.408   1.781  0.3760 -0.4926  0.3052
 5549SOL    HW128280   1.815   2.414   1.768  0.0168  1.4272 -1.4553
 5549SOL    HW228281   1.690   2.365   1.702  0.7890 -0.5065  0.1529
 5550SOL     OW28282   3.362   4.367  15.784 -0.2197 -0.0071  0.1367
 5550SOL    HW128283   3.364   4.397  15.875 -1.0105 -1.2376  0.5618
 5550SOL    HW228284   3.455   4.384  15.767 -0.6218 -1.0581 -3.1995
 5551SOL     OW28285   2.793   4.688   8.359 -0.7425  0.9903  0.4869
 5551SOL    HW128286   2.865   4.730   8.313 -0.6553  0.0326 -0.2450
 5551SOL    HW228287   2.800   4.599   8.325 -0.5915 -0.4818  4.3871
 5552SOL     OW28288   2.530   2.941   9.632  0.2494  0.9354 -0.1288
 5552SOL    HW128289   2.511   2.991   9.711 -0.2776 -0.5610  0.6973
 5552SOL    HW228290   2.487   2.991   9.563  0.9267  0.4561 -0.9121
 5553SOL     OW28291   2.367   0.966  11.624  0.4876 -0.0661 -0.3558
 5553SOL    HW128292   2.404   0.923  11.701  1.6583  1.8102  0.1379
 5553SOL    HW228293   2.419   0.921  11.558  3.2065  0.9307  1.1066
 5554SOL     OW28294   3.569   2.931  17.243 -0.4878  0.1138  0.1242
 5554SOL    HW128295   3.639   2.995  17.257  0.0529 -0.3218 -0.5521
 5554SOL    HW228296   3.506   2.996  17.212 -1.2163 -0.0960  1.1612
 5555SOL     OW28297   1.026   0.669   8.293  0.3795 -0.3058  0.1063
 5555SOL    HW128298   0.937   0.635   8.289  2.0093 -4.2820 -1.7404
 5555SOL    HW228299   1.069   0.653   8.210  0.3935 -1.8038  0.4043
 5556SOL     OW28300   4.071   1.921   3.116  0.7675 -1.0579  0.1401
 5556SOL    HW128301   4.048   1.921   3.209 -1.3245 -3.0192 -0.3951
 5556SOL    HW228302   4.116   2.005   3.100 -0.3251 -0.3540  0.8034
 5557SOL     OW28303   0.194   3.415   2.624 -0.2728 -0.3342 -0.5152
 5557SOL    HW128304   0.176   3.402   2.531  2.2029 -0.7921 -0.9346
 5557SOL    HW228305   0.107   3.429   2.663  0.0317 -0.0465  0.0675
 5558SOL     OW28306   2.335   2.023   1.146  0.0257  0.2213 -0.1456
 5558SOL    HW128307   2.360   2.052   1.058  1.5818  1.3465  0.6670
 5558SOL    HW228308   2.271   1.955   1.128  1.1407 -0.7170 -0.5659
 5559SOL     OW28309   3.920   0.937   7.059  0.1806 -0.7610 -0.1501
 5559SOL    HW128310   3.887   0.870   6.999 -1.7803 -0.3432  0.4843
 5559SOL    HW228311   4.007   0.905   7.084  0.1473 -1.6865 -1.2056
 5560SOL     OW28312   3.481   3.339  11.832  0.2943 -0.1948 -0.1701
 5560SOL    HW128313   3.513   3.297  11.912 -0.0678 -0.0634  0.0463
 5560SOL    HW228314   3.411   3.396  11.864  0.5200  0.0365 -0.0940
 5561SOL     OW28315   0.375   3.464   2.363 -0.6724 -0.8100  0.1164
 5561SOL    HW128316   0.406   3.428   2.279 -1.5048  0.4754 -0.7487
 5561SOL    HW228317   0.425   3.408   2.422  0.3115  0.4689  0.5023
 5562SOL     OW28318   3.884   4.004   7.026  0.4466 -0.5263 -0.6716
 5562SOL    HW128319   3.862   3.931   6.969 -3.9990 -0.6625  1.2234
 5562SOL    HW228320   3.965   3.966   7.059  0.0475  0.5902  1.6543
 5563SOL     OW28321   0.344   0.182   3.894  0.5323 -0.7261  0.1652
 5563SOL    HW128322   0.249   0.186   3.883  0.6954 -1.4150 -1.3839
 5563SOL    HW228323   0.366   0.261   3.943  1.3054 -1.6394  1.2862
 5564SOL     OW28324   3.488   1.260   3.159 -0.3690  0.0695 -0.0425
 5564SOL    HW128325   3.454   1.193   3.100 -1.2864 -0.1265  0.7055
 5564SOL    HW228326   3.580   1.233   3.168  0.4083  2.9080  0.8198
 5565SOL     OW28327   3.995   0.938   5.765  0.4409  0.3983  0.1410
 5565SOL    HW128328   4.065   0.981   5.715  0.5655  0.1614  0.1076
 5565SOL    HW228329   3.981   0.856   5.717  1.2612 -0.4274  1.2769
 5566SOL     OW28330   0.389   2.745   8.582  0.0232 -1.0874  0.1449
 5566SOL    HW128331   0.447   2.698   8.522  0.9001 -0.6352  0.6405
 5566SOL    HW228332   0.443   2.810   8.626  0.3509 -0.7906 -0.7036
 5567SOL     OW28333   4.309   4.097   0.989 -0.1399  0.9232 -0.3206
 5567SOL    HW128334   4.370   4.104   1.062  2.7804  1.5099 -2.8286
 5567SOL    HW228335   4.228   4.126   1.032  0.6520  0.5614  1.4211
 5568SOL     OW28336   3.402   3.420  12.568  0.0854  0.4625  0.1375
 5568SOL    HW128337   3.471   3.390  12.509 -1.3515 -0.1109 -1.2544
 5568SOL    HW228338   3.356   3.480  12.508 -1.9876 -2.5033 -1.2104
 5569SOL     OW28339   3.853   3.450  12.430 -0.0702  0.3816 -0.6388
 5569SOL    HW128340   3.935   3.431  12.382  0.2366  1.7788 -0.6520
 5569SOL    HW228341   3.857   3.544  12.443 -1.6052  0.3709 -0.1102
 5570SOL     OW28342   4.709   3.476   4.835 -0.6978 -0.2996  0.4582
 5570SOL    HW128343   4.722   3.521   4.918  0.2588  2.5067 -1.2291
 5570SOL    HW228344   4.647   3.535   4.793 -2.0330 -2.2056 -0.2862
 5571SOL     OW28345   3.120   3.051   7.972  0.3433  0.2777 -0.3315
 5571SOL    HW128346   3.213   3.049   7.949  0.9172 -0.0748  1.9887
 5571SOL    HW228347   3.075   2.975   7.937  0.1559 -0.3242  1.1857
 5572SOL     OW28348   4.294   2.163   8.713 -0.0123 -0.8448  0.5165
 5572SOL    HW128349   4.203   2.135   8.705 -0.3342  0.3817 -0.0956
 5572SOL    HW228350   4.298   2.190   8.805  0.6030  0.4492  0.1057
 5573SOL     OW28351   3.810   3.811   6.332 -0.7020 -0.4219  0.0444
 5573SOL    HW128352   3.775   3.730   6.295  2.9582 -1.8640 -0.3083
 5573SOL    HW228353   3.858   3.773   6.405  1.2960  1.8319 -0.0953
 5574SOL     OW28354   1.195   0.140   3.400  0.6951 -0.6636  0.6699
 5574SOL    HW128355   1.108   0.165   3.431  0.4572 -0.1704 -0.3960
 5574SOL    HW228356   1.208   0.060   3.450  0.3757 -0.2799  1.3864
 5575SOL     OW28357   3.236   0.911   6.936  0.6856 -0.5240 -0.1428
 5575SOL    HW128358   3.156   0.923   6.886 -1.4420  0.9518  3.5958
 5575SOL    HW228359   3.269   1.001   6.934  0.7912 -0.6241 -2.3522
 5576SOL     OW28360   4.109   4.315   4.885 -0.6994 -0.3608 -0.0225
 5576SOL    HW128361   4.137   4.280   4.969  1.9516 -1.7121 -1.4570
 5576SOL    HW228362   4.061   4.241   4.849 -0.8417 -0.2981  0.0416
 5577SOL     OW28363   3.085   2.333   1.301 -0.2479  0.5677 -0.2338
 5577SOL    HW128364   3.176   2.362   1.297 -0.0615 -0.0537 -0.4003
 5577SOL    HW228365   3.089   2.241   1.329  1.3451  0.3635 -1.1294
 5578SOL     OW28366   2.472   2.705   3.305  0.6286  0.4507 -0.1424
 5578SOL    HW128367   2.542   2.665   3.357 -1.2130  3.2718  4.4871
 5578SOL    HW228368   2.390   2.670   3.340  0.5865 -0.6229 -1.3235
 5579SOL     OW28369   4.601   4.695   0.793  0.0445  0.4786  0.2532
 5579SOL    HW128370   4.532   0.027   0.783  0.1471  0.5563  0.0506
 5579SOL    HW228371   4.549   4.615   0.801 -0.1627  0.5145 -0.6680
 5580SOL     OW28372   3.927   1.087   2.338  0.0313 -0.2021  0.1686
 5580SOL    HW128373   3.906   1.180   2.333  0.8576 -0.0724 -0.9533
 5580SOL    HW228374   3.915   1.073   2.432 -1.8404  0.2949 -0.0004
 5581SOL     OW28375   2.933   0.839   9.020 -0.2731  0.3237  0.0232
 5581SOL    HW128376   2.921   0.767   8.959  0.0353  0.7047 -0.4803
 5581SOL    HW228377   3.025   0.864   9.025 -0.2613  0.3706 -0.4770
 5582SOL     OW28378   2.222   0.376   3.758 -0.1632 -0.0634  0.3803
 5582SOL    HW128379   2.142   0.384   3.705  0.4432  1.1918 -0.3522
 5582SOL    HW228380   2.203   0.433   3.832  0.9278 -2.5483  2.6060
 5583SOL     OW28381   0.413   3.024   1.342 -0.1887  0.2392 -0.4919
 5583SOL    HW128382   0.481   3.078   1.302 -1.7460  2.5872  0.0761
 5583SOL    HW228383   0.375   2.990   1.262 -2.6903 -1.3516  1.3734
 5584SOL     OW28384   0.049   1.175   9.248 -0.2467  0.1842  0.2514
 5584SOL    HW128385   0.050   1.268   9.226 -0.9029 -0.1829 -1.2968
 5584SOL    HW228386   0.064   1.176   9.343  3.3429  0.3851 -0.3193
 5585SOL     OW28387   0.939   0.871  15.945  0.8185 -0.8242  0.4596
 5585SOL    HW128388   0.981   0.941  15.895 -0.9754 -0.9934 -1.2930
 5585SOL    HW228389   0.890   0.917  16.013 -2.1160 -2.1208 -0.7636
 5586SOL     OW28390   0.335   1.949   8.367  0.0603 -0.4798 -0.6297
 5586SOL    HW128391   0.359   1.860   8.391 -0.8584 -0.0747  1.8493
 5586SOL    HW228392   0.421   1.991   8.364 -0.2572  0.4823  3.1262
 5587SOL     OW28393   3.643   4.151   9.974  0.1205  0.2323  0.3784
 5587SOL    HW128394   3.613   4.068  10.011 -1.2514  0.0307 -1.1643
 5587SOL    HW228395   3.705   4.179  10.041  0.4158  1.0883 -0.2552
 5588SOL     OW28396   1.813   3.221   7.543  0.4223 -0.5851 -0.8447
 5588SOL    HW128397   1.773   3.306   7.562  2.0815 -0.1884  0.8649
 5588SOL    HW228398   1.739   3.173   7.506  0.8292 -0.2183 -2.1416
 5589SOL     OW28399   2.943   0.136  17.490  0.6178 -0.0048 -0.0830
 5589SOL    HW128400   2.948   0.127  17.585 -2.8687 -0.1849  0.0672
 5589SOL    HW228401   2.915   0.227  17.483 -1.6525 -0.8529 -2.0426
 5590SOL     OW28402   3.723   3.051  10.663 -0.4708 -0.1465  0.2001
 5590SOL    HW128403   3.723   3.138  10.625 -1.5995 -0.2636 -0.0661
 5590SOL    HW228404   3.649   3.048  10.724 -0.6240 -0.4343 -0.0022
 5591SOL     OW28405   4.086   3.271   2.923 -0.7326  0.6836  0.0482
 5591SOL    HW128406   4.031   3.333   2.874 -0.4343  0.3378 -0.7170
 5591SOL    HW228407   4.074   3.192   2.871  1.1276 -0.6404  1.6465
 5592SOL     OW28408   2.685   3.627   1.057  0.1485 -0.3275  0.0850
 5592SOL    HW128409   2.628   3.681   1.002  2.6780  2.1532 -0.0749
 5592SOL    HW228410   2.688   3.671   1.141  0.5653  0.7475 -0.4972
 5593SOL     OW28411   4.716   0.138   6.710 -0.5606  0.5873  0.2681
 5593SOL    HW128412   4.638   0.185   6.682  0.5273  1.7432 -0.7952
 5593SOL    HW228413   0.046   0.204   6.734  0.9052 -0.3900 -1.0168
 5594SOL     OW28414   0.677   0.649   9.245 -0.5743 -0.1511  0.3191
 5594SOL    HW128415   0.617   0.722   9.229 -2.4727 -2.3403 -2.5750
 5594SOL    HW228416   0.718   0.629   9.160  2.1890 -1.3199  1.9077
 5595SOL     OW28417   0.559   3.335   6.044 -0.0248  0.0875 -0.1809
 5595SOL    HW128418   0.493   3.340   5.975  1.9336 -0.3161 -2.1129
 5595SOL    HW228419   0.544   3.420   6.087 -2.4211 -0.0449 -0.7623
 5596SOL     OW28420   2.775   1.386   7.571 -0.4022  0.2165  0.0280
 5596SOL    HW128421   2.830   1.461   7.550  0.0812  0.1891  1.1838
 5596SOL    HW228422   2.734   1.371   7.486 -1.6123  1.5681  0.3553
 5597SOL     OW28423   2.685   1.612  13.077  0.1341 -0.3416 -0.0115
 5597SOL    HW128424   2.697   1.641  13.168  1.1819 -1.9998  0.3897
 5597SOL    HW228425   2.600   1.652  13.059 -0.1310 -0.4817  0.9066
 5598SOL     OW28426   1.103   0.408   9.399  0.0158 -0.2592  0.2543
 5598SOL    HW128427   1.010   0.386   9.399 -0.3753  1.4545 -2.3284
 5598SOL    HW228428   1.111   0.503   9.403 -1.7677 -0.1096  0.0328
 5599SOL     OW28429   0.474   2.973   4.450 -0.2574 -0.2965 -0.1968
 5599SOL    HW128430   0.541   2.910   4.424  0.3144  0.7270 -1.2195
 5599SOL    HW228431   0.411   2.951   4.381 -1.2536  0.2220  0.5310
 5600SOL     OW28432   0.138   1.121  16.515  0.5093 -0.0650 -0.0755
 5600SOL    HW128433   0.160   1.109  16.422 -1.4288 -0.3137 -0.4863
 5600SOL    HW228434   0.204   1.062  16.554  1.3293  0.6938 -0.3157
 5601SOL     OW28435   0.598   1.622  10.404 -0.0508 -0.0045  0.2075
 5601SOL    HW128436   0.521   1.678  10.396 -0.6888 -1.3622 -3.5608
 5601SOL    HW228437   0.556   1.546  10.363  2.2927 -0.3870 -1.4663
 5602SOL     OW28438   1.149   1.748   6.056 -0.5001 -0.2528  0.4882
 5602SOL    HW128439   1.234   1.789   6.072  0.2300 -0.8495 -1.8282
 5602SOL    HW228440   1.106   1.751   6.141 -0.6183  2.1892  0.3455
 5603SOL     OW28441   1.317   0.114   3.719 -0.1528 -0.1646 -0.2571
 5603SOL    HW128442   1.388   0.164   3.678 -0.6124 -0.9595 -2.0316
 5603SOL    HW228443   1.317   0.033   3.668  0.0011  0.5498 -1.4153
 5604SOL     OW28444   0.608   1.346   4.118 -0.1983 -0.1900  0.2278
 5604SOL    HW128445   0.593   1.308   4.205  0.7809  0.1184  0.5310
 5604SOL    HW228446   0.577   1.435   4.134  0.8103 -0.1789  2.1952
 5605SOL     OW28447   3.430   0.292   6.220 -0.0782  0.4878 -0.0508
 5605SOL    HW128448   3.384   0.328   6.145 -0.5578  0.9825  0.4782
 5605SOL    HW228449   3.370   0.225   6.253 -1.3678  1.5577 -0.2374
 5606SOL     OW28450   3.355   4.170   2.823  0.2817 -0.0713  0.2142
 5606SOL    HW128451   3.307   4.242   2.782 -0.7215 -1.1497 -0.5206
 5606SOL    HW228452   3.397   4.217   2.895  0.4146  1.3127 -0.7653
 5607SOL     OW28453   0.811   0.895   6.650  0.1633  0.2150 -0.4865
 5607SOL    HW128454   0.890   0.949   6.648  1.6479 -1.9806 -1.8953
 5607SOL    HW228455   0.807   0.862   6.560 -2.7546 -1.2529  0.1782
 5608SOL     OW28456   0.660   1.487  10.656 -0.0614  0.0281 -0.4190
 5608SOL    HW128457   0.670   1.549  10.583  0.3439  1.4464  0.8375
 5608SOL    HW228458   0.565   1.488  10.668  0.1005 -0.4741  0.8779
 5609SOL     OW28459   0.175   4.303   1.869 -0.3768  0.0950  0.4137
 5609SOL    HW128460   0.103   4.241   1.857 -0.8569  0.6129  0.5712
 5609SOL    HW228461   0.169   4.355   1.789 -0.1505 -0.9118 -0.2585
 5610SOL     OW28462   0.974   0.085  13.924  0.1947 -0.3733  0.2305
 5610SOL    HW128463   0.892   0.037  13.918 -0.5879  1.1596 -1.2647
 5610SOL    HW228464   0.970   0.141  13.847  1.4423 -2.4229 -1.3076
 5611SOL     OW28465   1.619   1.122   4.371  0.5466  0.6337 -0.0542
 5611SOL    HW128466   1.690   1.141   4.432 -0.2266  1.3937  0.6265
 5611SOL    HW228467   1.668   1.112   4.290 -1.4607 -0.8279 -1.0865
 5612SOL     OW28468   2.239   3.022   5.697 -0.2086  0.4234  0.0392
 5612SOL    HW128469   2.253   2.976   5.614  1.7746  0.9917  0.0692
 5612SOL    HW228470   2.270   3.111   5.679  0.8403 -0.1977 -1.2050
 5613SOL     OW28471   4.599   1.607   4.174 -0.1493 -0.3387 -0.4324
 5613SOL    HW128472   4.639   1.547   4.110 -2.6803 -2.9055  0.4234
 5613SOL    HW228473   4.515   1.562   4.181  0.9851 -2.1296  1.7139
 5614SOL     OW28474   2.490   1.806   8.896  0.6576 -0.1863  0.1354
 5614SOL    HW128475   2.408   1.756   8.895  0.8982 -0.5738 -0.2753
 5614SOL    HW228476   2.557   1.757   8.943  0.2785  0.1566  1.0276
 5615SOL     OW28477   2.876   0.572   3.686 -0.5664 -0.5042  0.1852
 5615SOL    HW128478   2.959   0.594   3.642 -0.9555 -0.1556 -0.3887
 5615SOL    HW228479   2.910   0.497   3.733 -1.2860 -1.1066 -0.2525
 5616SOL     OW28480   1.006   4.518   2.989  0.6347  0.3377  0.1839
 5616SOL    HW128481   1.017   4.568   2.908  0.0896  0.9989  0.5327
 5616SOL    HW228482   1.001   4.426   2.960 -1.3176  0.6817 -0.5331
 5617SOL     OW28483   2.003   4.702  17.000  0.2082 -0.1192 -0.1983
 5617SOL    HW128484   2.016   4.624  17.054  1.0254  0.3657  0.3147
 5617SOL    HW228485   1.956   4.662  16.927 -0.8233  1.2858 -0.3172
 5618SOL     OW28486   4.086   2.856   3.434 -0.4719 -0.9115  0.0968
 5618SOL    HW128487   4.072   2.866   3.528 -1.9903 -2.1212 -0.0072
 5618SOL    HW228488   4.146   2.930   3.420  0.6100 -1.4878  1.7471
 5619SOL     OW28489   2.886   1.493  14.062 -0.3631 -0.1426  0.5472
 5619SOL    HW128490   2.831   1.499  14.140 -0.8452 -3.7981  0.5202
 5619SOL    HW228491   2.820   1.456  14.003 -0.2176 -0.1949  0.4161
 5620SOL     OW28492   0.890   2.748   3.082 -0.2444 -0.3810  0.2724
 5620SOL    HW128493   0.888   2.659   3.118 -0.8814 -0.0079  1.1449
 5620SOL    HW228494   0.986   2.754   3.089 -0.1800  0.3237 -1.2424
 5621SOL     OW28495   2.795   1.902   4.837 -0.4014 -0.5523 -0.5768
 5621SOL    HW128496   2.874   1.888   4.890 -0.4500  0.0859 -0.3281
 5621SOL    HW228497   2.722   1.907   4.899 -0.4686  2.1984 -0.8836
 5622SOL     OW28498   1.811   2.611   6.379  0.3589 -0.0797 -0.1461
 5622SOL    HW128499   1.803   2.515   6.381  3.4450 -0.3418 -0.6003
 5622SOL    HW228500   1.898   2.616   6.339  1.1185 -1.3800  1.3356
 5623SOL     OW28501   4.455   4.093   0.456  0.5366 -0.1523  0.0068
 5623SOL    HW128502   4.499   4.105   0.371  2.2119 -2.6723  0.5444
 5623SOL    HW228503   4.372   4.134   0.433 -0.8028 -2.7955  0.1610
 5624SOL     OW28504   4.687   1.118   6.941  0.3204 -0.2107  0.1948
 5624SOL    HW128505   0.019   1.165   6.892 -0.6109  2.0388  1.1033
 5624SOL    HW228506   4.631   1.193   6.963 -0.7289  0.0599 -3.4429
 5625SOL     OW28507   3.474   1.285   1.469 -0.6121  0.4656  0.3404
 5625SOL    HW128508   3.416   1.316   1.539  1.1924  1.2847  1.4903
 5625SOL    HW228509   3.510   1.206   1.508  1.2971  0.6253 -1.1190
 5626SOL     OW28510   2.499   4.031   9.860  0.0936 -0.0977 -0.3306
 5626SOL    HW128511   2.539   3.982   9.932  0.0715  1.0317  0.4502
 5626SOL    HW228512   2.572   4.080   9.822 -1.4994  1.1289 -1.8056
 5627SOL     OW28513   1.524   4.196   4.922  0.2936  0.4843  0.3083
 5627SOL    HW128514   1.591   4.154   4.867  0.9949 -0.9324  2.2582
 5627SOL    HW228515   1.519   4.285   4.886 -0.9076  0.6553  0.9218
 5628SOL     OW28516   4.065   0.397   9.832 -0.1854 -0.4579  0.6790
 5628SOL    HW128517   4.137   0.372   9.774  0.7871  1.3723  1.1155
 5628SOL    HW228518   4.083   0.341   9.907  2.1352 -0.3738  0.1879
 5629SOL     OW28519   1.992   1.912  15.015  0.0717  0.0314  0.3694
 5629SOL    HW128520   2.055   1.841  15.007  0.0227  0.1005 -0.6269
 5629SOL    HW228521   1.963   1.895  15.105  0.6669 -2.8401  0.0148
 5630SOL     OW28522   2.432   3.127   9.031  0.2217 -0.2465 -0.5549
 5630SOL    HW128523   2.396   3.147   8.945 -0.4821  0.0741 -0.1838
 5630SOL    HW228524   2.526   3.120   9.011  0.3259 -0.6680  0.0722
 5631SOL     OW28525   2.476   2.743   9.242 -0.1997  0.3390 -0.3428
 5631SOL    HW128526   2.498   2.712   9.330 -1.6593  0.4163  0.0365
 5631SOL    HW228527   2.559   2.715   9.204 -0.3497 -2.2416  1.2368
 5632SOL     OW28528   0.654   2.917  11.466 -0.0207  0.4790  0.1882
 5632SOL    HW128529   0.698   3.000  11.446 -2.0215  2.0406  2.3271
 5632SOL    HW228530   0.700   2.895  11.547 -0.9807 -0.1555  0.5533
 5633SOL     OW28531   3.481   1.068   2.155  0.2160 -0.1117 -0.3261
 5633SOL    HW128532   3.529   1.150   2.138 -0.4130  0.8052  2.2769
 5633SOL    HW228533   3.429   1.101   2.229  0.6072  0.9511 -0.5176
 5634SOL     OW28534   0.225   3.499   3.493  0.1285  0.0296 -0.2506
 5634SOL    HW128535   0.310   3.476   3.457 -0.0669 -0.2733 -0.5185
 5634SOL    HW228536   0.199   3.420   3.540 -1.7558  0.0281 -1.2695
 5635SOL     OW28537   2.496   4.642   6.022 -0.2175 -0.3551  0.0747
 5635SOL    HW128538   2.423   4.612   5.969 -1.9891  1.5728  1.4045
 5635SOL    HW228539   2.513   4.564   6.076  2.2667  1.1010  1.3983
 5636SOL     OW28540   2.543   0.817   5.553  0.0036  0.1062 -0.7834
 5636SOL    HW128541   2.552   0.731   5.513  0.8146  0.5219 -1.5071
 5636SOL    HW228542   2.460   0.805   5.600 -0.9557 -2.1238 -3.0989
 5637SOL     OW28543   2.191   1.152   5.605  0.7577  0.1002 -0.6221
 5637SOL    HW128544   2.174   1.241   5.573 -0.5840  0.3467  0.7603
 5637SOL    HW228545   2.184   1.100   5.526 -2.5110 -2.1003  1.1385
 5638SOL     OW28546   2.302   0.019  16.763 -0.0133  0.3617 -0.1970
 5638SOL    HW128547   2.260   4.688  16.818  0.4296  0.1346 -0.1311
 5638SOL    HW228548   2.372   0.056  16.817 -0.9122 -1.1819  2.0190
 5639SOL     OW28549   0.123   0.560   4.918  0.0604  0.0942  0.6895
 5639SOL    HW128550   0.132   0.650   4.888 -0.9645 -0.7319 -2.0317
 5639SOL    HW228551   0.169   0.518   4.846 -1.5472 -2.1896  0.9820
 5640SOL     OW28552   1.747   0.242   6.845  0.0379  0.5030  0.1329
 5640SOL    HW128553   1.688   0.311   6.813 -1.1629  0.1082  1.5077
 5640SOL    HW228554   1.730   0.239   6.939 -2.6391 -1.5573 -0.4285
 5641SOL     OW28555   1.836   3.099  13.352 -0.0138 -0.1726  0.5550
 5641SOL    HW128556   1.782   3.157  13.405  0.7350  2.3897 -1.4891
 5641SOL    HW228557   1.790   3.095  13.268  1.0663  0.8421 -0.0954
 5642SOL     OW28558   1.122   2.982  12.554 -0.0379  0.9157 -0.0070
 5642SOL    HW128559   1.213   2.958  12.576  0.0092 -0.9890 -2.2995
 5642SOL    HW228560   1.101   2.940  12.471  2.0691 -2.1592  0.9941
 5643SOL     OW28561   4.136   1.568   3.450  0.0534  0.1889  0.3507
 5643SOL    HW128562   4.168   1.655   3.424  1.0024 -0.5911 -1.1198
 5643SOL    HW228563   4.139   1.580   3.545  0.0287  0.4913  0.3126
 5644SOL     OW28564   4.612   1.091  11.059  0.3658 -0.1615 -0.0408
 5644SOL    HW128565   4.661   1.052  10.987  2.7575  1.1200  0.8770
 5644SOL    HW228566   4.639   1.027  11.125 -1.8900 -2.3549 -1.2459
 5645SOL     OW28567   0.307   2.859  14.725  0.7190  0.3979  0.5058
 5645SOL    HW128568   0.270   2.772  14.709 -2.2079  1.5530  1.0022
 5645SOL    HW228569   0.264   2.883  14.807  0.0796 -0.6540  0.4868
 5646SOL     OW28570   0.439   0.766   4.103  0.2167  0.3182  0.4810
 5646SOL    HW128571   0.354   0.721   4.102  1.1042 -1.3488  0.8112
 5646SOL    HW228572   0.471   0.727   4.022  3.1655  0.5490  1.5256
 5647SOL     OW28573   4.251   1.941   1.942 -0.0105  1.0781  0.5483
 5647SOL    HW128574   4.304   1.874   1.986 -2.5755 -0.9193  0.5694
 5647SOL    HW228575   4.309   1.975   1.873  0.3283 -0.6731 -0.0184
 5648SOL     OW28576   3.080   1.429   7.153  0.2064  0.1807  0.1080
 5648SOL    HW128577   3.121   1.398   7.072 -2.0911  1.0306 -1.3881
 5648SOL    HW228578   3.147   1.490   7.183 -0.2885  0.9564 -0.3601
 5649SOL     OW28579   3.928   4.497   9.579  0.0602  0.3234  0.5165
 5649SOL    HW128580   3.995   4.499   9.647 -0.4232 -0.3841  1.0154
 5649SOL    HW228581   3.854   4.468   9.632  0.0128 -0.1274  0.2084
 5650SOL     OW28582   1.658   0.587  16.972 -0.1730  0.1910 -0.4129
 5650SOL    HW128583   1.721   0.626  17.033 -0.3927 -1.2805  0.7809
 5650SOL    HW228584   1.678   0.631  16.890  0.7305  1.3190  0.4238
 5651SOL     OW28585   1.244   4.093   3.572 -0.1741 -0.4523 -0.2447
 5651SOL    HW128586   1.328   4.138   3.573 -1.1537  1.3563  0.3450
 5651SOL    HW228587   1.232   4.096   3.477  2.1865 -3.1762 -0.6203
 5652SOL     OW28588   4.337   3.409  13.563  0.4007  0.0043  0.1524
 5652SOL    HW128589   4.427   3.431  13.538 -0.0079 -0.6175 -1.8492
 5652SOL    HW228590   4.340   3.441  13.653 -2.3988  1.2396 -0.2117
 5653SOL     OW28591   2.364   3.092  16.735 -0.5377  0.1238 -0.5907
 5653SOL    HW128592   2.281   3.138  16.744 -0.6809 -0.3050  0.3229
 5653SOL    HW228593   2.407   3.116  16.817 -0.7977 -1.0464 -0.0989
 5654SOL     OW28594   2.299   0.532   8.811  0.0999 -0.5967 -0.7851
 5654SOL    HW128595   2.280   0.612   8.763  0.2480  0.3625  0.7754
 5654SOL    HW228596   2.392   0.534   8.833  0.5177  0.1033 -2.5620
 5655SOL     OW28597   3.699   2.655   9.763  0.2751  0.1117 -0.5543
 5655SOL    HW128598   3.645   2.591   9.810 -2.3098  1.7812 -1.2488
 5655SOL    HW228599   3.794   2.644   9.770  0.6880  3.4201 -0.5922
 5656SOL     OW28600   1.716   2.798  13.016 -0.4538 -0.1076  0.1072
 5656SOL    HW128601   1.704   2.814  12.922  1.6139  2.7381  0.3096
 5656SOL    HW228602   1.701   2.704  13.018 -1.3736  0.0231 -0.4853
 5657SOL     OW28603   2.007   0.945   2.990 -0.3112  0.4621 -0.0776
 5657SOL    HW128604   2.078   0.974   2.932 -0.6970  0.8445 -0.3588
 5657SOL    HW228605   1.957   1.027   2.987  0.5146  0.9770  0.2381
 5658SOL     OW28606   3.727   1.640  11.556  0.6367  0.1775  0.0890
 5658SOL    HW128607   3.719   1.701  11.482 -0.9111 -0.3426 -0.1831
 5658SOL    HW228608   3.639   1.647  11.593  0.6931  1.4488 -0.0054
 5659SOL     OW28609   3.404   3.980   0.489  0.7031  0.1959 -0.1270
 5659SOL    HW128610   3.468   4.043   0.521 -0.5799  0.0205  2.8232
 5659SOL    HW228611   3.351   4.041   0.440  1.4872  3.2768  2.8550
 5660SOL     OW28612   3.139   3.283   5.035  0.8792 -0.3974  0.1848
 5660SOL    HW128613   3.216   3.251   5.083  1.0784  0.0141  0.1439
 5660SOL    HW228614   3.184   3.314   4.956 -2.4102  1.2692 -1.0183
 5661SOL     OW28615   2.150   1.927   4.169  0.3517  0.4961 -0.4563
 5661SOL    HW128616   2.107   1.967   4.094 -1.4204 -0.5198  0.0122
 5661SOL    HW228617   2.153   1.996   4.235  1.5531 -1.9850  2.0978
 5662SOL     OW28618   0.838   1.559   4.931  0.1658 -0.0366  0.6635
 5662SOL    HW128619   0.839   1.583   4.838  1.3125 -0.6571  0.5121
 5662SOL    HW228620   0.839   1.463   4.925  2.1973  0.1319 -1.6040
 5663SOL     OW28621   0.047   3.131   9.116  0.0563 -0.1878  0.1817
 5663SOL    HW128622   0.076   3.129   9.207 -0.0852 -2.0366  0.1835
 5663SOL    HW228623   0.010   3.219   9.124 -0.7797 -0.3267 -2.3137
 5664SOL     OW28624   0.576   4.303   2.902 -0.4521  0.1581 -0.2375
 5664SOL    HW128625   0.497   4.356   2.888  0.1214  1.0416 -0.1406
 5664SOL    HW228626   0.602   4.285   2.812 -2.2274 -1.5940 -0.3949
 5665SOL     OW28627   0.359   0.113   8.386 -0.0120  0.3796  0.0690
 5665SOL    HW128628   0.288   0.111   8.323 -0.5834 -0.7009  0.7523
 5665SOL    HW228629   0.432   0.090   8.329 -0.7402 -0.2479 -0.5987
 5666SOL     OW28630   1.969   1.368   6.345  0.5384  0.0288  0.1485
 5666SOL    HW128631   1.933   1.455   6.362 -1.1592 -0.8060  0.7358
 5666SOL    HW228632   2.062   1.386   6.359  1.1791 -1.1090 -2.6225
 5667SOL     OW28633   3.773   3.424   8.295 -0.1465 -0.2357  0.5676
 5667SOL    HW128634   3.784   3.371   8.374  1.1961  2.2375  2.0481
 5667SOL    HW228635   3.690   3.472   8.301  0.4462  0.6082  1.9471
 5668SOL     OW28636   2.081   0.420  14.003  0.3739  0.0428  0.2471
 5668SOL    HW128637   2.086   0.331  13.967  0.1412  0.1744 -0.1085
 5668SOL    HW228638   2.084   0.398  14.096 -1.8610 -1.1276  0.0384
 5669SOL     OW28639   2.402   3.929   4.036 -0.2868  0.0320 -0.3317
 5669SOL    HW128640   2.315   3.891   4.030 -0.7471  0.9867  0.4303
 5669SOL    HW228641   2.388   4.017   4.002 -1.2002  0.0090  0.0153
 5670SOL     OW28642   1.346   3.989   6.389 -0.5923  0.0125 -0.0717
 5670SOL    HW128643   1.286   3.996   6.463 -2.5013  1.2394 -1.7559
 5670SOL    HW228644   1.283   3.940   6.337  1.2520  1.6156 -3.8269
 5671SOL     OW28645   4.197   3.691   6.205 -1.0218 -0.1897  0.5026
 5671SOL    HW128646   4.190   3.614   6.262 -1.6962 -1.8203 -1.7747
 5671SOL    HW228647   4.120   3.685   6.148 -0.0253  0.2792 -0.8969
 5672SOL     OW28648   3.780   1.394   4.479  0.2153 -0.2200 -0.1331
 5672SOL    HW128649   3.697   1.414   4.437  0.4244  3.3647  1.1488
 5672SOL    HW228650   3.826   1.477   4.464  1.6766 -1.1661 -0.8828
 5673SOL     OW28651   2.250   2.073  15.371  0.5799 -0.2157 -0.3966
 5673SOL    HW128652   2.339   2.047  15.393  1.0287  0.8337 -0.9445
 5673SOL    HW228653   2.255   2.169  15.376  1.4277 -0.1371 -2.7959
 5674SOL     OW28654   4.507   1.499   7.876 -0.5316 -0.7181  0.2600
 5674SOL    HW128655   4.450   1.465   7.945  0.3684 -2.1690  0.3000
 5674SOL    HW228656   4.511   1.588   7.911  1.4520 -0.9480  0.6492
 5675SOL     OW28657   4.064   2.212   0.187 -0.2279 -0.0524  0.5508
 5675SOL    HW128658   4.095   2.133   0.231 -2.8219 -1.8564 -0.8352
 5675SOL    HW228659   3.969   2.204   0.202 -0.0802 -2.1263  0.3666
 5676SOL     OW28660   0.115   1.789   8.221  0.0123  0.0100 -0.2952
 5676SOL    HW128661   0.046   1.823   8.277  0.7620 -0.4293  0.9027
 5676SOL    HW228662   0.190   1.845   8.244 -0.0282 -0.6329  1.4464
 5677SOL     OW28663   2.376   2.923   7.591  0.0541  0.0674 -0.0053
 5677SOL    HW128664   2.347   2.891   7.676  0.7248 -0.3531  0.0706
 5677SOL    HW228665   2.297   2.965   7.559 -0.6209 -0.9242  0.3631
 5678SOL     OW28666   3.405   4.212   3.484  0.7718  0.0182 -0.1342
 5678SOL    HW128667   3.330   4.272   3.488 -0.6085 -1.9358  2.8546
 5678SOL    HW228668   3.478   4.263   3.447  2.9886 -1.1760  2.5993
 5679SOL     OW28669   1.126   2.002  15.881  0.2528  0.0752 -0.5437
 5679SOL    HW128670   1.075   1.955  15.947  0.0003  0.9143 -0.1392
 5679SOL    HW228671   1.149   1.937  15.814 -0.6880 -0.6813 -0.1284
 5680SOL     OW28672   2.172   4.225   3.301 -0.0583 -0.0187 -0.6520
 5680SOL    HW128673   2.146   4.159   3.365 -1.3969  1.1446 -0.0135
 5680SOL    HW228674   2.263   4.240   3.327 -0.3095 -3.3015  2.1441
 5681SOL     OW28675   3.055   4.393  10.023  0.5013  0.4316 -0.2144
 5681SOL    HW128676   3.148   4.383  10.045  0.7333  0.7814 -1.0387
 5681SOL    HW228677   3.037   4.463  10.086 -0.0105  1.3683 -1.4129
 5682SOL     OW28678   3.551   4.017   7.502 -0.4563 -0.7274 -0.0638
 5682SOL    HW128679   3.490   4.049   7.569 -0.1982  0.4941 -0.4066
 5682SOL    HW228680   3.635   4.016   7.547 -0.0259  1.3249 -0.7975
 5683SOL     OW28681   1.120   2.712   7.827  0.1347 -0.2892  0.1974
 5683SOL    HW128682   1.081   2.785   7.874  1.7236 -0.7924  2.2610
 5683SOL    HW228683   1.159   2.665   7.900 -0.7428  0.2507  1.0043
 5684SOL     OW28684   1.490   4.447   7.767  0.3138  0.1127  0.3667
 5684SOL    HW128685   1.404   4.424   7.732  1.2532 -1.9150 -0.6333
 5684SOL    HW228686   1.459   4.515   7.827  0.1175 -1.1613  1.7385
 5685SOL     OW28687   2.576   2.796   2.433  0.1610  0.4335 -0.1434
 5685SOL    HW128688   2.561   2.738   2.359  0.9457  0.6077 -0.4429
 5685SOL    HW228689   2.525   2.872   2.407  0.5964  0.1044 -1.9538
 5686SOL     OW28690   1.180   4.628   7.428 -0.0386 -0.0579 -0.5266
 5686SOL    HW128691   1.109   4.686   7.455  0.2606  0.2285 -0.3602
 5686SOL    HW228692   1.252   4.641   7.490 -0.8598  0.9846  0.2021
 5687SOL     OW28693   4.632   2.163   4.622  0.9266 -0.4118  0.5487
 5687SOL    HW128694   4.659   2.211   4.700  1.9912 -1.0327  0.5488
 5687SOL    HW228695   4.688   2.214   4.564  0.4101  0.0084  0.4212
 5688SOL     OW28696   1.702   3.067   8.892 -0.1846  0.4089  0.2938
 5688SOL    HW128697   1.725   3.150   8.934 -0.8903 -0.0629  1.6205
 5688SOL    HW228698   1.764   3.074   8.820 -0.0438  0.3196  0.4054
 5689SOL     OW28699   4.613   0.018   2.353  0.7688 -0.9501 -0.0742
 5689SOL    HW128700   4.521   0.041   2.338  0.3390 -2.6417  0.0228
 5689SOL    HW228701   4.621   4.657   2.354  0.4195 -1.0057 -1.9339
 5690SOL     OW28702   1.421   3.352   4.312 -0.2502 -0.1805  0.1408
 5690SOL    HW128703   1.339   3.351   4.361  0.8613  2.4419  2.0566
 5690SOL    HW228704   1.386   3.364   4.224 -1.6207 -0.6732  0.6261
 5691SOL     OW28705   3.366   1.751  14.149  0.2195  0.6081  0.3882
 5691SOL    HW128706   3.436   1.803  14.189  2.2866 -1.1094 -1.0061
 5691SOL    HW228707   3.410   1.667  14.138 -0.7906  0.1301 -0.0062
 5692SOL     OW28708   3.415   0.776   1.113 -0.0300 -0.0484  0.3601
 5692SOL    HW128709   3.468   0.698   1.095 -0.7333  0.3855 -3.6325
 5692SOL    HW228710   3.332   0.746   1.076  0.6998  0.6530 -1.8407
 5693SOL     OW28711   2.031   0.689  11.813  0.6585 -0.2108 -0.6820
 5693SOL    HW128712   2.031   0.770  11.762 -0.4697  0.2029 -0.0290
 5693SOL    HW228713   2.098   0.692  11.881 -1.8769  0.2657  1.7929
 5694SOL     OW28714   3.304   2.302  16.133  0.2513  0.6590 -0.4152
 5694SOL    HW128715   3.273   2.389  16.106 -0.3518  1.4575  2.7570
 5694SOL    HW228716   3.232   2.278  16.191 -0.3042 -1.9645 -2.2255
 5695SOL     OW28717   2.883   1.418  13.243 -0.0912 -0.2180 -0.3043
 5695SOL    HW128718   2.852   1.458  13.162 -1.4946 -0.3743  0.1574
 5695SOL    HW228719   2.803   1.385  13.283  0.0118  0.7747  0.7095
 5696SOL     OW28720   3.647   2.365   3.707  0.0751  0.4918  0.1726
 5696SOL    HW128721   3.603   2.319   3.779  0.3605  0.7629  0.5185
 5696SOL    HW228722   3.653   2.452   3.746  0.1576  0.2423  0.7065
 5697SOL     OW28723   3.237   2.758  14.778  0.1848 -0.3351 -0.4628
 5697SOL    HW128724   3.264   2.732  14.866  0.2954  1.1695 -0.0513
 5697SOL    HW228725   3.277   2.845  14.778  1.9075 -1.1443  1.2792
 5698SOL     OW28726   4.628   1.402   4.766  0.1192 -0.3699 -0.3573
 5698SOL    HW128727   4.669   1.317   4.783  1.5631  0.4645  0.3879
 5698SOL    HW228728   4.700   1.464   4.753 -0.0309  0.3811  2.4406
 5699SOL     OW28729   4.124   0.947  10.462 -0.6249  0.1067  0.0335
 5699SOL    HW128730   4.178   0.995  10.399  0.9638  1.1455  2.2064
 5699SOL    HW228731   4.195   0.897  10.501 -1.0985 -0.3373  0.3219
 5700SOL     OW28732   1.226   2.672   8.642  0.1334 -0.5867  0.3007
 5700SOL    HW128733   1.234   2.642   8.551  0.2849  0.3145  0.0197
 5700SOL    HW228734   1.137   2.706   8.639  0.0617 -0.8213 -0.3406
 5701SOL     OW28735   0.806   1.182   8.695  0.5754  0.7129 -0.2364
 5701SOL    HW128736   0.729   1.228   8.728  0.6483  1.2805 -0.8451
 5701SOL    HW228737   0.781   1.090   8.688  1.2345  0.6749 -2.0995
 5702SOL     OW28738   1.136   0.732   8.554  0.1321  0.5867  0.6322
 5702SOL    HW128739   1.055   0.692   8.585  1.0081 -1.8528 -0.2579
 5702SOL    HW228740   1.135   0.722   8.459 -1.1010  1.0130  0.5881
 5703SOL     OW28741   1.976   1.175  16.763  0.5331  0.1168 -0.4726
 5703SOL    HW128742   2.044   1.208  16.703 -0.2272 -0.6266 -1.7380
 5703SOL    HW228743   1.913   1.134  16.704 -1.7856  0.7082  1.5929
 5704SOL     OW28744   0.232   1.419   4.306  0.7083  0.2263  0.6591
 5704SOL    HW128745   0.266   1.458   4.225  1.6293  2.1367  1.9420
 5704SOL    HW228746   0.289   1.343   4.306 -2.6874 -2.2969  0.1130
 5705SOL     OW28747   0.033   0.118   2.784  0.1454 -0.1664 -0.0384
 5705SOL    HW128748   0.110   0.151   2.739 -0.1225 -0.4345 -0.7042
 5705SOL    HW228749   0.012   0.188   2.846  0.8499 -2.2039  2.5069
 5706SOL     OW28750   2.094   0.973   6.043 -0.1333  0.3644  0.3397
 5706SOL    HW128751   2.045   1.022   6.110 -0.9845 -1.7190  1.2166
 5706SOL    HW228752   2.049   0.984   5.960  0.0038 -0.7557  0.1225
 5707SOL     OW28753   1.059   3.093  13.176 -0.1305  0.0653 -0.0754
 5707SOL    HW128754   1.135   3.056  13.132  0.0461  0.8895 -0.4669
 5707SOL    HW228755   1.037   3.019  13.232  1.7139  1.4012  2.4034
 5708SOL     OW28756   1.360   3.003   8.496 -0.3915 -0.4371  0.3412
 5708SOL    HW128757   1.383   2.983   8.586 -0.3075  1.0568  0.6434
 5708SOL    HW228758   1.297   3.074   8.502 -0.4969 -0.4161 -0.9036
 5709SOL     OW28759   4.367   1.027   6.937 -0.2619 -0.6820 -0.1052
 5709SOL    HW128760   4.276   1.057   6.939  0.0086  0.2249 -1.7822
 5709SOL    HW228761   4.394   1.027   6.845  1.5073  3.6969  0.4418
 5710SOL     OW28762   1.168   1.771  14.696 -0.0113 -0.1262 -0.4979
 5710SOL    HW128763   1.205   1.818  14.622  0.4847 -0.3935 -0.4176
 5710SOL    HW228764   1.120   1.839  14.743 -0.7568  0.2727 -1.8406
 5711SOL     OW28765   2.383   1.062   8.715 -0.5482 -0.0105  0.0841
 5711SOL    HW128766   2.401   1.103   8.631 -0.3702  0.9666  0.5957
 5711SOL    HW228767   2.472   1.066   8.749 -0.1139 -0.0323 -1.0673
 5712SOL     OW28768   1.916   3.547   4.779 -0.0764 -0.5538 -0.3100
 5712SOL    HW128769   1.883   3.545   4.869  0.9782 -3.5697  0.0194
 5712SOL    HW228770   1.921   3.455   4.753 -1.1128  0.2417 -3.2993
 5713SOL     OW28771   2.185   0.461   8.529  0.4174 -0.0133 -0.1272
 5713SOL    HW128772   2.201   0.548   8.491 -0.8636  0.4890  0.4518
 5713SOL    HW228773   2.199   0.482   8.621  2.2100  0.4656 -0.5207
 5714SOL     OW28774   0.261   4.703  11.669 -0.8761  0.7335  0.1097
 5714SOL    HW128775   0.304   0.044  11.709  0.7142  0.6417 -1.3996
 5714SOL    HW228776   0.335   4.666  11.620  1.1637  0.9336  3.0167
 5715SOL     OW28777   2.397   3.853   5.662 -0.0699  0.0377 -0.6906
 5715SOL    HW128778   2.363   3.819   5.579 -1.8365 -0.8231  0.3817
 5715SOL    HW228779   2.313   3.856   5.707 -0.6999 -1.2680 -1.7727
 5716SOL     OW28780   0.251   2.176   7.066  0.7864 -0.2744 -0.0017
 5716SOL    HW128781   0.292   2.182   6.980 -2.7999 -2.2998 -1.8675
 5716SOL    HW228782   0.166   2.147   7.033  1.1168 -2.5907  1.1058
 5717SOL     OW28783   1.522   0.995   9.514 -0.1337 -0.1262 -0.5139
 5717SOL    HW128784   1.544   1.038   9.596  2.6364 -1.6249 -0.4565
 5717SOL    HW228785   1.610   1.004   9.476 -0.8561 -0.1090 -2.1791
 5718SOL     OW28786   1.928   2.393   0.278 -0.2026 -0.1435 -0.1908
 5718SOL    HW128787   1.858   2.329   0.266  1.4214 -2.2629  1.4894
 5718SOL    HW228788   1.986   2.372   0.205  0.5266 -2.0667  0.9161
 5719SOL     OW28789   0.915   2.544   3.598 -0.4365 -0.5026 -0.2984
 5719SOL    HW128790   0.943   2.466   3.551  0.4060  0.7430 -1.8631
 5719SOL    HW228791   0.845   2.575   3.539 -1.0198  0.4626  0.9029
 5720SOL     OW28792   2.079   3.451   2.119  0.6233 -0.2648  0.6722
 5720SOL    HW128793   2.012   3.451   2.188 -1.1109 -1.6742 -1.0150
 5720SOL    HW228794   2.062   3.378   2.059  0.8456 -0.4987  0.8953
 5721SOL     OW28795   3.788   0.997   6.708 -0.8105  0.1104 -0.4710
 5721SOL    HW128796   3.855   1.063   6.727  3.0042 -3.3364 -1.8619
 5721SOL    HW228797   3.768   1.026   6.619 -0.1308 -1.5741 -1.1871
 5722SOL     OW28798   2.519   3.986  10.173 -0.2682  0.4201 -0.8417
 5722SOL    HW128799   2.602   3.970  10.128 -0.2104 -1.8966  0.0643
 5722SOL    HW228800   2.535   4.067  10.222  1.9550 -0.3518 -0.2419
 5723SOL     OW28801   3.626   4.561   6.392  0.1830 -0.3784 -0.3183
 5723SOL    HW128802   3.695   4.624   6.371  2.1521 -2.5983 -0.4319
 5723SOL    HW228803   3.659   4.472   6.382  1.9952  0.4714 -1.7733
 5724SOL     OW28804   0.813   2.895   2.676  0.1464  0.2444  0.0311
 5724SOL    HW128805   0.896   2.930   2.646  0.7140 -0.4792  0.7693
 5724SOL    HW228806   0.833   2.866   2.765  0.1655  1.6590  0.4913
 5725SOL     OW28807   0.411   4.681   5.121 -0.3693  0.3151  0.1048
 5725SOL    HW128808   0.500   4.681   5.085 -0.8957  1.9502 -1.2222
 5725SOL    HW228809   0.393   4.587   5.125 -0.0242  0.2734  0.6583
 5726SOL     OW28810   0.632   3.165   7.181 -0.4562 -0.1261 -0.2338
 5726SOL    HW128811   0.549   3.132   7.215  0.3449 -2.0515 -0.1882
 5726SOL    HW228812   0.604   3.237   7.125  1.7113  2.8167  2.3843
 5727SOL     OW28813   1.153   1.988   4.842 -0.3178  0.1582  0.0976
 5727SOL    HW128814   1.176   2.012   4.753 -1.8411 -1.8818 -0.8666
 5727SOL    HW228815   1.058   1.978   4.833 -0.6236  1.6352  1.6190
 5728SOL     OW28816   0.097   1.112   4.081 -0.2645 -0.3643 -0.3757
 5728SOL    HW128817   0.044   1.169   4.137 -0.7041 -0.8371 -0.3119
 5728SOL    HW228818   0.087   1.149   3.994  1.8848 -0.2208 -0.5805
 5729SOL     OW28819   3.402   3.478   8.620  0.2349 -0.0321 -0.0585
 5729SOL    HW128820   3.419   3.441   8.533 -0.3989 -1.2827  0.3511
 5729SOL    HW228821   3.318   3.433   8.629  0.7692 -0.7479  1.2511
 5730SOL     OW28822   3.855   0.217   5.357 -0.3433 -0.6351 -0.2818
 5730SOL    HW128823   3.929   0.184   5.306  0.0306  1.2158 -0.9389
 5730SOL    HW228824   3.832   0.296   5.308  0.4617 -1.0825 -1.3821
 5731SOL     OW28825   1.251   1.305   9.092  0.0721 -0.6075 -0.2017
 5731SOL    HW128826   1.308   1.281   9.165  2.9265  1.5174 -1.7497
 5731SOL    HW228827   1.254   1.400   9.100  0.8694 -0.8249  2.1446
 5732SOL     OW28828   0.285   0.504  11.454 -0.4721 -0.1132 -0.2210
 5732SOL    HW128829   0.341   0.504  11.531 -0.6291  1.7791 -0.1038
 5732SOL    HW228830   0.241   0.419  11.453 -0.8468  0.0671  3.0651
 5733SOL     OW28831   2.810   1.090   5.500  0.3573  0.4880 -0.0756
 5733SOL    HW128832   2.820   1.002   5.535  0.4203  0.4256 -0.2497
 5733SOL    HW228833   2.792   1.132   5.584 -1.8944  1.0300 -0.8398
 5734SOL     OW28834   2.112   2.664   2.345  0.3838  0.1370  0.2277
 5734SOL    HW128835   2.078   2.747   2.311 -0.6794 -0.7074 -0.7832
 5734SOL    HW228836   2.075   2.664   2.434 -2.5677 -1.0998 -0.9934
 5735SOL     OW28837   1.310   0.320   9.896 -0.1373  0.2222 -0.0464
 5735SOL    HW128838   1.311   0.353   9.806 -1.3766  0.3995  0.0115
 5735SOL    HW228839   1.278   0.396   9.945  1.3777  0.1480  1.0781
 5736SOL     OW28840   1.908   3.884   4.281  0.0312 -0.0439 -0.3666
 5736SOL    HW128841   1.883   3.802   4.325 -0.9590  0.0086 -0.8200
 5736SOL    HW228842   1.961   3.931   4.345 -1.3760 -0.1192  0.8756
 5737SOL     OW28843   0.297   2.953   6.132 -0.0722 -0.1973 -0.6168
 5737SOL    HW128844   0.311   3.042   6.165 -0.6544 -0.4924  0.4013
 5737SOL    HW228845   0.360   2.951   6.060 -0.6972  1.4155 -1.1967
 5738SOL     OW28846   0.306   0.272   6.082 -0.1541 -0.4137  0.2804
 5738SOL    HW128847   0.324   0.346   6.024  1.8085 -0.8148  0.3664
 5738SOL    HW228848   0.237   0.310   6.136 -0.5560 -1.3654  0.4254
 5739SOL     OW28849   2.965   0.416   7.963 -0.0697  0.1528 -0.0026
 5739SOL    HW128850   2.872   0.417   7.937 -0.2618 -2.1154  0.6087
 5739SOL    HW228851   2.975   0.505   7.927  0.5321 -0.2128 -0.7476
 5740SOL     OW28852   1.737   3.260   0.959 -0.5105 -0.1390  0.5190
 5740SOL    HW128853   1.789   3.180   0.964 -0.3367 -0.1298 -1.0704
 5740SOL    HW228854   1.764   3.299   0.876  0.5163  1.9829  1.8379
 5741SOL     OW28855   1.491   0.849   4.288  0.2478 -0.2074 -0.3744
 5741SOL    HW128856   1.523   0.924   4.339 -1.0193  0.3066 -0.3585
 5741SOL    HW228857   1.541   0.774   4.322  0.3897  1.6365  3.4503
 5742SOL     OW28858   2.425   4.510   2.067 -1.5345 -0.5582  0.7030
 5742SOL    HW128859   2.347   4.560   2.040 -1.6102 -1.0683 -0.0202
 5742SOL    HW228860   2.462   4.554   2.143 -0.1061 -1.0277  0.2793
 5743SOL     OW28861   4.530   2.406   3.072  0.5044 -0.1972  0.0672
 5743SOL    HW128862   4.453   2.361   3.107  0.5234  1.3340  2.0770
 5743SOL    HW228863   4.511   2.420   2.979  0.6536  0.9174  0.2013
 5744SOL     OW28864   0.007   2.528   6.694  0.7276  0.1990  0.6348
 5744SOL    HW128865   0.047   2.615   6.697 -0.0932  0.5487  1.6257
 5744SOL    HW228866   0.077   2.470   6.722  0.1117 -0.6653  0.3709
 5745SOL     OW28867   2.997   2.754   8.969 -0.0937 -0.3333  0.0859
 5745SOL    HW128868   2.960   2.671   8.998 -1.0912 -0.1158 -0.5631
 5745SOL    HW228869   2.952   2.824   9.015  0.1650 -1.6059  2.2877
 5746SOL     OW28870   4.699   1.455   6.048 -0.0467 -0.2503 -0.2594
 5746SOL    HW128871   4.674   1.467   6.140  1.7905  1.2580  0.0405
 5746SOL    HW228872   0.057   1.482   6.054 -0.6867  1.7159  0.7930
 5747SOL     OW28873   1.334   1.369   9.563 -0.0437  0.3405  0.0628
 5747SOL    HW128874   1.277   1.428   9.515  0.3325  0.5055 -0.1810
 5747SOL    HW228875   1.283   1.359   9.643  0.6869  1.2943  0.6529
 5748SOL     OW28876   2.623   2.019   2.711  0.1264  0.1047  0.3134
 5748SOL    HW128877   2.532   1.994   2.695  0.0738  2.5677 -3.1215
 5748SOL    HW228878   2.636   1.950   2.777 -0.8563  0.1227  0.5242
 5749SOL     OW28879   3.823   1.216   2.021 -0.0283  0.6746  0.0124
 5749SOL    HW128880   3.768   1.263   2.083 -2.2324 -0.1623 -1.3419
 5749SOL    HW228881   3.794   1.125   2.021 -0.6838  0.8892  0.0734
 5750SOL     OW28882   4.551   4.610   8.933 -0.4785 -0.4071  0.3117
 5750SOL    HW128883   4.495   4.685   8.957  0.5760 -0.1004  1.8376
 5750SOL    HW228884   4.634   4.652   8.912  0.4309 -1.4370  1.8230
 5751SOL     OW28885   2.936   3.392   3.061 -0.2751  0.1364 -0.0756
 5751SOL    HW128886   2.856   3.437   3.034 -0.2981 -0.4172 -0.9288
 5751SOL    HW228887   2.920   3.305   3.026 -1.1176  0.1269  0.3443
 5752SOL     OW28888   1.345   3.877   7.080 -0.3140 -0.2684  0.2688
 5752SOL    HW128889   1.305   3.819   7.146  2.2900 -0.7808  1.4124
 5752SOL    HW228890   1.359   3.961   7.124 -0.1392 -0.2837  0.2434
 5753SOL     OW28891   3.656   3.610   7.651  0.5002  0.8009 -0.5161
 5753SOL    HW128892   3.704   3.532   7.678 -0.6237  0.5123  0.6539
 5753SOL    HW228893   3.619   3.584   7.566 -1.0812  0.4089  0.2817
 5754SOL     OW28894   4.013   4.025   5.072 -0.2813 -0.3766 -0.2014
 5754SOL    HW128895   3.982   3.937   5.050 -1.5947  0.1797 -0.5910
 5754SOL    HW228896   4.099   3.993   5.100 -0.9161 -2.4720 -0.6494
 5755SOL     OW28897   1.585   1.744   0.105 -0.3575  0.0491 -0.5712
 5755SOL    HW128898   1.572   1.831   0.143  1.1812  0.2945 -0.6023
 5755SOL    HW228899   1.542   1.754   0.019  1.5615 -0.7010 -1.6200
 5756SOL     OW28900   2.869   3.230   7.341  0.0572  0.2922 -0.1938
 5756SOL    HW128901   2.915   3.299   7.388  0.8293 -0.5681  0.2978
 5756SOL    HW228902   2.861   3.167   7.413 -0.7515  1.8348  1.0779
 5757SOL     OW28903   1.295   3.314   6.377  0.2262  0.3522  0.0735
 5757SOL    HW128904   1.267   3.374   6.447 -0.1810  0.0020  0.2068
 5757SOL    HW228905   1.295   3.379   6.307  0.5275 -0.2709 -0.5049
 5758SOL     OW28906   0.301   3.812   7.518  0.4083  0.4950 -0.5118
 5758SOL    HW128907   0.227   3.850   7.469 -1.7080  0.9477  3.0681
 5758SOL    HW228908   0.254   3.787   7.597 -0.8502 -0.5000 -1.5758
 5759SOL     OW28909   3.878   0.758   0.361  0.3621  0.3951  0.5201
 5759SOL    HW128910   3.928   0.794   0.289  0.3173  3.1046  1.8556
 5759SOL    HW228911   3.832   0.689   0.312  0.9479  1.2385 -1.2014
 5760SOL     OW28912   3.108   0.814   9.551 -0.0398  0.1082 -0.1641
 5760SOL    HW128913   3.084   0.823   9.459 -1.6297  1.0655  0.3413
 5760SOL    HW228914   3.048   0.872   9.598  0.9760 -0.2330  1.5541
 5761SOL     OW28915   3.967   3.549   7.813 -0.1565  0.4464 -0.0844
 5761SOL    HW128916   3.935   3.546   7.723 -1.6683  0.5496  0.4420
 5761SOL    HW228917   4.060   3.538   7.795  0.3068  2.9832  0.7895
 5762SOL     OW28918   4.314   0.085   2.622 -0.1997  0.6642  0.5627
 5762SOL    HW128919   4.403   0.057   2.645 -0.1237  0.3177 -0.1341
 5762SOL    HW228920   4.265   0.048   2.695 -0.5812 -0.6562 -0.3540
 5763SOL     OW28921   1.463   2.613  13.118 -0.2672  0.1368  0.2916
 5763SOL    HW128922   1.505   2.595  13.034 -0.0759 -1.6194  0.7568
 5763SOL    HW228923   1.525   2.675  13.157  1.8923 -1.6058 -0.3616
 5764SOL     OW28924   1.280   0.769   5.282  0.0133  0.3635  0.3723
 5764SOL    HW128925   1.301   0.676   5.279  1.0280  0.6124 -0.1602
 5764SOL    HW228926   1.242   0.781   5.194  3.0104  0.2281 -0.9280
 5765SOL     OW28927   3.309   3.179   3.957  0.0234 -0.2332 -0.6444
 5765SOL    HW128928   3.345   3.101   3.916  0.6059 -1.0753  1.4866
 5765SOL    HW228929   3.285   3.152   4.046  1.1328 -1.6481 -0.7930
 5766SOL     OW28930   2.105   1.687   7.575  0.1746 -0.1508  0.0578
 5766SOL    HW128931   2.195   1.656   7.578 -0.4130 -2.1119 -2.2407
 5766SOL    HW228932   2.082   1.713   7.664  2.7102  0.2118  0.6062
 5767SOL     OW28933   0.519   2.326   3.119 -0.2026 -0.0898 -0.6289
 5767SOL    HW128934   0.494   2.416   3.099 -1.5879 -0.5827 -1.1094
 5767SOL    HW228935   0.529   2.320   3.214 -1.5777 -2.4566 -0.6452
 5768SOL     OW28936   0.165   3.157   6.529 -0.0341  0.3748 -0.6289
 5768SOL    HW128937   0.192   3.220   6.595  0.9083 -0.5380 -0.1473
 5768SOL    HW228938   0.075   3.141   6.557  0.8300  0.8984  2.4562
 5769SOL     OW28939   2.839   4.590  11.272  0.5180 -0.6424  0.5420
 5769SOL    HW128940   2.811   4.544  11.351 -1.0298  1.7712  1.4114
 5769SOL    HW228941   2.866   4.674  11.308  0.0441 -0.5628  0.7087
 5770SOL     OW28942   3.845   1.570   4.857 -0.1548  0.1667 -0.4629
 5770SOL    HW128943   3.881   1.532   4.937  0.3688 -0.4890 -1.0126
 5770SOL    HW228944   3.925   1.611   4.826 -0.7108  0.5856 -1.3649
 5771SOL     OW28945   0.003   4.574  12.073  0.1083 -0.7871  0.2295
 5771SOL    HW128946   4.661   4.538  12.029 -0.2929  0.9234 -0.4835
 5771SOL    HW228947   4.721   4.667  12.054  0.1117 -0.4040  2.1051
 5772SOL     OW28948   0.738   3.639   3.219  0.1151 -0.0572  0.1817
 5772SOL    HW128949   0.728   3.696   3.143  0.8412  1.4834  1.2244
 5772SOL    HW228950   0.788   3.697   3.278 -0.0515  0.6430 -0.3682
 5773SOL     OW28951   3.132   0.966  17.723 -0.5691 -0.4462 -0.5662
 5773SOL    HW128952   3.066   1.020  17.681 -0.7625  1.7392  2.4906
 5773SOL    HW228953   3.091   0.964   0.073  0.4091  0.3512 -0.0844
 5774SOL     OW28954   2.416   3.830   8.854  0.1154 -0.2909  0.1125
 5774SOL    HW128955   2.466   3.901   8.896 -0.6952 -0.2269  0.9578
 5774SOL    HW228956   2.440   3.823   8.762  0.6715  0.2294  0.2128
 5775SOL     OW28957   0.809   4.727  10.350  0.0414  0.1701  0.5498
 5775SOL    HW128958   0.863   4.710  10.273 -0.7287  0.9371 -0.1591
 5775SOL    HW228959   0.746   0.058  10.319 -1.0404 -0.7627  0.8147
 5776SOL     OW28960   2.434   4.429   6.541 -0.3744  0.0330 -0.2381
 5776SOL    HW128961   2.361   4.370   6.522 -0.1035 -0.2949 -0.2603
 5776SOL    HW228962   2.507   4.370   6.559  0.9463  2.3049  1.8526
 5777SOL     OW28963   3.884   2.443   4.931 -0.5177 -0.3894  0.0292
 5777SOL    HW128964   3.975   2.439   4.960  0.2524  0.0037 -2.3009
 5777SOL    HW228965   3.825   2.450   5.007  0.1281 -0.3971  0.5267
 5778SOL     OW28966   3.922   3.031   7.279 -0.3291  0.6419  0.1000
 5778SOL    HW128967   3.994   3.018   7.217 -0.3977  1.6926 -0.1934
 5778SOL    HW228968   3.852   3.000   7.221 -0.5867  0.1103  0.6872
 5779SOL     OW28969   2.697   3.546   4.183 -0.4372  0.1370  0.2659
 5779SOL    HW128970   2.755   3.499   4.123 -2.5262 -0.2843 -1.4453
 5779SOL    HW228971   2.627   3.582   4.128  1.0377 -1.8747 -2.9715
 5780SOL     OW28972   2.174   2.912  13.517  0.7911 -0.1056  0.0711
 5780SOL    HW128973   2.160   2.955  13.432  0.4005 -1.1721 -0.3995
 5780SOL    HW228974   2.252   2.858  13.503  0.2843 -0.2814 -2.0863
 5781SOL     OW28975   0.684   0.084   5.068 -0.4814 -0.5936  0.0519
 5781SOL    HW128976   0.740   0.152   5.030  1.0390 -1.2808  1.0649
 5781SOL    HW228977   0.659   0.131   5.148 -1.5978 -0.8156 -0.1762
 5782SOL     OW28978   0.841   0.362   4.621 -0.3191 -0.5282  0.3697
 5782SOL    HW128979   0.876   0.405   4.543  0.5426 -0.7432  0.6483
 5782SOL    HW228980   0.916   0.367   4.679 -1.0569 -0.7376  1.3449
 5783SOL     OW28981   2.591   2.629  12.452 -0.2036 -0.2139 -0.0160
 5783SOL    HW128982   2.589   2.675  12.536 -0.9385 -1.6118  0.7380
 5783SOL    HW228983   2.683   2.610  12.430  0.4872  1.0784  1.7407
 5784SOL     OW28984   3.641   3.993  15.475 -0.5519  0.6413  0.6837
 5784SOL    HW128985   3.565   3.938  15.495 -0.2645  0.0238  0.0724
 5784SOL    HW228986   3.603   4.039  15.400  4.0144 -0.6487 -2.4364
 5785SOL     OW28987   4.227   4.381   5.734  0.3389 -0.3176  0.4185
 5785SOL    HW128988   4.140   4.388   5.695 -0.4760 -3.2514  1.7619
 5785SOL    HW228989   4.238   4.469   5.770 -1.3190  0.1077 -0.1315
 5786SOL     OW28990   1.155   3.850  15.727 -0.8620 -0.3330  0.1011
 5786SOL    HW128991   1.113   3.764  15.734  1.4859 -1.4089  1.1053
 5786SOL    HW228992   1.097   3.891  15.663  0.5073 -0.2401 -1.0772
 5787SOL     OW28993   0.610   0.870  10.285 -0.0161  0.4794 -0.4923
 5787SOL    HW128994   0.684   0.828  10.242  0.1090 -1.0979  1.2205
 5787SOL    HW228995   0.600   0.797  10.347 -1.0897 -0.5523 -1.8624
 5788SOL     OW28996   2.043   0.843   5.108 -0.3727 -0.1272 -0.0871
 5788SOL    HW128997   2.040   0.850   5.012  0.7636 -0.2510 -0.1308
 5788SOL    HW228998   1.954   0.817   5.130 -0.0751 -1.1144 -0.0369
 5789SOL     OW28999   4.034   2.105   4.553  0.2226 -0.0194 -0.0689
 5789SOL    HW129000   3.961   2.105   4.491  0.1463  0.7323  0.0233
 5789SOL    HW229001   4.040   2.199   4.568 -1.6596  0.5018 -2.5772
 5790SOL     OW29002   3.402   1.884   6.971 -0.0638 -0.0426  0.0878
 5790SOL    HW129003   3.310   1.909   6.961 -0.2967 -1.2358 -0.8277
 5790SOL    HW229004   3.434   1.942   6.902 -0.4193 -0.2934 -0.2938
 5791SOL     OW29005   4.079   2.806   8.132  0.5726 -0.2491  0.3457
 5791SOL    HW129006   4.153   2.748   8.114 -0.9864 -1.6942 -1.3729
 5791SOL    HW229007   4.109   2.834   8.219  0.2710  0.7755  0.1228
 5792SOL     OW29008   4.654   3.949   3.167  0.1828  0.6684 -0.0900
 5792SOL    HW129009   4.593   3.877   3.150  0.4941  0.5553 -0.7534
 5792SOL    HW229010   4.663   3.928   3.260  0.9046  2.0709  0.1481
 5793SOL     OW29011   3.935   0.651   6.626 -0.0985 -0.0425 -0.4080
 5793SOL    HW129012   4.005   0.597   6.588 -0.4747  0.1116 -1.3207
 5793SOL    HW229013   3.867   0.585   6.613  0.5018 -1.0930  1.7710
 5794SOL     OW29014   4.001   2.868  12.122  0.2462  0.2712  0.2528
 5794SOL    HW129015   3.947   2.897  12.195 -1.4253  1.2635 -1.3769
 5794SOL    HW229016   4.087   2.908  12.134  0.8335 -1.0705  0.5449
 5795SOL     OW29017   0.451   1.240   4.326 -0.2519  0.5219  0.1440
 5795SOL    HW129018   0.434   1.190   4.407  0.6616  0.3949  0.2603
 5795SOL    HW229019   0.449   1.168   4.263 -1.5529 -0.2305  1.0390
 5796SOL     OW29020   1.996   4.283  10.455  0.3623  0.8068  0.3703
 5796SOL    HW129021   1.902   4.283  10.439  0.3557  2.1677  0.4373
 5796SOL    HW229022   2.004   4.231  10.534 -1.1369  2.5113  1.6254
 5797SOL     OW29023   1.875   2.755   4.540  0.0883  0.2993 -0.0542
 5797SOL    HW129024   1.901   2.829   4.486 -1.3817 -0.9455 -2.4805
 5797SOL    HW229025   1.948   2.740   4.600  1.0324 -0.4994 -1.4271
 5798SOL     OW29026   2.887   3.683   5.448 -0.2787 -0.0498  0.3166
 5798SOL    HW129027   2.869   3.740   5.374  0.2793  0.7239  0.7720
 5798SOL    HW229028   2.951   3.632   5.399  2.2877  2.4923  0.9870
 5799SOL     OW29029   2.781   1.035   6.515  0.0535 -0.0772  0.4649
 5799SOL    HW129030   2.769   0.972   6.585 -2.2226  0.4851  0.5697
 5799SOL    HW229031   2.798   0.978   6.440 -2.3424  0.8469 -0.7771
 5800SOL     OW29032   0.022   3.483   8.320  0.2519 -0.1954  0.6909
 5800SOL    HW129033   0.073   3.406   8.292  0.4388  0.4588 -0.7789
 5800SOL    HW229034   4.674   3.479   8.271  0.2972  0.7312  0.5449
 5801SOL     OW29035   4.159   2.032   5.228 -0.5888 -0.1606 -0.2853
 5801SOL    HW129036   4.234   2.010   5.171 -0.2380  3.3272 -1.1441
 5801SOL    HW229037   4.114   1.948   5.229  1.8603 -1.4314  2.5585
 5802SOL     OW29038   4.105   0.614   2.517  0.7187  0.4321  0.1852
 5802SOL    HW129039   4.117   0.577   2.429  1.4523 -0.5096  0.6734
 5802SOL    HW229040   4.178   0.676   2.521  0.9137  0.0920  2.0650
 5803SOL     OW29041   4.316   3.057  15.360 -0.3256 -0.2892 -0.2086
 5803SOL    HW129042   4.253   3.057  15.432  1.7476  1.6795  1.6138
 5803SOL    HW229043   4.381   3.007  15.409 -0.6799 -0.2081  0.3541
 5804SOL     OW29044   4.375   1.301   8.506  0.4877  0.2913  0.5190
 5804SOL    HW129045   4.406   1.385   8.473 -2.1410 -0.0752 -2.8668
 5804SOL    HW229046   4.458   1.257   8.523 -0.3246 -1.5095 -0.1141
 5805SOL     OW29047   4.364   1.700   3.898  0.9294  0.2592 -0.4304
 5805SOL    HW129048   4.359   1.743   3.984 -2.3452 -1.2030  0.1520
 5805SOL    HW229049   4.458   1.685   3.896  1.1370  1.5318 -0.5917
 5806SOL     OW29050   3.336   0.113   8.732  0.2639 -0.2840 -0.2891
 5806SOL    HW129051   3.271   0.120   8.662 -0.7349 -1.1684  0.5573
 5806SOL    HW229052   3.310   0.030   8.772  0.1940 -0.7212 -1.2387
 5807SOL     OW29053   0.264   2.819   1.819 -0.5413  0.3298 -0.3779
 5807SOL    HW129054   0.305   2.766   1.751 -2.1874 -0.4152 -0.7821
 5807SOL    HW229055   0.300   2.905   1.798  2.1438 -0.3422  1.5726
 5808SOL     OW29056   1.624   0.704   9.450  0.1118  0.5829  0.4507
 5808SOL    HW129057   1.642   0.610   9.460 -0.0674  0.3583 -1.4729
 5808SOL    HW229058   1.561   0.710   9.522  2.3361  0.6765  2.4158
 5809SOL     OW29059   1.305   0.172   4.005 -0.4927 -0.1877 -0.3812
 5809SOL    HW129060   1.370   0.242   4.006 -0.2202 -0.4429 -0.0060
 5809SOL    HW229061   1.311   0.159   3.910  0.4488 -0.4355 -0.2973
 5810SOL     OW29062   0.022   1.454   9.206  0.2104  0.1636 -0.1851
 5810SOL    HW129063   0.068   1.479   9.126  1.5654  1.8714  1.1291
 5810SOL    HW229064   0.054   1.504   9.281  0.0399 -0.3563  0.2297
 5811SOL     OW29065   3.955   2.040   1.686 -0.2539 -0.6594 -0.7566
 5811SOL    HW129066   3.963   1.962   1.741 -0.6132 -1.4209 -1.7892
 5811SOL    HW229067   3.896   2.089   1.743  1.3073 -0.4631  0.7161
 5812SOL     OW29068   1.258   2.981  11.873 -0.0247  0.1256 -0.3761
 5812SOL    HW129069   1.244   2.975  11.967  0.9219 -0.6429 -0.2852
 5812SOL    HW229070   1.332   2.921  11.860  0.2455  0.6576 -1.3005
 5813SOL     OW29071   4.425   4.283   5.337 -0.3006  0.3619 -0.0655
 5813SOL    HW129072   4.422   4.309   5.430 -1.7545  0.3198 -0.0994
 5813SOL    HW229073   4.401   4.191   5.342 -1.1491  0.4802 -2.0173
 5814SOL     OW29074   3.047   0.322   5.020 -0.5964 -0.2800 -0.1568
 5814SOL    HW129075   3.070   0.320   5.113 -0.7344 -0.7473 -0.1293
 5814SOL    HW229076   3.069   0.232   4.995  0.0977  0.1926 -1.2258
 5815SOL     OW29077   3.540   0.975   8.265 -0.0773 -0.1651 -0.0820
 5815SOL    HW129078   3.584   0.901   8.223 -0.4566  0.5486 -1.7343
 5815SOL    HW229079   3.558   0.969   8.358  0.8898 -2.5239 -0.4290
 5816SOL     OW29080   4.503   2.975   0.090 -0.0017 -0.4461 -0.1151
 5816SOL    HW129081   4.454   3.046   0.131  1.9653  0.2605  0.9953
 5816SOL    HW229082   4.447   2.904   0.122 -1.5810 -0.7120 -3.4121
 5817SOL     OW29083   2.565   2.786   5.608 -0.0499  0.1829  0.3853
 5817SOL    HW129084   2.543   2.804   5.517  0.2349  1.1616  0.5089
 5817SOL    HW229085   2.521   2.702   5.621  0.0531  0.1401  0.4594
 5818SOL     OW29086   1.797   0.835  11.935  0.1909  0.2671  0.0366
 5818SOL    HW129087   1.841   0.750  11.941 -0.4920 -0.1717 -1.0874
 5818SOL    HW229088   1.740   0.829  11.858 -1.0182 -0.8964  1.0145
 5819SOL     OW29089   3.632   1.618  12.779  0.3322  0.1720  0.3050
 5819SOL    HW129090   3.670   1.705  12.764  0.5185 -0.0513 -0.5605
 5819SOL    HW229091   3.701   1.580  12.833 -0.0453 -1.0741 -0.0830
 5820SOL     OW29092   3.244   1.609   9.849  0.7458 -0.0741 -0.1545
 5820SOL    HW129093   3.268   1.561   9.929  0.7974 -0.6288 -0.5069
 5820SOL    HW229094   3.158   1.640   9.878  1.1244  0.8454  0.0113
 5821SOL     OW29095   1.180   1.969   7.354 -0.3995 -0.4663  0.6530
 5821SOL    HW129096   1.103   2.013   7.391  1.0492  1.6259  1.1886
 5821SOL    HW229097   1.148   1.932   7.271 -0.5016  0.4553  0.2744
 5822SOL     OW29098   2.369   4.285  16.356  0.2767 -0.2402 -0.0311
 5822SOL    HW129099   2.346   4.340  16.431 -0.8652  1.0950 -1.3591
 5822SOL    HW229100   2.416   4.212  16.396  1.8124  0.1410 -1.1224
 5823SOL     OW29101   1.853   2.171   3.359 -0.3634 -0.0078  0.0271
 5823SOL    HW129102   1.875   2.078   3.367 -1.4529 -0.3335 -0.8341
 5823SOL    HW229103   1.938   2.210   3.381 -0.1155 -0.4376 -0.1779
 5824SOL     OW29104   2.048   4.623   4.034 -0.0426  0.2314 -0.4845
 5824SOL    HW129105   1.995   4.559   3.986  0.7067 -1.8453  1.4438
 5824SOL    HW229106   2.008   4.628   4.120 -0.5964 -2.9007 -0.5614
 5825SOL     OW29107   0.545   2.038   7.861  0.1101  0.5469 -0.1687
 5825SOL    HW129108   0.596   2.099   7.808  1.2892 -0.3627 -0.0870
 5825SOL    HW229109   0.548   1.963   7.801 -2.8420 -0.6511  1.2058
 5826SOL     OW29110   0.946   2.054   7.464 -0.1398 -0.2337 -0.2233
 5826SOL    HW129111   0.938   2.141   7.503 -0.3354 -0.0823 -0.6053
 5826SOL    HW229112   0.864   2.051   7.415 -1.6613  4.1077  2.0725
 5827SOL     OW29113   2.575   3.621  14.716 -0.6162 -0.1796 -0.4761
 5827SOL    HW129114   2.622   3.704  14.715  0.3813 -0.7411 -2.5137
 5827SOL    HW229115   2.549   3.611  14.807  0.9174  0.1125 -0.0102
 5828SOL     OW29116   0.273   0.819   4.408 -0.3725 -0.6426 -0.3139
 5828SOL    HW129117   0.204   0.846   4.347  1.1098  0.2217 -1.6158
 5828SOL    HW229118   0.285   0.899   4.459 -2.3620  0.1560 -1.0774
 5829SOL     OW29119   0.594   2.525   8.712  0.0226 -0.1865  0.1556
 5829SOL    HW129120   0.603   2.557   8.802  2.1890 -2.2097  0.6505
 5829SOL    HW229121   0.569   2.610   8.677 -0.8048 -0.8733 -0.9289
 5830SOL     OW29122   3.217   1.172   6.727  0.2568  0.4843  0.6367
 5830SOL    HW129123   3.180   1.108   6.666 -2.5432  2.2811  0.4745
 5830SOL    HW229124   3.306   1.176   6.691 -0.3355 -0.4658 -0.8976
 5831SOL     OW29125   1.694   3.367  12.605 -0.1252 -0.0568 -0.3671
 5831SOL    HW129126   1.784   3.347  12.628 -0.1127 -1.1604 -1.3676
 5831SOL    HW229127   1.685   3.450  12.651 -0.3561  0.5097 -1.4314
 5832SOL     OW29128   0.847   4.085   2.784 -0.3431  0.2341  0.1700
 5832SOL    HW129129   0.929   4.123   2.815 -1.6173  2.7006  0.4804
 5832SOL    HW229130   0.881   4.009   2.737 -2.6945 -0.6861 -0.0778
 5833SOL     OW29131   2.167   1.283   8.338 -0.0681 -0.0978  0.4689
 5833SOL    HW129132   2.173   1.260   8.246 -0.4985  1.6266  0.0262
 5833SOL    HW229133   2.093   1.342   8.324  0.1941  0.3736  1.0708
 5834SOL     OW29134   2.673   3.957   7.548  0.0655 -0.6826 -0.4979
 5834SOL    HW129135   2.714   4.037   7.581 -2.0879  0.1128  0.2163
 5834SOL    HW229136   2.627   3.990   7.471 -0.7947 -1.0873 -0.1603
 5835SOL     OW29137   0.645   2.800   4.340  0.2754 -0.2467 -0.6566
 5835SOL    HW129138   0.611   2.845   4.262 -1.2369 -0.1706  0.0427
 5835SOL    HW229139   0.681   2.718   4.306  0.3601 -0.8157  0.8357
 5836SOL     OW29140   1.533   3.108   5.136  0.1207  0.2770  0.0990
 5836SOL    HW129141   1.445   3.147   5.133  0.6286  1.2043 -2.9041
 5836SOL    HW229142   1.572   3.171   5.197 -1.3995  1.1757  0.1568
 5837SOL     OW29143   1.402   2.518   0.450  0.2066 -0.0593  0.3569
 5837SOL    HW129144   1.427   2.542   0.361  3.0915 -0.0799  1.1516
 5837SOL    HW229145   1.488   2.483   0.474  0.4044  1.6289  2.0999
 5838SOL     OW29146   1.622   3.294  17.610 -0.1340  0.2463 -0.1016
 5838SOL    HW129147   1.566   3.220  17.587 -0.5310  0.1358  1.2422
 5838SOL    HW229148   1.572   3.364  17.568 -0.4502 -0.7206 -1.3547
 5839SOL     OW29149   0.178   0.048   8.203 -0.7924 -0.2844  0.1966
 5839SOL    HW129150   0.198   0.075   8.114  1.6960 -1.7238  0.3053
 5839SOL    HW229151   0.156   4.692   8.180 -0.2815 -0.8319  1.7942
 5840SOL     OW29152   4.479   2.554   0.058 -0.1810  0.0958  0.2637
 5840SOL    HW129153   4.398   2.504   0.065 -0.7506  1.1099  0.9779
 5840SOL    HW229154   4.475   2.581  17.703 -0.1233 -0.4047  0.1125
 5841SOL     OW29155   2.421   3.747   9.655  0.2514 -0.0463 -0.0118
 5841SOL    HW129156   2.479   3.820   9.632 -0.7512  0.1745 -1.8808
 5841SOL    HW229157   2.337   3.792   9.648 -0.0712 -0.6614 -0.0736
 5842SOL     OW29158   2.819   2.524   8.184  0.0609 -0.2146 -0.0552
 5842SOL    HW129159   2.881   2.593   8.209  0.5461 -1.1872  1.3693
 5842SOL    HW229160   2.778   2.556   8.104  0.3567 -0.8154 -0.4443
 5843SOL     OW29161   0.647   0.068   2.744  0.0083 -0.3752 -0.3603
 5843SOL    HW129162   0.682   0.073   2.833  0.1649 -1.7059 -0.3484
 5843SOL    HW229163   0.732   0.074   2.699 -0.1614 -0.3783 -0.6762
 5844SOL     OW29164   1.619   4.685  17.583  0.4381 -0.2548  0.2520
 5844SOL    HW129165   1.696   0.002  17.608 -1.3786  3.3478 -1.5733
 5844SOL    HW229166   1.561   0.004  17.529  1.3782  0.5835  0.0692
 5845SOL     OW29167   1.781   2.827   7.494 -0.0327 -0.0482 -0.0379
 5845SOL    HW129168   1.853   2.890   7.484  1.7885 -2.5030 -2.3132
 5845SOL    HW229169   1.810   2.759   7.433  0.9879  1.4259 -1.2164
 5846SOL     OW29170   0.699   1.461   8.215 -0.4674  0.0095 -0.1566
 5846SOL    HW129171   0.701   1.414   8.298  0.0878 -0.4820 -0.4526
 5846SOL    HW229172   0.605   1.458   8.196 -0.1783 -0.9785 -1.4434
 5847SOL     OW29173   3.011   2.037   5.721 -0.2665  0.7073 -0.0602
 5847SOL    HW129174   3.054   1.953   5.707  0.6133  1.3137 -0.9494
 5847SOL    HW229175   2.939   2.005   5.775  0.2174 -0.8993 -0.3468
 5848SOL     OW29176   0.018   3.764   1.047 -0.6664 -0.8215 -0.1731
 5848SOL    HW129177   4.675   3.807   1.011  0.5655  2.9200  1.7288
 5848SOL    HW229178   0.088   3.821   1.013  0.7912 -1.3947  1.8408
 5849SOL     OW29179   3.165   1.459  11.531  0.4846  0.1864  0.0775
 5849SOL    HW129180   3.122   1.505  11.603 -0.5298  0.2114 -0.5442
 5849SOL    HW229181   3.238   1.520  11.522  2.4934 -2.1053  0.7536
 5850SOL     OW29182   2.054   2.321   0.020  0.8167  0.2013  0.3210
 5850SOL    HW129183   2.083   2.230   0.030  0.3930 -0.0338 -0.5652
 5850SOL    HW229184   2.138   2.362   0.003  0.9986  0.4904  1.9034
 5851SOL     OW29185   2.412   0.818  10.865 -0.1924  0.2846  0.3015
 5851SOL    HW129186   2.382   0.871  10.791  0.1356 -0.2736 -0.2263
 5851SOL    HW229187   2.370   0.733  10.850  0.2236  0.1596 -0.1335
 5852SOL     OW29188   1.851   4.421   8.906 -0.1941  0.2531 -0.5296
 5852SOL    HW129189   1.927   4.418   8.848  2.0986 -0.7909  2.4959
 5852SOL    HW229190   1.792   4.483   8.863 -1.2248  0.2045  0.8125
 5853SOL     OW29191   4.710   0.711   3.848  0.1994 -0.6657 -0.1669
 5853SOL    HW129192   4.616   0.698   3.832 -0.4236  1.2072  1.8069
 5853SOL    HW229193   4.724   0.639   3.909  0.4144 -0.4624  0.0254
 5854SOL     OW29194   0.142   2.829  16.880 -0.2258 -0.7908  0.2304
 5854SOL    HW129195   0.108   2.824  16.970  0.9260  1.4747  0.8046
 5854SOL    HW229196   0.189   2.912  16.886 -1.4667 -0.1820  1.5304
 5855SOL     OW29197   4.353   1.947   9.924 -0.5444 -0.7513 -0.9482
 5855SOL    HW129198   4.271   1.899   9.936 -1.3148  1.4623  2.5430
 5855SOL    HW229199   4.319   2.032   9.950 -1.0371 -1.7892  1.8673
 5856SOL     OW29200   1.850   3.964   6.749  0.1252  0.1498 -0.2745
 5856SOL    HW129201   1.838   3.982   6.842  1.6074 -2.1244  0.3492
 5856SOL    HW229202   1.757   3.964   6.726 -0.1338 -1.7580  0.7669
 5857SOL     OW29203   3.985   0.452   9.570  0.2297 -0.1216  0.5868
 5857SOL    HW129204   3.968   0.458   9.664 -2.1753  0.3449  0.1123
 5857SOL    HW229205   3.993   0.357   9.562 -1.6900 -0.3197  1.0711
 5858SOL     OW29206   2.758   3.353   3.563  0.2189 -0.9009  0.1596
 5858SOL    HW129207   2.852   3.349   3.576  0.3200  0.4084 -0.1902
 5858SOL    HW229208   2.745   3.309   3.479 -1.7263  0.2804 -0.1549
 5859SOL     OW29209   0.070   3.573   0.796  0.2350  0.1007 -0.2873
 5859SOL    HW129210   0.100   3.482   0.794 -0.8169 -0.1613 -2.7871
 5859SOL    HW229211   0.012   3.579   0.872  1.7654  0.7548  0.8325
 5860SOL     OW29212   4.184   1.705   6.949 -0.3376  0.3285  0.2614
 5860SOL    HW129213   4.095   1.688   6.980 -0.3447 -0.3147 -0.1189
 5860SOL    HW229214   4.234   1.628   6.977  2.6483  2.3555  0.4844
 5861SOL     OW29215   4.718   0.564   7.404 -0.1111 -0.3879 -0.1158
 5861SOL    HW129216   0.026   0.622   7.341 -2.4425 -0.5866 -1.8721
 5861SOL    HW229217   0.053   0.498   7.410  0.8644  0.6519  0.1466
 5862SOL     OW29218   1.540   2.520  11.564  0.4270 -0.0291 -0.7565
 5862SOL    HW129219   1.460   2.521  11.510 -1.5983  2.8153  2.2857
 5862SOL    HW229220   1.528   2.603  11.611  0.2773 -1.1674  1.2102
 5863SOL     OW29221   1.954   0.662   3.035 -0.1405  0.1763  0.1336
 5863SOL    HW129222   1.970   0.752   3.007 -0.8045 -0.4082 -2.0727
 5863SOL    HW229223   1.866   0.641   3.003  0.3387 -0.5717 -0.6932
 5864SOL     OW29224   2.701   3.351  13.462  0.7416 -0.1021  0.3161
 5864SOL    HW129225   2.759   3.340  13.387  0.8056  0.0712  0.3385
 5864SOL    HW229226   2.753   3.416  13.510  2.2811 -2.0403  1.2325
 5865SOL     OW29227   1.096   3.907  10.711  0.5175  0.0049  0.0687
 5865SOL    HW129228   1.147   3.843  10.760 -1.4079 -0.1393  1.9015
 5865SOL    HW229229   1.035   3.852  10.662 -0.1385  0.3240  0.5198
 5866SOL     OW29230   4.325   0.997   4.497 -0.2263 -0.3278 -0.3270
 5866SOL    HW129231   4.244   1.029   4.456  0.0428  0.3544 -0.3143
 5866SOL    HW229232   4.387   1.027   4.431  1.1340 -2.5617 -0.0489
 5867SOL     OW29233   0.038   1.367   5.778 -0.4636  0.1634 -0.3440
 5867SOL    HW129234   0.019   1.408   5.862 -0.0249  0.6453 -0.4805
 5867SOL    HW229235   0.014   1.278   5.804  2.6058 -0.2332  1.0106
 5868SOL     OW29236   1.702   1.873   2.153  0.1344  0.7812 -0.4019
 5868SOL    HW129237   1.762   1.906   2.086  1.2990 -0.6925 -0.1026
 5868SOL    HW229238   1.652   1.815   2.095 -2.1171 -0.7864  3.1168
 5869SOL     OW29239   3.856   0.190   5.624 -0.3599  0.1446 -0.0361
 5869SOL    HW129240   3.857   0.195   5.528  0.6218  0.3048 -0.0111
 5869SOL    HW229241   3.944   0.155   5.639  0.7180  1.1798 -4.0566
 5870SOL     OW29242   1.274   4.258   0.207 -0.2005  0.3963  0.2238
 5870SOL    HW129243   1.235   4.179   0.244  2.0733 -1.5337 -1.4642
 5870SOL    HW229244   1.275   4.320   0.280  2.6242 -0.6998  1.1182
 5871SOL     OW29245   3.264   3.167   7.283  0.0210  0.7288 -0.1830
 5871SOL    HW129246   3.290   3.179   7.375 -1.1540 -2.9902  0.6405
 5871SOL    HW229247   3.242   3.074   7.278  0.6123  0.5545  0.4592
 5872SOL     OW29248   2.729   1.020   2.509 -0.5575  0.1353 -0.2259
 5872SOL    HW129249   2.633   1.012   2.514 -0.9334  2.7056 -3.0745
 5872SOL    HW229250   2.742   0.939   2.558  1.6226 -0.4725 -1.7875
 5873SOL     OW29251   3.552   1.023   9.122 -0.3563 -0.1514  0.5148
 5873SOL    HW129252   3.601   1.070   9.190 -0.5770 -0.2294  0.7258
 5873SOL    HW229253   3.474   0.998   9.172  0.9724 -0.0173  2.6702
 5874SOL     OW29254   1.795   1.896  15.245 -0.1440 -0.4699 -0.0276
 5874SOL    HW129255   1.717   1.951  15.257 -1.3506 -1.8025 -1.7838
 5874SOL    HW229256   1.769   1.861  15.160 -1.4013  1.4218 -0.4354
 5875SOL     OW29257   4.688   2.948   8.358  0.0079 -0.4214  0.3499
 5875SOL    HW129258   0.026   2.930   8.419 -2.2234 -1.5142  2.6821
 5875SOL    HW229259   4.629   3.005   8.407  0.9260  0.2315  0.7005
 5876SOL     OW29260   0.448   4.692  16.939  0.1295  0.5842  0.2804
 5876SOL    HW129261   0.426   0.042  16.901  3.4484  0.8358 -1.0362
 5876SOL    HW229262   0.484   4.721  17.023 -0.9238  0.5509  0.7458
 5877SOL     OW29263   2.622   0.906   5.931  0.5583 -0.7919 -0.5055
 5877SOL    HW129264   2.558   0.854   5.981  0.4580 -1.0527 -0.9042
 5877SOL    HW229265   2.621   0.987   5.982 -0.3757 -3.1838  3.3237
 5878SOL     OW29266   2.079   1.271   0.572  0.8732 -0.5925  0.1422
 5878SOL    HW129267   2.160   1.292   0.526  1.6671 -2.5124  0.6747
 5878SOL    HW229268   2.020   1.264   0.497  1.6427  0.4089 -0.5675
 5879SOL     OW29269   1.630   0.949  13.270 -0.0500 -0.0380 -0.2835
 5879SOL    HW129270   1.669   0.905  13.345 -0.0620 -2.4623 -1.7023
 5879SOL    HW229271   1.635   0.875  13.210  0.1906 -0.9084  0.8128
 5880SOL     OW29272   1.067   4.053   0.310  0.2865 -0.3204  0.2448
 5880SOL    HW129273   1.041   3.979   0.256 -2.5042  0.9349 -0.1525
 5880SOL    HW229274   0.985   4.099   0.329 -1.1564 -1.8115 -2.4460
 5881SOL     OW29275   4.118   0.465   3.680  0.5086 -0.0739  0.1291
 5881SOL    HW129276   4.136   0.499   3.767 -1.6633 -1.5140  1.1400
 5881SOL    HW229277   4.061   0.535   3.647  1.2044 -1.1366 -3.3240
 5882SOL     OW29278   0.331   4.432   5.997  0.1701 -0.1301  0.3558
 5882SOL    HW129279   0.354   4.520   6.025 -2.7206  1.3306 -1.8301
 5882SOL    HW229280   0.374   4.439   5.912 -0.2631 -0.6050  0.0913
 5883SOL     OW29281   0.842   2.849  13.544  0.5887 -0.8797  0.6353
 5883SOL    HW129282   0.851   2.796  13.623 -0.3608  1.3223  2.2178
 5883SOL    HW229283   0.752   2.880  13.552  1.3330  1.8995 -1.6507
 5884SOL     OW29284   1.859   0.316   2.755  0.2442 -0.7436 -0.0456
 5884SOL    HW129285   1.870   0.400   2.711 -0.1718  0.2026  1.6539
 5884SOL    HW229286   1.948   0.280   2.760  0.3577 -0.0283  2.8156
 5885SOL     OW29287   3.320   1.437   4.510  0.2180 -0.3114  0.0545
 5885SOL    HW129288   3.324   1.469   4.600 -3.0300 -0.1729  0.1575
 5885SOL    HW229289   3.412   1.449   4.484  0.0914  1.2671  0.3015
 5886SOL     OW29290   0.750   4.608   9.475  0.1742 -0.1224  0.2545
 5886SOL    HW129291   0.786   4.674   9.416  0.7022 -1.7914 -1.2701
 5886SOL    HW229292   0.668   4.649   9.504  1.8447  2.9762  0.6175
 5887SOL     OW29293   2.658   2.490   3.151  0.0441  0.4838 -0.2189
 5887SOL    HW129294   2.641   2.441   3.071 -0.7732 -0.5117  0.5633
 5887SOL    HW229295   2.568   2.523   3.157  0.7721  2.5737 -0.9474
 5888SOL     OW29296   1.060   3.059   8.322  0.1925 -0.0015 -0.0827
 5888SOL    HW129297   1.019   3.104   8.248 -2.0740 -3.7218 -1.0624
 5888SOL    HW229298   1.025   2.972   8.304  1.0993 -0.4420  0.3304
 5889SOL     OW29299   4.056   4.730   3.971  0.1747 -0.0671  0.5771
 5889SOL    HW129300   3.963   4.722   3.991  0.4544 -0.5073  1.7466
 5889SOL    HW229301   4.056   4.729   3.876 -1.3749 -0.5576  0.5884
 5890SOL     OW29302   0.859   2.997  14.184 -0.3872  0.1135  0.5225
 5890SOL    HW129303   0.783   3.045  14.217 -0.6878  1.5068 -2.1795
 5890SOL    HW229304   0.834   2.993  14.091  2.4486 -1.8576 -0.1657
 5891SOL     OW29305   3.993   1.876   1.353 -0.7837 -0.4495  0.2585
 5891SOL    HW129306   4.034   1.794   1.381  3.2247  0.7982 -1.9509
 5891SOL    HW229307   4.031   1.946   1.407 -4.1970  1.4446  0.1709
 5892SOL     OW29308   4.236   0.512  16.500 -0.0397  0.1606  0.0998
 5892SOL    HW129309   4.212   0.432  16.455 -1.2907 -0.3103  1.5997
 5892SOL    HW229310   4.152   0.533  16.541 -0.1694  2.1533 -1.1671
 5893SOL     OW29311   4.373   3.798   4.635  0.5196 -0.0646 -0.5523
 5893SOL    HW129312   4.391   3.717   4.683  2.0118 -1.1654 -2.9507
 5893SOL    HW229313   4.281   3.777   4.620  0.3034 -0.0106  0.6813
 5894SOL     OW29314   3.495   1.741   8.333 -0.0761  0.5494  0.2576
 5894SOL    HW129315   3.502   1.814   8.272  0.2348  1.0445  0.8900
 5894SOL    HW229316   3.449   1.799   8.393  1.0663  2.0774 -0.3580
 5895SOL     OW29317   1.009   2.292  14.716 -0.3223  0.7212 -0.2630
 5895SOL    HW129318   0.947   2.310  14.645  1.3093  1.4278 -1.4997
 5895SOL    HW229319   1.061   2.226  14.671  0.9979 -0.2672  2.6869
 5896SOL     OW29320   3.678   1.484   6.700 -0.0445 -0.1697 -0.2326
 5896SOL    HW129321   3.644   1.573   6.689 -0.8682 -0.1315  2.5169
 5896SOL    HW229322   3.759   1.491   6.648  0.9828 -0.3780  1.3388
 5897SOL     OW29323   2.598   3.323   8.710  0.1171  0.3328 -0.0792
 5897SOL    HW129324   2.668   3.369   8.756  0.8917  0.1479 -1.0819
 5897SOL    HW229325   2.639   3.249   8.665  2.0576  2.1436 -1.2609
 5898SOL     OW29326   3.304   4.708   4.846  0.8578 -0.3484  0.6331
 5898SOL    HW129327   3.221   0.006   4.882  1.3525  0.1114  1.3665
 5898SOL    HW229328   3.284   4.621   4.812 -0.4240  0.6506 -1.1320
 5899SOL     OW29329   4.146   1.771   8.759 -0.5525 -0.1648 -0.4347
 5899SOL    HW129330   4.232   1.730   8.749  0.1654  0.8930  1.2679
 5899SOL    HW229331   4.160   1.863   8.736 -0.4603  0.6201  2.6746
 5900SOL     OW29332   4.011   3.820   8.235  0.4540  0.1958 -0.3717
 5900SOL    HW129333   3.992   3.735   8.195  0.5165  0.6260 -1.3145
 5900SOL    HW229334   3.952   3.829   8.310  0.4554  1.5732 -0.5399
 5901SOL     OW29335   0.879   3.383   4.264 -0.7978 -0.6334 -0.3502
 5901SOL    HW129336   0.842   3.350   4.346  0.2966 -1.1526 -0.0675
 5901SOL    HW229337   0.803   3.363   4.209 -0.5778  1.0929 -1.2781
 5902SOL     OW29338   3.584   0.378  16.501 -0.3365  0.7027 -0.0451
 5902SOL    HW129339   3.526   0.418  16.436 -2.0458 -0.3523  0.8101
 5902SOL    HW229340   3.568   0.283  16.498 -1.1537  0.8441 -0.2937
 5903SOL     OW29341   3.694   3.343   5.492  0.1821 -0.5618  0.1998
 5903SOL    HW129342   3.666   3.396   5.417  2.4576  1.9554  1.1104
 5903SOL    HW229343   3.684   3.254   5.459  0.8813 -0.6799  0.3067
 5904SOL     OW29344   2.564   4.286   1.854  0.2159  1.0043 -0.5401
 5904SOL    HW129345   2.560   4.377   1.823 -1.4113  0.8910 -0.6500
 5904SOL    HW229346   2.494   4.286   1.920  1.0439 -1.6403  0.3195
 5905SOL     OW29347   0.731   2.480   9.399  0.1544  0.0704 -0.4210
 5905SOL    HW129348   0.809   2.439   9.360 -0.0909  0.1373 -0.9825
 5905SOL    HW229349   0.701   2.539   9.330  1.3072  1.8464  0.5749
 5906SOL     OW29350   2.466   3.097   6.975  0.0219  0.5675  0.3300
 5906SOL    HW129351   2.419   3.179   6.965  0.0574  0.6070  0.4936
 5906SOL    HW229352   2.532   3.111   7.042 -1.0301  1.0665  1.2670
 5907SOL     OW29353   4.325   4.348   6.484 -0.2744  0.0308  0.6052
 5907SOL    HW129354   4.401   4.337   6.426 -0.6999 -0.3550  0.1293
 5907SOL    HW229355   4.329   4.443   6.497  1.6481 -0.1173  1.1717
 5908SOL     OW29356   2.662   0.522   3.288 -0.3736  0.3175 -0.1172
 5908SOL    HW129357   2.743   0.476   3.310 -0.2742  0.4552 -0.2022
 5908SOL    HW229358   2.644   0.568   3.370 -2.3400 -1.9170  0.7035
 5909SOL     OW29359   0.853   1.100   6.216 -0.1162 -0.1570 -0.0569
 5909SOL    HW129360   0.934   1.077   6.172  0.2553  1.0002  0.0187
 5909SOL    HW229361   0.776   1.092   6.159  1.1452  1.8577 -2.0492
 5910SOL     OW29362   0.810   4.242  13.761 -0.0665 -0.1018  0.0778
 5910SOL    HW129363   0.779   4.290  13.838  0.9941  0.4435  0.1573
 5910SOL    HW229364   0.775   4.301  13.694  1.3414 -0.6988 -1.1531
 5911SOL     OW29365   1.542   0.644   3.554  0.6825 -0.4399 -0.3365
 5911SOL    HW129366   1.540   0.568   3.613  0.6316 -0.0136  0.2136
 5911SOL    HW229367   1.589   0.603   3.482  1.8117  0.5650 -0.1677
 5912SOL     OW29368   2.662   2.932   7.911 -0.7795 -0.0016 -0.0365
 5912SOL    HW129369   2.683   2.944   8.004  0.6810  2.9102 -0.7284
 5912SOL    HW229370   2.575   2.894   7.918 -0.4378 -0.9616 -1.0842
 5913SOL     OW29371   0.270   2.015   6.050  0.2249 -0.1388 -0.0727
 5913SOL    HW129372   0.307   2.047   5.968  0.1536  1.2717  0.4432
 5913SOL    HW229373   0.186   2.061   6.052  0.7283  0.8091 -0.7871
 5914SOL     OW29374   0.202   3.993   5.506 -0.1412 -0.5547 -0.0846
 5914SOL    HW129375   0.249   4.076   5.517 -0.6506 -0.1508 -0.9132
 5914SOL    HW229376   0.155   4.013   5.425  1.1306  1.0640 -0.4238
 5915SOL     OW29377   0.698   0.345   7.594  0.2436 -0.3597 -0.5236
 5915SOL    HW129378   0.660   0.422   7.636 -1.3594 -0.7261 -1.3085
 5915SOL    HW229379   0.723   0.381   7.509 -1.9605 -1.3274 -1.5690
 5916SOL     OW29380   1.643   2.395  16.556  0.3702 -0.0063  0.2657
 5916SOL    HW129381   1.686   2.343  16.624 -0.4275 -0.5814  0.3297
 5916SOL    HW229382   1.588   2.450  16.611  0.3487 -2.1967  2.4247
 5917SOL     OW29383   0.959   2.248  17.252 -0.0411  0.6271  0.3523
 5917SOL    HW129384   0.928   2.158  17.264  0.1154  0.6056  0.5977
 5917SOL    HW229385   0.983   2.244  17.159 -1.4401 -2.0989  0.0920
 5918SOL     OW29386   0.110   1.831   3.653  0.7771 -0.2227 -0.6652
 5918SOL    HW129387   0.143   1.919   3.633  0.6571  0.5946  2.6556
 5918SOL    HW229388   0.181   1.795   3.706  1.5951  2.0121 -0.2498
 5919SOL     OW29389   1.671   0.072  11.560  0.0615 -0.3524  0.1248
 5919SOL    HW129390   1.674   0.066  11.655 -2.3925 -1.1855  0.1353
 5919SOL    HW229391   1.707   0.160  11.553  0.2281 -0.4294 -0.0118
 5920SOL     OW29392   1.905   1.708   3.520 -0.3185  0.4588 -0.2543
 5920SOL    HW129393   1.835   1.670   3.575  1.0851 -1.2378  0.3555
 5920SOL    HW229394   1.942   1.628   3.484 -1.5072 -0.4635  0.5899
 5921SOL     OW29395   1.281   4.025   4.961 -0.3251  0.0603  0.2142
 5921SOL    HW129396   1.372   4.051   4.971 -0.1929 -0.9038  1.4611
 5921SOL    HW229397   1.250   4.103   4.915  0.7923 -0.1214 -0.8325
 5922SOL     OW29398   1.323   3.533   6.160 -0.1760  0.0400 -0.0617
 5922SOL    HW129399   1.381   3.492   6.096  0.2235  0.1905  0.2076
 5922SOL    HW229400   1.368   3.617   6.166 -0.3705  0.1332  0.1154
 5923SOL     OW29401   2.339   1.435   2.487  0.0531 -0.1239  0.3321
 5923SOL    HW129402   2.308   1.478   2.407  0.0256 -0.2102  0.2964
 5923SOL    HW229403   2.267   1.376   2.509  0.0354 -0.0805  0.3889
 5924SOL     OW29404   1.931   4.196   4.479 -0.2701  0.4310 -0.3236
 5924SOL    HW129405   1.995   4.132   4.510  1.8040  3.0884  0.8037
 5924SOL    HW229406   1.915   4.241   4.561  0.9550  1.6489 -0.7538
 5925SOL     OW29407   4.492   2.726   7.570 -0.1903 -0.2428 -0.4058
 5925SOL    HW129408   4.524   2.682   7.649  2.2604  0.7120 -0.8619
 5925SOL    HW229409   4.414   2.676   7.543  0.8269 -2.1700  0.2245
 5926SOL     OW29410   0.291   3.083   7.662 -0.7429  0.1980 -0.2064
 5926SOL    HW129411   0.274   3.160   7.607  4.1359 -0.5612 -2.7254
 5926SOL    HW229412   0.372   3.114   7.703 -1.3483  0.5702  0.6911
 5927SOL     OW29413   2.052   3.866  15.729  0.5957 -0.1989 -0.6771
 5927SOL    HW129414   1.989   3.930  15.762 -0.8827 -1.4563 -1.0486
 5927SOL    HW229415   2.043   3.881  15.635  2.7018 -0.6964 -0.9678
 5928SOL     OW29416   1.716   2.545   7.376 -0.0166 -0.3919  0.6998
 5928SOL    HW129417   1.761   2.518   7.456  0.2581  0.2144  0.7452
 5928SOL    HW229418   1.795   2.564   7.326  0.8672 -1.5223  1.6433
 5929SOL     OW29419   4.126   2.454   5.075 -0.1206 -0.0813 -0.3369
 5929SOL    HW129420   4.205   2.411   5.108  0.4720  0.7879 -0.6178
 5929SOL    HW229421   4.122   2.523   5.141 -1.3512 -0.9383  0.4779
 5930SOL     OW29422   3.045   3.237   9.479 -0.5186  0.3641  0.0572
 5930SOL    HW129423   2.950   3.248   9.488 -0.4432 -0.8763  2.3170
 5930SOL    HW229424   3.061   3.329   9.459 -2.0051  0.1612 -2.0636
 5931SOL     OW29425   4.549   2.744   0.728  0.9215 -0.2351  0.7948
 5931SOL    HW129426   4.537   2.652   0.751 -1.2497  0.3419  1.9938
 5931SOL    HW229427   4.463   2.777   0.700  1.1370  0.3590  0.8226
 5932SOL     OW29428   0.499   2.802  12.213  0.0923  0.3411 -0.4019
 5932SOL    HW129429   0.505   2.859  12.290 -0.5177 -1.5036  1.0300
 5932SOL    HW229430   0.411   2.764  12.224 -0.2316  1.1095 -0.2997
 5933SOL     OW29431   3.042   2.444   2.904  0.4994  0.1952  0.2680
 5933SOL    HW129432   3.009   2.390   2.832  0.8366  0.5112 -0.1226
 5933SOL    HW229433   3.085   2.377   2.957 -0.8174 -0.8974 -0.0438
 5934SOL     OW29434   4.610   4.470   2.396  0.0511 -0.1509 -0.4304
 5934SOL    HW129435   4.572   4.408   2.458 -3.8684  1.5233 -1.1419
 5934SOL    HW229436   4.573   4.429   2.318 -1.5875  0.3822  0.0588
 5935SOL     OW29437   0.444   4.382   7.031  0.4616  0.5084 -0.3523
 5935SOL    HW129438   0.520   4.436   7.056 -0.8714  0.8036  3.1145
 5935SOL    HW229439   0.475   4.301   7.072  2.5127  1.0596 -0.8121
 5936SOL     OW29440   3.324   3.682   7.749 -0.3264  0.5678  0.5885
 5936SOL    HW129441   3.285   3.598   7.773  3.5327 -1.3229  0.2545
 5936SOL    HW229442   3.403   3.655   7.701 -1.3721 -0.2291 -0.6798
 5937SOL     OW29443   3.033   1.783   7.213  0.1935  0.2781 -0.2300
 5937SOL    HW129444   3.113   1.743   7.180 -0.3876 -1.5215  0.4974
 5937SOL    HW229445   2.985   1.788   7.131  0.7427  0.6965 -0.5186
 5938SOL     OW29446   1.408   2.936   4.122 -0.7575  0.2461 -0.3676
 5938SOL    HW129447   1.407   2.989   4.043  0.5284 -0.2062 -0.6857
 5938SOL    HW229448   1.318   2.955   4.149 -1.3621 -2.1860 -0.6049
 5939SOL     OW29449   3.853   1.390  11.678  0.3519 -0.0920 -0.3147
 5939SOL    HW129450   3.817   1.469  11.638  2.3121  0.8214 -0.2747
 5939SOL    HW229451   3.938   1.429  11.702 -0.4313  0.9775  0.7260
 5940SOL     OW29452   3.751   1.104   4.407 -0.2589 -0.4238 -0.1604
 5940SOL    HW129453   3.709   1.130   4.325 -1.8787  0.2808  0.9061
 5940SOL    HW229454   3.777   1.192   4.435  2.9249  0.0079 -4.5043
 5941SOL     OW29455   0.814   3.249   1.262  0.0618 -0.1537 -0.2054
 5941SOL    HW129456   0.718   3.243   1.265 -0.1113  2.2160 -0.5734
 5941SOL    HW229457   0.845   3.187   1.327 -0.2306 -1.5295 -1.3945
 5942SOL     OW29458   2.887   1.718   2.731  0.6228 -0.2025  0.4980
 5942SOL    HW129459   2.858   1.761   2.651 -1.4178  0.5580  1.6716
 5942SOL    HW229460   2.825   1.749   2.796  1.9366  0.4631  1.4416
 5943SOL     OW29461   2.098   0.072   5.301  0.0227  0.7671 -0.1028
 5943SOL    HW129462   2.073   4.732   5.355  3.6519 -0.4999 -0.1700
 5943SOL    HW229463   2.190   0.073   5.327 -0.1820  0.1208  0.6546
 5944SOL     OW29464   0.243   4.023  10.750 -0.5237  0.3757 -0.4648
 5944SOL    HW129465   0.290   4.035  10.833  1.0403  0.8923 -1.4229
 5944SOL    HW229466   0.244   3.927  10.755  3.4153  0.4806  0.6207
 5945SOL     OW29467   0.404   4.031  16.708 -0.3903 -0.3370 -0.3888
 5945SOL    HW129468   0.490   4.058  16.674  0.4442 -0.1556  1.8986
 5945SOL    HW229469   0.380   3.960  16.648 -2.0388  0.0034 -0.1155
 5946SOL     OW29470   1.426   3.993   9.730 -0.2343 -0.1870 -0.2101
 5946SOL    HW129471   1.478   4.051   9.787  1.7454 -1.9341 -0.2160
 5946SOL    HW229472   1.421   3.921   9.793  0.3552  0.8667  1.0650
 5947SOL     OW29473   3.762   3.440   4.965  0.7820 -0.0554 -0.6341
 5947SOL    HW129474   3.767   3.358   5.015  4.3721 -0.5360 -1.7628
 5947SOL    HW229475   3.846   3.441   4.920  1.8119 -2.0522  1.2145
 5948SOL     OW29476   4.352   3.602   6.847 -0.0763 -0.3294  0.4060
 5948SOL    HW129477   4.281   3.645   6.893  0.9316 -0.3226  1.9449
 5948SOL    HW229478   4.352   3.647   6.762 -0.7093 -1.5105 -0.2244
 5949SOL     OW29479   4.691   0.860   9.652  0.0009 -0.3595  0.3449
 5949SOL    HW129480   4.602   0.877   9.621 -0.3754 -2.2031  0.4061
 5949SOL    HW229481   4.694   0.765   9.638  0.7796 -0.2269 -0.3733
 5950SOL     OW29482   1.219   4.387   6.738  0.4264  0.0754  0.2910
 5950SOL    HW129483   1.134   4.417   6.708  0.4955  1.5806  1.6449
 5950SOL    HW229484   1.199   4.341   6.820  2.3257  0.3737  0.9413
 5951SOL     OW29485   3.473   1.802   7.616 -0.1613  0.1189  0.4772
 5951SOL    HW129486   3.386   1.762   7.612  0.7664 -1.7452 -0.5024
 5951SOL    HW229487   3.456   1.875   7.556  1.5334  0.7217  0.7338
 5952SOL     OW29488   1.499   1.876   9.144  0.1266  0.2614  0.1284
 5952SOL    HW129489   1.547   1.923   9.212 -1.2106  0.1707  1.1346
 5952SOL    HW229490   1.479   1.791   9.183  1.0618 -0.1757 -0.3411
 5953SOL     OW29491   1.079   0.755   4.506 -0.3633 -0.7669 -0.8317
 5953SOL    HW129492   1.074   0.840   4.461  1.3350 -0.3626 -0.2411
 5953SOL    HW229493   1.032   0.782   4.585  0.1453 -1.7494 -0.2014
 5954SOL     OW29494   2.008   2.101  12.700 -0.0080 -0.3315  0.2550
 5954SOL    HW129495   2.074   2.031  12.701 -0.3985 -0.7020 -0.3790
 5954SOL    HW229496   1.927   2.053  12.715  0.7817 -2.0313 -0.9024
 5955SOL     OW29497   3.866   2.426   5.997 -0.5033 -0.0682 -0.1368
 5955SOL    HW129498   3.908   2.511   5.986 -0.1186 -0.1983  0.3468
 5955SOL    HW229499   3.848   2.442   6.089  1.6961  0.7969  0.1284
 5956SOL     OW29500   1.158   0.903   7.444  0.3627  0.4889 -0.2522
 5956SOL    HW129501   1.128   0.967   7.380  1.1328 -0.2103 -1.3206
 5956SOL    HW229502   1.220   0.955   7.494 -1.0637  0.2063  1.7988
 5957SOL     OW29503   2.430   1.430  15.430 -0.3079  0.6826  0.0325
 5957SOL    HW129504   2.348   1.458  15.390 -0.4515  1.3112  0.7782
 5957SOL    HW229505   2.430   1.466  15.518  0.3895  3.0588 -0.9400
 5958SOL     OW29506   1.871   4.396   7.592 -0.1152 -0.3670  0.1736
 5958SOL    HW129507   1.860   4.307   7.627 -1.2700  0.4155  1.8073
 5958SOL    HW229508   1.783   4.389   7.556 -0.3627  2.1874  0.2898
 5959SOL     OW29509   2.947   0.137   4.380  0.1010  0.4488 -0.2065
 5959SOL    HW129510   2.906   0.056   4.350  0.9350 -0.0313 -0.0599
 5959SOL    HW229511   2.985   0.105   4.462  0.4719 -0.2031 -0.6348
 5960SOL     OW29512   3.764   2.290   3.074  0.5613  0.3081  0.0475
 5960SOL    HW129513   3.703   2.364   3.064  1.5919  1.2500  0.7326
 5960SOL    HW229514   3.828   2.314   3.006  0.9615 -0.3032  0.2092
 5961SOL     OW29515   1.558   1.451   5.632  0.0405  0.3411 -0.1535
 5961SOL    HW129516   1.570   1.361   5.663 -0.9838  0.1652 -0.2721
 5961SOL    HW229517   1.497   1.480   5.699  2.1831 -2.0217  2.8086
 5962SOL     OW29518   2.144   0.263   6.770  0.5588 -0.2477  0.0662
 5962SOL    HW129519   2.086   0.333   6.800  1.7482  1.2331 -1.0855
 5962SOL    HW229520   2.226   0.287   6.812  1.1349 -0.7463 -0.7639
 5963SOL     OW29521   4.289   0.487   6.676  0.7087 -0.1612 -0.8066
 5963SOL    HW129522   4.326   0.565   6.718 -1.3221  0.5614 -0.3975
 5963SOL    HW229523   4.266   0.439   6.756  0.8524  2.1949  0.6355
 5964SOL     OW29524   3.289   1.806  10.925 -0.2745 -0.3990 -0.3655
 5964SOL    HW129525   3.352   1.785  10.856 -1.2407 -2.9896 -0.4186
 5964SOL    HW229526   3.280   1.901  10.912  0.4895 -0.1359  0.9861
 5965SOL     OW29527   2.313   0.895   9.428  0.1710  1.0459 -0.1681
 5965SOL    HW129528   2.384   0.866   9.370 -1.0768 -1.1771 -0.5485
 5965SOL    HW229529   2.248   0.829   9.407  0.6453 -0.2173  2.2563
 5966SOL     OW29530   1.499   2.034  14.951  0.1966  0.0281  0.2265
 5966SOL    HW129531   1.418   2.064  14.911  1.3342  0.5014 -1.7186
 5966SOL    HW229532   1.555   2.112  14.945 -0.5229  0.4607 -0.7359
 5967SOL     OW29533   3.962   0.739   6.221  0.3102 -0.3891 -0.2189
 5967SOL    HW129534   4.026   0.668   6.224 -0.8783 -1.4773 -0.7901
 5967SOL    HW229535   3.894   0.692   6.173  0.2356  0.4712 -0.9561
 5968SOL     OW29536   2.445   2.315   0.700  0.0054 -0.0265 -0.1773
 5968SOL    HW129537   2.418   2.228   0.670 -0.4942 -0.2446  0.8902
 5968SOL    HW229538   2.426   2.362   0.619  1.0522 -0.1863 -0.5211
 5969SOL     OW29539   3.248   3.340   6.522 -0.1516  0.2926  0.4157
 5969SOL    HW129540   3.278   3.349   6.613 -3.2400  1.6535  1.2981
 5969SOL    HW229541   3.286   3.425   6.501 -1.1356  1.2424  2.4735
 5970SOL     OW29542   3.812   2.343  14.440  0.4151 -1.0103  0.8483
 5970SOL    HW129543   3.726   2.359  14.479 -0.3362 -1.1753 -0.7583
 5970SOL    HW229544   3.797   2.312  14.351  1.7200  2.4316 -0.5527
 5971SOL     OW29545   4.627   3.282   7.913 -0.1439 -0.3466  0.4191
 5971SOL    HW129546   4.554   3.273   7.851 -0.2925 -0.5033  0.6133
 5971SOL    HW229547   4.581   3.327   7.984 -1.7115  0.2859 -1.0121
 5972SOL     OW29548   0.658   0.273  10.556  0.6786 -0.2352 -0.2136
 5972SOL    HW129549   0.566   0.245  10.558  1.1059 -1.4945  1.7083
 5972SOL    HW229550   0.663   0.362  10.591  1.0932 -0.5797  0.6008
 5973SOL     OW29551   0.996   0.554   4.194 -0.1051 -0.2282 -0.0535
 5973SOL    HW129552   0.989   0.492   4.121 -0.6882  0.6966 -0.7871
 5973SOL    HW229553   1.004   0.638   4.149  0.4509 -1.8110 -2.9564
 5974SOL     OW29554   0.410   1.037   4.133 -0.5159  0.4212  0.2471
 5974SOL    HW129555   0.427   0.943   4.127  0.9965  0.5682  2.3264
 5974SOL    HW229556   0.326   1.053   4.091 -0.3871  1.2238  0.2866
 5975SOL     OW29557   2.060   3.335   8.033  0.7927 -0.4111 -0.2503
 5975SOL    HW129558   2.021   3.343   7.946  2.8027  2.3012 -0.8975
 5975SOL    HW229559   2.104   3.419   8.048 -0.3837  0.1685 -0.0739
 5976SOL     OW29560   2.081   0.651   0.110  0.0582  0.5573 -0.5354
 5976SOL    HW129561   2.079   0.628   0.017 -0.4059 -0.8986 -0.1605
 5976SOL    HW229562   2.036   0.578   0.152 -3.2127  1.8521 -1.8025
 5977SOL     OW29563   2.250   3.918   1.087  0.3519  0.0201 -0.2931
 5977SOL    HW129564   2.294   3.841   1.123  1.4108  0.6652 -0.2290
 5977SOL    HW229565   2.173   3.888   1.039 -0.6268  1.4790  0.3696
 5978SOL     OW29566   3.383   0.547   7.492  0.1759 -0.2818 -0.3739
 5978SOL    HW129567   3.309   0.506   7.447  0.9934 -1.2346 -0.8466
 5978SOL    HW229568   3.437   0.561   7.414 -0.6742  0.5735 -0.8174
 5979SOL     OW29569   3.702   1.251   8.351 -0.4775  0.6904  0.2626
 5979SOL    HW129570   3.684   1.159   8.332 -0.7385  0.2874  2.5029
 5979SOL    HW229571   3.796   1.256   8.331 -0.7532  2.6007 -0.5923
 5980SOL     OW29572   3.761   1.339   0.851  0.4116 -0.2961  0.6716
 5980SOL    HW129573   3.677   1.310   0.887  0.3525 -0.0956  0.6988
 5980SOL    HW229574   3.764   1.425   0.894 -1.6225 -0.0368  0.3192
 5981SOL     OW29575   1.139   2.838   3.016  0.2767 -0.3484 -0.2338
 5981SOL    HW129576   1.216   2.890   3.037 -0.8826  2.2494 -2.3973
 5981SOL    HW229577   1.119   2.862   2.926 -1.9350 -0.7750  0.1265
 5982SOL     OW29578   0.020   4.336   3.684 -0.2077  0.4649 -0.2850
 5982SOL    HW129579   0.016   4.361   3.776 -2.2161 -1.6986  0.2127
 5982SOL    HW229580   0.085   4.405   3.671  1.5580 -1.0425  0.7339
 5983SOL     OW29581   1.276   4.376   5.675 -0.5110  0.5225  0.3367
 5983SOL    HW129582   1.347   4.434   5.702  0.6286  0.5963 -2.7763
 5983SOL    HW229583   1.276   4.401   5.583  1.1191  0.0529  0.2183
 5984SOL     OW29584   3.842   3.282  15.693  0.1541 -0.0403  0.0391
 5984SOL    HW129585   3.881   3.194  15.697 -0.1566 -0.2564 -1.4979
 5984SOL    HW229586   3.888   3.322  15.619 -1.4072 -0.6760 -1.2645
 5985SOL     OW29587   3.542   0.134  17.434  0.1238 -0.0369  0.5654
 5985SOL    HW129588   3.464   0.170  17.476 -0.8431 -2.3172  0.7228
 5985SOL    HW229589   3.502   0.099  17.355  1.8236 -0.0665 -0.2953
 5986SOL     OW29590   1.685   1.224   9.220  0.0964  0.2431 -0.0037
 5986SOL    HW129591   1.611   1.163   9.226  1.2715 -1.2286 -0.5453
 5986SOL    HW229592   1.651   1.298   9.171  1.3799 -0.9052 -2.5916
 5987SOL     OW29593   1.799   4.067   0.128  0.3520  0.0890 -0.1020
 5987SOL    HW129594   1.747   4.127   0.074  0.5515  0.0923 -0.2897
 5987SOL    HW229595   1.729   4.038   0.186  0.7793 -2.1465 -0.7183
 5988SOL     OW29596   1.158   1.401   4.625  0.4765  0.2877 -0.0032
 5988SOL    HW129597   1.112   1.458   4.687 -0.7153 -0.6253 -0.0545
 5988SOL    HW229598   1.172   1.457   4.548  0.4694 -0.2781 -0.4134
 5989SOL     OW29599   1.449   0.058   0.899 -0.9171 -0.3220 -0.6389
 5989SOL    HW129600   1.434   0.151   0.916  0.6210  0.0078 -1.1615
 5989SOL    HW229601   1.517   0.074   0.833  1.0978 -0.5776  1.3964
 5990SOL     OW29602   2.057   2.530   6.977  0.2619 -0.3171 -0.4528
 5990SOL    HW129603   2.133   2.472   6.967  1.2897  0.8278  0.6600
 5990SOL    HW229604   2.050   2.574   6.893  0.6785  0.8174  0.1051
 5991SOL     OW29605   4.326   1.242   3.106  0.2460  0.0872 -0.1711
 5991SOL    HW129606   4.236   1.256   3.079  0.4355  0.6346 -0.5197
 5991SOL    HW229607   4.335   1.148   3.121 -1.3110 -0.0219  0.0225
 5992SOL     OW29608   1.039   2.254  10.365  0.4297 -0.0827  0.3535
 5992SOL    HW129609   1.088   2.205  10.431 -1.0362 -1.5931  0.3179
 5992SOL    HW229610   1.074   2.339  10.390 -0.6790 -0.0898  1.8797
 5993SOL     OW29611   0.634   0.032   3.634  0.2216  0.2159  0.3024
 5993SOL    HW129612   0.651   0.091   3.561 -2.3559  0.0808 -0.3962
 5993SOL    HW229613   0.667   0.083   3.708 -0.8191  0.4889  0.5690
 5994SOL     OW29614   0.227   3.343   0.827  0.0641  0.5959  0.7147
 5994SOL    HW129615   0.195   3.266   0.780  2.1426  0.3453 -0.2529
 5994SOL    HW229616   0.318   3.320   0.842 -0.7320 -1.1235  2.9109
 5995SOL     OW29617   0.020   1.008   7.177 -0.0599  0.1258 -0.4704
 5995SOL    HW129618   4.695   1.035   7.247  2.3778 -0.8889  2.0143
 5995SOL    HW229619   4.723   1.056   7.100 -1.0604 -0.0002 -0.1386
 5996SOL     OW29620   1.424   3.032   7.892  0.0064 -0.0441 -0.3286
 5996SOL    HW129621   1.451   2.985   7.813  0.5576  2.4426 -1.5999
 5996SOL    HW229622   1.379   2.961   7.938 -1.0330  0.8486  0.0523
 5997SOL     OW29623   2.172   1.209   2.518 -0.3862 -0.3890  0.7366
 5997SOL    HW129624   2.136   1.269   2.582  0.7421 -0.0658  1.0514
 5997SOL    HW229625   2.087   1.191   2.477  0.0605  0.0563 -0.3919
 5998SOL     OW29626   4.231   2.287   7.898  0.0068 -0.4084  0.0229
 5998SOL    HW129627   4.292   2.229   7.946  1.0138  0.2230 -0.5117
 5998SOL    HW229628   4.196   2.219   7.841  1.3247 -0.8461 -0.2756
 5999SOL     OW29629   4.430   2.085   3.985 -0.7015  0.5993  0.2279
 5999SOL    HW129630   4.520   2.053   3.989 -0.4035  1.2953 -0.7845
 5999SOL    HW229631   4.383   2.017   4.032 -0.9530  1.9000  1.8811
 6000SOL     OW29632   0.784   3.955   4.749  0.5583  0.0441 -0.6493
 6000SOL    HW129633   0.757   3.868   4.720  0.3941 -0.5155  1.1320
 6000SOL    HW229634   0.710   4.012   4.727 -0.3899 -0.7420  0.5164
 6001SOL     OW29635   2.794   0.185   4.105  0.2746 -0.4461 -0.3884
 6001SOL    HW129636   2.854   0.183   4.180  1.5756  2.4520 -1.3708
 6001SOL    HW229637   2.715   0.218   4.147  0.2913  0.5089 -1.1368
 6002SOL     OW29638   4.298   3.991  14.010  0.2781 -0.3542  0.0348
 6002SOL    HW129639   4.263   4.008  14.098 -1.0778  0.5184 -0.6706
 6002SOL    HW229640   4.316   4.082  13.987  1.5764 -0.9397 -1.1857
 6003SOL     OW29641   3.581   0.601   3.725  0.2083 -0.3223 -0.2556
 6003SOL    HW129642   3.631   0.650   3.791 -3.3547  2.3480  0.4291
 6003SOL    HW229643   3.627   0.518   3.733 -1.3524 -1.0419  1.0110
 6004SOL     OW29644   3.715   2.393   8.086  0.0699 -0.1828 -0.2027
 6004SOL    HW129645   3.672   2.313   8.114  0.9040 -0.0249  1.4852
 6004SOL    HW229646   3.808   2.373   8.082 -0.4962 -2.5868 -1.5842
 6005SOL     OW29647   1.427   2.455  12.855  0.6074  0.4916  0.1951
 6005SOL    HW129648   1.378   2.390  12.906 -1.1755  2.2274  0.7042
 6005SOL    HW229649   1.357   2.511  12.821 -0.3968 -1.3861 -0.8049
 6006SOL     OW29650   1.155   3.983   3.089 -0.7533  0.2906  0.0558
 6006SOL    HW129651   1.160   3.892   3.118 -1.0159  0.5571  0.9395
 6006SOL    HW229652   1.153   3.969   2.994  0.0978 -3.1966  0.5306
 6007SOL     OW29653   3.984   0.495  14.201  0.2467 -0.1569  0.0364
 6007SOL    HW129654   4.001   0.497  14.296  0.6171 -0.6334 -0.0152
 6007SOL    HW229655   3.900   0.450  14.207 -0.0632  0.5611  1.1458
 6008SOL     OW29656   2.667   2.948   8.182  0.2101  0.4623 -0.4694
 6008SOL    HW129657   2.734   2.923   8.245 -0.8938  1.1740  0.9950
 6008SOL    HW229658   2.605   2.984   8.246  0.5619 -0.0326  0.1486
 6009SOL     OW29659   4.419   3.837   3.472 -0.6121 -0.4251 -0.1466
 6009SOL    HW129660   4.493   3.830   3.412 -0.5464  1.0898 -0.2328
 6009SOL    HW229661   4.344   3.865   3.419 -2.1579 -2.0312  1.1851
 6010SOL     OW29662   3.917   1.915   3.397  0.4555  0.4447  0.0260
 6010SOL    HW129663   3.892   2.005   3.416  0.7863  0.2026  1.6144
 6010SOL    HW229664   3.948   1.895   3.486  1.6861  0.2329 -0.4558
 6011SOL     OW29665   2.667   3.675   7.450 -0.3712 -0.1639 -0.1107
 6011SOL    HW129666   2.651   3.768   7.458  2.7616  0.2594  1.4575
 6011SOL    HW229667   2.712   3.654   7.532  1.1215 -2.4704 -1.5115
 6012SOL     OW29668   4.689   0.816  16.351 -0.3798  0.2372  0.2147
 6012SOL    HW129669   4.605   0.781  16.381 -0.7267  1.2710  0.4144
 6012SOL    HW229670   0.019   0.772  16.408  0.6726 -0.1687 -1.2772
 6013SOL     OW29671   0.253   2.684   6.308 -0.1914  0.1285  0.1215
 6013SOL    HW129672   0.186   2.722   6.250 -0.9130 -1.7201 -0.2441
 6013SOL    HW229673   0.253   2.746   6.381 -1.7334 -0.8071  0.8914
 6014SOL     OW29674   1.528   1.372   7.532 -0.7489  0.1005  0.0762
 6014SOL    HW129675   1.457   1.430   7.504  0.8440  0.4338 -3.2397
 6014SOL    HW229676   1.567   1.444   7.581 -0.0792 -0.4849  0.4101
 6015SOL     OW29677   4.056   2.239   8.837  0.1303 -0.4167 -0.1734
 6015SOL    HW129678   4.043   2.154   8.880  0.0775  0.0139  0.6760
 6015SOL    HW229679   4.025   2.297   8.907  0.2729  0.3582 -0.7537
 6016SOL     OW29680   3.040   0.149   2.307 -0.2082  0.4364  0.5843
 6016SOL    HW129681   3.008   0.197   2.384  2.1469  1.3981  0.9612
 6016SOL    HW229682   3.106   0.200   2.260  0.1168 -1.2718 -0.8036
 6017SOL     OW29683   2.514   0.397   2.393  0.0015  0.0223  0.2630
 6017SOL    HW129684   2.471   0.440   2.466 -2.3522 -1.3043 -0.3509
 6017SOL    HW229685   2.603   0.433   2.401 -0.0984 -0.2180  2.4820
 6018SOL     OW29686   2.521   4.353  11.431 -0.5212  0.0625  0.0440
 6018SOL    HW129687   2.503   4.313  11.346 -0.1165 -0.6469  0.2911
 6018SOL    HW229688   2.437   4.389  11.459 -1.2329 -2.0999  0.6548
 6019SOL     OW29689   2.072   1.466  13.713  0.0770 -0.4465 -0.3131
 6019SOL    HW129690   2.128   1.449  13.789 -1.2484  0.9354  0.9726
 6019SOL    HW229691   2.093   1.390  13.658  2.1888  0.1336 -0.3230
 6020SOL     OW29692   3.172   1.699   8.162  0.3046  0.8371  0.2445
 6020SOL    HW129693   3.101   1.725   8.104 -0.3949 -3.4738 -0.7779
 6020SOL    HW229694   3.240   1.674   8.100 -0.9930 -1.1962 -0.3662
 6021SOL     OW29695   1.657   1.763   8.956 -0.0804 -0.0856 -0.3719
 6021SOL    HW129696   1.713   1.697   8.997 -0.8258  0.1992  1.0847
 6021SOL    HW229697   1.583   1.765   9.017  1.0007  0.3475  0.9191
 6022SOL     OW29698   1.046   3.267  11.725  0.2018  0.7657  0.1846
 6022SOL    HW129699   1.033   3.193  11.784 -2.3392 -0.3089 -1.7176
 6022SOL    HW229700   0.953   3.285  11.710  0.4261  1.5816 -0.2674
 6023SOL     OW29701   0.663   1.730  15.420 -0.1610  0.1314 -0.7017
 6023SOL    HW129702   0.745   1.759  15.379  0.2050 -1.3458 -1.0402
 6023SOL    HW229703   0.624   1.698  15.339 -0.2998 -2.7074  0.4736
 6024SOL     OW29704   4.241   0.616   4.390 -0.4605  0.0774  0.3188
 6024SOL    HW129705   4.153   0.586   4.412 -0.4360  0.6761  1.2341
 6024SOL    HW229706   4.280   0.544   4.341  0.3522  0.5423  0.2885
 6025SOL     OW29707   2.677   4.315   4.124  0.2449 -0.2157  0.0249
 6025SOL    HW129708   2.647   4.228   4.149 -0.3757  0.1641  0.5977
 6025SOL    HW229709   2.594   4.349   4.089  0.8670  0.9545 -0.3157
 6026SOL     OW29710   3.262   3.180   9.347 -0.4407 -0.5562  0.2231
 6026SOL    HW129711   3.304   3.226   9.420  0.8792  0.0706 -0.9348
 6026SOL    HW229712   3.176   3.176   9.389 -0.3177 -1.1964  0.4136
 6027SOL     OW29713   2.063   1.094   4.887  0.0656  0.3817 -0.1142
 6027SOL    HW129714   2.070   1.143   4.805 -1.9240 -0.7991 -0.9883
 6027SOL    HW229715   2.099   1.011   4.856 -0.8524 -0.3760  0.8468
 6028SOL     OW29716   0.329   4.416   3.967 -0.0187 -0.1576  0.1453
 6028SOL    HW129717   0.389   4.469   4.019  1.5835 -1.4061 -0.4489
 6028SOL    HW229718   0.279   4.490   3.932  0.6852 -0.6604 -1.9212
 6029SOL     OW29719   0.458   1.948   7.139  0.1335 -0.2098  0.3261
 6029SOL    HW129720   0.416   2.033   7.128 -0.1647 -0.3053  0.7307
 6029SOL    HW229721   0.381   1.891   7.135 -0.8322  0.9579  2.6345
 6030SOL     OW29722   0.090   3.148  14.895 -0.5111  0.5298  0.1214
 6030SOL    HW129723   0.168   3.199  14.916 -0.2137 -0.0229  0.3597
 6030SOL    HW229724   0.079   3.187  14.808 -0.9324  0.2459  0.0453
 6031SOL     OW29725   0.980   3.566   6.937 -0.1819 -0.0801 -0.4440
 6031SOL    HW129726   1.038   3.602   6.870 -1.4892  2.1856 -0.3633
 6031SOL    HW229727   0.925   3.516   6.877  1.2591 -2.1969 -0.0237
 6032SOL     OW29728   3.795   4.593   2.211 -0.1566  0.3591  0.1241
 6032SOL    HW129729   3.703   4.566   2.206  0.0334 -0.3937  0.5770
 6032SOL    HW229730   3.829   4.514   2.254  0.2873 -0.3583 -1.5353
 6033SOL     OW29731   0.384   1.171   4.591  0.6135  0.3777 -0.2840
 6033SOL    HW129732   0.302   1.121   4.594 -0.5573  2.3886  1.7872
 6033SOL    HW229733   0.354   1.253   4.631  0.2099  0.3653 -0.5561
 6034SOL     OW29734   0.890   2.413   0.501 -0.2788 -0.0220 -0.1564
 6034SOL    HW129735   0.879   2.400   0.407 -1.2099 -2.4778  0.2871
 6034SOL    HW229736   0.983   2.433   0.502 -0.5490  1.2677 -0.7248
 6035SOL     OW29737   1.105   1.572   8.458  0.1906 -0.2489 -0.0803
 6035SOL    HW129738   1.099   1.648   8.516  1.9130  0.4605 -0.8235
 6035SOL    HW229739   1.033   1.577   8.395  2.0553 -1.3252 -2.3112
 6036SOL     OW29740   4.212   0.000   1.599 -0.5191  0.2389  0.1151
 6036SOL    HW129741   4.163   0.047   1.667  0.3383 -0.4967  1.2229
 6036SOL    HW229742   4.283   4.702   1.653 -0.3058  1.9979  0.9202
 6037SOL     OW29743   0.747   0.567   5.573  0.5753  0.7440 -0.0306
 6037SOL    HW129744   0.720   0.552   5.482 -0.1714 -1.7822  0.6270
 6037SOL    HW229745   0.831   0.612   5.560  0.0331  1.3911 -1.3351
 6038SOL     OW29746   1.207   4.635   0.888 -0.1481  0.4535  0.1276
 6038SOL    HW129747   1.230   4.571   0.955  1.9386 -0.1393 -1.1454
 6038SOL    HW229748   1.287   4.681   0.862 -0.2319  1.3601  1.4867
 6039SOL     OW29749   2.981   0.907   6.838  0.3473  0.1115  0.6317
 6039SOL    HW129750   2.930   0.877   6.913 -1.2236 -0.1183 -0.5310
 6039SOL    HW229751   2.920   0.881   6.769  0.6895 -0.6197  0.6028
 6040SOL     OW29752   1.996   3.515   4.248  0.4995  0.0615 -0.1444
 6040SOL    HW129753   1.956   3.442   4.201  2.2461 -0.3635 -0.9759
 6040SOL    HW229754   1.921   3.544   4.299 -1.3072  0.2475 -2.9003
 6041SOL     OW29755   2.952   3.301   9.953  0.8983 -0.7339  0.2265
 6041SOL    HW129756   2.877   3.336   9.905  0.7515  0.0287  1.0135
 6041SOL    HW229757   3.018   3.370   9.949  2.1436 -1.9521 -0.2568
 6042SOL     OW29758   0.112   3.378   1.494  0.4758  0.4275 -0.4306
 6042SOL    HW129759   0.114   3.283   1.506  0.6109  0.4116 -0.5740
 6042SOL    HW229760   0.207   3.386   1.489  0.6161 -0.7718  0.5668
 6043SOL     OW29761   2.408   3.261   4.079  0.4184  0.4722 -0.4836
 6043SOL    HW129762   2.488   3.296   4.039  0.9569 -0.2294 -0.0152
 6043SOL    HW229763   2.345   3.263   4.007 -1.5310  1.7359  1.2705
 6044SOL     OW29764   4.452   0.627   3.936  0.0381 -0.5139 -0.0895
 6044SOL    HW129765   4.377   0.663   3.889 -0.0045  1.2508  1.3803
 6044SOL    HW229766   4.443   0.535   3.910 -2.8727 -0.0910 -0.5504
 6045SOL     OW29767   1.779   2.459  10.586 -0.3117 -0.0392 -0.3490
 6045SOL    HW129768   1.866   2.498  10.578 -0.1364 -0.2743  0.4615
 6045SOL    HW229769   1.795   2.407  10.665 -1.3666  2.2828  1.3837
 6046SOL     OW29770   2.361   3.188   8.779  0.3266  0.3282 -0.0422
 6046SOL    HW129771   2.315   3.176   8.696 -0.7157  1.0543  0.4282
 6046SOL    HW229772   2.445   3.224   8.752 -0.4217  1.1539 -1.2739
 6047SOL     OW29773   1.224   0.885  15.513 -0.4651 -0.1199 -0.0933
 6047SOL    HW129774   1.148   0.844  15.472 -0.8551  1.6451 -1.1194
 6047SOL    HW229775   1.287   0.814  15.496  1.3701  2.1002 -2.5574
 6048SOL     OW29776   2.010   0.677   2.381 -0.0543  0.1080 -0.3758
 6048SOL    HW129777   1.989   0.697   2.290  2.4658  2.6164 -0.4456
 6048SOL    HW229778   1.971   0.753   2.425 -1.1410 -0.8101  0.2437
 6049SOL     OW29779   3.925   1.130  11.503  0.0719  0.0024 -0.2620
 6049SOL    HW129780   3.836   1.127  11.469 -0.6447  1.1779  1.5052
 6049SOL    HW229781   3.926   1.203  11.566 -0.1869 -0.9079  0.7863
 6050SOL     OW29782   0.965   0.038  10.078 -0.1703  0.1137  0.1118
 6050SOL    HW129783   1.041   4.730  10.118  1.3453  2.1919 -0.5993
 6050SOL    HW229784   0.958   4.716  10.001 -0.7926  1.1150 -0.5634
 6051SOL     OW29785   0.453   0.043  17.190 -0.5762  0.1011  0.5191
 6051SOL    HW129786   0.395   4.711  17.227 -0.9330 -1.0755 -2.1737
 6051SOL    HW229787   0.407   0.123  17.214  2.3832  2.1215 -0.5384
 6052SOL     OW29788   1.310   0.055   4.580 -0.5034  0.1991  0.3594
 6052SOL    HW129789   1.274   4.727   4.644  0.0178 -0.9737 -0.4887
 6052SOL    HW229790   1.319   0.132   4.635 -2.1096  1.0750 -0.6192
 6053SOL     OW29791   2.053   0.470  12.436  0.5073 -0.5120  0.0705
 6053SOL    HW129792   2.014   0.554  12.413  1.4074  0.2378  1.2753
 6053SOL    HW229793   1.987   0.412  12.397 -1.2214  0.3676  1.6474
 6054SOL     OW29794   0.836   1.817   9.287  1.0249  0.0355  0.4217
 6054SOL    HW129795   0.750   1.807   9.245  1.8086 -1.7970 -0.7486
 6054SOL    HW229796   0.841   1.737   9.340  2.0272 -0.8911 -1.0843
 6055SOL     OW29797   3.924   0.600   0.815  0.2537 -0.2701  0.5309
 6055SOL    HW129798   3.849   0.655   0.839 -0.8015 -1.5624  0.2129
 6055SOL    HW229799   3.899   0.571   0.727  2.1851  1.8723 -0.7384
 6056SOL     OW29800   0.234   2.321   0.669  0.1745  0.0044 -0.3037
 6056SOL    HW129801   0.307   2.265   0.695  0.0078 -1.1681 -2.3536
 6056SOL    HW229802   0.206   2.279   0.588  0.4637 -0.6165 -0.0862
 6057SOL     OW29803   3.057   4.116  17.625  0.4923  0.5016  0.2778
 6057SOL    HW129804   3.144   4.155  17.633  0.4087  0.9726 -1.2853
 6057SOL    HW229805   3.022   4.132  17.713  1.0618  3.0062  0.0494
 6058SOL     OW29806   3.042   4.638   6.014 -0.1376 -0.3402 -0.3402
 6058SOL    HW129807   2.958   4.599   5.991 -1.2556  2.6383 -1.2956
 6058SOL    HW229808   3.048   4.711   5.953 -0.6285  0.9672  1.1693
 6059SOL     OW29809   4.139   3.418   1.392 -0.1128 -0.3430  0.3751
 6059SOL    HW129810   4.175   3.330   1.378 -1.1646 -1.2379  3.3817
 6059SOL    HW229811   4.161   3.466   1.312  1.2801  0.1177  1.0370
 6060SOL     OW29812   0.446   2.604  17.260 -0.8484 -0.2188 -0.4817
 6060SOL    HW129813   0.416   2.695  17.264 -0.9031 -0.2035 -1.2419
 6060SOL    HW229814   0.365   2.561  17.287 -0.7294 -0.9727 -1.3559
 6061SOL     OW29815   4.300   1.614   7.528  0.1031 -0.4245  0.5054
 6061SOL    HW129816   4.224   1.556   7.518 -1.1584  0.9823  1.8493
 6061SOL    HW229817   4.366   1.548   7.509 -0.1602 -0.4439 -0.3520
 6062SOL     OW29818   1.031   1.735  11.909  0.4759 -0.5193 -0.0737
 6062SOL    HW129819   0.942   1.759  11.933 -0.1068 -0.3430 -2.4203
 6062SOL    HW229820   1.077   1.798  11.964 -0.9850  0.3007  0.1850
 6063SOL     OW29821   2.148   0.131  12.397 -0.6886  0.0479  0.4915
 6063SOL    HW129822   2.090   0.121  12.321 -0.7108  1.2411  0.3492
 6063SOL    HW229823   2.083   0.136  12.467 -1.4832  3.4167 -0.5141
 6064SOL     OW29824   2.375   1.712  15.289 -0.0995  0.3695 -0.3723
 6064SOL    HW129825   2.425   1.771  15.345  0.6497 -0.9823  0.3848
 6064SOL    HW229826   2.287   1.749  15.291  0.2046  1.0466  0.3224
 6065SOL     OW29827   3.083   1.611   2.308 -0.1662  0.4433  0.3808
 6065SOL    HW129828   3.031   1.687   2.333 -1.5336 -0.0964 -0.8365
 6065SOL    HW229829   3.169   1.636   2.343  0.5306 -2.7375  0.9549
 6066SOL     OW29830   2.925   0.879   8.026 -0.1820  0.7040 -0.7147
 6066SOL    HW129831   2.913   0.940   8.099 -0.2110  2.8948 -2.5326
 6066SOL    HW229832   2.911   0.938   7.952  0.4228  1.9772  0.1966
 6067SOL     OW29833   1.640   0.466   3.372 -0.6979 -0.4402 -0.0423
 6067SOL    HW129834   1.702   0.441   3.304  0.1895  2.2819 -0.2382
 6067SOL    HW229835   1.577   0.394   3.367 -1.6857  0.3813  0.3658
 6068SOL     OW29836   3.484   1.496   5.019  0.3319 -0.4000  0.1684
 6068SOL    HW129837   3.550   1.454   5.074  1.1420 -0.1869 -0.6281
 6068SOL    HW229838   3.405   1.491   5.072  0.1957  0.9333  0.1021
 6069SOL     OW29839   1.587   3.981   9.000  0.3035 -0.1683 -0.5638
 6069SOL    HW129840   1.612   4.069   9.027 -0.8623 -0.3454  1.0842
 6069SOL    HW229841   1.596   3.933   9.082 -2.0644  0.4450  0.0562
 6070SOL     OW29842   2.363   3.443   2.048 -0.6387  0.0330 -0.0540
 6070SOL    HW129843   2.275   3.444   2.086 -0.1175 -3.0320  1.2235
 6070SOL    HW229844   2.367   3.372   1.984  1.4356 -0.2990  0.4367
 6071SOL     OW29845   0.500   2.744   0.515 -0.4071  0.5465 -0.3614
 6071SOL    HW129846   0.589   2.728   0.546 -0.8997 -0.7536  0.3818
 6071SOL    HW229847   0.453   2.664   0.538 -1.3822  1.0631 -0.5459
 6072SOL     OW29848   1.206   2.380   7.586 -0.0611  0.1745  0.2638
 6072SOL    HW129849   1.207   2.404   7.494 -1.1094 -1.2971 -0.1206
 6072SOL    HW229850   1.114   2.357   7.598 -0.1573 -0.1283 -1.1039
 6073SOL     OW29851   0.603   1.772   6.534  0.0349  0.2391  0.0744
 6073SOL    HW129852   0.623   1.683   6.506  1.4738 -0.0132  1.8780
 6073SOL    HW229853   0.509   1.763   6.545  0.1826 -1.1575  0.2136
 6074SOL     OW29854   3.867   2.954  11.567 -0.0833  0.2212  0.0779
 6074SOL    HW129855   3.927   2.911  11.628  0.2845  0.0213 -0.4313
 6074SOL    HW229856   3.784   2.958  11.616  0.7126 -1.7607  1.6019
 6075SOL     OW29857   0.963   3.323   6.285  0.0192  0.0612  0.2498
 6075SOL    HW129858   0.961   3.410   6.245 -1.7250 -0.5645 -1.0315
 6075SOL    HW229859   1.031   3.281   6.232  0.3036  0.7847  0.0420
 6076SOL     OW29860   2.907   3.238  17.458  0.3362 -0.0282 -0.0436
 6076SOL    HW129861   2.892   3.214  17.366  2.6544  1.3081 -0.7858
 6076SOL    HW229862   2.922   3.332  17.448 -0.4124  0.2779  1.7898
 6077SOL     OW29863   4.488   2.252  12.137  0.7436  0.0414  0.1816
 6077SOL    HW129864   4.518   2.196  12.065  0.4300  1.0935 -0.7611
 6077SOL    HW229865   4.571   2.261  12.183 -0.9374  0.2786  3.1763
 6078SOL     OW29866   4.440   3.180   1.408 -1.1435  0.7820 -0.3558
 6078SOL    HW129867   4.456   3.141   1.322  0.7429 -0.2019  0.4560
 6078SOL    HW229868   4.346   3.159   1.414 -1.0330  0.4842  0.3159
 6079SOL     OW29869   2.535   4.003  13.053 -0.2186  0.3150  0.0102
 6079SOL    HW129870   2.522   4.080  12.997 -2.8840 -1.0910 -1.3072
 6079SOL    HW229871   2.488   4.036  13.129 -0.4878 -0.4110  0.1602
 6080SOL     OW29872   3.300   1.735   2.388 -0.1498  0.0978  0.4163
 6080SOL    HW129873   3.389   1.750   2.357 -0.7155  2.1309 -0.2128
 6080SOL    HW229874   3.286   1.814   2.441 -0.1733  0.8436 -0.7013
 6081SOL     OW29875   2.413   1.449   4.104 -0.7864 -0.2688  0.4200
 6081SOL    HW129876   2.397   1.541   4.128  1.1078 -0.2632  1.6252
 6081SOL    HW229877   2.493   1.454   4.052 -1.2715  0.3566 -0.2763
 6082SOL     OW29878   4.033   0.984   8.480 -0.0469 -0.1788  0.2451
 6082SOL    HW129879   4.084   1.041   8.423  0.4453  0.4395  1.3012
 6082SOL    HW229880   4.026   1.044   8.555 -2.3646 -0.4231  0.2298
 6083SOL     OW29881   3.120   1.234   7.993  0.4688 -0.2621 -0.1064
 6083SOL    HW129882   3.180   1.160   8.000  3.2424  2.1587  1.8807
 6083SOL    HW229883   3.033   1.199   8.013  1.0719 -1.6460  0.0317
 6084SOL     OW29884   3.328   3.352   6.783 -0.1843  0.0042 -0.5979
 6084SOL    HW129885   3.349   3.431   6.834  1.5156 -0.4763 -0.5552
 6084SOL    HW229886   3.294   3.297   6.853  0.2135  1.8081  1.0169
 6085SOL     OW29887   2.278   2.570   3.447 -0.1218 -0.3368 -0.0366
 6085SOL    HW129888   2.320   2.484   3.447 -0.7418 -0.6343 -0.4236
 6085SOL    HW229889   2.191   2.534   3.435 -0.2890  0.4933 -1.2464
 6086SOL     OW29890   0.403   2.984   2.705  0.0627  0.2645  0.1446
 6086SOL    HW129891   0.471   2.995   2.638  1.7728 -2.0308  1.5108
 6086SOL    HW229892   0.418   3.067   2.751 -1.8213  1.2250 -0.9588
 6087SOL     OW29893   0.209   4.278   3.040 -0.0856 -0.1185  0.9260
 6087SOL    HW129894   0.237   4.325   2.962 -0.0959  1.6336  1.9709
 6087SOL    HW229895   0.296   4.249   3.069 -0.9076 -3.0795  0.3653
 6088SOL     OW29896   3.197   3.377  12.145  0.0706 -0.1725  0.1133
 6088SOL    HW129897   3.137   3.427  12.200  0.3344  0.1152  0.1352
 6088SOL    HW229898   3.266   3.442  12.133 -0.7750  0.9955  1.6684
 6089SOL     OW29899   2.807   3.902   5.602 -0.3381  0.0165  0.3651
 6089SOL    HW129900   2.824   3.832   5.540  0.2301  1.2239 -0.8362
 6089SOL    HW229901   2.727   3.942   5.568  0.2636  0.4562 -0.5377
 6090SOL     OW29902   3.282   1.170   5.241 -0.0219  0.5009  0.0951
 6090SOL    HW129903   3.348   1.108   5.274 -0.0907  0.3868  0.0176
 6090SOL    HW229904   3.233   1.130   5.169  1.4255  0.2876 -0.7830
 6091SOL     OW29905   4.558   3.941   4.186 -0.2274  0.1997 -0.2480
 6091SOL    HW129906   4.472   3.904   4.166 -0.3115  0.6500 -0.7401
 6091SOL    HW229907   4.576   3.966   4.095 -2.5694  1.9921 -0.2041
 6092SOL     OW29908   0.526   2.975   0.360  0.0994  0.1115 -0.1781
 6092SOL    HW129909   0.522   2.893   0.409  2.7348 -0.1453 -0.4044
 6092SOL    HW229910   0.570   2.951   0.278 -2.7302  0.3491 -1.7917
 6093SOL     OW29911   1.720   0.707  10.132 -0.0214  0.1242 -0.1605
 6093SOL    HW129912   1.795   0.692  10.074 -0.1245 -1.1661  0.0486
 6093SOL    HW229913   1.729   0.798  10.163 -0.5427  0.2618 -0.4280
 6094SOL     OW29914   0.785   2.189   9.727  0.5540  0.0590  0.0773
 6094SOL    HW129915   0.774   2.168   9.635  1.9388  1.7260 -0.4731
 6094SOL    HW229916   0.699   2.228   9.741  0.8944  0.3466  1.4572
 6095SOL     OW29917   1.961   1.122   3.939 -0.4553 -0.1739  0.4498
 6095SOL    HW129918   1.992   1.065   3.869  0.9261  1.2154 -0.0722
 6095SOL    HW229919   1.992   1.083   4.021  1.1225 -1.1024 -0.5937
 6096SOL     OW29920   3.763   3.211   3.545 -0.3666  0.1319 -0.2720
 6096SOL    HW129921   3.670   3.204   3.564 -0.0004  0.9362  1.8370
 6096SOL    HW229922   3.759   3.199   3.450  0.4334 -1.1387 -0.1519
 6097SOL     OW29923   2.106   1.594   6.610 -0.3084  0.1710  0.2740
 6097SOL    HW129924   2.138   1.589   6.520 -0.5314  0.7848  0.1583
 6097SOL    HW229925   2.017   1.617   6.582 -0.4707 -0.9267 -0.1179
 6098SOL     OW29926   4.675   3.478   2.749 -0.3189 -0.0388 -0.0454
 6098SOL    HW129927   4.611   3.418   2.787  0.0692  0.4980  1.4535
 6098SOL    HW229928   4.645   3.561   2.787 -2.5088 -1.1139  0.6026
 6099SOL     OW29929   1.728   1.360   3.690  0.2650  0.2588 -0.4675
 6099SOL    HW129930   1.823   1.366   3.697 -0.0140  1.0582  2.4145
 6099SOL    HW229931   1.716   1.289   3.626 -1.7377  1.3984 -1.3612
 6100SOL     OW29932   1.988   2.565   8.616  0.3213 -0.1614  0.7685
 6100SOL    HW129933   1.893   2.579   8.619  0.5807  1.8060  0.1574
 6100SOL    HW229934   2.029   2.640   8.660 -1.1611  1.8752 -1.3709
 6101SOL     OW29935   4.180   1.132   8.032  0.2876 -0.2805  0.4894
 6101SOL    HW129936   4.103   1.171   7.990 -0.1646  0.6431  2.1952
 6101SOL    HW229937   4.136   1.055   8.069 -1.9952  1.7946  2.0598
 6102SOL     OW29938   4.283   1.872   4.090  0.0556 -0.2094 -0.0406
 6102SOL    HW129939   4.248   1.826   4.167  1.0239  2.0924  1.7570
 6102SOL    HW229940   4.200   1.904   4.054  1.7307  1.5333 -2.3403
 6103SOL     OW29941   2.496   0.852   7.988  0.2033  0.8626  0.0659
 6103SOL    HW129942   2.460   0.887   7.906  2.3392  1.8610 -0.4640
 6103SOL    HW229943   2.547   0.928   8.018 -1.8177  1.9077  0.8510
 6104SOL     OW29944   2.115   4.260  16.938  0.4065 -0.2562 -0.2060
 6104SOL    HW129945   2.153   4.253  17.026  0.1066 -0.0621 -0.0619
 6104SOL    HW229946   2.023   4.283  16.947  0.8529  1.3990  0.1640
 6105SOL     OW29947   4.308   2.668   3.083  0.0302 -0.1472 -0.0220
 6105SOL    HW129948   4.376   2.632   3.140  0.7220  1.5461  0.2350
 6105SOL    HW229949   4.366   2.711   3.020 -1.2657  1.9597  0.1982
 6106SOL     OW29950   2.625   1.019  12.668 -0.1892 -0.7467  0.2412
 6106SOL    HW129951   2.719   1.006  12.654  0.1286  1.1535  0.5401
 6106SOL    HW229952   2.611   1.075  12.592 -0.4006 -1.2995 -0.1233
 6107SOL     OW29953   3.928   3.044   4.989  0.2569  0.4578  0.1503
 6107SOL    HW129954   4.015   3.042   4.948 -0.0551 -1.7644 -0.4076
 6107SOL    HW229955   3.928   2.956   5.027 -1.8129  1.5362  2.6470
 6108SOL     OW29956   0.390   3.940   2.844 -0.4589  0.4798 -0.3449
 6108SOL    HW129957   0.482   3.961   2.863  0.0146 -0.4891 -1.6161
 6108SOL    HW229958   0.367   3.913   2.933 -1.9446 -0.6885 -1.0766
 6109SOL     OW29959   1.417   1.854   3.978 -0.0016  0.2190  0.0056
 6109SOL    HW129960   1.426   1.777   4.035  1.1851  1.4259  1.4525
 6109SOL    HW229961   1.390   1.804   3.901 -0.6183  2.4499 -1.2043
 6110SOL     OW29962   3.571   0.734   7.011  0.6784  0.0642 -0.4258
 6110SOL    HW129963   3.660   0.767   6.999  0.1162  1.8375  0.2577
 6110SOL    HW229964   3.555   0.666   6.946  0.2531 -1.1084  0.9013
 6111SOL     OW29965   0.260   2.512   7.344  0.6430 -0.0415 -0.4159
 6111SOL    HW129966   0.263   2.418   7.356  1.0736 -0.1425 -1.3197
 6111SOL    HW229967   0.178   2.532   7.298  0.1044  1.2825  1.1220
 6112SOL     OW29968   2.785   1.203   5.748 -0.2104  0.3356  0.3982
 6112SOL    HW129969   2.810   1.292   5.775  0.4448 -0.0838  1.1832
 6112SOL    HW229970   2.692   1.207   5.769  0.1985 -2.0943  2.6381
 6113SOL     OW29971   0.372   3.964   1.215  0.0547  0.5759 -0.5352
 6113SOL    HW129972   0.448   3.951   1.271 -1.5313 -1.9551  1.0191
 6113SOL    HW229973   0.301   3.905   1.240 -0.7321  1.5411 -0.4793
 6114SOL     OW29974   2.615   3.758   9.316 -0.2713  0.1163  0.1499
 6114SOL    HW129975   2.543   3.817   9.294 -0.4464 -0.4032 -0.6963
 6114SOL    HW229976   2.680   3.818   9.351  0.2487  0.8323 -2.0512
 6115SOL     OW29977   4.336   2.023   8.486  0.2880  0.4008 -0.2325
 6115SOL    HW129978   4.326   2.089   8.555  2.1460  1.8567 -1.3571
 6115SOL    HW229979   4.354   2.080   8.411  0.8142  0.0693 -0.3572
 6116SOL     OW29980   4.297   2.545   1.784  0.2043  0.2496  0.5355
 6116SOL    HW129981   4.267   2.473   1.729  3.1421 -2.5716  2.5771
 6116SOL    HW229982   4.389   2.522   1.797 -0.0731 -0.6683  0.9070
 6117SOL     OW29983   3.192   1.248   2.428  0.2963  0.2173  0.1751
 6117SOL    HW129984   3.191   1.326   2.483 -0.4497  1.5684 -1.7407
 6117SOL    HW229985   3.097   1.233   2.428 -0.0102  2.1120 -0.3008
 6118SOL     OW29986   4.664   4.095   4.397  0.1507  0.1652  0.0388
 6118SOL    HW129987   4.616   4.040   4.335  0.6269 -0.6974  0.4322
 6118SOL    HW229988   4.625   4.071   4.482  2.1984  1.5192  1.3528
 6119SOL     OW29989   2.748   4.328   5.587  0.0684  0.3699 -0.2406
 6119SOL    HW129990   2.834   4.288   5.600 -0.0036  1.1406  2.6697
 6119SOL    HW229991   2.710   4.289   5.666  0.9276 -1.8131 -0.9306
 6120SOL     OW29992   2.721   2.476   9.498 -0.3820  0.2766  0.7089
 6120SOL    HW129993   2.784   2.500   9.430  1.9994 -1.4654  2.3235
 6120SOL    HW229994   2.716   2.381   9.482 -2.1876  0.1768  1.9056
 6121SOL     OW29995   0.483   3.275  13.870  0.3027 -0.0077  0.2690
 6121SOL    HW129996   0.515   3.318  13.949  1.6619 -1.9081  0.7515
 6121SOL    HW229997   0.505   3.336  13.799 -1.1189  1.5981  1.2059
 6122SOL     OW29998   2.996   3.387   7.765  0.1225 -0.2919  0.2134
 6122SOL    HW129999   3.055   3.426   7.829 -0.3890 -1.0478  1.1452
 6122SOL    HW230000   3.056   3.388   7.690  1.2221 -0.7021  1.0895
 6123SOL     OW30001   0.050   1.803   5.100  0.7145  0.1702 -0.4432
 6123SOL    HW130002   4.689   1.812   5.100  0.6656 -0.3346 -1.0141
 6123SOL    HW230003   0.057   1.733   5.035 -0.6188 -1.4507  1.1653
 6124SOL     OW30004   1.238   3.824   6.160 -0.1956 -0.1696  0.3618
 6124SOL    HW130005   1.332   3.835   6.174 -0.0126  0.0188 -0.9946
 6124SOL    HW230006   1.219   3.844   6.068  0.9647  0.2663  0.2159
 6125SOL     OW30007   3.834   2.570   8.878  0.4689  0.4199  0.5638
 6125SOL    HW130008   3.856   2.539   8.790 -1.6893 -0.2073  0.2368
 6125SOL    HW230009   3.898   2.525   8.933  0.7814  1.0766  0.7303
 6126SOL     OW30010   1.155   1.352   4.106 -0.1544  0.7068 -0.4480
 6126SOL    HW130011   1.096   1.279   4.121  1.1471  0.4014  3.2448
 6126SOL    HW230012   1.219   1.313   4.047 -0.4355 -0.8103  0.2537
 6127SOL     OW30013   3.457   1.097   3.982 -0.0102 -0.5291  0.4580
 6127SOL    HW130014   3.411   1.169   3.939  0.2085 -0.1247  0.9048
 6127SOL    HW230015   3.520   1.078   3.913 -1.1607 -1.5554 -0.3076
 6128SOL     OW30016   2.186   1.678   3.255  0.0316 -0.1689  0.1390
 6128SOL    HW130017   2.168   1.585   3.266 -1.6717  0.3041  1.3424
 6128SOL    HW230018   2.269   1.691   3.300 -0.1322 -1.7692  0.9053
 6129SOL     OW30019   3.531   3.774   9.134 -0.1813  0.5831 -0.0879
 6129SOL    HW130020   3.533   3.691   9.086  0.5324  0.6174 -0.1200
 6129SOL    HW230021   3.620   3.809   9.121 -0.9995  1.5426 -3.0006
 6130SOL     OW30022   1.094   3.229   8.528 -0.2983  0.0022 -0.5426
 6130SOL    HW130023   1.097   3.163   8.458  0.7084  0.3269 -0.8142
 6130SOL    HW230024   1.060   3.310   8.489 -0.4159 -0.8145 -2.1349
 6131SOL     OW30025   0.188   4.086   8.350  0.1157  0.8562 -0.2231
 6131SOL    HW130026   0.228   4.078   8.263 -2.2898  0.0501 -1.2532
 6131SOL    HW230027   0.249   4.133   8.406  0.5794  0.1035 -0.0924
 6132SOL     OW30028   3.815   0.703   9.700 -0.2717 -0.0421  0.0825
 6132SOL    HW130029   3.755   0.645   9.654 -0.3428 -1.3882  1.8613
 6132SOL    HW230030   3.803   0.674   9.791 -1.5850  0.0856 -0.0592
 6133SOL     OW30031   1.183   1.633   0.561  0.1582  0.0385  0.3387
 6133SOL    HW130032   1.141   1.646   0.476 -2.7710 -0.5263  1.6999
 6133SOL    HW230033   1.207   1.540   0.554 -0.9544 -0.0521 -2.4870
 6134SOL     OW30034   0.415   0.616   6.766 -0.1790  0.1634  0.0345
 6134SOL    HW130035   0.469   0.695   6.771 -0.5348  0.2964  1.7056
 6134SOL    HW230036   0.444   0.572   6.686  1.9316  1.6623 -0.0322
 6135SOL     OW30037   0.004   2.848  14.827 -0.0049 -0.2347  0.2677
 6135SOL    HW130038   4.695   2.806  14.901 -0.7063  0.4156  0.2157
 6135SOL    HW230039   0.022   2.934  14.865 -0.3035 -1.0425  2.2243
 6136SOL     OW30040   2.120   1.483   8.007  0.6311  0.4586 -0.2608
 6136SOL    HW130041   2.074   1.474   8.090 -0.6105  1.5119 -0.8311
 6136SOL    HW230042   2.120   1.394   7.972 -2.3970 -0.0351  0.9829
 6137SOL     OW30043   3.220   3.279   8.507  0.0446 -0.0660 -0.4555
 6137SOL    HW130044   3.191   3.201   8.461  2.4986 -1.6347  0.6438
 6137SOL    HW230045   3.188   3.348   8.449  1.2504  0.8119 -0.0795
 6138SOL     OW30046   2.134   0.294   9.230  0.2856  0.1140  0.2996
 6138SOL    HW130047   2.154   0.302   9.137  0.1928 -1.5259  0.1366
 6138SOL    HW230048   2.186   0.367   9.265 -0.0900 -0.2144  1.5412
 6139SOL     OW30049   4.236   0.799   0.877 -0.0925  0.1475 -0.3965
 6139SOL    HW130050   4.186   0.828   0.953  1.3007 -2.2595  1.4553
 6139SOL    HW230051   4.228   0.872   0.816  2.2630  3.3798  3.1925
 6140SOL     OW30052   4.480   4.364  14.185 -0.4646  0.3698 -0.0355
 6140SOL    HW130053   4.437   4.447  14.206  0.0081  0.1464  1.7799
 6140SOL    HW230054   4.498   4.378  14.092  0.1110 -1.1402 -0.1460
 6141SOL     OW30055   3.534   1.012   6.186  0.8832  0.2594 -0.2187
 6141SOL    HW130056   3.517   1.101   6.154  0.1775 -0.4382 -1.7657
 6141SOL    HW230057   3.442   0.988   6.201  0.8143  1.2953  1.0641
 6142SOL     OW30058   0.536   3.957   5.592  0.5893 -0.2598  0.0622
 6142SOL    HW130059   0.488   3.938   5.511  1.4520 -2.6679  0.1207
 6142SOL    HW230060   0.626   3.929   5.575  0.5979 -0.8616  1.1178
 6143SOL     OW30061   4.332   2.747  11.816 -0.1031 -0.8779 -0.0477
 6143SOL    HW130062   4.359   2.729  11.726  0.0751  1.3783 -0.4524
 6143SOL    HW230063   4.339   2.663  11.861  0.0017 -0.9860 -0.2657
 6144SOL     OW30064   0.429   1.498   8.168 -0.0953  0.6067 -0.5242
 6144SOL    HW130065   0.408   1.527   8.079  2.1430 -3.5959 -2.4459
 6144SOL    HW230066   0.348   1.450   8.184  1.6549 -1.0807  3.2042
 6145SOL     OW30067   4.035   3.706   4.021 -0.0185  0.2283 -0.1867
 6145SOL    HW130068   3.953   3.733   4.061 -0.9718 -0.0230 -1.9755
 6145SOL    HW230069   4.004   3.637   3.963  0.9186 -0.7700  0.4840
 6146SOL     OW30070   4.398   2.471   6.805  0.2865 -0.3248  0.6324
 6146SOL    HW130071   4.444   2.444   6.725  0.2888  1.1022  0.1400
 6146SOL    HW230072   4.399   2.565   6.789 -1.1744 -0.4669 -0.2732
 6147SOL     OW30073   1.812   1.979   3.068  0.7577 -1.0152 -0.3280
 6147SOL    HW130074   1.779   2.069   3.059  1.3418 -0.7604  0.0699
 6147SOL    HW230075   1.774   1.956   3.153  0.6460  1.0867  0.2012
 6148SOL     OW30076   2.506   2.553  10.524 -0.5611 -0.3700 -0.0049
 6148SOL    HW130077   2.414   2.526  10.524 -0.0927 -1.9423 -1.6907
 6148SOL    HW230078   2.518   2.564  10.429  2.4621  0.4694  0.4844
 6149SOL     OW30079   2.250   0.225   6.172  0.1280 -0.1089  0.3330
 6149SOL    HW130080   2.262   0.188   6.085  0.2346 -0.8202  0.6473
 6149SOL    HW230081   2.195   0.157   6.212 -1.0557 -0.3370 -1.7143
 6150SOL     OW30082   3.152   1.285   5.461  0.1656  0.4142 -0.6681
 6150SOL    HW130083   3.184   1.220   5.399  1.8922 -0.5304  1.1914
 6150SOL    HW230084   3.073   1.308   5.413 -1.0254 -0.7245  0.7402
 6151SOL     OW30085   3.363   2.005  17.559  0.0488  0.2660  0.0653
 6151SOL    HW130086   3.437   1.999  17.498  0.7152  1.0695  0.7954
 6151SOL    HW230087   3.389   2.094  17.584  1.4305 -0.3799  0.9620
 6152SOL     OW30088   3.541   3.284   9.238  0.3399  0.6767  0.3029
 6152SOL    HW130089   3.522   3.193   9.212 -0.0842  0.8142  0.1364
 6152SOL    HW230090   3.612   3.263   9.299  0.4928 -2.7774 -1.0228
 6153SOL     OW30091   1.025   2.903  13.335  0.1232  0.0742  0.0297
 6153SOL    HW130092   0.995   2.861  13.415  1.9976 -1.5188 -0.0948
 6153SOL    HW230093   1.083   2.838  13.295 -0.2351 -1.0466  1.3343
 6154SOL     OW30094   2.643   0.576   5.398  0.5543  0.7506  0.1904
 6154SOL    HW130095   2.670   0.508   5.460 -0.1344  0.5046  0.2255
 6154SOL    HW230096   2.550   0.561   5.383  0.6468  1.4288 -1.0605
 6155SOL     OW30097   3.150   3.989   5.287  0.4880 -0.3050  0.4014
 6155SOL    HW130098   3.071   4.041   5.266  1.0679 -0.4323 -2.0913
 6155SOL    HW230099   3.144   3.924   5.217  0.8482  0.8378 -0.7045
 6156SOL     OW30100   4.407   2.796  16.782 -0.1593 -0.5908  0.5181
 6156SOL    HW130101   4.442   2.782  16.694 -1.7467 -2.1065  0.1319
 6156SOL    HW230102   4.316   2.817  16.760  0.4674  3.3458  1.7244
 6157SOL     OW30103   0.517   2.596  11.357  0.1654  0.6750 -0.3698
 6157SOL    HW130104   0.480   2.545  11.285 -0.7291 -1.5840  1.6763
 6157SOL    HW230105   0.590   2.639  11.312  0.9065 -1.0072 -0.7434
 6158SOL     OW30106   2.012   0.892   6.404 -0.1829  0.1401  0.8794
 6158SOL    HW130107   1.975   0.805   6.393  1.0190 -0.2085 -0.3712
 6158SOL    HW230108   1.976   0.939   6.329  0.3539  0.1398  0.6216
 6159SOL     OW30109   4.068   4.608  13.703  0.1127 -0.3492 -0.4012
 6159SOL    HW130110   4.095   4.696  13.729 -1.4331 -0.2664  0.8773
 6159SOL    HW230111   3.986   4.601  13.751  1.5112 -2.9639  1.5790
 6160SOL     OW30112   3.607   1.633  10.393  0.2521  0.3227  0.4878
 6160SOL    HW130113   3.515   1.608  10.387 -0.0123  1.1844  0.9673
 6160SOL    HW230114   3.642   1.557  10.440 -2.1561 -0.6067  0.7672
 6161SOL     OW30115   0.572   4.268  13.349  0.2513  0.1736 -0.6188
 6161SOL    HW130116   0.539   4.355  13.325  0.0169  0.7951  1.8774
 6161SOL    HW230117   0.570   4.284  13.444 -0.1567  1.1882 -0.7926
 6162SOL     OW30118   4.567   3.271   0.247  0.0597  0.1159  0.1153
 6162SOL    HW130119   4.588   3.182   0.278  0.8627 -0.4694 -2.0861
 6162SOL    HW230120   4.591   3.319   0.326  1.1131 -0.5893  0.2221
 6163SOL     OW30121   2.216   4.238  10.071  0.9036  0.0765  0.2601
 6163SOL    HW130122   2.253   4.235  10.159  2.3958 -1.5254 -0.4277
 6163SOL    HW230123   2.166   4.320  10.067  0.0222 -0.5164 -1.0238
 6164SOL     OW30124   2.754   1.804   6.741 -0.2561 -0.2292 -0.0145
 6164SOL    HW130125   2.786   1.781   6.653 -1.3861  0.3572 -0.5879
 6164SOL    HW230126   2.678   1.861   6.726  0.4606  0.7892  0.1977
 6165SOL     OW30127   1.122   4.412  15.977  0.2179  0.1045 -0.7505
 6165SOL    HW130128   1.098   4.382  15.889  1.5974 -1.2008 -0.6908
 6165SOL    HW230129   1.043   4.390  16.027  0.7106  2.1946  0.9491
 6166SOL     OW30130   3.084   0.514   4.841  0.7365 -0.1896 -0.0372
 6166SOL    HW130131   3.076   0.448   4.910  2.4955  0.4270  0.7557
 6166SOL    HW230132   3.021   0.472   4.783  0.6582  1.1789 -0.9504
 6167SOL     OW30133   4.416   3.699   5.983  0.3249  0.6579  0.0233
 6167SOL    HW130134   4.336   3.649   6.001  2.0309 -1.0607  2.8597
 6167SOL    HW230135   4.386   3.777   6.029 -0.2884  1.9002 -2.5496
 6168SOL     OW30136   3.298   1.144   8.331  0.0072  0.9944  0.0438
 6168SOL    HW130137   3.256   1.079   8.387  0.0441  1.2640  0.3857
 6168SOL    HW230138   3.283   1.098   8.249 -2.1910 -0.3777  1.2435
 6169SOL     OW30139   0.717   1.226  14.795 -0.5483 -0.1974  0.2504
 6169SOL    HW130140   0.812   1.241  14.797 -0.3581 -1.5716  2.2885
 6169SOL    HW230141   0.684   1.315  14.786 -1.3849 -0.1811  3.4319
 6170SOL     OW30142   0.592   0.682   6.237  0.3846  0.3673  0.2465
 6170SOL    HW130143   0.664   0.626   6.209  0.4828 -0.2549  1.7762
 6170SOL    HW230144   0.531   0.619   6.276  1.3774 -0.1829  0.9033
 6171SOL     OW30145   3.263   4.437   6.987 -0.8830 -0.0186  0.1561
 6171SOL    HW130146   3.326   4.399   6.926 -1.3727  1.9985 -1.5801
 6171SOL    HW230147   3.312   4.513   7.019  0.4712 -1.2360  0.9694
 6172SOL     OW30148   3.281   3.833  15.183 -0.4957 -0.1781 -0.1969
 6172SOL    HW130149   3.207   3.869  15.134  1.4779  1.3556 -2.0148
 6172SOL    HW230150   3.333   3.783  15.120 -0.4499 -0.9851  0.4736
 6173SOL     OW30151   0.752   1.324   9.722  0.4810 -0.3140  0.3923
 6173SOL    HW130152   0.729   1.236   9.754 -1.6932  0.5715  1.2766
 6173SOL    HW230153   0.667   1.368   9.723  1.1267  0.9230  0.8641
 6174SOL     OW30154   4.522   3.148   1.044  0.2021  0.1004 -0.1591
 6174SOL    HW130155   4.450   3.210   1.049 -1.7570 -2.3313  1.2357
 6174SOL    HW230156   4.521   3.127   0.950 -1.8347 -0.3342 -0.0258
 6175SOL     OW30157   1.244   2.113   1.880 -0.4594  0.0059  0.2808
 6175SOL    HW130158   1.181   2.041   1.877 -0.7170  0.1341  2.5810
 6175SOL    HW230159   1.269   2.125   1.788  1.1229  2.0483  0.9904
 6176SOL     OW30160   4.306   3.112  16.925 -0.1370  0.2599 -0.1318
 6176SOL    HW130161   4.353   3.113  16.841  0.3742 -1.0674  0.1518
 6176SOL    HW230162   4.224   3.154  16.897 -0.8342 -0.6248  0.6207
 6177SOL     OW30163   0.527   0.854   6.748  0.5294  0.3164  0.2692
 6177SOL    HW130164   0.455   0.892   6.698 -0.6396  0.0967  1.7769
 6177SOL    HW230165   0.608   0.888   6.711 -0.2124  2.3496  0.5084
 6178SOL     OW30166   3.443   3.714  15.003  0.2081  0.1068  0.0380
 6178SOL    HW130167   3.446   3.618  15.013  1.9646  0.2207  0.6035
 6178SOL    HW230168   3.518   3.727  14.946  1.6902  0.7249  2.1237
 6179SOL     OW30169   2.463   0.690   0.526 -0.4729 -0.1387 -0.5917
 6179SOL    HW130170   2.456   0.781   0.499 -0.1320  0.1637  0.3475
 6179SOL    HW230171   2.369   0.677   0.531 -0.6183  1.4726  0.6710
 6180SOL     OW30172   2.071   0.127   7.308 -0.4957 -0.1591  0.2548
 6180SOL    HW130173   1.985   0.107   7.345  0.2835 -0.3316  1.9730
 6180SOL    HW230174   2.089   0.040   7.272 -1.5146 -0.5485  0.6642
 6181SOL     OW30175   2.955   4.320  11.173  0.0787  0.7693  0.2128
 6181SOL    HW130176   2.947   4.402  11.221  1.5197  0.6679  0.6209
 6181SOL    HW230177   2.986   4.269  11.249  0.1192  2.0691  1.0690
 6182SOL     OW30178   2.751   3.745   3.239  0.5693 -0.2274 -0.1678
 6182SOL    HW130179   2.735   3.824   3.189 -4.6006 -1.7091 -0.8025
 6182SOL    HW230180   2.674   3.736   3.295  1.2263  0.0387  0.7916
 6183SOL     OW30181   4.189   2.497  12.255 -0.4120 -0.1834 -0.1731
 6183SOL    HW130182   4.209   2.437  12.328 -0.1838 -3.4012 -2.8839
 6183SOL    HW230183   4.218   2.577  12.298  0.7552 -0.9572  0.4862
 6184SOL     OW30184   1.665   3.080  13.125  0.7587 -0.1648 -0.0556
 6184SOL    HW130185   1.665   3.148  13.058 -0.4227  0.7277  0.8381
 6184SOL    HW230186   1.694   3.002  13.078 -0.4485 -1.4064  1.2672
 6185SOL     OW30187   4.230   3.052   7.146  0.2799  0.2604 -0.4055
 6185SOL    HW130188   4.288   3.128   7.160  1.2846 -0.9188  1.8634
 6185SOL    HW230189   4.243   3.000   7.226 -1.4372 -1.4568 -1.2525
 6186SOL     OW30190   0.758   0.441   4.202  0.1253  0.3393  0.0824
 6186SOL    HW130191   0.841   0.484   4.221 -0.1280  1.4737 -1.4495
 6186SOL    HW230192   0.744   0.387   4.281 -0.0809 -0.4664 -0.5048
 6187SOL     OW30193   0.087   3.269   1.129  0.2353  0.1671 -0.9106
 6187SOL    HW130194   4.731   3.249   1.102  0.2219 -1.4424  0.3503
 6187SOL    HW230195   0.094   3.356   1.088 -1.5794  0.6724 -0.1459
 6188SOL     OW30196   2.383   1.257  11.602  0.1158  0.4267 -0.3794
 6188SOL    HW130197   2.418   1.173  11.632 -0.8566 -0.0717 -0.6547
 6188SOL    HW230198   2.292   1.228  11.611 -0.0368  1.2399  0.8121
 6189SOL     OW30199   0.462   2.876   5.035  0.2375 -0.2278  0.0666
 6189SOL    HW130200   0.394   2.883   5.102 -1.5332  2.0661 -1.9542
 6189SOL    HW230201   0.520   2.946   5.066  0.1361 -0.5649  1.0192
 6190SOL     OW30202   0.481   0.828   7.016 -0.4210 -0.1575  0.2311
 6190SOL    HW130203   0.496   0.822   6.922  0.4790  0.5604  0.3292
 6190SOL    HW230204   0.408   0.888   7.025 -1.4833 -1.5339  0.8988
 6191SOL     OW30205   4.288   3.985   1.553  0.0413  0.4471  0.0254
 6191SOL    HW130206   4.360   3.984   1.489 -0.9944 -0.8318 -1.1132
 6191SOL    HW230207   4.246   3.900   1.542 -0.6369  0.9585 -1.2527
 6192SOL     OW30208   1.891   4.444  14.396  0.5228  0.6134  0.0710
 6192SOL    HW130209   1.876   4.460  14.489 -0.7375 -1.3598  0.2045
 6192SOL    HW230210   1.849   4.359  14.406  0.5500  0.4372 -1.3421
 6193SOL     OW30211   0.200   1.549   8.402  0.9200  0.2016  0.2411
 6193SOL    HW130212   0.216   1.637   8.370  0.7919  0.4777  0.9330
 6193SOL    HW230213   0.191   1.503   8.318  1.0880  0.0087  0.3284
 6194SOL     OW30214   4.110   4.478  16.757  0.4236 -0.3539  0.2470
 6194SOL    HW130215   4.100   4.573  16.767 -1.7619 -0.4922 -0.7544
 6194SOL    HW230216   4.032   4.460  16.809 -0.5085 -1.6175 -1.6035
 6195SOL     OW30217   3.959   1.473   7.829  0.6759  0.5701 -0.6774
 6195SOL    HW130218   3.977   1.564   7.852 -1.0539 -0.0059  2.9190
 6195SOL    HW230219   3.911   1.438   7.904 -0.3426 -4.3018 -3.5364
 6196SOL     OW30220   2.556   1.139   3.320 -0.2520  0.2788  0.1010
 6196SOL    HW130221   2.582   1.129   3.228 -0.7743  1.0955 -0.1397
 6196SOL    HW230222   2.639   1.171   3.354  1.4411 -2.3491 -1.5600
 6197SOL     OW30223   1.736   4.730   0.184  0.4410  0.0024 -0.6527
 6197SOL    HW130224   1.782   4.649   0.164  1.9981  0.3527  1.4740
 6197SOL    HW230225   1.780   0.036   0.259 -1.7023  2.8759 -0.9172
 6198SOL     OW30226   3.394   3.769  14.193  0.1940 -0.0428 -0.3752
 6198SOL    HW130227   3.489   3.757  14.192  0.3339  1.0721 -0.5376
 6198SOL    HW230228   3.372   3.676  14.186 -1.0672  0.2116  0.3473
 6199SOL     OW30229   1.419   1.901  11.764 -0.3510 -0.0143 -0.2651
 6199SOL    HW130230   1.336   1.874  11.726 -0.2448  0.6880 -0.9913
 6199SOL    HW230231   1.402   1.868  11.853 -0.5563 -2.6543 -1.2739
 6200SOL     OW30232   3.547   0.984   9.682 -0.0002  0.2446  0.0743
 6200SOL    HW130233   3.624   1.009   9.734 -1.4149  0.7159  1.9495
 6200SOL    HW230234   3.584   0.920   9.621 -1.9254 -1.0877  0.2809
 6201SOL     OW30235   3.496   3.109   7.144 -0.5028  0.1179 -0.4690
 6201SOL    HW130236   3.438   3.121   7.069 -1.3565 -0.3276  0.1303
 6201SOL    HW230237   3.428   3.134   7.206 -1.1297 -0.0358 -1.0971
 6202SOL     OW30238   0.128   3.868   5.035  0.5444  0.0059  1.0132
 6202SOL    HW130239   0.146   3.854   4.942  1.4018  1.1798  1.0023
 6202SOL    HW230240   0.216   3.885   5.069 -0.4786  1.6616  2.8602
 6203SOL     OW30241   4.076   4.291  15.255 -0.4599 -0.1770  0.6897
 6203SOL    HW130242   4.138   4.320  15.321  0.2697 -0.5131  0.1613
 6203SOL    HW230243   4.014   4.363  15.241  1.8627  1.7489  0.3801
 6204SOL     OW30244   0.504   0.888   8.749  0.3243  0.2779  0.2154
 6204SOL    HW130245   0.551   0.971   8.752 -1.3849  1.2713 -0.1319
 6204SOL    HW230246   0.425   0.910   8.799  0.3798 -2.1541  1.3617
 6205SOL     OW30247   0.930   2.042   5.151 -0.0184  0.1833 -0.3527
 6205SOL    HW130248   0.959   2.132   5.137 -1.0102  0.8449  1.8580
 6205SOL    HW230249   0.898   2.022   5.063 -1.3125 -2.7057  0.7712
 6206SOL     OW30250   4.028   4.479  17.202 -0.0195  0.7987  0.3219
 6206SOL    HW130251   4.012   4.389  17.229 -0.2383  0.9720  0.7866
 6206SOL    HW230252   4.102   4.461  17.146  0.7776  0.9351  1.3249
 6207SOL     OW30253   4.378   0.162   4.579 -0.1715 -0.5167 -0.2149
 6207SOL    HW130254   4.437   0.090   4.561 -0.3317 -0.6897 -0.0477
 6207SOL    HW230255   4.300   0.115   4.549  0.7764 -2.2395  0.0258
 6208SOL     OW30256   1.787   3.676   8.373  0.0273 -0.0849  0.2800
 6208SOL    HW130257   1.723   3.686   8.444  1.2453  0.5280  1.3018
 6208SOL    HW230258   1.849   3.628   8.428  1.8914 -0.2961 -2.0430
 6209SOL     OW30259   1.528   3.433  10.975  0.3479 -0.1473  0.6508
 6209SOL    HW130260   1.439   3.418  11.007  0.4075  0.0234  0.8982
 6209SOL    HW230261   1.553   3.342  10.957  0.4618 -0.0571  0.3594
 6210SOL     OW30262   0.360   2.817   4.159 -0.3479  0.4954 -0.1156
 6210SOL    HW130263   0.430   2.838   4.097  1.1027 -0.9420  1.0307
 6210SOL    HW230264   0.288   2.799   4.099  1.6387  0.1553 -2.4133
 6211SOL     OW30265   0.927   3.570  17.562 -0.5246 -0.0688  0.6448
 6211SOL    HW130266   0.905   3.478  17.577  0.9337 -0.4707  0.3759
 6211SOL    HW230267   1.023   3.573  17.561 -0.5714  1.6145  0.7545
 6212SOL     OW30268   2.226   1.934  12.689 -0.1372 -0.3957  0.1187
 6212SOL    HW130269   2.300   1.874  12.679 -0.1698 -0.4286  0.0781
 6212SOL    HW230270   2.261   2.015  12.652 -0.0757 -0.6809 -0.4455
 6213SOL     OW30271   0.707   0.749   7.196  0.1204  0.1750  0.3815
 6213SOL    HW130272   0.644   0.793   7.138  0.6994  2.3441  1.4165
 6213SOL    HW230273   0.779   0.771   7.137 -0.7694  0.0301 -0.7839
 6214SOL     OW30274   3.970   4.272   0.871 -0.1376  0.1973 -0.8232
 6214SOL    HW130275   3.992   4.250   0.962 -2.1535 -0.1154 -0.4045
 6214SOL    HW230276   3.946   4.185   0.839  0.7670 -2.0778  4.6872
 6215SOL     OW30277   1.063   0.202   5.210  0.0886 -0.5582 -0.4554
 6215SOL    HW130278   1.144   0.223   5.257 -0.2119 -0.1990 -0.1030
 6215SOL    HW230279   1.004   0.180   5.281  1.9597 -0.8394  1.0148
 6216SOL     OW30280   1.953   3.285   2.882 -0.5677 -0.1969 -0.3190
 6216SOL    HW130281   1.972   3.241   2.965 -3.2639 -0.9669 -0.1245
 6216SOL    HW230282   2.025   3.256   2.826 -0.2202 -1.5253  0.8198
 6217SOL     OW30283   2.535   2.151   6.196 -0.0274  0.4399  0.1950
 6217SOL    HW130284   2.484   2.144   6.276  1.5133  0.0391  1.1410
 6217SOL    HW230285   2.567   2.240   6.214  3.3100 -1.2437  2.5087
 6218SOL     OW30286   0.507   1.444  12.639  0.0349  0.8183  0.5064
 6218SOL    HW130287   0.576   1.408  12.694 -1.5484  1.2313  2.7576
 6218SOL    HW230288   0.462   1.503  12.699 -1.8479  0.7047 -0.7884
 6219SOL     OW30289   3.090   1.057   6.505 -0.2782  0.5375 -0.6705
 6219SOL    HW130290   2.995   1.066   6.506 -0.2411  0.8391 -0.3511
 6219SOL    HW230291   3.113   0.970   6.537  0.6624  0.8475 -0.5058
 6220SOL     OW30292   4.367   2.938  12.790 -0.8797 -0.3719 -0.6937
 6220SOL    HW130293   4.398   2.944  12.881  0.9126  0.2426 -1.3504
 6220SOL    HW230294   4.326   2.851  12.789 -0.7506 -0.4520  1.2323
 6221SOL     OW30295   0.218   0.441   0.758 -0.0450 -0.8638 -0.4246
 6221SOL    HW130296   0.130   0.403   0.765 -0.0495 -0.4420  1.7012
 6221SOL    HW230297   0.277   0.380   0.803  1.6174  1.4476  0.5391
 6222SOL     OW30298   2.405   4.044  15.533  0.1891 -0.2133 -0.3837
 6222SOL    HW130299   2.403   3.952  15.559 -0.8702 -0.4681 -1.3755
 6222SOL    HW230300   2.360   4.087  15.606  0.8065  0.5920 -0.4801
 6223SOL     OW30301   4.316   0.947  16.028 -0.3310 -0.0379  0.5989
 6223SOL    HW130302   4.252   1.018  16.033 -0.0732  0.0548  2.7325
 6223SOL    HW230303   4.262   0.882  16.075 -2.7403  1.0979 -0.5875
 6224SOL     OW30304   3.467   3.697   3.849 -0.2400 -0.7896  0.1916
 6224SOL    HW130305   3.506   3.784   3.859  0.6468 -1.0205 -1.2454
 6224SOL    HW230306   3.376   3.722   3.837  0.5956  1.8268 -0.7227
 6225SOL     OW30307   4.161   2.642   3.716 -0.5074  0.0861 -0.1793
 6225SOL    HW130308   4.237   2.670   3.766 -1.2972 -0.6101  1.4248
 6225SOL    HW230309   4.111   2.720   3.693 -1.1385 -0.3761 -0.3977
 6226SOL     OW30310   0.506   1.650   5.709 -0.3637 -0.4494 -0.1911
 6226SOL    HW130311   0.421   1.685   5.735  0.3869  0.0955  1.5728
 6226SOL    HW230312   0.566   1.722   5.727 -1.7028  0.4753  0.5604
 6227SOL     OW30313   1.738   0.787   3.977 -0.3252 -0.3074 -0.1840
 6227SOL    HW130314   1.774   0.868   4.014  1.3770 -0.0660 -2.3734
 6227SOL    HW230315   1.784   0.789   3.893  2.4516 -3.9951  1.2343
 6228SOL     OW30316   1.610   1.774   1.902 -0.2199  0.1987 -0.0432
 6228SOL    HW130317   1.682   1.796   1.842 -0.5950  2.2466  0.2525
 6228SOL    HW230318   1.625   1.681   1.915 -2.5662  0.0847  1.7754
 6229SOL     OW30319   4.281   2.348  17.171 -0.0948  0.3073 -0.1973
 6229SOL    HW130320   4.298   2.407  17.098 -0.8817 -0.6886 -1.1892
 6229SOL    HW230321   4.227   2.279  17.134  0.4790 -1.1394  1.6744
 6230SOL     OW30322   3.161   0.225   2.586  0.6005 -0.3988 -0.4871
 6230SOL    HW130323   3.179   0.214   2.680 -0.1563 -0.6392 -0.3697
 6230SOL    HW230324   3.236   0.185   2.542  0.0128  0.4330 -2.2504
 6231SOL     OW30325   2.238   1.732   1.151  0.1160  0.5122  0.3754
 6231SOL    HW130326   2.306   1.670   1.175 -0.0139 -0.1016 -0.8666
 6231SOL    HW230327   2.218   1.706   1.061 -0.3054 -0.2252  0.6879
 6232SOL     OW30328   1.404   3.424   1.159  0.5644  0.8942  0.0602
 6232SOL    HW130329   1.497   3.430   1.137  1.1930  0.2120  2.5267
 6232SOL    HW230330   1.397   3.355   1.225 -0.1409  0.1887 -0.7469
 6233SOL     OW30331   3.583   0.832   7.526  0.6752 -0.5370 -0.0807
 6233SOL    HW130332   3.492   0.845   7.500  1.6131  0.0016 -3.1709
 6233SOL    HW230333   3.612   0.906   7.472  1.5035 -1.0231 -0.3083
 6234SOL     OW30334   1.517   4.290  16.687  0.2803 -0.0787 -0.1117
 6234SOL    HW130335   1.447   4.290  16.621  1.1172  0.7261 -0.9921
 6234SOL    HW230336   1.597   4.282  16.635  1.6740  0.4491  1.9434
 6235SOL     OW30337   3.429   1.798   4.783 -0.0087  0.5607  0.4880
 6235SOL    HW130338   3.376   1.719   4.774  2.4421 -1.3021  2.5274
 6235SOL    HW230339   3.500   1.758   4.833  0.3672 -0.2187 -0.6703
 6236SOL     OW30340   4.513   0.106   1.990  0.3453 -0.0259 -0.1725
 6236SOL    HW130341   4.476   0.136   2.073  1.5256 -1.2403  0.8048
 6236SOL    HW230342   4.459   0.156   1.930  1.5713 -1.4762 -2.4715
 6237SOL     OW30343   2.293   3.156   5.218  0.0332  0.0015  0.0508
 6237SOL    HW130344   2.253   3.080   5.177  1.6567 -2.0257  2.1808
 6237SOL    HW230345   2.216   3.204   5.249 -0.4182 -1.6528  1.5129
 6238SOL     OW30346   2.280   2.574  17.705 -0.1103 -0.1646  0.0270
 6238SOL    HW130347   2.306   2.519  17.630  2.5567  2.7739 -1.2313
 6238SOL    HW230348   2.263   2.659  17.664  1.6506  0.0653 -0.2543
 6239SOL     OW30349   2.240   3.261   7.747 -0.4203 -0.3057  0.0254
 6239SOL    HW130350   2.158   3.292   7.785 -1.5520 -2.3985 -0.7094
 6239SOL    HW230351   2.222   3.170   7.771 -2.0511 -0.4041 -1.6529
 6240SOL     OW30352   1.438   2.706  12.115 -0.7912  0.0210  0.1557
 6240SOL    HW130353   1.487   2.709  12.197 -1.0791 -0.0062  0.3279
 6240SOL    HW230354   1.431   2.610  12.110 -2.2265  0.0606  1.4833
 6241SOL     OW30355   4.331   0.623   7.966  0.6687 -0.0383  0.9512
 6241SOL    HW130356   4.388   0.584   7.900 -0.6392 -2.0005  0.9840
 6241SOL    HW230357   4.288   0.551   8.014  1.3055 -0.1798  1.3094
 6242SOL     OW30358   1.071   1.876   1.848  0.2208 -0.5236  0.2474
 6242SOL    HW130359   1.143   1.879   1.786 -1.2452  1.4119 -1.3638
 6242SOL    HW230360   0.999   1.866   1.787 -0.4417  2.9668  0.4719
 6243SOL     OW30361   0.509   4.553  13.847  0.4102  0.1743  0.6226
 6243SOL    HW130362   0.440   4.574  13.910  0.7519  1.8152  0.4498
 6243SOL    HW230363   0.541   4.483  13.905  1.6043  0.7863  0.7071
 6244SOL     OW30364   2.662   0.128   6.229 -0.1136 -0.5272 -0.0800
 6244SOL    HW130365   2.714   0.078   6.291 -2.2490 -0.7512  1.5333
 6244SOL    HW230366   2.705   0.114   6.145  2.0324  0.7647  0.8235
 6245SOL     OW30367   4.507   1.046   8.315 -0.3750 -0.2408  0.0785
 6245SOL    HW130368   4.544   1.081   8.234  2.8145 -0.0953  1.6091
 6245SOL    HW230369   4.575   1.060   8.381 -1.5054 -1.7509  1.5612
 6246SOL     OW30370   3.491   1.041   6.928  0.3008  0.2162 -0.4579
 6246SOL    HW130371   3.447   0.961   6.901 -1.1724  0.6983  0.5176
 6246SOL    HW230372   3.580   1.008   6.926 -0.0919 -0.8473  0.1089
 6247SOL     OW30373   0.309   1.653   9.157 -0.2345 -0.0660 -0.0237
 6247SOL    HW130374   0.318   1.703   9.238 -1.0827  2.1707 -1.3237
 6247SOL    HW230375   0.300   1.726   9.095 -1.3290  0.6088  0.9160
 6248SOL     OW30376   2.756   4.092  15.920 -0.2820  0.1195  0.3700
 6248SOL    HW130377   2.791   4.049  15.998  0.4839 -1.2457 -0.7441
 6248SOL    HW230378   2.681   4.039  15.894  0.6222 -1.4221  0.9471
 6249SOL     OW30379   3.757   1.391   2.715 -0.2423 -0.1405  0.0649
 6249SOL    HW130380   3.756   1.450   2.790 -0.2725  0.3933 -0.3579
 6249SOL    HW230381   3.843   1.349   2.713  0.1641  0.7202 -0.1626
 6250SOL     OW30382   4.543   4.624  13.614  0.0518  0.2463  0.8545
 6250SOL    HW130383   4.482   4.644  13.544 -0.3126 -0.7642  0.8828
 6250SOL    HW230384   4.545   4.711  13.654  1.8550  0.7795 -0.3838
 6251SOL     OW30385   2.412   3.644   4.794 -0.2336  0.3223  0.2402
 6251SOL    HW130386   2.412   3.707   4.723  1.6670  2.4216  2.1064
 6251SOL    HW230387   2.320   3.616   4.795  0.0041 -0.4503  1.7925
 6252SOL     OW30388   4.269   4.072   4.251  0.3734 -0.4831 -0.5633
 6252SOL    HW130389   4.344   4.014   4.237 -0.2736 -1.3214 -0.5095
 6252SOL    HW230390   4.191   4.032   4.214  0.3096 -1.2593  0.4205
 6253SOL     OW30391   3.370   4.699   3.935 -0.4170  0.4404 -0.1253
 6253SOL    HW130392   3.275   4.700   3.947 -0.5259 -0.6553 -0.9353
 6253SOL    HW230393   3.406   0.046   3.971  2.5423 -0.8716 -0.1004
 6254SOL     OW30394   0.017   1.823  10.104 -0.5301  0.4026 -0.0717
 6254SOL    HW130395   4.721   1.849  10.017  0.5408  3.1555  0.3715
 6254SOL    HW230396   4.662   1.812  10.138 -1.1044 -0.4710 -1.8791
 6255SOL     OW30397   0.738   2.810   7.916 -0.0760 -0.0698  0.5617
 6255SOL    HW130398   0.776   2.841   7.833  1.4797 -1.3373  0.7974
 6255SOL    HW230399   0.809   2.780   7.973  0.5673  1.1765  0.4070
 6256SOL     OW30400   4.417   1.777   1.550  0.0129  0.8418 -0.0122
 6256SOL    HW130401   4.430   1.682   1.549  0.0671  0.8432  0.6804
 6256SOL    HW230402   4.322   1.788   1.552 -0.3706 -2.5108  0.1486
 6257SOL     OW30403   2.891   1.411   0.881 -0.2012 -0.0370  0.2891
 6257SOL    HW130404   2.926   1.443   0.964 -1.5863 -0.6472  1.1127
 6257SOL    HW230405   2.885   1.492   0.831  1.7917 -0.2518 -0.2940
 6258SOL     OW30406   4.447   3.625   0.258 -0.1043 -0.2710  0.5574
 6258SOL    HW130407   4.528   3.576   0.246 -0.1524 -0.3460  0.5458
 6258SOL    HW230408   4.474   3.706   0.214  0.8247 -0.4584  0.7978
 6259SOL     OW30409   2.175   1.196   3.460  0.5959  0.4303 -0.3652
 6259SOL    HW130410   2.187   1.161   3.372 -4.4855 -2.5865  0.1610
 6259SOL    HW230411   2.260   1.235   3.481  0.4178  0.7761 -0.2840
 6260SOL     OW30412   3.050   0.303   3.766 -0.2530 -0.3827 -0.2769
 6260SOL    HW130413   3.058   0.247   3.688 -1.5565 -0.4526 -0.3480
 6260SOL    HW230414   3.143   0.301   3.789 -0.6159  0.9397  1.2861
 6261SOL     OW30415   2.124   2.869   5.009 -0.1229  0.0081  0.1309
 6261SOL    HW130416   2.123   2.800   4.943  0.3956 -0.3830  0.5409
 6261SOL    HW230417   2.033   2.859   5.038  0.7715 -1.5550  2.3310
 6262SOL     OW30418   4.385   0.722   4.922  0.9565  0.0191 -0.3734
 6262SOL    HW130419   4.308   0.666   4.920 -0.0166  1.3264  0.1835
 6262SOL    HW230420   4.374   0.762   4.836 -1.6945 -0.1796 -0.1350
 6263SOL     OW30421   2.775   1.258   3.455  0.1458 -0.1652 -0.4635
 6263SOL    HW130422   2.794   1.324   3.388 -0.0106  1.3736  1.0091
 6263SOL    HW230423   2.827   1.185   3.423  1.4550 -0.2814  1.9339
 6264SOL     OW30424   2.981   2.913   3.473 -0.5023  0.1953 -0.2222
 6264SOL    HW130425   2.972   2.950   3.385  1.8999 -1.9509 -1.3804
 6264SOL    HW230426   3.062   2.863   3.464  0.4867  1.9566 -1.1645
 6265SOL     OW30427   1.216   3.661   7.240 -0.2212 -0.0585 -0.1130
 6265SOL    HW130428   1.289   3.599   7.235  0.6434  0.8525  1.2513
 6265SOL    HW230429   1.137   3.608   7.233 -0.5131  0.2545  0.7970
 6266SOL     OW30430   3.895   4.052   0.755  0.3446 -0.1421 -0.3058
 6266SOL    HW130431   3.810   4.010   0.769 -1.1982  2.1596 -2.4800
 6266SOL    HW230432   3.873   4.073   0.664 -2.2116 -0.6363  0.1938
 6267SOL     OW30433   4.039   3.250  17.594  0.1346  0.5489  0.0390
 6267SOL    HW130434   3.958   3.294  17.566  0.9889  1.2593 -1.3095
 6267SOL    HW230435   4.002   3.164  17.613 -1.7427  1.8913  2.6759
 6268SOL     OW30436   4.118   1.815  10.643  0.3251  0.2859  0.3407
 6268SOL    HW130437   4.037   1.812  10.693 -1.2075 -0.0943 -2.1435
 6268SOL    HW230438   4.136   1.908  10.627  1.2205 -0.2541 -1.9035
 6269SOL     OW30439   3.143   1.591   2.911  0.2598 -0.1601  0.5264
 6269SOL    HW130440   3.203   1.662   2.891 -0.5236  0.8723  1.8523
 6269SOL    HW230441   3.197   1.519   2.944 -1.2564 -1.0288  1.0893
 6270SOL     OW30442   4.597   3.726   0.003 -0.5163 -0.0732 -0.0655
 6270SOL    HW130443   4.676   3.676  17.718  0.7907  1.3329  1.4912
 6270SOL    HW230444   4.545   3.704  17.662  0.7420 -2.3239 -0.2864
 6271SOL     OW30445   4.533   1.348   2.955  0.2889  0.5027 -0.2788
 6271SOL    HW130446   4.457   1.340   3.012  2.2152 -1.2159  2.0369
 6271SOL    HW230447   4.495   1.311   2.875  1.6507  0.1427 -0.7647
 6272SOL     OW30448   3.481   0.823   2.852 -0.2033 -0.0211  0.0850
 6272SOL    HW130449   3.566   0.779   2.848 -0.8119 -1.2277  0.3849
 6272SOL    HW230450   3.410   0.760   2.863 -0.7305  0.4652 -0.5412
 6273SOL     OW30451   2.203   0.883   0.040 -0.2970 -0.0330 -0.2027
 6273SOL    HW130452   2.159   0.800   0.054 -0.9709  0.0713 -1.7350
 6273SOL    HW230453   2.237   0.891   0.130 -0.4130 -0.9088 -0.0846
 6274SOL     OW30454   4.506   3.156  10.081  0.0225  0.5923 -0.3859
 6274SOL    HW130455   4.559   3.163  10.002  0.5335 -0.9093 -0.1579
 6274SOL    HW230456   4.551   3.082  10.121 -1.0970 -1.7962 -3.5308
 6275SOL     OW30457   1.015   3.399   8.351  0.5427  1.1567 -0.2292
 6275SOL    HW130458   1.009   3.494   8.350  2.1197  1.2674  1.1095
 6275SOL    HW230459   1.051   3.390   8.263 -0.0936  0.4954 -0.4275
 6276SOL     OW30460   3.302   1.954   8.390 -0.3046  0.1086 -0.2198
 6276SOL    HW130461   3.347   2.034   8.417  0.7518 -0.9414  1.1187
 6276SOL    HW230462   3.279   1.973   8.299  0.7160  0.0684 -0.4797
 6277SOL     OW30463   4.722   4.153   2.422  0.1843  0.1329  0.1139
 6277SOL    HW130464   4.649   4.178   2.478 -1.3737 -1.7419 -1.0798
 6277SOL    HW230465   4.696   4.194   2.339  3.2022  0.8222 -0.4970
 6278SOL     OW30466   0.123   2.880   7.650 -0.8272  0.3638  1.2158
 6278SOL    HW130467   0.167   2.954   7.693  0.5411  0.9287 -1.2073
 6278SOL    HW230468   0.188   2.856   7.585 -0.7668  0.6851  1.1579
 6279SOL     OW30469   1.374   3.342   3.743 -0.1417  0.2216  0.5907
 6279SOL    HW130470   1.427   3.414   3.775 -0.8144  0.8984  0.1843
 6279SOL    HW230471   1.288   3.379   3.723 -0.3184  0.2665  1.4546
 6280SOL     OW30472   2.613   0.001   3.501  0.0685  0.1836 -0.1301
 6280SOL    HW130473   2.543   0.065   3.484  1.2252  0.8227 -2.4308
 6280SOL    HW230474   2.642   4.702   3.417  2.8899  1.9678  0.1482
 6281SOL     OW30475   0.829   0.491   7.014  0.5056  0.0395  0.1619
 6281SOL    HW130476   0.799   0.582   7.016 -1.7442 -0.7291  0.4340
 6281SOL    HW230477   0.768   0.448   6.955 -0.6751  0.8748  0.7880
 6282SOL     OW30478   0.998   4.249  16.316 -0.4062 -0.0161 -0.4207
 6282SOL    HW130479   1.089   4.233  16.291 -0.0040  1.8394 -0.1615
 6282SOL    HW230480   0.972   4.296  16.237 -3.4481 -0.7904  0.1165
 6283SOL     OW30481   3.420   0.419  10.149  0.2720 -0.4117 -0.5381
 6283SOL    HW130482   3.383   0.446  10.065 -0.1293  1.8779  0.3656
 6283SOL    HW230483   3.402   0.502  10.192 -0.6214 -1.0215  0.2707
 6284SOL     OW30484   2.605   0.741   6.289 -0.9530 -0.3993 -0.5351
 6284SOL    HW130485   2.664   0.816   6.289  0.7168 -1.7017 -0.2127
 6284SOL    HW230486   2.532   0.775   6.238 -0.6558  0.5261 -0.3348
 6285SOL     OW30487   1.087   0.577   3.324 -0.3460 -0.3962  0.3444
 6285SOL    HW130488   1.046   0.510   3.270 -0.1404 -0.2575  0.0237
 6285SOL    HW230489   1.012   0.622   3.363  0.2797  0.2248  0.8343
 6286SOL     OW30490   1.143   0.749   0.056  0.0892 -0.4683 -0.7615
 6286SOL    HW130491   1.111   0.689   0.124 -1.7265  0.2272 -0.9969
 6286SOL    HW230492   1.178   0.679   0.002  0.8832 -0.4204 -0.3148
 6287SOL     OW30493   1.538   1.900   4.861  0.6653 -0.0673  0.5974
 6287SOL    HW130494   1.525   1.882   4.954  0.1790  2.5779  1.0413
 6287SOL    HW230495   1.609   1.963   4.874  1.0108  0.0939 -2.0073
 6288SOL     OW30496   4.608   0.362  15.095 -0.2388  0.5796 -0.2922
 6288SOL    HW130497   4.698   0.391  15.079 -0.7007  1.0354 -2.0798
 6288SOL    HW230498   4.560   0.445  15.095 -2.4303 -0.6838  2.7830
 6289SOL     OW30499   4.202   4.651   2.820  0.4036  0.2351 -0.2520
 6289SOL    HW130500   4.282   4.658   2.873 -2.0761  0.6068  3.4132
 6289SOL    HW230501   4.185   4.557   2.815  1.7350 -0.0252  0.0495
 6290SOL     OW30502   0.355   3.419  12.906 -0.5779  0.0380  0.6099
 6290SOL    HW130503   0.408   3.346  12.873 -1.1325 -1.2849  2.6788
 6290SOL    HW230504   0.400   3.498  12.875 -0.0229 -0.0364  1.2278
 6291SOL     OW30505   2.457   1.661  12.251 -1.1355  1.0043  0.0306
 6291SOL    HW130506   2.420   1.703  12.173  0.4275  1.0858 -0.6539
 6291SOL    HW230507   2.486   1.742  12.293 -0.9871  0.3095  1.2501
 6292SOL     OW30508   4.626   3.658   5.561  0.1777 -0.8823 -0.6301
 6292SOL    HW130509   4.543   3.619   5.588 -0.2931  0.2053 -0.4995
 6292SOL    HW230510   4.604   3.751   5.567 -0.4256 -0.9737 -1.4327
 6293SOL     OW30511   2.308   2.737  13.739  0.1025 -0.4171 -0.3651
 6293SOL    HW130512   2.376   2.765  13.800 -0.3433  0.7748 -0.4288
 6293SOL    HW230513   2.338   2.784  13.661  1.3841 -1.1569 -0.3192
 6294SOL     OW30514   4.192   3.300   1.948  0.3528 -0.3278 -0.6712
 6294SOL    HW130515   4.272   3.289   1.896  2.7479  2.3664  2.4427
 6294SOL    HW230516   4.215   3.380   1.994  1.7864 -0.9130 -0.3566
 6295SOL     OW30517   2.470   4.250  12.950  0.2325 -0.2222 -0.0052
 6295SOL    HW130518   2.452   4.310  13.023  0.2603  0.1643 -0.3178
 6295SOL    HW230519   2.517   4.312  12.895  1.7733 -0.3922  1.1267
 6296SOL     OW30520   4.154   0.306  16.358 -0.1861 -0.2752  0.3287
 6296SOL    HW130521   4.155   0.231  16.417 -1.1631  0.3494  1.1372
 6296SOL    HW230522   4.209   0.279  16.284 -0.9054 -1.5517  0.2666
 6297SOL     OW30523   2.516   3.616   5.920  0.0342 -0.3290  0.1166
 6297SOL    HW130524   2.582   3.563   5.965 -0.9779 -0.3431  1.5879
 6297SOL    HW230525   2.567   3.695   5.901  0.3424 -0.3562  0.8466
 6298SOL     OW30526   4.621   2.653  10.335 -0.1055 -0.8316 -0.2479
 6298SOL    HW130527   4.687   2.607  10.386 -0.7448 -2.0210 -0.4705
 6298SOL    HW230528   4.558   2.656  10.407 -0.7134 -0.9744 -0.7624
 6299SOL     OW30529   4.213   2.325   2.542  0.0281 -0.2783 -0.3687
 6299SOL    HW130530   4.247   2.293   2.458 -0.2265  0.2801 -0.6821
 6299SOL    HW230531   4.168   2.398   2.501  2.7683  1.4203 -0.3414
 6300SOL     OW30532   1.638   2.540   0.798 -0.2368 -0.3086 -0.2805
 6300SOL    HW130533   1.613   2.538   0.706 -0.8974 -2.5473 -0.0540
 6300SOL    HW230534   1.555   2.506   0.833 -0.0777 -0.3723  0.0339
 6301SOL     OW30535   2.288   4.726   3.369 -0.3305 -1.0667 -0.2523
 6301SOL    HW130536   2.318   4.708   3.280  3.2619 -1.9057  1.1157
 6301SOL    HW230537   2.213   4.666   3.375  0.2170 -1.5281  1.8968
 6302SOL     OW30538   2.292   0.910   6.384  0.4984  0.3952  0.4750
 6302SOL    HW130539   2.296   0.818   6.357 -1.3019  0.6346 -0.6517
 6302SOL    HW230540   2.198   0.916   6.402  0.5525 -0.0160  0.8769
 6303SOL     OW30541   4.673   1.846   4.768 -0.1049  0.2176 -0.4351
 6303SOL    HW130542   4.695   1.932   4.731  1.3527  0.1661  0.2876
 6303SOL    HW230543   4.617   1.805   4.703 -0.2990  0.0879 -0.1817
 6304SOL     OW30544   3.800   1.151   7.222  0.3002  0.0575  0.4277
 6304SOL    HW130545   3.827   1.063   7.196 -2.5766 -0.0715 -2.0480
 6304SOL    HW230546   3.821   1.198   7.142 -0.1279 -3.6735 -1.8972
 6305SOL     OW30547   4.427   4.579   5.351 -0.4704 -0.1051 -0.7584
 6305SOL    HW130548   4.349   4.571   5.406 -0.1111 -2.2747 -0.5767
 6305SOL    HW230549   4.450   4.490   5.325  0.2235  0.5534 -2.3949
 6306SOL     OW30550   3.515   0.761   6.073 -0.2487 -0.3424  0.3463
 6306SOL    HW130551   3.557   0.719   6.148 -0.8167 -1.1842  0.1849
 6306SOL    HW230552   3.551   0.849   6.089 -0.4709  0.0492 -1.3029
 6307SOL     OW30553   1.828   2.711   7.033  0.0071 -0.2796 -0.1518
 6307SOL    HW130554   1.813   2.722   6.939  1.7194 -0.3757 -0.4367
 6307SOL    HW230555   1.903   2.653   7.025  0.5867  0.2767  1.2180
 6308SOL     OW30556   2.624   0.979   7.626 -0.2153  0.0125 -0.2506
 6308SOL    HW130557   2.561   0.993   7.697 -0.1562 -3.1306  0.4056
 6308SOL    HW230558   2.563   0.990   7.553 -0.7417  2.0018  0.4937
 6309SOL     OW30559   1.881   1.282   6.784  0.2281 -0.0559  0.4170
 6309SOL    HW130560   1.962   1.310   6.827 -0.5960  0.3473  1.7111
 6309SOL    HW230561   1.920   1.233   6.711 -0.2699  4.1797 -2.6998
 6310SOL     OW30562   0.858   3.475   5.742  0.6132  0.3436 -0.4186
 6310SOL    HW130563   0.864   3.447   5.650  1.9425  0.9090 -0.5078
 6310SOL    HW230564   0.806   3.402   5.776  0.9363  0.3350  0.0469
 6311SOL     OW30565   2.289   4.158   5.010  0.1029  0.0315 -0.5002
 6311SOL    HW130566   2.379   4.156   5.043  0.1752 -0.1200 -0.7096
 6311SOL    HW230567   2.270   4.065   4.999  3.2387 -0.7470  0.8157
 6312SOL     OW30568   2.270   1.356  13.896 -0.1801  0.6783  1.0722
 6312SOL    HW130569   2.314   1.273  13.879 -1.5542  0.4729 -1.4961
 6312SOL    HW230570   2.341   1.398  13.944  0.2721 -0.2138  1.1784
 6313SOL     OW30571   0.306   3.800   6.766 -0.3688  0.3159  0.0527
 6313SOL    HW130572   0.239   3.731   6.764  1.2579 -1.2379 -1.2014
 6313SOL    HW230573   0.369   3.767   6.702 -1.2371 -0.5388 -0.3718
 6314SOL     OW30574   2.812   0.917   6.276 -0.5973 -0.4773  0.3558
 6314SOL    HW130575   2.843   0.981   6.212 -2.1194 -1.2525 -1.1612
 6314SOL    HW230576   2.876   0.851   6.250 -0.9284  0.0561 -1.8135
 6315SOL     OW30577   1.313   0.908  16.056  0.3898  0.6068 -0.0196
 6315SOL    HW130578   1.329   0.939  15.968 -0.8771 -1.7733 -1.1113
 6315SOL    HW230579   1.260   0.982  16.086  0.1618  0.2580  0.4516
 6316SOL     OW30580   3.358   0.209  14.869 -0.2888  0.3722 -1.0279
 6316SOL    HW130581   3.336   0.151  14.797 -1.2204 -1.0605  0.4326
 6316SOL    HW230582   3.438   0.164  14.897 -1.0358  1.1743  2.4173
 6317SOL     OW30583   0.613   1.665  10.925 -0.1441 -0.2504  0.1253
 6317SOL    HW130584   0.576   1.681  10.838  1.1304  1.1437 -0.1624
 6317SOL    HW230585   0.617   1.752  10.964 -1.5504 -0.4854  0.8051
 6318SOL     OW30586   1.926   3.227   4.090 -0.2154 -0.3261  0.0979
 6318SOL    HW130587   1.850   3.170   4.075 -0.2330 -0.2673 -0.0407
 6318SOL    HW230588   1.972   3.187   4.164  0.4007  1.5269  0.7091
 6319SOL     OW30589   0.332   1.735   6.055  0.0316  0.0227 -0.6829
 6319SOL    HW130590   0.310   1.758   5.965 -1.0776  0.8309 -0.1994
 6319SOL    HW230591   0.365   1.821   6.081  1.7477 -0.2488 -2.0050
 6320SOL     OW30592   3.359   0.291  10.460 -0.0049 -0.1715  0.3005
 6320SOL    HW130593   3.357   0.383  10.431  3.4854 -0.3295 -0.4433
 6320SOL    HW230594   3.332   0.243  10.382  1.7366 -0.2869 -0.2342
 6321SOL     OW30595   1.139   1.774  17.040  0.1491  0.2039 -0.4941
 6321SOL    HW130596   1.089   1.811  16.967 -0.9441  0.7994  0.5595
 6321SOL    HW230597   1.212   1.732  16.994  0.0443 -3.2255  2.4714
 6322SOL     OW30598   3.787   2.001  11.468  0.2613  0.3424  0.4641
 6322SOL    HW130599   3.879   2.020  11.489  0.1051 -0.9314  2.3098
 6322SOL    HW230600   3.744   2.060  11.530  1.2000 -1.1322  2.5260
 6323SOL     OW30601   1.030   1.763   9.983  0.1289  0.5604  1.2195
 6323SOL    HW130602   1.114   1.801  10.009  0.8604 -0.2170 -0.0264
 6323SOL    HW230603   0.970   1.825  10.024  1.2358  2.5910 -0.2329
 6324SOL     OW30604   4.258   4.596   4.265  0.2100 -0.6887  0.2140
 6324SOL    HW130605   4.302   4.531   4.320  0.2926 -1.3938 -0.6798
 6324SOL    HW230606   4.190   4.630   4.323  1.0635 -0.1316  0.8784
 6325SOL     OW30607   4.385   4.192  12.742  0.0414 -0.0304 -0.2267
 6325SOL    HW130608   4.452   4.125  12.727 -1.5249 -1.6140 -0.1844
 6325SOL    HW230609   4.434   4.262  12.786  0.7144  0.0398 -1.0946
 6326SOL     OW30610   2.844   3.802   4.549  0.0812 -0.2107 -0.3833
 6326SOL    HW130611   2.786   3.727   4.562 -1.9888  1.3796 -0.3686
 6326SOL    HW230612   2.876   3.814   4.638 -1.5985  0.8804  0.0775
 6327SOL     OW30613   0.838   3.890   3.148 -0.0125 -0.1652  0.4148
 6327SOL    HW130614   0.912   3.836   3.118  0.7269  0.8341  0.4390
 6327SOL    HW230615   0.882   3.963   3.192  1.7590 -0.5465 -0.7245
 6328SOL     OW30616   1.813   0.627   7.401 -0.6192 -0.9053 -0.1238
 6328SOL    HW130617   1.796   0.534   7.392 -0.3371 -1.0761  1.0711
 6328SOL    HW230618   1.722   0.656   7.403  0.3911  2.1308  1.8532
 6329SOL     OW30619   0.054   3.132  10.485 -0.7119 -0.2309  0.3638
 6329SOL    HW130620   0.075   3.194  10.415 -1.3291  0.6953  0.9957
 6329SOL    HW230621   0.131   3.133  10.541  1.2071 -2.6551 -2.2285
 6330SOL     OW30622   3.793   3.884   4.590  0.1251 -0.7247 -0.3350
 6330SOL    HW130623   3.841   3.819   4.640 -0.8431  0.1890  1.7771
 6330SOL    HW230624   3.869   3.930   4.555 -0.8000  2.5541  2.0363
 6331SOL     OW30625   1.632   1.162   9.713 -0.5458  0.3291  0.0556
 6331SOL    HW130626   1.545   1.184   9.749  0.3704  2.0557  1.2120
 6331SOL    HW230627   1.654   1.095   9.778  0.4314  0.1561 -0.4552
 6332SOL     OW30628   4.543   1.946  10.258 -0.3167 -0.1156  0.5139
 6332SOL    HW130629   4.565   1.924  10.348 -1.8905  0.1278  0.9571
 6332SOL    HW230630   4.561   2.038  10.275 -0.6925  0.1857 -0.7006
 6333SOL     OW30631   3.108   3.918  12.208 -0.6979  0.5263 -0.1780
 6333SOL    HW130632   3.110   3.889  12.299  1.9114  1.8516  0.1653
 6333SOL    HW230633   3.182   3.868  12.174 -1.7031 -0.5152 -0.8480
 6334SOL     OW30634   1.174   3.952  11.877 -0.1955  0.7535  0.1402
 6334SOL    HW130635   1.215   3.866  11.888  0.6182  1.2014  0.5779
 6334SOL    HW230636   1.242   3.992  11.823 -1.1480  0.7440 -1.0614
 6335SOL     OW30637   4.041   2.904   5.321  0.2213  0.4452  0.0887
 6335SOL    HW130638   4.114   2.953   5.283  0.6275  0.6106  1.0795
 6335SOL    HW230639   4.070   2.886   5.411  0.0552 -1.8123 -0.3077
 6336SOL     OW30640   2.141   0.506   3.129  0.5204  0.0677  0.0593
 6336SOL    HW130641   2.184   0.493   3.045 -1.8690 -3.9832 -0.5426
 6336SOL    HW230642   2.080   0.575   3.104  2.7203  1.2639 -2.0318
 6337SOL     OW30643   0.967   4.142   8.869 -0.2014 -0.5237  0.0222
 6337SOL    HW130644   0.876   4.113   8.876 -0.7104  0.7807 -1.0752
 6337SOL    HW230645   0.947   4.228   8.830  0.7259 -0.1154  0.4370
 6338SOL     OW30646   2.659   4.007   8.921  0.2682  0.2052  0.1362
 6338SOL    HW130647   2.692   4.071   8.984  0.1279 -1.0317  1.4760
 6338SOL    HW230648   2.611   4.069   8.867 -0.8987  0.7217  1.7695
 6339SOL     OW30649   1.311   1.175   9.379  0.1476  0.1570  0.1527
 6339SOL    HW130650   1.315   1.234   9.454  2.8401 -0.4945  0.5145
 6339SOL    HW230651   1.403   1.150   9.374  0.4743  1.1764  0.9900
 6340SOL     OW30652   4.515   4.045   7.875 -0.5796  0.5347  0.3986
 6340SOL    HW130653   4.509   3.991   7.954 -0.1314 -2.0488 -1.3343
 6340SOL    HW230654   4.451   4.003   7.817 -0.2076  1.1661 -0.4744
 6341SOL     OW30655   0.835   1.719   9.754 -0.6061  0.1030 -0.3056
 6341SOL    HW130656   0.895   1.744   9.684  0.6458  1.3753  1.2083
 6341SOL    HW230657   0.885   1.667   9.816 -0.0275  0.2376 -0.6667
 6342SOL     OW30658   4.343   3.666   0.526  0.4830 -0.1674 -0.3524
 6342SOL    HW130659   4.357   3.577   0.557 -0.2392  0.4847  1.8300
 6342SOL    HW230660   4.402   3.671   0.451 -0.7824 -0.1812 -1.3475
 6343SOL     OW30661   0.932   3.443  16.281 -0.6613  0.4106 -0.1721
 6343SOL    HW130662   0.890   3.414  16.200 -1.7666  1.6524 -0.0485
 6343SOL    HW230663   0.987   3.509  16.238  0.9126 -0.9329 -0.2071
 6344SOL     OW30664   2.772   3.747   6.804 -0.0899  0.7278  0.1156
 6344SOL    HW130665   2.763   3.839   6.828  0.4693  0.4321  1.4309
 6344SOL    HW230666   2.865   3.737   6.824 -0.4219  1.4101  1.9665
 6345SOL     OW30667   1.222   2.910  16.626  0.5907 -0.2669 -0.5750
 6345SOL    HW130668   1.272   2.844  16.578 -1.7471 -2.4744  0.0034
 6345SOL    HW230669   1.229   2.993  16.579 -0.9823 -0.8788 -1.8858
 6346SOL     OW30670   1.607   3.150   4.872  0.6930 -0.0803  0.1330
 6346SOL    HW130671   1.592   3.136   4.966 -1.0258 -2.2586 -0.4705
 6346SOL    HW230672   1.651   3.068   4.852  0.4057 -0.5252  1.3018
 6347SOL     OW30673   1.588   3.574   5.979 -0.5765 -0.8606 -0.3603
 6347SOL    HW130674   1.592   3.665   6.006 -2.6725  0.0362 -3.0853
 6347SOL    HW230675   1.675   3.571   5.939 -0.9449 -1.2711 -1.1390
 6348SOL     OW30676   2.542   3.962   7.313  0.3988  0.1149 -0.1227
 6348SOL    HW130677   2.493   3.912   7.248  0.4673  0.6374 -0.5800
 6348SOL    HW230678   2.500   4.048   7.310  1.8356  0.8643  1.1624
 6349SOL     OW30679   1.765   0.034   9.442  0.0153  0.0736 -0.4774
 6349SOL    HW130680   1.726   0.086   9.372 -1.8100 -1.3262 -0.5126
 6349SOL    HW230681   1.687   0.012   9.493  1.1256 -2.4296  0.1639
 6350SOL     OW30682   1.534   1.897  17.553  0.4582 -0.2895  0.1551
 6350SOL    HW130683   1.501   1.933  17.470  2.8770 -0.1529 -0.7608
 6350SOL    HW230684   1.460   1.838  17.567 -1.6880  2.0424 -1.2999
 6351SOL     OW30685   2.471   3.880   7.736  0.0474 -0.3660  0.6178
 6351SOL    HW130686   2.513   3.798   7.761  0.0314 -0.9263 -1.1904
 6351SOL    HW230687   2.548   3.922   7.698 -0.5982 -0.4659 -0.8077
 6352SOL     OW30688   2.754   1.586   9.447  0.6257 -0.2409  0.2903
 6352SOL    HW130689   2.697   1.663   9.450 -2.0449 -2.1767 -0.8111
 6352SOL    HW230690   2.737   1.548   9.533  1.1162 -1.0753  0.0228
 6353SOL     OW30691   3.152   2.952   4.488  1.0351 -0.1290 -0.3058
 6353SOL    HW130692   3.071   2.977   4.532  1.2689  0.3414 -0.1403
 6353SOL    HW230693   3.191   3.040   4.488 -1.7466  1.0829 -2.5661
 6354SOL     OW30694   3.658   4.312   8.031 -0.4419  0.1005  0.2294
 6354SOL    HW130695   3.609   4.392   8.014 -1.0402 -0.1406  0.7782
 6354SOL    HW230696   3.738   4.337   8.077 -0.6851  0.0533  0.6755
 6355SOL     OW30697   1.717   0.967   4.903  0.0098 -0.1288 -0.0917
 6355SOL    HW130698   1.783   1.018   4.951 -1.9335  0.9478  1.4397
 6355SOL    HW230699   1.696   1.042   4.848 -2.1960 -0.8837 -0.2715
 6356SOL     OW30700   4.082   0.126   7.487 -0.2893  0.2757  0.7686
 6356SOL    HW130701   4.076   0.102   7.579  0.4022 -2.8170 -0.0159
 6356SOL    HW230702   3.990   0.145   7.466 -0.3921  1.6880  2.4995
 6357SOL     OW30703   0.284   3.346   0.088 -0.1954  0.2884  0.0769
 6357SOL    HW130704   0.238   3.287   0.028  0.9833  0.5303 -1.0731
 6357SOL    HW230705   0.360   3.289   0.105 -1.3199 -1.3393 -0.3763
 6358SOL     OW30706   1.026   2.696  14.939 -0.4261 -0.0371  0.4282
 6358SOL    HW130707   0.938   2.690  14.902 -0.9200 -0.9054  1.7184
 6358SOL    HW230708   1.066   2.652  14.864 -3.0165 -2.1201  0.2665
 6359SOL     OW30709   2.106   1.963   6.934  0.4322  0.0613 -0.4996
 6359SOL    HW130710   2.072   2.048   6.907  0.3816 -0.2907 -1.5761
 6359SOL    HW230711   2.031   1.903   6.922 -0.9769  1.5593  0.9625
 6360SOL     OW30712   0.376   0.234  14.686 -0.4343 -0.2136 -0.2085
 6360SOL    HW130713   0.316   0.253  14.759 -1.4112 -1.8874 -0.5664
 6360SOL    HW230714   0.332   0.280  14.614  0.9159  0.8856 -0.3245
 6361SOL     OW30715   0.265   2.935  12.464  0.0751 -0.4731 -0.4296
 6361SOL    HW130716   0.234   2.886  12.387 -0.4556 -2.8084  1.2592
 6361SOL    HW230717   0.254   2.869  12.532  0.7236 -0.9780 -0.8139
 6362SOL     OW30718   4.410   3.609   0.997 -0.3576  0.2240 -0.3812
 6362SOL    HW130719   4.465   3.679   0.964 -1.8038  1.2880 -0.5190
 6362SOL    HW230720   4.355   3.598   0.920  1.9600 -3.0735 -1.5914
 6363SOL     OW30721   4.059   4.675   8.306 -0.2575 -0.1967 -0.1426
 6363SOL    HW130722   3.981   4.643   8.261 -1.2824 -1.4792  2.5426
 6363SOL    HW230723   4.121   4.661   8.235  0.9904  0.8879  0.7371
 6364SOL     OW30724   4.303   2.132   2.819  0.3308  0.6189 -0.0963
 6364SOL    HW130725   4.366   2.067   2.789  0.9416  0.9018  0.5844
 6364SOL    HW230726   4.343   2.216   2.796  1.1856  1.0149  2.8300
 6365SOL     OW30727   4.070   0.767   8.319  0.0271  0.1340  0.5975
 6365SOL    HW130728   4.016   0.810   8.385  0.4012  0.5326  0.6444
 6365SOL    HW230729   4.131   0.725   8.380  1.6662  0.3034 -0.9330
 6366SOL     OW30730   3.545   0.337   8.539 -0.3324 -0.6061 -0.1482
 6366SOL    HW130731   3.552   0.283   8.461  0.2945 -1.4852  0.5128
 6366SOL    HW230732   3.469   0.391   8.521 -0.3759 -0.4887  0.3749
 6367SOL     OW30733   0.265   3.061   1.082 -0.0701  0.6433  0.4265
 6367SOL    HW130734   0.202   3.132   1.092 -0.5628  0.5750 -2.2874
 6367SOL    HW230735   0.300   3.076   0.994 -0.8239  2.2302  0.4087
 6368SOL     OW30736   1.381   3.782  16.196 -0.8557 -0.2014 -0.0445
 6368SOL    HW130737   1.430   3.704  16.219 -0.2661 -0.3525 -1.8065
 6368SOL    HW230738   1.363   3.773  16.102 -0.0137  1.2025 -0.3483
 6369SOL     OW30739   2.240   1.096   3.217  0.0212 -0.4694 -0.3519
 6369SOL    HW130740   2.232   1.016   3.165 -0.9717 -0.1761 -0.6680
 6369SOL    HW230741   2.333   1.116   3.212 -0.3296  0.8456 -1.6917
 6370SOL     OW30742   0.185   2.834   2.656 -0.3742  0.0307 -0.3417
 6370SOL    HW130743   0.205   2.840   2.563  0.1056  1.4956 -0.1494
 6370SOL    HW230744   0.258   2.889   2.686 -0.9456 -0.5844  2.2344
 6371SOL     OW30745   1.252   3.482   6.591  0.0997 -0.0398  0.5443
 6371SOL    HW130746   1.168   3.441   6.611 -1.3170  2.2361 -0.8303
 6371SOL    HW230747   1.233   3.572   6.565 -1.5977 -0.4280  0.4703
 6372SOL     OW30748   2.900   0.705  14.735  0.4116 -0.2167  0.3015
 6372SOL    HW130749   2.972   0.756  14.697  0.0027  1.3996  1.7022
 6372SOL    HW230750   2.832   0.771  14.719  0.9744 -0.3068 -2.5805
 6373SOL     OW30751   2.685   4.546   8.788 -0.2547  0.3681 -0.1285
 6373SOL    HW130752   2.619   4.612   8.810  0.2485  1.5441 -2.1829
 6373SOL    HW230753   2.743   4.545   8.864 -1.7472 -1.5847  0.9850
 6374SOL     OW30754   1.715   2.844   6.509  0.1918 -0.3166 -0.2164
 6374SOL    HW130755   1.735   2.773   6.449  2.9626 -1.8433  2.5237
 6374SOL    HW230756   1.757   2.919   6.466  0.0528  0.1009  0.3748
 6375SOL     OW30757   2.467   1.375   9.819 -0.6400 -0.5960 -0.0212
 6375SOL    HW130758   2.411   1.423   9.880 -1.3091  0.7568 -1.7147
 6375SOL    HW230759   2.418   1.294   9.802 -2.0557  0.0841  0.8666
 6376SOL     OW30760   3.482   4.432  12.854 -0.2520 -0.2783  0.0826
 6376SOL    HW130761   3.482   4.521  12.888  2.2287  0.1886 -1.1223
 6376SOL    HW230762   3.408   4.388  12.896 -0.3151  0.0326  0.2976
 6377SOL     OW30763   0.202   1.101  10.028 -0.0276  0.0768 -0.5825
 6377SOL    HW130764   0.181   1.011  10.051  1.1720  0.6842  2.9391
 6377SOL    HW230765   0.262   1.124  10.100  0.4263  1.4385 -1.3819
 6378SOL     OW30766   0.334   1.973   6.311  0.1886  0.0873  0.1075
 6378SOL    HW130767   0.429   1.964   6.304 -0.0748 -0.8643 -2.0394
 6378SOL    HW230768   0.315   2.003   6.222 -2.6462 -1.0393  0.3226
 6379SOL     OW30769   3.221   3.686   9.480 -0.4417 -0.0623  0.4079
 6379SOL    HW130770   3.297   3.633   9.457 -1.9367 -1.5376 -1.0932
 6379SOL    HW230771   3.239   3.693   9.574  2.1236 -1.8296  0.0268
 6380SOL     OW30772   1.663   1.701   2.488  0.2645  0.4823 -0.6180
 6380SOL    HW130773   1.684   1.611   2.514  1.0359  0.3435 -1.7248
 6380SOL    HW230774   1.738   1.727   2.435  1.9415 -0.6964  1.2226
 6381SOL     OW30775   1.892   4.601   5.628 -0.4772  0.3817  0.0145
 6381SOL    HW130776   1.850   4.541   5.690  0.7813  0.4415  0.9250
 6381SOL    HW230777   1.967   4.546   5.604 -0.3176 -0.2374  1.9386
 6382SOL     OW30778   1.822   3.910  10.851 -0.8661  0.4461 -0.3565
 6382SOL    HW130779   1.774   3.938  10.774 -0.1482  2.5485 -0.0413
 6382SOL    HW230780   1.891   3.866  10.802 -1.6937  0.3677 -1.4440
 6383SOL     OW30781   3.775   1.780   4.666 -0.0193  0.0345 -0.1363
 6383SOL    HW130782   3.779   1.708   4.729  0.5825  0.0762 -0.1211
 6383SOL    HW230783   3.756   1.854   4.724 -0.7799 -0.6905  0.5336
 6384SOL     OW30784   1.969   1.164   6.554 -0.9199 -0.6441  0.0962
 6384SOL    HW130785   2.010   1.095   6.502  1.5342  1.3987 -0.7451
 6384SOL    HW230786   1.964   1.232   6.487  0.9147  0.2428  0.8591
 6385SOL     OW30787   3.509   1.586  11.249 -0.2048  0.7159 -0.3185
 6385SOL    HW130788   3.530   1.522  11.316  0.3763 -1.4999 -2.5906
 6385SOL    HW230789   3.565   1.660  11.272 -1.5367  1.2281  1.2981
 6386SOL     OW30790   3.206   0.047   6.648 -0.9150 -0.5265  0.3028
 6386SOL    HW130791   3.215   0.137   6.679  0.1020  0.5381 -3.1124
 6386SOL    HW230792   3.152   0.019   6.722 -2.0053  0.6241 -0.0623
 6387SOL     OW30793   1.201   4.532   9.814 -0.4361 -0.5231  0.0563
 6387SOL    HW130794   1.178   4.441   9.799 -0.5773 -0.8019  2.0597
 6387SOL    HW230795   1.115   4.574   9.812 -0.3214 -0.1566  2.6833
 6388SOL     OW30796   4.520   2.294  17.288  0.4494 -0.3649  0.2710
 6388SOL    HW130797   4.432   2.317  17.259  0.5372  0.9126  1.0002
 6388SOL    HW230798   4.551   2.266  17.202 -1.6079  0.0371 -0.5872
 6389SOL     OW30799   1.076   4.165   4.196 -0.4392  0.1184  0.0364
 6389SOL    HW130800   1.110   4.100   4.135 -0.9992  1.0697 -1.3032
 6389SOL    HW230801   1.035   4.226   4.134 -1.2098 -1.9209 -1.4842
 6390SOL     OW30802   0.462   0.675   5.576 -0.1103 -0.0723 -0.5868
 6390SOL    HW130803   0.555   0.654   5.585  0.1883  1.1246 -0.8157
 6390SOL    HW230804   0.424   0.657   5.661  0.8453 -1.2008 -0.4062
 6391SOL     OW30805   2.394   2.060  16.656 -0.1096  0.2699 -0.4443
 6391SOL    HW130806   2.436   2.124  16.598  0.8368 -0.0079 -0.0523
 6391SOL    HW230807   2.468   2.005  16.680 -0.0086  1.8274  2.7434
 6392SOL     OW30808   1.996   2.849   8.253  0.3776  0.1437 -0.4208
 6392SOL    HW130809   1.924   2.801   8.294 -0.6427  0.5789 -1.6817
 6392SOL    HW230810   1.942   2.909   8.201 -2.6741 -0.9728  1.4378
 6393SOL     OW30811   0.772   1.396   7.788 -0.2191  0.1836 -0.3916
 6393SOL    HW130812   0.772   1.464   7.721  0.1998  0.6959  0.1239
 6393SOL    HW230813   0.861   1.387   7.823 -0.5474  1.8776  0.8767
 6394SOL     OW30814   3.028   0.639   0.469 -0.3635  0.1072 -0.0810
 6394SOL    HW130815   2.953   0.583   0.488  1.7254 -2.2222  1.2869
 6394SOL    HW230816   3.104   0.589   0.499  0.6446  1.6312 -0.0395
 6395SOL     OW30817   1.602   3.683   3.412 -0.5596  0.6945  0.4347
 6395SOL    HW130818   1.626   3.608   3.467  0.3958  0.1524 -0.7363
 6395SOL    HW230819   1.685   3.705   3.370  1.0285 -1.9352  2.1435
 6396SOL     OW30820   2.875   0.331  11.720  0.1163 -0.3064 -0.0293
 6396SOL    HW130821   2.947   0.280  11.757  0.6893 -0.7860 -1.8448
 6396SOL    HW230822   2.921   0.414  11.709  1.5208 -0.6611  3.0035
 6397SOL     OW30823   2.230   2.473   5.097  0.6297 -0.4619  0.2504
 6397SOL    HW130824   2.274   2.395   5.064 -1.5107 -1.5807  0.0348
 6397SOL    HW230825   2.171   2.444   5.166 -3.2134 -0.4348 -2.9644
 6398SOL     OW30826   4.569   2.043   3.638 -0.2606 -0.4765  0.6097
 6398SOL    HW130827   4.493   1.991   3.665 -1.3522  0.2282 -1.0881
 6398SOL    HW230828   4.524   2.114   3.592 -1.8493 -1.3625  0.7956
 6399SOL     OW30829   1.124   4.397   9.524 -0.0640 -0.0711 -0.0566
 6399SOL    HW130830   1.161   4.367   9.606 -1.6544  0.7674  0.9679
 6399SOL    HW230831   1.196   4.447   9.485  1.0616 -0.8252  1.0930
 6400SOL     OW30832   0.565   1.330  15.437 -0.3592 -0.5722  0.2317
 6400SOL    HW130833   0.531   1.275  15.366  0.2781  0.7924 -1.1260
 6400SOL    HW230834   0.659   1.324  15.426 -0.2201  1.0771  0.4949
 6401SOL     OW30835   0.934   1.534  17.513  0.0574 -0.0441  0.3077
 6401SOL    HW130836   0.905   1.602  17.453  0.9893  0.0504 -0.0326
 6401SOL    HW230837   1.013   1.495  17.476 -1.0511  0.6299 -2.7544
 6402SOL     OW30838   0.384   1.700   2.987  0.4709 -0.2267 -0.0286
 6402SOL    HW130839   0.438   1.624   2.968  1.7476  1.2597 -2.4152
 6402SOL    HW230840   0.337   1.676   3.067 -0.4462  0.8287 -0.2450
 6403SOL     OW30841   0.735   3.334   0.790  0.0257 -0.0541  0.2359
 6403SOL    HW130842   0.806   3.390   0.823  0.1135 -0.0689  0.0722
 6403SOL    HW230843   0.756   3.317   0.699  0.9280 -0.5749  0.5422
 6404SOL     OW30844   3.239   4.103   7.525 -0.1180  0.3593  0.0504
 6404SOL    HW130845   3.283   4.182   7.558  0.1494  0.0605  0.4035
 6404SOL    HW230846   3.277   4.096   7.437  0.6821  0.4654  0.3871
 6405SOL     OW30847   0.132   2.899   8.547 -0.4120 -0.5405 -0.0220
 6405SOL    HW130848   0.079   2.855   8.613 -0.6445  1.0761  0.8817
 6405SOL    HW230849   0.221   2.874   8.572 -0.6394 -0.0972  1.2560
 6406SOL     OW30850   2.035   2.367   2.655 -0.1151 -0.2067 -0.5067
 6406SOL    HW130851   1.990   2.442   2.615  0.2590  1.0762  1.4678
 6406SOL    HW230852   2.123   2.402   2.637 -1.1776  3.2940  1.1092
 6407SOL     OW30853   4.254   0.709   5.273  0.0242 -0.1365  0.1264
 6407SOL    HW130854   4.293   0.633   5.316  0.9406 -0.3503 -1.0729
 6407SOL    HW230855   4.322   0.731   5.209 -0.2104 -1.2420 -0.5092
 6408SOL     OW30856   2.071   3.438   3.220 -0.1375 -0.3132 -0.5711
 6408SOL    HW130857   2.089   3.471   3.308 -1.5425 -1.9869  0.3304
 6408SOL    HW230858   2.140   3.475   3.165  0.1224 -0.2342 -0.1901
 6409SOL     OW30859   0.409   4.543  15.578 -0.0773  0.0888 -0.2502
 6409SOL    HW130860   0.452   4.624  15.605 -1.1639  1.0259 -1.3297
 6409SOL    HW230861   0.408   4.563  15.485  1.0045 -3.7200 -1.0784
 6410SOL     OW30862   0.208   3.481   4.100 -0.3064 -0.2436 -0.1077
 6410SOL    HW130863   0.250   3.508   4.182 -0.4265 -0.5920  0.0693
 6410SOL    HW230864   0.159   3.561   4.080  0.5253  0.1883 -0.3986
 6411SOL     OW30865   3.395   3.267   2.461 -0.1604 -0.1695  0.4813
 6411SOL    HW130866   3.309   3.227   2.445  0.2446 -0.9639  0.2800
 6411SOL    HW230867   3.387   3.312   2.545  0.0234 -2.0985  1.5376
 6412SOL     OW30868   4.040   2.270   5.305 -0.2395  0.7715 -0.3652
 6412SOL    HW130869   4.087   2.353   5.302 -0.8633  1.1584  0.7033
 6412SOL    HW230870   4.098   2.210   5.257 -0.7652  0.8651 -1.1225
 6413SOL     OW30871   0.998   4.312  10.128  0.1734 -0.3629 -0.3646
 6413SOL    HW130872   0.958   4.232  10.094 -1.7949  0.7632 -0.7319
 6413SOL    HW230873   1.062   4.333  10.060 -0.4186  0.4710 -0.6702
 6414SOL     OW30874   4.142   0.443   6.922 -0.2662  0.3952 -0.2938
 6414SOL    HW130875   4.190   0.479   6.997  0.4357 -1.1892  0.0139
 6414SOL    HW230876   4.092   0.516   6.885 -0.3324  0.2854 -0.4185
 6415SOL     OW30877   1.739   3.963   1.677 -0.2371 -0.3882 -0.1524
 6415SOL    HW130878   1.686   3.899   1.629 -1.8508 -1.0232  2.4692
 6415SOL    HW230879   1.828   3.938   1.654 -0.3993  1.1889 -2.5327
 6416SOL     OW30880   0.953   2.183   6.249 -0.5839  0.0106 -0.0642
 6416SOL    HW130881   0.869   2.141   6.266 -0.5039 -0.7506 -1.5431
 6416SOL    HW230882   0.972   2.231   6.330  0.8113 -0.5945 -0.0332
 6417SOL     OW30883   0.366   2.166  11.129 -0.2621  0.2366 -0.4350
 6417SOL    HW130884   0.361   2.107  11.205  1.1449  0.8901  0.1660
 6417SOL    HW230885   0.341   2.109  11.056 -0.1325  0.1179 -0.3870
 6418SOL     OW30886   4.042   2.379   4.571  0.2745  0.6467  0.6331
 6418SOL    HW130887   4.073   2.456   4.619 -0.2956 -0.1640  2.3231
 6418SOL    HW230888   4.094   2.381   4.491 -2.2877  2.1746 -0.9447
 6419SOL     OW30889   2.513   0.040   4.880  0.1087  0.1591 -0.1114
 6419SOL    HW130890   2.461   0.102   4.830 -1.3782  0.4032  1.7301
 6419SOL    HW230891   2.459   4.695   4.882  1.0491 -0.4834 -0.3674
 6420SOL     OW30892   1.764   0.040   8.553  0.2285  0.2345 -0.2746
 6420SOL    HW130893   1.727   0.125   8.526  2.4544  0.7549 -1.6935
 6420SOL    HW230894   1.734   4.719   8.481  0.1634  0.6007 -0.5299
 6421SOL     OW30895   3.672   2.928  11.738  0.1926 -0.5506 -0.0355
 6421SOL    HW130896   3.709   2.981  11.809 -0.0185 -0.9375  0.3679
 6421SOL    HW230897   3.577   2.929  11.753  0.1772 -0.8379 -0.1154
 6422SOL     OW30898   3.250   0.145  17.319  0.3924  0.3083  0.0938
 6422SOL    HW130899   3.231   0.078  17.254  1.3897  0.4149 -0.3057
 6422SOL    HW230900   3.192   0.215  17.290  0.1067 -0.9394 -2.3166
 6423SOL     OW30901   3.382   2.196   7.769  0.4003 -0.2756  0.4810
 6423SOL    HW130902   3.393   2.123   7.830 -1.2041 -0.3522  0.6660
 6423SOL    HW230903   3.327   2.156   7.701  1.7284  1.1371 -1.4308
 6424SOL     OW30904   3.932   0.287  13.114  0.4795  0.5868 -0.2069
 6424SOL    HW130905   3.987   0.270  13.037 -0.0661 -0.9395 -0.2390
 6424SOL    HW230906   3.986   0.340  13.173  0.0037 -0.4957  1.1647
 6425SOL     OW30907   0.543   4.230   6.637  0.3613 -0.2430  0.2203
 6425SOL    HW130908   0.566   4.272   6.720  0.6361  0.4387 -0.2054
 6425SOL    HW230909   0.481   4.167   6.674  0.3033  0.6631  1.6650
 6426SOL     OW30910   3.102   2.559   7.960  0.1494 -0.0252 -0.2865
 6426SOL    HW130911   3.178   2.501   7.968 -1.0797 -1.4811  0.8660
 6426SOL    HW230912   3.139   2.641   7.927 -0.2571  0.6587  0.9467
 6427SOL     OW30913   1.994   4.648  11.716  0.0386  0.0922  0.4937
 6427SOL    HW130914   1.999   0.004  11.686  0.7381 -0.7888 -2.0359
 6427SOL    HW230915   1.929   4.651  11.786  0.1263  0.3928  0.5645
 6428SOL     OW30916   4.067   3.579  15.016 -1.0066 -0.2653  0.1869
 6428SOL    HW130917   4.153   3.584  14.974 -0.2981 -0.8886  1.5619
 6428SOL    HW230918   4.011   3.618  14.949 -0.5112 -1.7062 -1.0471
 6429SOL     OW30919   2.155   4.734  16.465 -0.1166 -0.4221 -0.4646
 6429SOL    HW130920   2.135   4.714  16.373  0.9582  0.2290 -0.8427
 6429SOL    HW230921   2.172   4.648  16.504 -0.3128  0.0308  0.6133
 6430SOL     OW30922   2.083   2.320  12.983  0.2450 -0.0299  0.5240
 6430SOL    HW130923   2.137   2.304  12.906  1.1824 -3.0540  1.8220
 6430SOL    HW230924   1.997   2.294  12.951  0.2758 -1.8515  1.9390
 6431SOL     OW30925   4.456   0.727   6.710  0.0621 -0.5677  0.1532
 6431SOL    HW130926   4.522   0.780   6.754 -1.6004  0.0249  1.9213
 6431SOL    HW230927   4.518   0.659   6.681  0.9636  0.2415  0.1740
 6432SOL     OW30928   3.741   4.709   5.341 -0.1603  0.4906 -0.0611
 6432SOL    HW130929   3.718   4.698   5.433  0.7224 -1.0967 -0.0252
 6432SOL    HW230930   3.796   0.053   5.342  0.8279 -0.2448  2.6823
 6433SOL     OW30931   2.246   3.897   1.539 -0.2924 -0.0070  0.0927
 6433SOL    HW130932   2.303   3.841   1.592 -2.1572 -0.3854  1.6965
 6433SOL    HW230933   2.266   3.985   1.574  0.3133 -0.6566  1.3917
 6434SOL     OW30934   0.057   3.462   6.696 -0.0734 -0.1757 -0.0545
 6434SOL    HW130935   0.058   3.558   6.698 -0.7126 -0.1305 -1.8039
 6434SOL    HW230936   0.056   3.442   6.602  2.5108 -2.0803  0.3394
 6435SOL     OW30937   3.651   2.987  16.939 -0.3174 -0.2126 -0.6389
 6435SOL    HW130938   3.698   2.922  16.991 -1.1636 -0.1856  0.1613
 6435SOL    HW230939   3.686   3.068  16.976  1.0140 -0.3136 -1.6639
 6436SOL     OW30940   2.761   0.989   7.230  0.1382  0.4903  0.0208
 6436SOL    HW130941   2.803   0.950   7.153 -0.9635 -1.3760  0.3838
 6436SOL    HW230942   2.828   1.054   7.250 -0.0125  0.7830 -0.4105
 6437SOL     OW30943   3.052   0.409   6.640 -0.1661  0.5349 -0.0484
 6437SOL    HW130944   2.977   0.350   6.631 -1.4886  2.5483 -2.2663
 6437SOL    HW230945   3.015   0.496   6.629 -0.5169  0.5290  1.0555
 6438SOL     OW30946   2.654   2.223   9.402 -0.2857 -0.3796  0.2145
 6438SOL    HW130947   2.669   2.164   9.476  1.3002 -2.1940 -1.5664
 6438SOL    HW230948   2.623   2.159   9.338  1.1842  0.5180 -1.3874
 6439SOL     OW30949   0.222   1.633   2.523  0.2669  0.2061  0.0197
 6439SOL    HW130950   0.184   1.619   2.610  0.1994 -2.3584 -0.4149
 6439SOL    HW230951   0.312   1.626   2.555  0.5088 -0.0982 -0.7312
 6440SOL     OW30952   4.689   0.809   7.915 -0.7289 -0.4001 -0.0596
 6440SOL    HW130953   4.715   0.859   7.838 -1.6559  1.1083  0.6111
 6440SOL    HW230954   4.593   0.808   7.910 -0.7498  1.7431  0.2292
 6441SOL     OW30955   1.837   0.418   5.059 -0.1798 -0.5207 -0.4666
 6441SOL    HW130956   1.821   0.325   5.047  2.0154 -1.0805  0.8144
 6441SOL    HW230957   1.780   0.469   5.002  0.4919  0.0197 -0.6513
 6442SOL     OW30958   4.126   1.981   5.540 -0.6590  0.1465 -0.2514
 6442SOL    HW130959   4.089   2.053   5.488 -0.3062 -0.8164 -1.8256
 6442SOL    HW230960   4.097   1.901   5.496  0.4891  0.2933 -1.2747
 6443SOL     OW30961   1.802   2.529   3.219  0.5893  0.1435 -0.0577
 6443SOL    HW130962   1.833   2.564   3.303 -0.9913 -2.0434  1.4305
 6443SOL    HW230963   1.728   2.480   3.254 -0.4767  1.2887 -0.7252
 6444SOL     OW30964   0.540   4.366   5.320  0.2576 -0.1131 -0.3848
 6444SOL    HW130965   0.533   4.312   5.399  2.3029  0.4949  0.2106
 6444SOL    HW230966   0.520   4.447   5.367 -1.2038 -0.9092  0.3538
 6445SOL     OW30967   3.607   3.987  14.214  0.0375 -0.3520  0.1665
 6445SOL    HW130968   3.573   4.054  14.155  1.3681  2.9057  3.1361
 6445SOL    HW230969   3.529   3.963  14.265 -0.2205  0.3702  0.1068
 6446SOL     OW30970   4.061   0.300  14.024 -0.0528  0.7566  0.1024
 6446SOL    HW130971   4.055   0.387  14.062  0.4895  0.9033 -0.1502
 6446SOL    HW230972   3.975   0.302  13.981  0.8500 -1.5129 -1.8586
 6447SOL     OW30973   2.093   1.972   2.046  0.3558  0.8103  0.4531
 6447SOL    HW130974   2.154   1.965   1.973  0.5414  0.5031  0.6389
 6447SOL    HW230975   2.126   2.055   2.080 -1.0740  1.2228  0.8168
 6448SOL     OW30976   0.913   2.040  10.249 -0.7928  0.2093 -0.0148
 6448SOL    HW130977   1.004   2.015  10.267 -1.4039 -2.8190 -1.0126
 6448SOL    HW230978   0.922   2.134  10.261 -0.3748  0.1665  0.0031
 6449SOL     OW30979   0.976   4.704   5.996 -0.9903 -0.1980  0.2473
 6449SOL    HW130980   0.960   4.649   5.920 -0.5550 -1.0509  0.7852
 6449SOL    HW230981   1.069   4.692   6.016 -0.2373  0.2677 -3.0081
 6450SOL     OW30982   3.140   3.395   1.773  0.5932  0.0710  0.2454
 6450SOL    HW130983   3.084   3.323   1.745  2.4955 -1.2036 -0.1998
 6450SOL    HW230984   3.122   3.389   1.867 -1.3883 -3.7953 -0.4038
 6451SOL     OW30985   4.733   3.997   9.721 -0.1710  0.1385  0.6002
 6451SOL    HW130986   0.082   3.961   9.753  1.3120  2.9802 -0.0577
 6451SOL    HW230987   4.676   3.928   9.755  0.3563 -2.6045 -4.1453
 6452SOL     OW30988   1.786   2.270  14.585  0.0519 -0.3599 -0.2157
 6452SOL    HW130989   1.878   2.263  14.560 -0.1736 -2.4076 -0.4588
 6452SOL    HW230990   1.792   2.283  14.679 -1.4238  0.1758 -0.1927
 6453SOL     OW30991   0.821   2.384   5.597 -0.1935  0.2531 -0.0794
 6453SOL    HW130992   0.872   2.315   5.555  0.0324  0.2913  0.1350
 6453SOL    HW230993   0.789   2.444   5.529  0.2031  1.5568  0.8955
 6454SOL     OW30994   4.439   1.509   1.517  0.1102  0.1762  0.0177
 6454SOL    HW130995   4.415   1.473   1.431 -0.2272  1.5008 -0.4494
 6454SOL    HW230996   4.518   1.458   1.533 -1.2029 -1.1629  2.1531
 6455SOL     OW30997   1.147   1.880  11.712 -0.0607 -0.1471  0.2904
 6455SOL    HW130998   1.095   1.949  11.753 -1.0584  0.4656 -2.0292
 6455SOL    HW230999   1.110   1.801  11.751 -0.7169 -0.5908 -1.2287
 6456SOL     OW31000   4.394   1.748   2.087  0.5967  0.4635 -0.4044
 6456SOL    HW131001   4.475   1.696   2.085 -0.0529 -0.6083  1.1896
 6456SOL    HW231002   4.428   1.834   2.112  2.6159 -0.2985 -0.4592
 6457SOL     OW31003   0.769   2.904   1.048  0.2288 -0.3021  0.1968
 6457SOL    HW131004   0.796   2.994   1.032  2.2844 -0.4245  3.0953
 6457SOL    HW231005   0.715   2.915   1.126  0.0682  1.5611 -0.1748
 6458SOL     OW31006   0.853   0.770   9.486  0.0889  0.1317 -0.0615
 6458SOL    HW131007   0.791   0.798   9.554 -0.1541 -0.2692 -0.1194
 6458SOL    HW231008   0.794   0.739   9.417 -1.2177 -1.7357  1.8475
 6459SOL     OW31009   2.690   2.539   8.652 -0.5425 -0.3128 -0.2643
 6459SOL    HW131010   2.695   2.503   8.563  2.7135 -0.2642 -0.1136
 6459SOL    HW231011   2.679   2.459   8.703 -0.7039 -0.5063 -0.6005
 6460SOL     OW31012   1.113   2.906   3.380  0.3855  0.2523  0.1883
 6460SOL    HW131013   1.096   2.854   3.458  1.4124 -1.1553 -0.5299
 6460SOL    HW231014   1.136   2.832   3.324 -3.4106  0.7978 -2.1012
 6461SOL     OW31015   4.701   0.667   5.578 -0.0425  0.9868  0.0067
 6461SOL    HW131016   0.044   0.625   5.617 -0.8715 -0.3467  0.2044
 6461SOL    HW231017   0.009   0.715   5.507  0.3474  1.1690  0.3564
 6462SOL     OW31018   2.266   2.673   4.840 -0.4390 -0.0691  0.9300
 6462SOL    HW131019   2.359   2.685   4.823 -0.6588 -0.8829 -0.9305
 6462SOL    HW231020   2.276   2.585   4.878  0.5678 -0.8335 -1.0868
 6463SOL     OW31021   0.425   2.642   5.695 -0.6567 -0.0293  0.0377
 6463SOL    HW131022   0.375   2.687   5.763  1.3470  0.4739  1.1828
 6463SOL    HW231023   0.493   2.603   5.749  1.8236  1.4782 -1.9664
 6464SOL     OW31024   1.795   2.812   8.820  0.5468  0.0972  0.1521
 6464SOL    HW131025   1.744   2.890   8.842  0.1538 -0.2542  0.4864
 6464SOL    HW231026   1.739   2.761   8.762 -1.1294  0.4964  1.4184
 6465SOL     OW31027   3.646   2.109   6.716  0.0925  0.7612 -0.3580
 6465SOL    HW131028   3.598   2.166   6.656  0.7083 -0.7155 -2.2308
 6465SOL    HW231029   3.732   2.090   6.679 -0.8504 -2.2197 -1.0325
 6466SOL     OW31030   3.788   4.562   6.085 -0.0799 -0.6505 -0.0427
 6466SOL    HW131031   3.856   4.510   6.042  0.7610 -0.2486  0.8039
 6466SOL    HW231032   3.816   4.561   6.176 -0.9008 -0.9419  0.2046
 6467SOL     OW31033   4.585   2.240   1.048  0.8163 -0.0531 -0.1959
 6467SOL    HW131034   4.574   2.164   0.991 -0.6711  1.6123 -2.1789
 6467SOL    HW231035   4.513   2.235   1.111 -0.0340 -1.3409 -1.2772
 6468SOL     OW31036   1.356   1.478   2.826 -0.1958  0.0453 -0.4349
 6468SOL    HW131037   1.440   1.434   2.840 -0.6259 -1.0629 -1.2940
 6468SOL    HW231038   1.354   1.472   2.730 -1.9041  0.0194 -0.4014
 6469SOL     OW31039   0.807   0.156  15.407  0.2753  0.0735  0.0662
 6469SOL    HW131040   0.826   0.063  15.415  2.1629  0.3770 -0.9365
 6469SOL    HW231041   0.785   0.148  15.315  1.5607 -2.0342 -0.0489
 6470SOL     OW31042   2.555   2.924   3.153  0.4738  0.0549 -0.0876
 6470SOL    HW131043   2.514   2.847   3.193  0.0066  0.2470 -0.1893
 6470SOL    HW231044   2.514   2.921   3.066 -0.2398 -2.0596  0.3194
 6471SOL     OW31045   3.493   2.078  16.125 -0.1775  0.3231  0.8182
 6471SOL    HW131046   3.477   2.163  16.085  1.4326 -0.0628 -0.6667
 6471SOL    HW231047   3.408   2.036  16.114  0.3934 -0.1963 -1.7106
 6472SOL     OW31048   1.199   1.380   8.281  0.7605 -0.1514 -0.2221
 6472SOL    HW131049   1.139   1.452   8.298  1.3157 -0.4974  3.1348
 6472SOL    HW231050   1.284   1.424   8.277  0.5574  0.3882  1.6967
 6473SOL     OW31051   0.624   3.307   8.034  0.2667 -0.8523 -0.0121
 6473SOL    HW131052   0.601   3.237   8.095  1.1876  1.3939  2.9080
 6473SOL    HW231053   0.717   3.319   8.056  0.1687 -0.1714  0.0515
 6474SOL     OW31054   1.979   1.945   9.503  0.6439  0.2676  0.2037
 6474SOL    HW131055   1.913   1.930   9.571  0.1492  0.6080 -0.1948
 6474SOL    HW231056   1.919   1.994   9.446  0.8880 -0.7077 -0.9027
 6475SOL     OW31057   1.412   1.910   5.457 -0.0377  0.5848  0.0144
 6475SOL    HW131058   1.465   1.977   5.501  0.1363 -0.7234  1.7982
 6475SOL    HW231059   1.478   1.865   5.405  0.4632 -0.2133  1.3215
 6476SOL     OW31060   0.072   2.541  17.544  0.3412 -0.4412 -0.4312
 6476SOL    HW131061   0.079   2.568  17.635 -0.1834  0.7028 -0.7326
 6476SOL    HW231062   4.719   2.500  17.548  0.4088 -0.7408 -1.7992
 6477SOL     OW31063   1.001   3.600   2.455  0.0589  0.0070  0.4665
 6477SOL    HW131064   1.043   3.588   2.370 -2.2218 -0.3357 -0.6141
 6477SOL    HW231065   1.056   3.671   2.487 -2.0575  2.8874 -2.3742
 6478SOL     OW31066   3.414   2.186   8.489  0.7177  0.6213 -0.2096
 6478SOL    HW131067   3.493   2.223   8.530  0.6332 -0.3923  0.8858
 6478SOL    HW231068   3.344   2.245   8.518 -0.3399 -1.3153  1.2400
 6479SOL     OW31069   4.199   2.706   6.512 -0.5391  0.0626 -0.0679
 6479SOL    HW131070   4.222   2.760   6.588  1.0449  1.3172 -1.4616
 6479SOL    HW231071   4.281   2.714   6.463 -0.3279 -1.4013  0.0306
 6480SOL     OW31072   1.925   2.450   5.663 -0.1928 -0.3995  0.5964
 6480SOL    HW131073   1.925   2.542   5.690 -1.2644  0.1347 -1.2945
 6480SOL    HW231074   1.983   2.419   5.733 -2.7770 -3.4158  1.4080
 6481SOL     OW31075   0.732   1.577   1.238 -0.8436 -0.0020 -0.3433
 6481SOL    HW131076   0.640   1.550   1.235 -0.6799 -0.4587 -1.2006
 6481SOL    HW231077   0.748   1.599   1.147  1.1263  1.3967  0.3457
 6482SOL     OW31078   3.537   3.318   4.000  0.4391 -0.3173  0.0148
 6482SOL    HW131079   3.609   3.261   4.026 -0.1877 -0.2328  1.9561
 6482SOL    HW231080   3.462   3.258   4.000 -0.4204  0.7635 -1.4389
 6483SOL     OW31081   1.299   3.168  13.308 -0.6792 -0.8087  0.0920
 6483SOL    HW131082   1.211   3.152  13.274 -1.5251 -0.9590  2.3674
 6483SOL    HW231083   1.317   3.255  13.272  0.3798 -1.1855 -0.2855
 6484SOL     OW31084   3.131   2.951  15.052 -0.3776 -0.1248 -0.3677
 6484SOL    HW131085   3.204   2.902  15.012 -0.4217  0.1795 -0.8150
 6484SOL    HW231086   3.173   3.037  15.047 -0.5974 -0.0921 -1.5780
 6485SOL     OW31087   3.472   2.859   6.136  0.4387 -0.5746 -0.2002
 6485SOL    HW131088   3.559   2.888   6.164  0.0650  0.9669 -0.6734
 6485SOL    HW231089   3.479   2.771   6.173  0.3563 -1.1091 -1.4229
 6486SOL     OW31090   2.800   4.488   3.459  0.1493 -0.1387  0.0643
 6486SOL    HW131091   2.749   4.416   3.497 -0.9637 -0.4422 -1.9980
 6486SOL    HW231092   2.828   4.539   3.535 -0.8451 -0.9456  0.9684
 6487SOL     OW31093   3.154   3.649   2.075  0.1852  0.6269  0.1293
 6487SOL    HW131094   3.112   3.647   1.989 -2.3010  0.1822  1.3268
 6487SOL    HW231095   3.097   3.708   2.125 -1.6716 -0.5601 -0.5801
 6488SOL     OW31096   4.084   1.529  16.150 -0.3117  0.1666  0.2370
 6488SOL    HW131097   3.997   1.492  16.165 -0.3679  0.4381  0.5837
 6488SOL    HW231098   4.118   1.517  16.239  1.0123  2.2553  0.0202
 6489SOL     OW31099   3.064   0.332   1.819 -0.2188 -0.1032 -0.0779
 6489SOL    HW131100   2.980   0.376   1.806 -0.7997 -1.3353 -0.4837
 6489SOL    HW231101   3.039   0.270   1.887  1.5437 -2.0755 -1.2320
 6490SOL     OW31102   4.007   3.570   5.051 -0.2790  0.1287  0.5779
 6490SOL    HW131103   3.944   3.542   5.117  0.0029 -0.9092  0.4005
 6490SOL    HW231104   4.008   3.485   5.007  1.4548  1.5806 -2.1916
 6491SOL     OW31105   3.611   2.076   3.815  0.4370 -0.9250 -0.7306
 6491SOL    HW131106   3.600   2.078   3.720 -2.7762 -0.3240 -0.3455
 6491SOL    HW231107   3.528   2.116   3.842  1.2190  1.3127 -1.6572
 6492SOL     OW31108   3.415   2.018   5.062 -0.1099 -0.2212 -0.0783
 6492SOL    HW131109   3.501   2.052   5.037  0.4552 -1.5090  0.1199
 6492SOL    HW231110   3.363   2.049   4.988 -0.2495 -0.9634 -0.2832
 6493SOL     OW31111   0.905   1.783   1.376  0.3140 -0.4744 -0.2606
 6493SOL    HW131112   0.999   1.764   1.371  0.3611  0.0792 -1.3726
 6493SOL    HW231113   0.861   1.705   1.341 -0.9605 -1.1098  2.7746
 6494SOL     OW31114   4.640   3.077   6.611  0.7072 -0.3551  0.2820
 6494SOL    HW131115   4.604   3.001   6.657 -0.8224  0.9085  1.2016
 6494SOL    HW231116   4.618   3.139   6.680  0.9375  0.0169  0.0194
 6495SOL     OW31117   2.716   3.683   8.901  0.0295 -0.6288 -0.6644
 6495SOL    HW131118   2.645   3.673   8.964 -0.0717 -0.4836 -0.7572
 6495SOL    HW231119   2.750   3.597   8.875 -1.1229 -1.2878  0.0122
 6496SOL     OW31120   3.152   0.958   8.472 -0.8811  0.3025  0.6187
 6496SOL    HW131121   3.238   0.922   8.493 -0.3153  1.2771 -0.0147
 6496SOL    HW231122   3.100   0.892   8.426 -0.4240  0.2008  0.2486
 6497SOL     OW31123   1.942   4.534  10.738  0.1132 -0.0288 -0.0877
 6497SOL    HW131124   1.901   4.572  10.659 -1.9757 -0.5243  0.7601
 6497SOL    HW231125   1.960   4.618  10.780  2.4772  0.6233 -2.3583
 6498SOL     OW31126   1.230   0.891   4.841  1.2903 -0.0558  0.1924
 6498SOL    HW131127   1.302   0.954   4.846  0.4283  1.0486 -1.3370
 6498SOL    HW231128   1.197   0.911   4.753 -1.5319 -0.4835  1.1691
 6499SOL     OW31129   0.427   4.134   1.757 -0.3021 -0.0666  1.1767
 6499SOL    HW131130   0.407   4.057   1.810  0.4791  0.3253  2.0379
 6499SOL    HW231131   0.351   4.181   1.791  0.4752  0.5363  2.0730
 6500SOL     OW31132   2.795   4.533   4.045 -0.0417  0.4780 -0.5842
 6500SOL    HW131133   2.739   4.462   4.076  0.5118  0.0821 -0.4992
 6500SOL    HW231134   2.869   4.478   4.022 -1.3144 -1.3369 -0.3532
 6501SOL     OW31135   3.532   3.573   4.124  0.3240  0.3839  0.2134
 6501SOL    HW131136   3.543   3.478   4.110  0.4487  0.4120  0.1171
 6501SOL    HW231137   3.554   3.606   4.037 -1.5756  0.5981 -0.1752
 6502SOL     OW31138   0.331   0.225   0.995 -0.2176  0.4422 -0.0441
 6502SOL    HW131139   0.240   0.241   1.022 -0.2278  2.2182 -1.1281
 6502SOL    HW231140   0.323   0.204   0.902 -2.7155 -0.4122  0.3606
 6503SOL     OW31141   0.609   3.186   9.095  0.1104 -0.4741 -0.0422
 6503SOL    HW131142   0.531   3.233   9.066  0.3908  0.6074  0.9113
 6503SOL    HW231143   0.592   3.190   9.189  2.3664 -0.9907  0.3991
 6504SOL     OW31144   1.347   3.989   5.961 -0.1669 -0.1425 -0.2881
 6504SOL    HW131145   1.428   4.033   5.936  1.0068 -2.7925 -1.1641
 6504SOL    HW231146   1.327   4.047   6.035 -1.5320  2.8009 -2.9565
 6505SOL     OW31147   1.358   1.511   4.914  0.6498 -0.5079 -0.5778
 6505SOL    HW131148   1.359   1.537   4.823  1.0122 -1.3168 -0.8115
 6505SOL    HW231149   1.413   1.433   4.903 -0.6315 -1.4364 -0.4933
 6506SOL     OW31150   2.794   1.549   3.598 -0.0003 -0.1251 -0.5646
 6506SOL    HW131151   2.860   1.507   3.653  0.3835  0.4248 -0.6068
 6506SOL    HW231152   2.721   1.486   3.597  0.4734 -0.7049  1.4008
 6507SOL     OW31153   0.414   3.400   5.823  0.1192  0.4971 -0.2393
 6507SOL    HW131154   0.330   3.434   5.854  0.0247  0.5649 -0.5676
 6507SOL    HW231155   0.435   3.461   5.752  2.7831  0.1417  0.2325
 6508SOL     OW31156   4.547   2.773   4.210 -0.8575 -0.2122  0.6298
 6508SOL    HW131157   4.567   2.715   4.136  0.1284  0.0854  0.6706
 6508SOL    HW231158   4.505   2.847   4.166  1.0546  0.4113 -0.1211
 6509SOL     OW31159   4.289   3.754  13.900  0.4119 -0.0442 -0.3798
 6509SOL    HW131160   4.268   3.838  13.941 -0.8691 -0.7022  0.3098
 6509SOL    HW231161   4.295   3.778  13.808 -1.4990 -1.6456 -0.9322
 6510SOL     OW31162   4.136   0.154   9.937  0.6834 -0.6344  0.7159
 6510SOL    HW131163   4.229   0.146   9.957  0.8754 -1.1639 -0.4391
 6510SOL    HW231164   4.122   0.142   9.843 -0.3405 -0.8312  0.8894
 6511SOL     OW31165   3.109   2.046   3.307 -0.1557  0.0770 -0.4536
 6511SOL    HW131166   3.202   2.040   3.327 -0.2009  0.9875  0.0455
 6511SOL    HW231167   3.076   1.959   3.331  0.8506 -0.3857 -0.7673
 6512SOL     OW31168   2.125   2.205   3.362  0.0604 -0.7751 -0.6112
 6512SOL    HW131169   2.216   2.226   3.340 -0.4992  0.0912 -2.0731
 6512SOL    HW231170   2.113   2.113   3.339 -1.8810 -0.4601 -0.8821
 6513SOL     OW31171   4.036   4.676   2.119 -0.6338 -0.3040  0.2902
 6513SOL    HW131172   3.960   4.636   2.161  0.2953 -2.6025 -0.2220
 6513SOL    HW231173   4.028   4.646   2.029 -0.0713  4.7051 -1.4537
 6514SOL     OW31174   3.847   1.353   2.318  0.2419 -0.2397  0.4997
 6514SOL    HW131175   3.786   1.379   2.387 -0.5952 -0.2582 -0.2386
 6514SOL    HW231176   3.846   1.428   2.259  0.2586 -1.3012 -0.8665
 6515SOL     OW31177   1.046   3.008   0.272  0.0393 -0.2635 -0.0174
 6515SOL    HW131178   0.970   3.063   0.253  0.4865 -0.0356 -1.1425
 6515SOL    HW231179   1.018   2.934   0.326  0.4702  0.2174  0.8710
 6516SOL     OW31180   0.491   0.219   1.476  0.1907  0.1721  0.1298
 6516SOL    HW131181   0.550   0.181   1.410  0.1838  1.3222 -0.5451
 6516SOL    HW231182   0.422   0.153   1.483  0.7332 -0.4144 -0.0235
 6517SOL     OW31183   1.091   0.386  15.354 -0.0858  0.3886  0.3892
 6517SOL    HW131184   1.156   0.386  15.424  1.4207 -1.6275 -1.0200
 6517SOL    HW231185   1.082   0.291  15.339  1.1495  0.5279 -1.1346
 6518SOL     OW31186   0.395   2.369   3.959  0.1645  0.0799 -0.1092
 6518SOL    HW131187   0.378   2.463   3.962  0.2237  0.0492  1.2505
 6518SOL    HW231188   0.335   2.336   3.892 -1.6822  2.8792  0.1343
 6519SOL     OW31189   4.631   2.119  13.208  0.4790  0.3799  0.2651
 6519SOL    HW131190   4.652   2.079  13.124 -0.0118 -0.2489  0.4405
 6519SOL    HW231191   4.561   2.060  13.235  0.9151 -0.9172 -1.4523
 6520SOL     OW31192   0.343   4.012   1.994 -0.2952  0.1002 -0.7378
 6520SOL    HW131193   0.398   4.001   2.072  0.6872  0.9713 -1.3326
 6520SOL    HW231194   0.259   3.995   2.038 -0.8950 -1.5885 -2.5582
 6521SOL     OW31195   0.715   4.596   7.541  0.0760 -0.0244 -0.4199
 6521SOL    HW131196   0.640   4.555   7.583 -1.9704  1.6308 -2.4184
 6521SOL    HW231197   0.714   4.682   7.582  0.2598 -0.0247 -0.4137
 6522SOL     OW31198   2.248   4.437   7.312  0.6152 -0.1126  0.1136
 6522SOL    HW131199   2.226   4.525   7.282  0.3536 -0.2690 -0.1569
 6522SOL    HW231200   2.199   4.426   7.394 -0.3539  2.5184 -0.1310
 6523SOL     OW31201   2.258   2.854   5.472 -0.7481 -0.2873  0.8857
 6523SOL    HW131202   2.283   2.807   5.393 -1.1401  0.5755  0.2405
 6523SOL    HW231203   2.162   2.856   5.465 -0.5543  3.4848 -0.7219
 6524SOL     OW31204   1.549   0.336  15.171 -0.1930  0.0957  0.0773
 6524SOL    HW131205   1.538   0.417  15.220 -0.2095 -0.5952  1.2136
 6524SOL    HW231206   1.620   0.352  15.108 -0.4063  1.7404  0.2494
 6525SOL     OW31207   0.167   0.043   7.133  0.1709 -0.1489  0.1449
 6525SOL    HW131208   0.242   0.094   7.102  0.1652 -0.0367  0.3164
 6525SOL    HW231209   0.112   0.107   7.178 -1.9374 -0.1512 -2.3721
 6526SOL     OW31210   4.632   1.349   7.155 -0.1566  0.8707 -0.7378
 6526SOL    HW131211   4.718   1.323   7.187 -1.0993 -0.0853  1.0687
 6526SOL    HW231212   4.615   1.425   7.211 -0.7798  0.2818 -0.1243
 6527SOL     OW31213   4.194   2.981   4.282  0.2066 -0.7293 -0.1397
 6527SOL    HW131214   4.113   3.006   4.237 -0.9314 -0.1029  2.2155
 6527SOL    HW231215   4.161   2.901   4.323 -0.7385 -0.1313  0.2794
 6528SOL     OW31216   0.902   0.290   9.170  0.2186  0.5535  0.4306
 6528SOL    HW131217   0.863   0.341   9.241 -2.2500 -0.4678 -0.1805
 6528SOL    HW231218   0.994   0.318   9.172  0.7203 -1.0945  0.1452
 6529SOL     OW31219   0.897   1.229   3.521 -0.2178  0.6596  0.0802
 6529SOL    HW131220   0.879   1.190   3.606  1.4825 -2.0191 -0.7701
 6529SOL    HW231221   0.984   1.268   3.525  0.4427 -0.8825  0.5107
 6530SOL     OW31222   3.862   3.527   5.574  0.0974  0.2913 -0.3940
 6530SOL    HW131223   3.942   3.507   5.526 -1.1671 -1.6584 -1.6761
 6530SOL    HW231224   3.809   3.448   5.565  1.5012 -0.6804 -0.0396
 6531SOL     OW31225   3.879   3.772   1.721  0.0960 -0.0007 -0.1491
 6531SOL    HW131226   3.923   3.703   1.673  1.8736 -0.7498  2.6049
 6531SOL    HW231227   3.910   3.735   1.803  0.2093 -1.0675 -0.6839
 6532SOL     OW31228   4.462   4.223   6.732 -0.6603  0.2430  0.1187
 6532SOL    HW131229   4.505   4.273   6.801  0.1748  0.5112 -0.6020
 6532SOL    HW231230   4.448   4.295   6.671  2.4599  0.1587 -0.6930
 6533SOL     OW31231   0.751   3.088  12.099 -0.5341  0.0462 -0.2634
 6533SOL    HW131232   0.695   3.108  12.175 -2.6314  0.2210 -1.8595
 6533SOL    HW231233   0.790   3.006  12.129  0.3301  0.5694  0.0742
 6534SOL     OW31234   4.321   3.764  14.697  0.2800 -0.2798  0.1425
 6534SOL    HW131235   4.232   3.765  14.731  0.6835 -1.0870  1.2239
 6534SOL    HW231236   4.315   3.830  14.627 -0.7779  0.1826  0.6821
 6535SOL     OW31237   1.184   1.109  16.412 -0.5022  0.1113 -0.3038
 6535SOL    HW131238   1.278   1.094  16.427 -0.2410  1.3142 -0.7398
 6535SOL    HW231239   1.186   1.197  16.452 -2.0997 -0.9694  2.1793
 6536SOL     OW31240   4.202   1.484   6.059  0.5205 -0.2740  0.3996
 6536SOL    HW131241   4.199   1.410   5.999 -0.8655 -2.0262  2.6345
 6536SOL    HW231242   4.276   1.533   6.023 -2.0688  2.3148 -1.4101
 6537SOL     OW31243   2.207   3.897   4.983 -0.5289 -0.0314 -0.1632
 6537SOL    HW131244   2.266   3.860   5.049  0.7643  0.0046 -1.2977
 6537SOL    HW231245   2.139   3.830   4.977  0.2258 -0.6201 -2.1164
 6538SOL     OW31246   3.487   0.952  13.227  0.1338 -0.6870  0.0187
 6538SOL    HW131247   3.506   0.917  13.139  2.8928  0.8448  0.0086
 6538SOL    HW231248   3.409   1.005  13.212  0.0204 -1.2435 -1.3873
 6539SOL     OW31249   1.071   2.309  14.261  0.5354  0.3465  0.1256
 6539SOL    HW131250   1.160   2.335  14.283  0.8186 -1.6217  1.2714
 6539SOL    HW231251   1.044   2.388  14.214  1.6144  1.0466  0.6730
 6540SOL     OW31252   1.102   2.308   2.513 -0.5331  0.0995  0.2913
 6540SOL    HW131253   1.102   2.383   2.454 -1.0555 -0.6134 -0.6284
 6540SOL    HW231254   1.053   2.338   2.589 -0.0479  1.9481 -0.1443
 6541SOL     OW31255   1.678   0.091  10.888  0.1885  0.1919 -0.0649
 6541SOL    HW131256   1.669   0.063  10.797 -0.6475  0.2275  0.0081
 6541SOL    HW231257   1.598   0.141  10.897 -0.4936 -1.3048  2.2316
 6542SOL     OW31258   4.679   3.730   6.669  0.1926  0.2222  0.1336
 6542SOL    HW131259   4.649   3.821   6.669  0.9526  0.4740  1.9074
 6542SOL    HW231260   4.642   3.697   6.588 -0.3581  0.1167  0.4275
 6543SOL     OW31261   1.856   3.349   2.566  0.4848  0.6716 -0.2437
 6543SOL    HW131262   1.949   3.370   2.564  0.3932  1.2795  1.3355
 6543SOL    HW231263   1.838   3.348   2.660 -1.4221  0.2822 -0.6053
 6544SOL     OW31264   4.289   3.930   3.243  0.0649  0.2687  0.0763
 6544SOL    HW131265   4.194   3.937   3.250 -0.3787 -3.8979 -1.2450
 6544SOL    HW231266   4.310   4.002   3.302 -2.5387  1.5873 -0.6253
 6545SOL     OW31267   2.105   4.524   3.285 -0.4148 -0.0510 -0.7383
 6545SOL    HW131268   2.138   4.468   3.214 -1.4772 -3.5222  1.5233
 6545SOL    HW231269   2.059   4.463   3.343  1.9679  0.1684  1.3633
 6546SOL     OW31270   0.521   4.684   6.250  0.4333  0.1520  0.5868
 6546SOL    HW131271   0.510   4.654   6.340 -1.7674 -0.9134 -0.0241
 6546SOL    HW231272   0.615   4.682   6.234  0.0591 -0.0843 -1.6490
 6547SOL     OW31273   1.715   2.218  13.973  0.0556  0.1699  0.0188
 6547SOL    HW131274   1.734   2.143  14.030 -0.0585  0.1631  0.0477
 6547SOL    HW231275   1.629   2.253  13.997  0.6589  0.8311  1.2157
 6548SOL     OW31276   2.016   1.587  17.558 -0.1131  0.4412 -0.2655
 6548SOL    HW131277   2.034   1.570  17.650  0.4761 -4.0489 -1.2418
 6548SOL    HW231278   2.047   1.507  17.516  0.1425 -0.7448  2.2407
 6549SOL     OW31279   2.978   3.087   7.129 -0.4761  0.1295  0.6523
 6549SOL    HW131280   3.024   3.019   7.178 -0.4870 -0.5927 -0.3568
 6549SOL    HW231281   2.935   3.129   7.204  1.7013 -0.0587  1.9871
 6550SOL     OW31282   4.320   4.669   5.878  0.3773 -0.4198 -0.2049
 6550SOL    HW131283   4.296   0.027   5.866 -0.6547 -0.6008  0.4908
 6550SOL    HW231284   4.415   4.675   5.879  0.2825  0.8842  0.9970
 6551SOL     OW31285   2.071   0.314   9.898 -0.0136 -0.1319  0.4848
 6551SOL    HW131286   2.094   0.320   9.991  1.6985 -1.3138  0.1439
 6551SOL    HW231287   2.067   0.220   9.878  1.8737 -0.3591  1.1245
 6552SOL     OW31288   3.592   2.608   5.795 -0.5327 -0.4436 -0.5034
 6552SOL    HW131289   3.582   2.529   5.848 -2.0174 -1.0108 -1.6151
 6552SOL    HW231290   3.521   2.586   5.734 -0.0657  0.6470 -1.4311
 6553SOL     OW31291   3.625   4.617  12.419  0.0689  1.4017 -0.1638
 6553SOL    HW131292   3.648   4.532  12.382 -0.9601  0.8360  0.4794
 6553SOL    HW231293   3.536   4.597  12.450  0.5225  0.5517  0.5882
 6554SOL     OW31294   0.870   2.625  11.787  0.2570 -0.4914  0.5263
 6554SOL    HW131295   0.782   2.644  11.821  0.2210  0.4527 -0.0902
 6554SOL    HW231296   0.912   2.579  11.860  0.7507 -0.7071  0.0996
 6555SOL     OW31297   2.134   0.229   2.854  0.2449  0.2097  0.4823
 6555SOL    HW131298   2.222   0.196   2.872 -0.7537 -2.3220  0.7285
 6555SOL    HW231299   2.160   0.292   2.786  0.0738 -0.5399 -0.2774
 6556SOL     OW31300   0.096   4.291  15.539  0.1097 -0.3521  0.0204
 6556SOL    HW131301   0.007   4.291  15.576 -0.4747 -2.5719 -1.3646
 6556SOL    HW231302   0.094   4.368  15.482  2.6475 -0.0379  0.3508
 6557SOL     OW31303   0.233   4.348   4.586 -0.6201 -0.2892 -0.4863
 6557SOL    HW131304   0.141   4.361   4.562 -0.8851  0.9194  1.2118
 6557SOL    HW231305   0.234   4.252   4.591 -2.9277 -0.3529 -1.3919
 6558SOL     OW31306   3.991   1.886   8.385  0.0726 -0.1840 -0.1674
 6558SOL    HW131307   3.916   1.835   8.413 -0.1302 -0.5310 -1.3499
 6558SOL    HW231308   4.052   1.820   8.353  1.2132  0.6784  0.2338
 6559SOL     OW31309   2.824   4.566   3.032  0.3711  0.3078  0.4931
 6559SOL    HW131310   2.836   4.479   2.993 -1.0012 -0.4838  1.8500
 6559SOL    HW231311   2.801   4.607   2.950  0.2550  0.8356  0.7935
 6560SOL     OW31312   3.046   3.494  14.716  0.4217  0.1156  0.4488
 6560SOL    HW131313   3.016   3.527  14.632 -0.0575  2.1852  1.4413
 6560SOL    HW231314   2.970   3.453  14.758  0.6733 -1.8608 -1.0002
 6561SOL     OW31315   0.809   4.698  14.209 -0.1168  0.0468 -0.5459
 6561SOL    HW131316   0.786   4.622  14.156 -0.5481 -0.3592  0.2272
 6561SOL    HW231317   0.729   4.718  14.257 -1.2351 -2.0119 -1.5586
 6562SOL     OW31318   1.927   2.005  16.800  0.2342 -0.7630 -0.2162
 6562SOL    HW131319   2.005   2.000  16.744  0.2667  1.6218 -0.3855
 6562SOL    HW231320   1.959   2.003  16.890 -0.4950  1.4691  0.0947
 6563SOL     OW31321   2.841   2.910  10.758  0.3741  0.6243 -0.3881
 6563SOL    HW131322   2.765   2.957  10.724 -1.0369 -2.4462 -1.4446
 6563SOL    HW231323   2.806   2.849  10.822  0.0580  1.4189  0.2072
 6564SOL     OW31324   3.893   4.049   6.502 -0.3110 -0.1422 -0.3655
 6564SOL    HW131325   3.977   4.086   6.478  0.1012  0.5472  2.2053
 6564SOL    HW231326   3.856   4.020   6.418  2.4251 -1.4589 -1.1103
 6565SOL     OW31327   4.477   2.803  10.160  0.3015 -0.2275 -0.2007
 6565SOL    HW131328   4.545   2.736  10.167 -1.3443 -1.9945 -1.0569
 6565SOL    HW231329   4.515   2.851  10.234  0.9565  1.9482 -1.9646
 6566SOL     OW31330   1.631   3.437   3.547  0.3733 -0.1079  0.0939
 6566SOL    HW131331   1.539   3.409   3.549 -0.1234  1.4380 -0.4057
 6566SOL    HW231332   1.678   3.361   3.581 -2.3655 -1.7915  0.1350
 6567SOL     OW31333   0.747   0.643  10.164 -0.3101  0.1130 -0.7366
 6567SOL    HW131334   0.814   0.596  10.214 -0.3419 -0.1265 -0.9147
 6567SOL    HW231335   0.678   0.577  10.173 -1.4107  1.2662 -0.8220
 6568SOL     OW31336   0.347   1.680   6.542  0.2178 -0.4059  0.6494
 6568SOL    HW131337   0.302   1.673   6.458  0.8001  2.0953  0.1442
 6568SOL    HW231338   0.280   1.717   6.599  0.0890 -0.5584  0.5983
 6569SOL     OW31339   0.699   3.720   1.764 -0.3712 -0.2436 -0.3739
 6569SOL    HW131340   0.607   3.740   1.779 -0.5501  0.1565 -1.9619
 6569SOL    HW231341   0.748   3.800   1.783  1.7166 -1.4858 -0.5220
 6570SOL     OW31342   0.186   4.716   9.125 -0.0365 -0.0103  0.1981
 6570SOL    HW131343   0.187   0.049   9.193  1.2335  0.0117  0.1460
 6570SOL    HW231344   0.221   4.643   9.175  0.8475  1.1060  1.1953
 6571SOL     OW31345   1.906   3.351   3.824  0.2415  0.2962 -1.0769
 6571SOL    HW131346   1.909   3.297   3.903 -1.5363  0.2210 -1.0608
 6571SOL    HW231347   1.858   3.293   3.764 -0.1007  1.4407 -1.9111
 6572SOL     OW31348   3.393   3.885   6.993  0.1010  0.3012  0.0642
 6572SOL    HW131349   3.418   3.892   7.085 -2.7545  2.5076  0.6659
 6572SOL    HW231350   3.358   3.971   6.971 -3.5574 -1.5402 -1.3940
 6573SOL     OW31351   2.739   0.269   9.941 -0.3312 -0.0217  0.0899
 6573SOL    HW131352   2.721   0.225   9.858  2.1433 -0.0274 -0.4265
 6573SOL    HW231353   2.832   0.289   9.935  0.0199 -1.3235  1.1059
 6574SOL     OW31354   3.074   3.139   2.785 -0.2058  0.3629  0.1011
 6574SOL    HW131355   2.996   3.128   2.839 -1.5326 -0.3562 -1.9375
 6574SOL    HW231356   3.119   3.218   2.815  1.1782  0.1481 -1.4131
 6575SOL     OW31357   2.411   3.730  12.629  0.4284  0.4749  0.4540
 6575SOL    HW131358   2.370   3.816  12.630 -1.0426 -0.2077 -0.3014
 6575SOL    HW231359   2.347   3.682  12.576  1.3580  0.2231 -0.4485
 6576SOL     OW31360   0.965   2.537   6.650 -0.2527 -0.5329 -0.0580
 6576SOL    HW131361   1.029   2.586   6.598 -2.0751  2.2596  0.3298
 6576SOL    HW231362   0.909   2.609   6.679  0.6151 -0.1135  0.5883
 6577SOL     OW31363   3.963   0.494   5.484  0.7177  0.0894 -0.9855
 6577SOL    HW131364   3.917   0.574   5.511  1.7836  0.1448  0.7195
 6577SOL    HW231365   3.892   0.432   5.495  0.5832  0.5454  0.7430
 6578SOL     OW31366   0.273   3.231   1.895  0.3470  0.5409 -0.1423
 6578SOL    HW131367   0.316   3.230   1.810 -0.3121 -2.3391 -0.4483
 6578SOL    HW231368   0.186   3.260   1.870 -0.1611  2.2859  3.6627
 6579SOL     OW31369   0.387   1.784  14.541  0.3802  0.3578 -0.2034
 6579SOL    HW131370   0.381   1.873  14.576 -2.6824  0.8566 -1.9568
 6579SOL    HW231371   0.417   1.743  14.622 -0.0360 -0.2808 -0.3687
 6580SOL     OW31372   0.615   3.018   2.539 -0.2313  0.3578  0.4661
 6580SOL    HW131373   0.704   3.005   2.572 -0.3781 -1.4754  0.1154
 6580SOL    HW231374   0.602   2.928   2.510  1.7397  0.3987 -0.5675
 6581SOL     OW31375   1.011   1.108   2.372 -0.8496 -0.1913  0.2998
 6581SOL    HW131376   0.957   1.130   2.296 -1.2347  1.5026  1.0705
 6581SOL    HW231377   1.047   1.021   2.353 -0.9449 -0.6122  2.0465
 6582SOL     OW31378   3.838   0.351  13.888  0.1473  0.1775  0.1757
 6582SOL    HW131379   3.865   0.284  13.826 -2.5003 -0.2101 -0.5427
 6582SOL    HW231380   3.761   0.384  13.842  0.3071  1.2122  0.6637
 6583SOL     OW31381   0.952   2.997   9.271 -0.1722 -0.6451  0.1272
 6583SOL    HW131382   1.037   2.964   9.302 -0.4320 -0.8309  0.6371
 6583SOL    HW231383   0.894   2.998   9.347  2.2763  0.1979  1.9608
 6584SOL     OW31384   0.965   1.703   0.105  0.7771  0.3552 -0.3946
 6584SOL    HW131385   0.990   1.670   0.018 -2.9885 -2.3702 -0.4072
 6584SOL    HW231386   0.905   1.773   0.079  1.1329  1.7815  2.6741
 6585SOL     OW31387   4.618   1.911   1.866 -0.0917  0.4461  0.3713
 6585SOL    HW131388   4.649   1.829   1.905 -0.3524 -0.1540 -0.6740
 6585SOL    HW231389   4.695   1.931   1.814  0.5843 -0.7233  0.9093
 6586SOL     OW31390   0.455   0.698  12.050  0.0059 -0.0960 -0.0846
 6586SOL    HW131391   0.429   0.730  12.136  3.1901 -0.7287  1.1412
 6586SOL    HW231392   0.398   0.623  12.035  0.6788 -0.6490  0.1204
 6587SOL     OW31393   0.754   2.549   1.037 -0.7280 -0.5445  0.1664
 6587SOL    HW131394   0.838   2.590   1.015  0.1051 -2.6268 -0.6197
 6587SOL    HW231395   0.752   2.562   1.132  0.2907  1.0376 -0.0232
 6588SOL     OW31396   0.844   3.974   3.607  0.4555  0.0514 -0.3745
 6588SOL    HW131397   0.920   3.916   3.612 -0.6831 -1.3182  0.7097
 6588SOL    HW231398   0.772   3.921   3.641  2.0958 -2.8981 -1.5391
 6589SOL     OW31399   0.625   0.128   9.514 -0.2712  0.6133  0.6165
 6589SOL    HW131400   0.573   0.177   9.451 -0.5778  2.1496  2.0556
 6589SOL    HW231401   0.711   0.156   9.484 -0.2788  1.6327  1.5296
 6590SOL     OW31402   0.255   3.094  16.730  0.0790 -0.1101  0.3177
 6590SOL    HW131403   0.336   3.078  16.777 -0.2993 -0.4944  0.8433
 6590SOL    HW231404   0.262   3.030  16.660 -2.0452  0.7252 -0.6550
 6591SOL     OW31405   3.094   0.342  17.187  0.1863  0.0291 -0.2062
 6591SOL    HW131406   3.014   0.370  17.143 -1.1493 -0.8399  1.6400
 6591SOL    HW231407   3.097   0.394  17.267 -0.0821 -1.8753  1.0469
 6592SOL     OW31408   3.643   0.957  11.164  0.6464  0.5806  0.1416
 6592SOL    HW131409   3.673   0.866  11.171 -2.2280 -0.3119  0.9680
 6592SOL    HW231410   3.649   0.972  11.258  1.3321 -0.7797  0.3097
 6593SOL     OW31411   4.006   2.417   2.187  0.1081  0.4961 -0.3676
 6593SOL    HW131412   3.939   2.388   2.248  0.2512 -0.8824 -0.8746
 6593SOL    HW231413   4.015   2.506   2.222 -0.4543  0.3149  0.2321
 6594SOL     OW31414   1.979   3.009   9.257  0.0466 -0.1919  0.0251
 6594SOL    HW131415   1.958   2.929   9.209  1.2688 -0.6733  0.2854
 6594SOL    HW231416   2.064   2.997   9.301  0.7261  0.2598 -1.1618
 6595SOL     OW31417   0.949   2.151   5.423  0.0457  0.3140  1.0864
 6595SOL    HW131418   0.908   2.125   5.341 -1.4835  1.7154  1.4037
 6595SOL    HW231419   1.039   2.120   5.418 -0.2610 -0.2583 -0.9394
 6596SOL     OW31420   1.102   1.047   3.904 -0.0494  0.1763  0.0413
 6596SOL    HW131421   1.172   1.108   3.928  0.9506  0.8379 -4.3832
 6596SOL    HW231422   1.135   0.991   3.833 -2.9009 -2.9135  1.1566
 6597SOL     OW31423   4.113   1.120   6.930  0.0683 -0.1610 -0.6796
 6597SOL    HW131424   4.035   1.084   6.971 -0.7167 -0.6581 -2.5756
 6597SOL    HW231425   4.074   1.175   6.862  0.2999  0.9957  0.1353
 6598SOL     OW31426   0.124   3.418  16.846  0.7736  0.5823 -0.2263
 6598SOL    HW131427   0.042   3.468  16.849 -0.6357 -1.6277 -1.9960
 6598SOL    HW231428   0.177   3.452  16.774  1.5467  0.6038  0.3517
 6599SOL     OW31429   4.615   0.672   2.621 -0.4136  0.2253 -0.2846
 6599SOL    HW131430   4.575   0.738   2.676 -0.5172  1.1249 -1.4319
 6599SOL    HW231431   4.579   0.693   2.535  0.6131  0.0190 -0.7724
 6600SOL     OW31432   2.091   4.095   0.072 -0.0173 -0.0028 -0.5287
 6600SOL    HW131433   2.116   4.186   0.085 -0.2364 -0.1780  1.0738
 6600SOL    HW231434   2.002   4.097   0.109 -0.6434 -0.8821 -1.9747
 6601SOL     OW31435   3.662   1.065   4.669  0.1357  0.3125 -0.2150
 6601SOL    HW131436   3.704   0.985   4.699 -1.2299 -0.3559 -0.0990
 6601SOL    HW231437   3.715   1.088   4.592  1.5560  0.0489  0.6755
 6602SOL     OW31438   3.555   2.678   4.964  0.1029  0.1734  0.0179
 6602SOL    HW131439   3.498   2.734   5.017 -0.5984 -0.7466  0.2343
 6602SOL    HW231440   3.591   2.620   5.030 -0.7112 -0.2656  0.0705
 6603SOL     OW31441   4.475   0.224   6.592 -0.2981 -0.7224 -0.0384
 6603SOL    HW131442   4.417   0.267   6.529 -0.1657 -1.2625 -0.5217
 6603SOL    HW231443   4.459   0.286   6.664 -0.6830 -1.0387  0.1502
 6604SOL     OW31444   1.272   1.710   3.786 -0.5622 -0.5734  0.4708
 6604SOL    HW131445   1.264   1.740   3.695  1.6659 -0.2698  0.3747
 6604SOL    HW231446   1.269   1.614   3.776 -0.6482 -0.5045 -0.2061
 6605SOL     OW31447   2.549   1.140  15.195 -0.2458  0.3260 -0.2551
 6605SOL    HW131448   2.618   1.083  15.160 -0.3721 -0.2013  0.3628
 6605SOL    HW231449   2.576   1.229  15.171  1.5309  0.0262  0.6731
 6606SOL     OW31450   2.224   0.920   8.227  0.0165 -0.5616  0.1881
 6606SOL    HW131451   2.272   0.850   8.183  3.4799  1.7679  0.1485
 6606SOL    HW231452   2.289   0.991   8.231 -3.3033  2.3832  1.3013
 6607SOL     OW31453   1.986   0.695  14.595 -0.1887  0.4091  0.2419
 6607SOL    HW131454   2.060   0.744  14.559 -2.1240  1.0076 -2.9390
 6607SOL    HW231455   1.959   0.654  14.513  0.9039  1.3186 -0.5639
 6608SOL     OW31456   3.889   1.994   2.488  0.6239 -0.2835  0.2630
 6608SOL    HW131457   3.921   2.006   2.577  1.7968 -1.1576 -0.0447
 6608SOL    HW231458   3.946   2.055   2.441  0.0429 -1.0560 -1.4470
 6609SOL     OW31459   2.476   3.442   7.782 -0.1627 -0.2364 -0.6619
 6609SOL    HW131460   2.479   3.364   7.726 -1.0298  0.2574 -1.3778
 6609SOL    HW231461   2.458   3.409   7.870  3.1349  0.9395  0.4809
 6610SOL     OW31462   2.936   3.154  10.939 -0.2067  0.7160 -0.6618
 6610SOL    HW131463   3.027   3.134  10.919 -0.4892 -0.8707 -0.4322
 6610SOL    HW231464   2.920   3.198  10.856  0.7476 -1.3651 -1.9426
 6611SOL     OW31465   1.313   1.839   0.668 -0.4959  0.1413  0.0782
 6611SOL    HW131466   1.267   1.765   0.629 -1.3410  0.7463 -0.0907
 6611SOL    HW231467   1.395   1.800   0.697 -0.1655  1.3126  0.7537
 6612SOL     OW31468   3.603   0.786   8.086 -0.3415 -0.5661 -0.1856
 6612SOL    HW131469   3.698   0.791   8.087 -0.2226 -2.2344 -2.2691
 6612SOL    HW231470   3.597   0.692   8.104  1.9814 -0.2996  1.8601
 6613SOL     OW31471   2.521   0.752  12.231 -0.3640  0.2225  0.4352
 6613SOL    HW131472   2.428   0.728  12.227  0.2238 -1.8439 -1.0343
 6613SOL    HW231473   2.519   0.828  12.173  1.9268 -0.1800 -0.1717
 6614SOL     OW31474   0.152   3.871  11.192 -0.3640  0.1218 -0.5400
 6614SOL    HW131475   0.161   3.778  11.209  0.1278 -0.0586 -1.7931
 6614SOL    HW231476   0.058   3.885  11.178 -0.5280  0.3077  0.7151
 6615SOL     OW31477   1.385   2.292  15.726 -0.4698 -0.1185 -0.2351
 6615SOL    HW131478   1.328   2.368  15.714 -1.4307 -0.9522 -0.9352
 6615SOL    HW231479   1.463   2.347  15.737 -1.1511  0.5897  0.9982
 6616SOL     OW31480   3.229   0.525  14.354 -0.1453 -0.4554 -0.2539
 6616SOL    HW131481   3.214   0.476  14.273  1.9940 -0.8017 -0.4447
 6616SOL    HW231482   3.144   0.546  14.394  2.3187  2.6345  3.3230
 6617SOL     OW31483   0.749   2.823   1.846  0.2410  0.4736 -0.1254
 6617SOL    HW131484   0.734   2.822   1.941 -1.1824  1.1696 -0.3460
 6617SOL    HW231485   0.669   2.783   1.813 -1.0636 -0.2308  3.8945
 6618SOL     OW31486   3.177   0.333   3.364  0.3102 -0.3050 -0.0209
 6618SOL    HW131487   3.242   0.286   3.416 -0.3493  0.4330  1.4651
 6618SOL    HW231488   3.229   0.339   3.284 -0.8008 -1.3070 -0.8206
 6619SOL     OW31489   3.281   1.476   6.457 -0.0872 -0.1687 -0.7420
 6619SOL    HW131490   3.315   1.491   6.545 -1.0296  1.3343 -0.6211
 6619SOL    HW231491   3.193   1.463   6.493  0.8881  0.5200  1.8652
 6620SOL     OW31492   3.776   2.330   7.188  0.4481  0.1270  0.2459
 6620SOL    HW131493   3.801   2.416   7.153  4.6002 -1.4770 -0.7305
 6620SOL    HW231494   3.735   2.299   7.107 -0.7147 -2.6621  1.8974
 6621SOL     OW31495   1.948   3.124   5.835  0.2952  0.5962 -0.2605
 6621SOL    HW131496   1.875   3.099   5.778  0.6826  0.8143 -0.8526
 6621SOL    HW231497   1.970   3.036   5.863  0.5668  1.1376  1.1982
 6622SOL     OW31498   3.243   3.295   5.469  0.0319 -0.2000 -0.6894
 6622SOL    HW131499   3.284   3.286   5.554 -3.2524 -0.0502  0.9097
 6622SOL    HW231500   3.165   3.347   5.486  1.5783  0.5134  4.0960
 6623SOL     OW31501   4.094   3.562   7.430  0.0118 -0.4623 -0.0211
 6623SOL    HW131502   4.183   3.585   7.458 -0.8546 -0.5125  2.7590
 6623SOL    HW231503   4.043   3.641   7.450  0.4280 -0.4461  0.9586
 6624SOL     OW31504   3.843   0.688   3.819  0.7396  0.4648 -0.0297
 6624SOL    HW131505   3.898   0.717   3.746 -0.0202 -0.2410 -0.8879
 6624SOL    HW231506   3.844   0.766   3.875  0.5538  0.6238 -0.2452
 6625SOL     OW31507   4.339   2.268   3.552  0.2686 -0.2137 -0.2666
 6625SOL    HW131508   4.355   2.300   3.641  0.8543  0.7229 -0.7080
 6625SOL    HW231509   4.317   2.344   3.499  0.5136 -0.9911 -1.4699
 6626SOL     OW31510   2.828   1.025  15.173 -0.5582 -0.3160  0.2451
 6626SOL    HW131511   2.913   1.064  15.192 -0.4472 -0.8323  0.8137
 6626SOL    HW231512   2.855   0.959  15.109  1.1093  0.2260  0.3864
 6627SOL     OW31513   0.816   4.599   4.560  0.3403  0.3814 -0.1897
 6627SOL    HW131514   0.767   4.534   4.510 -1.1655 -0.4964  2.4718
 6627SOL    HW231515   0.849   4.539   4.626 -1.0720 -2.0022 -1.6338
 6628SOL     OW31516   3.669   1.817   3.930 -0.1978  0.2606 -0.2037
 6628SOL    HW131517   3.607   1.767   3.877  0.6268 -0.2421 -0.6871
 6628SOL    HW231518   3.677   1.898   3.880  1.5947 -1.4013 -2.6256
 6629SOL     OW31519   1.262   1.912   7.025 -0.0412  0.5397 -0.6343
 6629SOL    HW131520   1.178   1.869   7.043 -0.1327  0.2268 -1.8317
 6629SOL    HW231521   1.239   1.989   6.973 -1.1175  1.2681  0.9178
 6630SOL     OW31522   2.494   3.106   5.417 -0.5437 -0.1482 -0.2740
 6630SOL    HW131523   2.416   3.125   5.364  2.0549  2.7456 -3.1176
 6630SOL    HW231524   2.514   3.175   5.481 -0.7535  0.4524 -0.8522
 6631SOL     OW31525   0.919   2.594  14.551  0.5841 -0.6439  0.0904
 6631SOL    HW131526   0.877   2.594  14.637 -0.9902 -0.9895 -0.6816
 6631SOL    HW231527   0.999   2.635  14.584 -0.3795  1.3314 -0.0373
 6632SOL     OW31528   4.683   1.697  16.507  0.1581  0.2555 -0.1664
 6632SOL    HW131529   4.618   1.715  16.439  0.4369 -1.0105 -0.7553
 6632SOL    HW231530   4.623   1.702  16.581  2.2308 -0.0147  1.5231
 6633SOL     OW31531   2.113   1.643   6.891 -0.0829  0.5298 -0.1274
 6633SOL    HW131532   2.202   1.678   6.883 -0.8961  2.4746 -0.5384
 6633SOL    HW231533   2.060   1.660   6.813 -0.9046  3.1987  1.0341
 6634SOL     OW31534   1.445   3.903  10.881  0.4610  0.3512 -0.2845
 6634SOL    HW131535   1.517   3.844  10.859 -0.9116 -1.4027 -0.0609
 6634SOL    HW231536   1.373   3.853  10.843  0.0296  0.8183 -0.0801
 6635SOL     OW31537   3.018   1.954  10.827 -0.1750  0.6532  0.1833
 6635SOL    HW131538   2.962   2.005  10.769 -1.2196 -0.8516 -0.1447
 6635SOL    HW231539   3.099   2.006  10.830  0.7286 -0.7522  0.4165
 6636SOL     OW31540   2.005   0.743  13.151 -0.6106  0.1334  0.3109
 6636SOL    HW131541   2.080   0.742  13.092 -0.0831  1.1500  0.9641
 6636SOL    HW231542   1.975   0.652  13.142 -2.6166  1.0500 -2.2355
 6637SOL     OW31543   2.029   3.151   5.154 -0.3347  0.3832  0.0514
 6637SOL    HW131544   1.977   3.191   5.084 -2.8484 -0.2843  1.5111
 6637SOL    HW231545   1.974   3.076   5.178 -1.0745  2.1577  3.8305
 6638SOL     OW31546   2.796   0.831   7.471 -0.3195  1.0465  0.3625
 6638SOL    HW131547   2.720   0.851   7.526 -0.3353  0.6900  0.4716
 6638SOL    HW231548   2.780   0.887   7.395  1.2673  1.5593  0.4082
 6639SOL     OW31549   0.289   2.375  17.562  0.0174 -0.5343 -0.1110
 6639SOL    HW131550   0.353   2.435  17.600 -0.4046 -0.6167  0.7284
 6639SOL    HW231551   0.227   2.444  17.540  2.3616  1.1128 -1.5516
 6640SOL     OW31552   2.698   2.645   9.162 -0.2565  0.3810  0.1914
 6640SOL    HW131553   2.784   2.619   9.195 -0.0130  0.1446 -0.6340
 6640SOL    HW231554   2.670   2.573   9.104  1.3617  0.2744 -0.4391
 6641SOL     OW31555   3.250   2.804   5.933 -0.2734 -0.7283 -0.6980
 6641SOL    HW131556   3.193   2.734   5.965 -1.9287  0.5430 -0.9132
 6641SOL    HW231557   3.269   2.861   6.008  2.3340 -0.9693 -1.1527
 6642SOL     OW31558   3.810   3.140  14.778  0.0284  0.0959  0.3932
 6642SOL    HW131559   3.897   3.102  14.783 -0.2029 -0.6099 -0.8705
 6642SOL    HW231560   3.827   3.219  14.727 -1.5478 -0.8355 -1.5665
 6643SOL     OW31561   4.516   1.071   3.461 -0.2506  0.5054  0.1052
 6643SOL    HW131562   4.550   1.148   3.416 -0.1580  0.4075  0.0066
 6643SOL    HW231563   4.587   1.049   3.521  1.7249 -4.7643 -4.1314
 6644SOL     OW31564   0.432   3.053  12.068 -0.6910 -0.2585 -0.3868
 6644SOL    HW131565   0.360   3.091  12.118 -1.8007  0.5951 -2.6091
 6644SOL    HW231566   0.449   2.971  12.114 -1.1995 -1.5807 -2.5372
 6645SOL     OW31567   2.228   0.649   6.992  0.0002  0.4789 -0.1586
 6645SOL    HW131568   2.245   0.740   7.018 -1.4211  0.3962  1.0627
 6645SOL    HW231569   2.160   0.625   7.055  2.3883 -3.2684  1.0345
 6646SOL     OW31570   3.658   1.577   6.075 -0.6315 -0.0116 -0.1958
 6646SOL    HW131571   3.642   1.555   6.167  0.9767  1.1893  0.3582
 6646SOL    HW231572   3.571   1.586   6.036 -0.1801  0.0326 -1.1918
 6647SOL     OW31573   0.954   2.818   8.246  0.2625  0.3966  0.4622
 6647SOL    HW131574   0.865   2.822   8.283  0.5498 -3.4070  1.5196
 6647SOL    HW231575   0.921   2.764   8.174  1.7185 -1.9610  1.5853
 6648SOL     OW31576   1.363   2.183   6.477  0.3248  0.1387 -0.1863
 6648SOL    HW131577   1.375   2.275   6.453  2.9775 -0.7987 -2.5082
 6648SOL    HW231578   1.310   2.156   6.403 -0.2621 -1.2019  0.7289
 6649SOL     OW31579   1.903   3.888  12.187 -0.2329  0.1084  0.0417
 6649SOL    HW131580   1.882   3.799  12.213 -1.8815  0.0579 -1.4825
 6649SOL    HW231581   1.950   3.862  12.108  0.4878 -0.2770  0.5969
 6650SOL     OW31582   1.710   4.311  17.434 -0.4135  0.3304  0.4580
 6650SOL    HW131583   1.764   4.238  17.466  0.4929  1.5993  1.8767
 6650SOL    HW231584   1.636   4.304  17.494 -0.2258  0.2317  0.6816
 6651SOL     OW31585   0.323   2.224  12.312 -0.3884 -0.7455 -0.7520
 6651SOL    HW131586   0.360   2.256  12.230  0.6064  2.2629  0.8828
 6651SOL    HW231587   0.298   2.143  12.267 -0.9312 -0.4673 -0.9564
 6652SOL     OW31588   3.792   0.837   0.610 -0.6222  0.0631 -0.1059
 6652SOL    HW131589   3.741   0.905   0.567  0.6753  1.4344  0.5217
 6652SOL    HW231590   3.821   0.787   0.533  0.7009  0.3723  0.1843
 6653SOL     OW31591   0.909   1.838   0.626  0.3432  0.2379  0.3785
 6653SOL    HW131592   0.948   1.840   0.713  1.2732  1.6760 -0.0652
 6653SOL    HW231593   0.942   1.921   0.592 -1.1698 -0.1776 -2.1249
 6654SOL     OW31594   1.861   1.382   0.366  0.4120 -0.2294  0.4270
 6654SOL    HW131595   1.775   1.402   0.405 -0.4479 -1.7019 -0.7433
 6654SOL    HW231596   1.832   1.402   0.277 -1.5708 -3.3671  0.3544
 6655SOL     OW31597   2.610   3.054   6.675  0.9278 -1.5176  0.4429
 6655SOL    HW131598   2.551   3.125   6.700  0.2368 -1.2609 -1.9304
 6655SOL    HW231599   2.690   3.093   6.712  1.1115 -0.7891 -0.7266
 6656SOL     OW31600   3.795   1.098   7.576 -0.3470 -0.0935 -0.2046
 6656SOL    HW131601   3.819   1.182   7.537  2.2226 -1.2541 -1.1057
 6656SOL    HW231602   3.703   1.112   7.599 -0.0580 -1.0302  1.5480
 6657SOL     OW31603   3.650   1.101   5.144 -0.1628 -0.1743  0.5843
 6657SOL    HW131604   3.719   1.083   5.208  1.2716 -0.0562 -0.9358
 6657SOL    HW231605   3.571   1.064   5.184 -0.4200 -1.3304 -0.9706
 6658SOL     OW31606   1.348   3.947  15.054  0.7340  0.0594 -0.3128
 6658SOL    HW131607   1.310   4.023  15.010 -0.9591  0.0768  1.1709
 6658SOL    HW231608   1.297   3.878  15.011 -2.6782  2.3510  0.0123
 6659SOL     OW31609   4.182   3.685   1.825 -0.0339 -0.0653 -0.0027
 6659SOL    HW131610   4.278   3.687   1.834  0.0959 -2.2996 -1.0554
 6659SOL    HW231611   4.164   3.670   1.733  0.8234  1.9737 -0.5203
 6660SOL     OW31612   0.400   2.122   5.558 -0.7941  0.6107 -0.6011
 6660SOL    HW131613   0.472   2.140   5.498  0.3704 -0.8849  0.3317
 6660SOL    HW231614   0.378   2.215   5.558 -0.3995  0.6996  0.4485
 6661SOL     OW31615   0.740   0.636   9.848 -0.6361 -0.0957 -0.0431
 6661SOL    HW131616   0.719   0.640   9.942  1.8396  0.5683  0.4773
 6661SOL    HW231617   0.836   0.635   9.851 -0.5725  2.8815 -1.3538
 6662SOL     OW31618   3.704   4.694   7.214 -0.0969 -0.0751  0.1827
 6662SOL    HW131619   3.652   4.722   7.139 -0.4003 -0.4400  0.2551
 6662SOL    HW231620   3.659   4.613   7.237  1.5801 -0.5174  1.9379
 6663SOL     OW31621   3.710   2.853   9.972  0.0279 -0.3392 -0.0683
 6663SOL    HW131622   3.762   2.804  10.036 -0.8911 -0.6782  0.4259
 6663SOL    HW231623   3.686   2.772   9.928  0.2370  0.0606 -0.9068
 6664SOL     OW31624   3.898   0.812   5.113 -0.0817 -0.6485  0.1718
 6664SOL    HW131625   3.922   0.846   5.026  0.2462 -0.8258  0.1918
 6664SOL    HW231626   3.834   0.747   5.085  0.9583 -1.5816 -0.0291
 6665SOL     OW31627   1.735   1.529   0.995 -0.0471  0.2521  0.2666
 6665SOL    HW131628   1.768   1.618   0.981 -0.7763  0.5151  0.2067
 6665SOL    HW231629   1.744   1.502   0.904 -2.5011 -0.2692  0.1841
 6666SOL     OW31630   0.803   4.315   3.046  0.2984  0.7464  0.1534
 6666SOL    HW131631   0.763   4.333   3.130  1.2141  0.3568  0.6735
 6666SOL    HW231632   0.724   4.303   2.993  0.2820  2.4179 -0.2072
 6667SOL     OW31633   2.795   4.054   2.421 -0.2020  0.0363  0.5037
 6667SOL    HW131634   2.761   4.059   2.332  0.2620 -0.3500  0.3081
 6667SOL    HW231635   2.830   3.965   2.423  0.4668  0.2927  0.1370
 6668SOL     OW31636   0.897   3.984   3.932  0.4519 -0.2495  0.3286
 6668SOL    HW131637   0.991   3.979   3.916  0.3176 -1.2911 -0.1116
 6668SOL    HW231638   0.877   4.067   3.888  0.7325 -1.4937 -2.1406
 6669SOL     OW31639   0.386   3.449   2.011  0.8757  0.5261 -0.4358
 6669SOL    HW131640   0.354   3.366   1.976  0.0517  0.5020  0.3458
 6669SOL    HW231641   0.481   3.452   1.999  1.0439 -1.2321  0.4477
 6670SOL     OW31642   3.235   3.084   2.271  0.0255 -0.1610  0.5216
 6670SOL    HW131643   3.325   3.079   2.303  1.1076 -0.8344 -2.5853
 6670SOL    HW231644   3.242   3.118   2.182 -0.3653 -2.2471 -0.2987
 6671SOL     OW31645   2.792   1.282  15.615 -0.2001  0.1815  0.3699
 6671SOL    HW131646   2.710   1.270  15.567  0.3919  0.6039 -0.7268
 6671SOL    HW231647   2.839   1.216  15.565 -0.6797  0.1752 -0.0731
 6672SOL     OW31648   0.128   3.582   5.497 -1.0811  0.5486  0.3307
 6672SOL    HW131649   0.168   3.649   5.553  2.3995 -1.9532  0.8411
 6672SOL    HW231650   0.039   3.597   5.528 -2.0512 -0.9669 -1.7390
 6673SOL     OW31651   0.177   1.524   9.679  0.3699  0.0743 -0.6138
 6673SOL    HW131652   0.244   1.555   9.740  0.3094  0.5063 -0.7700
 6673SOL    HW231653   0.189   1.429   9.681 -1.0164 -0.0465  1.2198
 6674SOL     OW31654   4.360   0.428  16.074 -0.2655  0.3254 -0.0159
 6674SOL    HW131655   4.270   0.451  16.100  0.3412 -0.4566  2.7763
 6674SOL    HW231656   4.391   0.504  16.024 -0.6382  0.3198 -0.2608
 6675SOL     OW31657   0.526   2.128   2.810 -0.4990 -0.0205  0.1735
 6675SOL    HW131658   0.542   2.168   2.724  0.5824  0.3780  0.5668
 6675SOL    HW231659   0.485   2.200   2.858 -3.1433 -1.9986  0.8856
 6676SOL     OW31660   3.748   3.240   7.110  0.5114 -0.6927  0.7234
 6676SOL    HW131661   3.793   3.167   7.067 -0.3003 -1.1858  0.7120
 6676SOL    HW231662   3.660   3.203   7.117  0.2245 -0.3130 -0.8638
 6677SOL     OW31663   2.080   2.313   9.156 -0.0052  0.0679  0.0048
 6677SOL    HW131664   2.128   2.286   9.078  0.6333 -1.7703  1.0178
 6677SOL    HW231665   2.139   2.382   9.185 -0.1795  1.0371 -1.9154
 6678SOL     OW31666   1.864   3.546  16.768  0.1069  0.2827  0.0095
 6678SOL    HW131667   1.905   3.540  16.681 -1.0574 -2.0670 -0.3933
 6678SOL    HW231668   1.775   3.570  16.740  0.1752 -0.3172 -0.7258
 6679SOL     OW31669   3.379   2.434  10.954  0.2926  0.5078  0.3139
 6679SOL    HW131670   3.406   2.401  10.868 -1.4602 -1.5888  0.5708
 6679SOL    HW231671   3.309   2.374  10.978 -1.3824  1.9751 -0.8444
 6680SOL     OW31672   0.323   2.565   0.808 -0.7023 -0.2952  0.1244
 6680SOL    HW131673   0.253   2.553   0.873 -0.7488  1.8865  0.4706
 6680SOL    HW231674   0.308   2.492   0.749  1.7799 -0.3161 -0.4511
 6681SOL     OW31675   3.718   4.588  16.054  0.1471 -0.4546  0.2265
 6681SOL    HW131676   3.752   4.663  16.005 -3.2407  0.8447 -0.1040
 6681SOL    HW231677   3.777   4.597  16.130 -0.5999 -0.7009  0.8300
 6682SOL     OW31678   2.562   2.181  11.505  0.0570 -0.0397 -0.0499
 6682SOL    HW131679   2.562   2.276  11.492 -1.1624 -0.0680 -0.2330
 6682SOL    HW231680   2.657   2.168  11.500  0.0541 -0.0120 -0.1819
 6683SOL     OW31681   0.074   2.846  17.436 -0.7416  0.0439 -0.1146
 6683SOL    HW131682   0.014   2.772  17.423  2.4891 -2.1628 -2.4956
 6683SOL    HW231683   0.058   2.862  17.529 -1.7086  1.6422 -0.5621
 6684SOL     OW31684   0.361   0.833   0.302 -0.0892  0.0836 -0.3280
 6684SOL    HW131685   0.435   0.891   0.283  1.1645 -2.4525 -3.1463
 6684SOL    HW231686   0.343   0.839   0.396  0.5245 -0.7789 -0.1628
 6685SOL     OW31687   2.457   2.735   0.626  0.4488  0.1826 -0.0151
 6685SOL    HW131688   2.466   2.830   0.632  0.6945  0.2212 -0.8894
 6685SOL    HW231689   2.382   2.718   0.569  1.1175 -0.3178 -0.7491
 6686SOL     OW31690   2.666   2.295   7.366  0.1620  0.1528  0.0713
 6686SOL    HW131691   2.666   2.293   7.462  2.2305  0.8878  0.0747
 6686SOL    HW231692   2.672   2.201   7.349 -1.3840  0.2345 -0.9422
 6687SOL     OW31693   3.809   3.134   7.793  0.4380 -0.7381 -0.0159
 6687SOL    HW131694   3.838   3.050   7.830 -2.4035 -2.0227 -0.6795
 6687SOL    HW231695   3.783   3.111   7.704  3.4931  1.6839 -1.4871
 6688SOL     OW31696   1.454   3.154   2.616 -0.2910 -0.1635  0.0892
 6688SOL    HW131697   1.440   3.203   2.697 -2.0907 -1.7004  0.7214
 6688SOL    HW231698   1.388   3.084   2.623 -0.5928  0.0479 -0.6233
 6689SOL     OW31699   2.824   1.324   6.816 -0.1042 -0.1710 -0.0335
 6689SOL    HW131700   2.771   1.378   6.758 -0.7756 -2.1566 -1.2796
 6689SOL    HW231701   2.787   1.237   6.803 -1.7284  0.1381  2.4198
 6690SOL     OW31702   1.251   1.639  16.847  0.9205  0.4083  0.3164
 6690SOL    HW131703   1.344   1.632  16.826  1.1207  0.7181  1.1046
 6690SOL    HW231704   1.232   1.554  16.888  0.4335 -0.3071 -1.3649
 6691SOL     OW31705   1.280   2.237   4.709 -0.1835 -0.4527 -0.4697
 6691SOL    HW131706   1.270   2.218   4.802 -0.6176  0.1348 -0.3980
 6691SOL    HW231707   1.375   2.249   4.700  0.1127 -0.9933  1.9975
 6692SOL     OW31708   0.319   2.851  17.281  0.0123 -0.2361  0.0593
 6692SOL    HW131709   0.326   2.940  17.245  1.8420  0.8943  3.2450
 6692SOL    HW231710   0.237   2.861  17.329 -0.4010  0.8437 -0.8650
 6693SOL     OW31711   3.192   0.030  14.758 -0.0671  0.6368  0.3310
 6693SOL    HW131712   3.125   4.719  14.809  0.7742 -1.9130 -0.8509
 6693SOL    HW231713   3.136   0.086  14.703 -2.9996 -2.4042  0.2075
 6694SOL     OW31714   4.662   4.466  15.370 -0.3135  0.2517  0.0534
 6694SOL    HW131715   4.637   4.373  15.363 -0.5088  0.1555  2.1802
 6694SOL    HW231716   4.607   4.497  15.441 -0.5759 -1.3581  0.5694
 6695SOL     OW31717   1.295   2.816   2.350 -0.3707  0.2678  0.0245
 6695SOL    HW131718   1.313   2.740   2.295  1.1767  0.8729 -0.2894
 6695SOL    HW231719   1.296   2.886   2.285  2.8598 -0.0968 -0.3287
 6696SOL     OW31720   2.858   1.326   8.936 -0.1484  0.2797  0.0118
 6696SOL    HW131721   2.837   1.299   9.026 -2.5226  0.6242 -0.4655
 6696SOL    HW231722   2.831   1.249   8.887  0.9149 -1.9087  2.8366
 6697SOL     OW31723   2.180   2.802   7.245 -0.2175  0.3704 -0.3717
 6697SOL    HW131724   2.166   2.871   7.181 -1.2678 -0.0023 -0.5422
 6697SOL    HW231725   2.268   2.829   7.271 -0.3497  0.0581  0.3999
 6698SOL     OW31726   1.452   4.509   2.728  0.4449  0.1245  0.6011
 6698SOL    HW131727   1.469   4.502   2.634 -1.4470  0.3167  0.2462
 6698SOL    HW231728   1.401   4.428   2.733 -0.7702  0.8335 -0.2763
 6699SOL     OW31729   1.264   4.042   8.858  0.0811  0.1675  0.1537
 6699SOL    HW131730   1.289   3.992   8.935  1.8650 -0.5310 -0.8796
 6699SOL    HW231731   1.194   4.100   8.890 -0.3942  0.1535 -0.8474
 6700SOL     OW31732   0.200   0.665  10.246  0.0954  0.0789 -0.2950
 6700SOL    HW131733   0.169   0.677  10.336 -0.5715 -1.4719 -0.3149
 6700SOL    HW231734   0.244   0.580  10.251  1.0086  0.6941  2.2102
 6701SOL     OW31735   3.928   1.634   7.047 -0.1598 -0.3848  0.1697
 6701SOL    HW131736   3.849   1.680   7.019 -0.4461  1.0616  3.3474
 6701SOL    HW231737   3.923   1.661   7.139 -1.6842  1.4856 -0.4507
 6702SOL     OW31738   1.908   3.075   4.502 -0.5258  0.3675  0.0252
 6702SOL    HW131739   1.819   3.104   4.481 -0.4499  0.5780 -0.0003
 6702SOL    HW231740   1.965   3.116   4.437 -1.8975 -0.3447 -1.6367
 6703SOL     OW31741   0.685   2.900   6.704 -0.1631 -0.2583  0.1685
 6703SOL    HW131742   0.735   2.959   6.647 -0.1532 -0.2435  0.1925
 6703SOL    HW231743   0.607   2.907   6.649 -1.6256 -0.6817  2.2089
 6704SOL     OW31744   3.033   2.850  16.775 -0.5099  0.5764 -0.2571
 6704SOL    HW131745   3.114   2.889  16.742  0.3416  0.6540  1.9383
 6704SOL    HW231746   3.006   2.897  16.854 -0.2825 -1.5525  1.0734
 6705SOL     OW31747   2.543   0.828   8.325 -0.1964 -0.3599  0.3115
 6705SOL    HW131748   2.526   0.921   8.339  0.9726  0.1752 -1.8817
 6705SOL    HW231749   2.612   0.818   8.391  0.0060  0.8003  0.2652
 6706SOL     OW31750   2.690   0.176   2.492 -0.2912  0.2837 -0.2507
 6706SOL    HW131751   2.718   0.262   2.460  1.6629  0.0415  0.7785
 6706SOL    HW231752   2.668   0.136   2.408  0.7185  2.9484 -1.8052
 6707SOL     OW31753   1.495   0.055   5.091  0.2375  0.1299 -0.3728
 6707SOL    HW131754   1.550   0.068   5.014  0.0953  0.4533 -0.4219
 6707SOL    HW231755   1.411   0.048   5.045  0.4373  0.0347 -0.7206
 6708SOL     OW31756   3.691   4.193   6.678  0.4288 -0.5739 -0.4978
 6708SOL    HW131757   3.630   4.147   6.620 -2.2795 -0.9421  2.6176
 6708SOL    HW231758   3.773   4.153   6.652 -1.5335 -3.3433 -2.3740
 6709SOL     OW31759   0.509   1.684   2.570 -0.2423 -0.1023 -0.3696
 6709SOL    HW131760   0.486   1.756   2.628 -3.9645 -0.1611 -1.7697
 6709SOL    HW231761   0.550   1.621   2.629  0.0632  0.5490  0.1171
 6710SOL     OW31762   4.042   2.085   8.566  0.5752  0.2613  0.0947
 6710SOL    HW131763   4.045   2.006   8.511 -1.1331  0.5604 -0.4423
 6710SOL    HW231764   3.972   2.058   8.626  1.6379 -0.9108  0.7922
 6711SOL     OW31765   3.756   2.658  11.659  0.4019  0.4456  0.3671
 6711SOL    HW131766   3.844   2.630  11.682  0.0370 -1.5089 -0.5363
 6711SOL    HW231767   3.753   2.729  11.723 -0.4414  2.3985 -1.8588
 6712SOL     OW31768   2.315   1.838  17.029 -0.6137  0.0670  0.2251
 6712SOL    HW131769   2.278   1.757  17.065 -0.1671 -1.4348 -2.7408
 6712SOL    HW231770   2.395   1.834  17.082  0.4519  0.8643 -1.3407
 6713SOL     OW31771   4.400   1.111   4.750 -0.3716  0.4206  0.1561
 6713SOL    HW131772   4.386   1.089   4.657 -0.0250 -3.0472  0.9220
 6713SOL    HW231773   4.361   1.198   4.753 -2.3793 -0.3974 -1.8268
 6714SOL     OW31774   0.043   3.862   0.471  0.6540  0.1794 -0.0080
 6714SOL    HW131775   0.004   3.942   0.505  1.8145  0.4808  0.6260
 6714SOL    HW231776   0.013   3.880   0.382 -0.9142 -0.9963  0.2960
 6715SOL     OW31777   1.850   4.245   3.066  0.1954  1.0486 -0.0346
 6715SOL    HW131778   1.796   4.308   3.018 -1.2707  0.2752  0.6154
 6715SOL    HW231779   1.940   4.272   3.047  0.6029 -2.1066 -2.4838
 6716SOL     OW31780   1.774   1.307   9.545 -0.8431 -0.1489  0.0176
 6716SOL    HW131781   1.724   1.263   9.613 -1.2501 -0.0454 -0.2130
 6716SOL    HW231782   1.705   1.337   9.486 -2.7105 -0.7829  1.9169
 6717SOL     OW31783   1.895   1.976   3.591  0.6781 -0.5599  0.0481
 6717SOL    HW131784   1.910   1.890   3.551  2.3221 -0.4735  0.4851
 6717SOL    HW231785   1.982   2.002   3.622  0.2748 -0.9410  1.4954
 6718SOL     OW31786   1.309   4.594  15.893  0.3456  0.1154 -0.2121
 6718SOL    HW131787   1.242   4.536  15.929  1.3302 -1.6300 -1.2054
 6718SOL    HW231788   1.373   4.526  15.873  0.4349  0.6827 -1.8047
 6719SOL     OW31789   1.716   3.358   9.833 -0.4372 -0.3463 -0.4870
 6719SOL    HW131790   1.808   3.382   9.842 -0.7734  1.2264 -1.3143
 6719SOL    HW231791   1.676   3.445   9.829  0.3986  0.0326 -0.6530
 6720SOL     OW31792   1.014   1.429   2.275  0.1860  0.6996  0.0469
 6720SOL    HW131793   1.030   1.388   2.360  1.3671  1.2741  0.1007
 6720SOL    HW231794   1.082   1.384   2.225  1.6850  0.3100  2.4167
 6721SOL     OW31795   4.072   4.712   3.709 -0.3964 -0.0675 -0.2896
 6721SOL    HW131796   4.138   4.671   3.654  2.0881 -0.1796  2.7670
 6721SOL    HW231797   4.070   0.063   3.666  2.5950  1.2590  2.2260
 6722SOL     OW31798   4.410   2.718   1.078  0.1534 -0.0041  0.2534
 6722SOL    HW131799   4.350   2.713   1.152  1.9932 -2.7245  1.5817
 6722SOL    HW231800   4.468   2.642   1.078  0.4887  0.2495  0.2650
 6723SOL     OW31801   3.843   0.883  11.574  0.1992  0.4652 -0.3197
 6723SOL    HW131802   3.908   0.831  11.621 -1.4452 -1.0122  0.3571
 6723SOL    HW231803   3.889   0.957  11.536 -2.4994  2.6687  0.6782
 6724SOL     OW31804   3.347   2.260  15.101  0.1601  0.1796 -0.5677
 6724SOL    HW131805   3.363   2.212  15.019 -1.5054  2.2906 -2.1482
 6724SOL    HW231806   3.258   2.229  15.121  0.4314  0.0015  0.3440
 6725SOL     OW31807   2.146   1.858   9.327  0.6649 -0.2635 -0.4041
 6725SOL    HW131808   2.081   1.898   9.385  0.6114  0.1300 -0.7348
 6725SOL    HW231809   2.131   1.765   9.343 -3.4732  0.4871  0.1265
 6726SOL     OW31810   0.056   0.014   8.893 -0.2361  0.8715  0.3075
 6726SOL    HW131811   0.076   0.106   8.911 -2.1840  1.7340 -1.9634
 6726SOL    HW231812   0.103   4.702   8.962 -0.7951 -1.9187 -1.1980
 6727SOL     OW31813   0.675   4.277  15.022 -0.3856  0.1668  0.1094
 6727SOL    HW131814   0.766   4.302  15.006  0.1342 -0.1850  2.4842
 6727SOL    HW231815   0.687   4.200  15.078  0.7197  0.1605 -0.1360
 6728SOL     OW31816   2.206   0.875   7.223 -0.2267  0.2039  0.2748
 6728SOL    HW131817   2.156   0.862   7.303 -0.9145 -2.1855 -0.5354
 6728SOL    HW231818   2.134   0.900   7.164 -1.7027 -2.3418  1.0017
 6729SOL     OW31819   2.537   2.436  13.723 -0.0174  0.2489 -0.2182
 6729SOL    HW131820   2.593   2.384  13.781 -0.3913 -0.9544 -0.9363
 6729SOL    HW231821   2.454   2.444  13.771 -2.3631  0.9840 -4.4082
 6730SOL     OW31822   0.267   2.318   8.255 -0.3705 -0.2972  0.0174
 6730SOL    HW131823   0.299   2.274   8.176 -0.1049  1.1525 -0.6803
 6730SOL    HW231824   0.340   2.304   8.315  1.5605  2.5649 -1.6452
 6731SOL     OW31825   1.637   2.891   7.134 -0.5803 -0.4032  0.1663
 6731SOL    HW131826   1.558   2.851   7.170 -1.4724  0.0358 -1.3060
 6731SOL    HW231827   1.696   2.816   7.122  0.1566  0.4885 -1.8045
 6732SOL     OW31828   0.058   1.643  15.659 -0.3793 -0.2508  0.1029
 6732SOL    HW131829   0.055   1.640  15.563  0.8645  1.5136  0.0107
 6732SOL    HW231830   0.071   1.736  15.679  1.2167 -0.1530 -1.3394
 6733SOL     OW31831   3.014   3.626   8.121  0.5141 -0.2256 -0.2608
 6733SOL    HW131832   2.992   3.680   8.045 -0.8522 -0.2635  0.1152
 6733SOL    HW231833   2.929   3.594   8.151  0.5622 -0.5644 -0.4856
 6734SOL     OW31834   1.089   4.529  11.479 -0.5506  0.3670 -0.4312
 6734SOL    HW131835   1.026   4.520  11.550  1.3114 -0.5467  1.0930
 6734SOL    HW231836   1.172   4.538  11.524 -0.8943  0.1466  0.2418
 6735SOL     OW31837   1.545   2.711  10.120 -0.1802  0.1609 -0.1691
 6735SOL    HW131838   1.476   2.688  10.058 -0.8895  1.7971  0.0168
 6735SOL    HW231839   1.553   2.627  10.164  0.9601 -0.0224 -0.7222
 6736SOL     OW31840   2.777   1.022  16.784 -0.4944  0.2283  0.2236
 6736SOL    HW131841   2.848   0.992  16.841  0.3364  0.5434 -0.6403
 6736SOL    HW231842   2.704   0.974  16.822 -0.9918  2.7407  2.4023
 6737SOL     OW31843   2.196   1.392   9.449 -0.2142 -0.1066  0.1897
 6737SOL    HW131844   2.149   1.311   9.432 -0.2117 -0.6422  2.6545
 6737SOL    HW231845   2.118   1.446   9.458 -1.1780 -1.5074  0.2950
 6738SOL     OW31846   3.147   1.850   3.546 -0.4446  0.2653 -0.6493
 6738SOL    HW131847   3.142   1.762   3.584  1.2628  0.6805  0.4990
 6738SOL    HW231848   3.053   1.869   3.548 -0.0272  2.1847  0.2754
 6739SOL     OW31849   0.589   2.932  13.595  0.1658  0.5579  0.7502
 6739SOL    HW131850   0.538   2.913  13.674 -1.8783 -3.7445 -1.5944
 6739SOL    HW231851   0.514   2.964  13.543  1.1876  2.5568  0.4822
 6740SOL     OW31852   2.378   2.525   0.225 -0.2708 -0.0299  0.0409
 6740SOL    HW131853   2.398   2.614   0.253  5.7022 -1.1235 -0.6939
 6740SOL    HW231854   2.339   2.540   0.139 -0.3814  1.4507  0.3513
 6741SOL     OW31855   4.112   1.890   6.570  0.1081 -0.1599 -0.1747
 6741SOL    HW131856   4.201   1.896   6.605  0.0777 -0.6274 -0.0143
 6741SOL    HW231857   4.126   1.832   6.496 -1.0238  0.3364 -0.7738
 6742SOL     OW31858   0.161   3.303   0.395 -0.1087  0.2819 -0.6382
 6742SOL    HW131859   0.146   3.225   0.341  0.7169 -0.8350  0.7497
 6742SOL    HW231860   0.118   3.373   0.346 -1.9606  0.1628  0.7708
 6743SOL     OW31861   0.878   1.182  13.241  0.2215 -0.5153  0.3494
 6743SOL    HW131862   0.965   1.162  13.207  0.3946 -2.2108  1.7451
 6743SOL    HW231863   0.886   1.275  13.264  1.1941 -0.3756 -0.5600
 6744SOL     OW31864   1.686   4.358   5.362  0.3341 -0.1440 -0.1700
 6744SOL    HW131865   1.707   4.270   5.333  0.2580 -0.0537 -0.4974
 6744SOL    HW231866   1.740   4.350   5.441 -0.3894 -1.6622  0.1680
 6745SOL     OW31867   2.195   0.424   1.761 -0.6318  0.2054 -0.1208
 6745SOL    HW131868   2.200   0.346   1.817 -1.2791  0.8647  0.8692
 6745SOL    HW231869   2.107   0.459   1.768 -0.5457  0.8732 -2.5469
 6746SOL     OW31870   4.122   0.306   2.961  0.0738 -0.5588 -0.5431
 6746SOL    HW131871   4.078   0.320   3.045  1.0738  1.5421 -0.3766
 6746SOL    HW231872   4.073   0.232   2.924 -0.7908 -0.8407  1.1631
 6747SOL     OW31873   1.278   2.793   0.746  0.2347 -0.2256 -0.0006
 6747SOL    HW131874   1.219   2.787   0.671  3.4051 -2.4939 -2.2880
 6747SOL    HW231875   1.266   2.886   0.765  2.5355  0.2264 -0.8677
 6748SOL     OW31876   3.205   0.981   8.103 -0.3481  0.1482 -0.4267
 6748SOL    HW131877   3.264   0.909   8.081 -0.7047 -0.4292  0.5017
 6748SOL    HW231878   3.119   0.942   8.088  1.3763 -3.6392 -0.5961
 6749SOL     OW31879   2.244   2.552   6.603 -1.0020 -0.5905 -0.2710
 6749SOL    HW131880   2.266   2.568   6.694 -1.8265 -1.7864  0.1527
 6749SOL    HW231881   2.158   2.510   6.610 -1.3310  0.1319 -0.0433
 6750SOL     OW31882   4.493   2.583   3.816 -0.4153 -0.7061  0.5148
 6750SOL    HW131883   4.477   2.489   3.831  1.6615 -1.1662 -0.0850
 6750SOL    HW231884   4.521   2.587   3.725  3.9591 -0.9260  1.8288
 6751SOL     OW31885   4.522   0.948   2.559  0.4542  0.1157  0.2424
 6751SOL    HW131886   4.507   1.040   2.538  0.3369  0.4261  1.6648
 6751SOL    HW231887   4.592   0.956   2.623 -0.2223  2.1861  0.7168
 6752SOL     OW31888   1.922   2.200   1.550  0.2746 -0.4334 -1.2483
 6752SOL    HW131889   1.932   2.187   1.456  1.7845 -0.6083 -1.0642
 6752SOL    HW231890   1.978   2.127   1.576  1.1097  1.0558  1.1500
 6753SOL     OW31891   1.317   0.616   6.041  0.6362  0.4321 -0.4014
 6753SOL    HW131892   1.300   0.645   6.131  0.8508 -0.7573  0.0133
 6753SOL    HW231893   1.344   0.697   5.998 -1.0837  0.3823 -1.6018
 6754SOL     OW31894   3.900   2.934   4.302  0.4821 -0.0924  0.3429
 6754SOL    HW131895   3.866   2.936   4.391 -1.6977 -0.8651 -0.4764
 6754SOL    HW231896   3.881   2.842   4.285 -1.2011  0.5306 -1.0139
 6755SOL     OW31897   1.480   0.089   7.652 -0.1932 -0.3802  0.4359
 6755SOL    HW131898   1.419   0.147   7.698 -1.1228 -3.0781  2.5710
 6755SOL    HW231899   1.509   0.037   7.726 -0.7242  0.0674  0.9638
 6756SOL     OW31900   1.100   2.437  10.010 -0.1447 -0.3969 -0.2497
 6756SOL    HW131901   1.098   2.342  10.024 -0.9655 -0.0010  2.2371
 6756SOL    HW231902   1.051   2.435   9.928  1.0816  2.4214 -1.0541
 6757SOL     OW31903   1.467   0.104   9.859  0.2421  0.8154  0.4618
 6757SOL    HW131904   1.397   0.079   9.799 -1.9426 -0.5474  3.5822
 6757SOL    HW231905   1.432   0.188   9.889  1.3073  1.6772 -0.7195
 6758SOL     OW31906   2.458   3.349  17.454  0.9583 -0.1601 -0.0437
 6758SOL    HW131907   2.398   3.422  17.471 -1.0019 -1.9647  0.6660
 6758SOL    HW231908   2.539   3.399  17.445  0.3841  1.3256  3.1516
 6759SOL     OW31909   0.924   1.068   8.132  0.2701 -0.0693 -0.6614
 6759SOL    HW131910   1.010   1.109   8.120  0.4955  0.4125  2.3579
 6759SOL    HW231911   0.921   1.079   8.227 -0.0037  1.3688 -0.8439
 6760SOL     OW31912   1.227   1.821   9.507  0.2112  0.5305  0.2285
 6760SOL    HW131913   1.158   1.841   9.570  1.3964 -0.6972  1.9133
 6760SOL    HW231914   1.189   1.739   9.476  2.4441 -0.7286  0.8179
 6761SOL     OW31915   0.001   0.301   7.134 -0.1257 -0.1856 -0.6641
 6761SOL    HW131916   4.681   0.243   7.082 -1.6026  0.8306 -0.2638
 6761SOL    HW231917   4.689   0.381   7.110 -1.6524 -0.8053  0.1867
 6762SOL     OW31918   0.231   2.002   5.121 -0.4101 -0.8385 -0.5365
 6762SOL    HW131919   0.174   1.927   5.104  1.3796 -2.0361 -1.2446
 6762SOL    HW231920   0.262   1.987   5.210 -1.0799  0.6965 -0.0369
 6763SOL     OW31921   4.492   1.844   7.099 -0.1693  0.7496 -0.1904
 6763SOL    HW131922   4.464   1.935   7.110  1.2877  1.2533 -0.6005
 6763SOL    HW231923   4.417   1.786   7.091  2.0593 -1.9554 -1.6884
 6764SOL     OW31924   1.810   0.712   5.351  0.2553 -0.4849 -0.2464
 6764SOL    HW131925   1.811   0.744   5.261 -1.3455  0.4680  0.0824
 6764SOL    HW231926   1.902   0.686   5.359  0.3655 -0.6580 -2.1912
 6765SOL     OW31927   4.578   3.346   2.961  0.5643  0.1826  0.2858
 6765SOL    HW131928   4.550   3.350   3.052 -1.5465  0.6947 -0.3802
 6765SOL    HW231929   4.673   3.358   2.961  0.6263 -0.3000 -0.8600
 6766SOL     OW31930   1.640   1.284   6.496  0.2839 -0.4163  0.1790
 6766SOL    HW131931   1.716   1.312   6.547 -0.2098 -0.6701  1.0526
 6766SOL    HW231932   1.671   1.233   6.421  0.0002  1.0956 -0.9697
 6767SOL     OW31933   2.671   1.692   6.234 -0.1292  0.1151 -0.8113
 6767SOL    HW131934   2.679   1.723   6.143  3.8766 -1.0848 -0.8803
 6767SOL    HW231935   2.708   1.605   6.218  0.8300  0.3407  0.2108
 6768SOL     OW31936   2.832   2.902  16.003 -0.2810 -0.2816 -1.0626
 6768SOL    HW131937   2.763   2.864  16.058 -0.0426  0.9793  0.1192
 6768SOL    HW231938   2.779   2.959  15.947 -0.7784 -0.5292 -0.8453
 6769SOL     OW31939   2.458   2.309  14.647  0.0552  0.3161  0.0186
 6769SOL    HW131940   2.405   2.235  14.677  0.5994  0.4481  1.2926
 6769SOL    HW231941   2.389   2.375  14.658 -0.4945 -0.3269  0.4534
 6770SOL     OW31942   1.435   0.809  15.095  0.0514  0.4535  0.1164
 6770SOL    HW131943   1.497   0.748  15.055  0.7399  2.1269 -1.3875
 6770SOL    HW231944   1.377   0.760  15.153 -2.8253  2.9021 -0.6656
 6771SOL     OW31945   1.268   1.588   9.093 -0.1299  0.2296  0.4634
 6771SOL    HW131946   1.204   1.658   9.108  1.8213  1.4645  3.1726
 6771SOL    HW231947   1.259   1.568   9.001 -0.5895  0.0086  0.5587
 6772SOL     OW31948   3.344   3.355  14.594 -0.2336  0.5842 -0.2325
 6772SOL    HW131949   3.298   3.284  14.639 -0.6343  1.7018  1.0922
 6772SOL    HW231950   3.427   3.337  14.637  1.4441  0.6308 -3.4629
 6773SOL     OW31951   1.458   2.305   7.619 -0.4421 -0.4688 -0.1388
 6773SOL    HW131952   1.426   2.220   7.650  1.6512 -1.2279 -0.0344
 6773SOL    HW231953   1.378   2.353   7.597 -1.2901 -1.1558  1.4459
 6774SOL     OW31954   0.143   2.196   1.592  0.1082  0.4054 -0.3268
 6774SOL    HW131955   0.113   2.287   1.598  1.0640  0.6663  0.4991
 6774SOL    HW231956   0.233   2.224   1.574  1.1730 -1.8066  1.4418
 6775SOL     OW31957   0.104   2.148   4.936 -0.0312 -0.1918 -0.4583
 6775SOL    HW131958   0.140   2.122   5.020 -0.2507 -0.8007 -0.5503
 6775SOL    HW231959   0.173   2.103   4.887  0.7360  0.5157 -0.0359
 6776SOL     OW31960   2.753   0.945  10.098  0.0526  0.2835  0.1812
 6776SOL    HW131961   2.736   0.910  10.011 -2.0387  1.4435  0.1175
 6776SOL    HW231962   2.755   0.871  10.158 -0.4643 -1.5433 -2.1025
 6777SOL     OW31963   2.287   1.402   4.842 -0.7389  0.4128  0.1704
 6777SOL    HW131964   2.306   1.334   4.776 -0.9129 -1.5960  2.2045
 6777SOL    HW231965   2.195   1.414   4.818 -1.0473  0.0600  1.1744
 6778SOL     OW31966   0.449   0.658  16.906 -0.2015 -0.1906 -0.2811
 6778SOL    HW131967   0.494   0.685  16.987  1.5738 -0.7821 -1.0597
 6778SOL    HW231968   0.397   0.583  16.936 -1.8515  1.5935  1.3123
 6779SOL     OW31969   3.863   2.373   2.572 -0.5378 -0.0765  0.1987
 6779SOL    HW131970   3.828   2.390   2.485 -1.1813 -0.7810  0.3247
 6779SOL    HW231971   3.893   2.460   2.601  0.0849  0.8484 -3.2166
 6780SOL     OW31972   1.794   3.352  14.623  0.2775  0.0132 -0.4168
 6780SOL    HW131973   1.711   3.340  14.668  0.7546 -3.5225 -0.4960
 6780SOL    HW231974   1.831   3.434  14.657 -1.1355 -0.2692  1.7772
 6781SOL     OW31975   0.010   0.627   3.301  0.4869 -0.4418  0.2076
 6781SOL    HW131976   4.708   0.714   3.282 -1.3836 -1.7425 -2.1447
 6781SOL    HW231977   4.674   0.581   3.347 -0.6663  1.8577  0.7621
 6782SOL     OW31978   1.070   1.536  12.655  0.0668 -0.4076 -0.4649
 6782SOL    HW131979   1.114   1.494  12.580  2.8999  1.4225  0.1653
 6782SOL    HW231980   0.986   1.556  12.614  1.5506  2.9291 -1.9586
 6783SOL     OW31981   1.989   3.773   2.919  0.0609 -0.3594  0.2069
 6783SOL    HW131982   2.007   3.820   3.001  0.3682  1.0517 -0.6639
 6783SOL    HW231983   1.969   3.686   2.953 -0.2908 -0.2278  0.3438
 6784SOL     OW31984   2.718   2.383   9.107 -0.4030 -0.2475  0.0838
 6784SOL    HW131985   2.757   2.390   9.194 -2.4186 -1.9451  1.1123
 6784SOL    HW231986   2.794   2.399   9.051 -0.2388 -0.9368  0.1166
 6785SOL     OW31987   4.570   1.426   8.172 -0.1950  0.3217 -0.2050
 6785SOL    HW131988   4.494   1.389   8.126  0.4266  1.5661 -2.2269
 6785SOL    HW231989   4.635   1.357   8.186 -0.3854 -0.0396 -1.0969
 6786SOL     OW31990   4.623   0.568   7.046 -0.5520 -0.2688 -0.4414
 6786SOL    HW131991   4.569   0.647   7.043  0.8816  0.7704  0.8851
 6786SOL    HW231992   4.694   0.614   7.092 -1.3911 -0.5477  1.1356
 6787SOL     OW31993   1.470   4.323   0.994 -0.0155 -0.0411  0.3395
 6787SOL    HW131994   1.482   4.309   1.088 -0.0703 -0.7517  0.2454
 6787SOL    HW231995   1.376   4.339   0.990 -0.0996 -0.4616  0.6068
 6788SOL     OW31996   4.131   2.534   9.349  0.2334 -0.3853  0.1319
 6788SOL    HW131997   4.058   2.556   9.291  0.9556  0.0137 -0.6212
 6788SOL    HW231998   4.097   2.503   9.433 -0.2971  0.5978  0.2718
 6789SOL     OW31999   1.478   3.859  13.752 -0.5174  0.1010 -0.1138
 6789SOL    HW132000   1.404   3.800  13.770  1.6683 -3.4198 -2.7972
 6789SOL    HW232001   1.549   3.834  13.811  1.9528 -0.8201 -3.5045
 6790SOL     OW32002   2.399   3.311  14.980  0.5738  0.0074 -0.0493
 6790SOL    HW132003   2.475   3.256  14.960  0.8017 -0.4969  2.2444
 6790SOL    HW232004   2.334   3.258  14.934 -0.3924  0.2109  1.0782
 6791SOL     OW32005   3.636   1.250  11.611  0.0220 -0.4848 -0.8480
 6791SOL    HW132006   3.590   1.292  11.538 -0.9692  1.8882  1.1413
 6791SOL    HW232007   3.706   1.311  11.632 -0.1303 -1.3826  2.2384
 6792SOL     OW32008   0.890   1.135   2.777  0.4240 -0.4698 -0.1683
 6792SOL    HW132009   0.913   1.222   2.811 -2.8406  0.3097 -0.0009
 6792SOL    HW232010   0.973   1.087   2.782  0.5092 -0.1121  1.8736
 6793SOL     OW32011   2.323   1.638   2.678  0.4755  0.1085 -0.0762
 6793SOL    HW132012   2.297   1.582   2.752 -1.8400 -0.4196 -1.2851
 6793SOL    HW232013   2.328   1.562   2.620 -1.6151  1.0572 -1.4749
 6794SOL     OW32014   2.456   3.656   3.995  0.3370 -0.0963 -0.0738
 6794SOL    HW132015   2.443   3.750   3.997 -0.1022 -0.1908  1.3982
 6794SOL    HW232016   2.374   3.627   4.037 -1.2159 -1.2566 -3.8811
 6795SOL     OW32017   1.157   4.528   3.691  0.1977 -0.4836  0.5895
 6795SOL    HW132018   1.209   4.510   3.769  2.3388 -2.0781 -1.2046
 6795SOL    HW232019   1.224   4.561   3.630 -1.0250  2.9764  1.1303
 6796SOL     OW32020   2.571   1.911  16.823 -0.3862  0.3539 -0.6722
 6796SOL    HW132021   2.572   1.928  16.917 -0.2734 -0.1126 -0.5904
 6796SOL    HW232022   2.616   1.989  16.789  0.7852  0.0058  0.0807
 6797SOL     OW32023   0.937   1.688   2.572  0.1514 -0.1067 -0.0818
 6797SOL    HW132024   0.961   1.724   2.487 -0.6103 -1.3853 -0.8203
 6797SOL    HW232025   0.844   1.696   2.553  0.3399  0.7423 -0.6652
 6798SOL     OW32026   1.996   0.635   5.652 -0.2517 -0.7291  0.0027
 6798SOL    HW132027   2.025   0.571   5.717  0.5227 -0.7551 -0.3759
 6798SOL    HW232028   1.939   0.579   5.599 -0.2998 -0.4450 -0.2447
 6799SOL     OW32029   2.235   2.533  11.853 -0.4907  0.1329 -0.1948
 6799SOL    HW132030   2.205   2.455  11.807  1.1257 -0.3661 -0.3930
 6799SOL    HW232031   2.328   2.513  11.866  0.3081  1.8855 -3.2925
 6800SOL     OW32032   1.193   0.987   7.732 -0.4465 -0.2681  0.3566
 6800SOL    HW132033   1.239   0.916   7.777  0.2792  0.0199  0.0772
 6800SOL    HW232034   1.265   1.042   7.699 -1.0863  0.2201 -0.2222
 6801SOL     OW32035   1.866   4.206   5.041  0.3073 -0.3081 -0.6567
 6801SOL    HW132036   1.880   4.113   5.056 -2.3823 -0.6822 -0.3481
 6801SOL    HW232037   1.770   4.207   5.038  0.3887  0.2310 -2.9002
 6802SOL     OW32038   4.426   0.158   9.029  0.2339 -0.3665  0.1333
 6802SOL    HW132039   4.334   0.155   9.053 -0.3400 -2.5582 -2.3859
 6802SOL    HW232040   4.442   0.252   9.016 -0.0908 -0.4181 -0.5942
 6803SOL     OW32041   2.712   3.882   1.201  0.6234 -0.2362  0.3149
 6803SOL    HW132042   2.779   3.937   1.161  0.4835 -0.2524  0.0563
 6803SOL    HW232043   2.637   3.900   1.143  0.2911  0.1864  0.8711
 6804SOL     OW32044   0.833   2.407  11.233  0.3304  0.2372 -0.1979
 6804SOL    HW132045   0.741   2.390  11.215  0.1530 -0.8381  1.6605
 6804SOL    HW232046   0.840   2.463  11.310 -0.2238 -0.8826  0.6784
 6805SOL     OW32047   3.892   0.066   4.277 -0.4136 -0.2884 -0.0264
 6805SOL    HW132048   3.876   0.066   4.183 -0.5444 -0.9355 -0.0041
 6805SOL    HW232049   3.804   0.062   4.315  0.8425 -0.2260  2.8999
 6806SOL     OW32050   4.203   3.076  17.358 -0.0516  0.1628 -0.5347
 6806SOL    HW132051   4.272   3.093  17.294 -0.8509  2.2819 -0.8491
 6806SOL    HW232052   4.243   3.124  17.430 -2.9397  1.5124  0.1582
 6807SOL     OW32053   0.320   1.924   1.835  0.2184  0.1625 -0.4735
 6807SOL    HW132054   0.304   1.851   1.895  0.5527 -0.5484 -1.2412
 6807SOL    HW232055   0.415   1.923   1.832  0.2913  2.0425  1.3782
 6808SOL     OW32056   3.178   2.086   7.622  0.5182  0.3281  0.1637
 6808SOL    HW132057   3.143   2.114   7.537  1.3564 -1.6626 -0.8353
 6808SOL    HW232058   3.103   2.062   7.678  0.2184  1.8866  0.4286
 6809SOL     OW32059   1.084   3.915   1.533 -0.4660 -0.2961  0.0600
 6809SOL    HW132060   1.089   3.957   1.447  2.2400  3.0410  1.8637
 6809SOL    HW232061   1.112   3.985   1.591 -0.0716 -0.9310  0.6296
 6810SOL     OW32062   1.038   3.059   4.613  0.4138 -0.4799  0.7346
 6810SOL    HW132063   0.983   3.030   4.686  0.0234 -2.1059 -0.2029
 6810SOL    HW232064   0.980   3.112   4.558  1.0737 -0.7379 -0.2019
 6811SOL     OW32065   0.412   2.336   8.789  0.1095 -0.3558 -0.0424
 6811SOL    HW132066   0.338   2.397   8.799  0.9554  0.2898  2.1749
 6811SOL    HW232067   0.473   2.389   8.737 -0.9138  0.1318 -0.7527
 6812SOL     OW32068   1.954   2.388   5.221  0.0452 -0.5162  0.7997
 6812SOL    HW132069   1.870   2.433   5.223  0.3478  0.1033 -0.5630
 6812SOL    HW232070   1.946   2.358   5.131 -1.4549  0.6686  0.5420
 6813SOL     OW32071   4.527   2.502   5.857  0.1322 -0.0254 -0.0157
 6813SOL    HW132072   4.534   2.586   5.812 -0.4434 -0.0569 -0.1604
 6813SOL    HW232073   4.465   2.456   5.800 -0.1085 -0.8142  0.8764
 6814SOL     OW32074   0.121   3.849   7.309 -0.1465 -0.4004  0.1607
 6814SOL    HW132075   0.140   3.940   7.288 -0.4667  0.0169  1.7191
 6814SOL    HW232076   0.051   3.874   7.369 -1.7403 -0.9220 -1.4795
 6815SOL     OW32077   4.628   0.450   8.544  0.2003  0.4856 -0.0635
 6815SOL    HW132078   4.553   0.439   8.603  0.6049 -1.8455  0.0381
 6815SOL    HW232079   4.595   0.439   8.455  0.8536 -0.9004 -0.1348
 6816SOL     OW32080   4.028   0.612   7.944  0.1649  0.7981 -0.3618
 6816SOL    HW132081   4.036   0.516   7.947 -3.3107  0.5442  1.6627
 6816SOL    HW232082   4.093   0.630   7.877  0.8942  1.1627  0.4396
 6817SOL     OW32083   1.102   2.253   7.230  0.5274  0.5956  0.6655
 6817SOL    HW132084   1.167   2.294   7.288  0.4669 -1.7762  2.4326
 6817SOL    HW232085   1.049   2.332   7.218 -0.4106  0.1067  1.5416
 6818SOL     OW32086   1.088   0.551   9.091  0.2875  0.2044  0.2591
 6818SOL    HW132087   1.131   0.615   9.033  1.5244 -0.2237  0.7007
 6818SOL    HW232088   1.059   0.604   9.165 -0.3964 -0.7116  0.6482
 6819SOL     OW32089   1.829   4.535   6.887  0.0731  0.5324 -0.0183
 6819SOL    HW132090   1.880   4.607   6.851 -1.1149  1.1782 -0.3891
 6819SOL    HW232091   1.883   4.484   6.948  0.5461 -0.2496 -1.0841
 6820SOL     OW32092   2.821   0.433   0.497 -0.0489  0.0505  0.0253
 6820SOL    HW132093   2.822   0.384   0.579  0.4823  0.5276  0.3022
 6820SOL    HW232094   2.832   0.364   0.432 -2.3776 -0.0782 -0.2145
 6821SOL     OW32095   3.917   2.736   3.251  0.2991  0.5367  0.0377
 6821SOL    HW132096   3.974   2.784   3.312  1.5844 -1.5897  0.4923
 6821SOL    HW232097   3.827   2.742   3.283  0.1517 -0.6290 -0.1664
 6822SOL     OW32098   1.524   0.919   7.013 -0.2568 -0.2542  0.3696
 6822SOL    HW132099   1.525   0.949   6.922 -0.6004 -1.1967  0.0555
 6822SOL    HW232100   1.524   0.997   7.069  1.1414 -1.2279  1.6954
 6823SOL     OW32101   3.793   1.557   2.088  0.1446  0.3894 -0.2343
 6823SOL    HW132102   3.855   1.573   2.016  1.1919 -0.4068  0.4934
 6823SOL    HW232103   3.766   1.647   2.104 -0.7229  0.2830 -1.0632
 6824SOL     OW32104   1.769   3.119   7.873  0.3312  0.4899  0.3508
 6824SOL    HW132105   1.681   3.146   7.847 -0.0991 -0.4665  0.8388
 6824SOL    HW232106   1.822   3.179   7.820  0.1509  0.3661  0.0305
 6825SOL     OW32107   0.421   4.664  14.656  0.0850  0.5706  0.0973
 6825SOL    HW132108   0.412   0.025  14.657  0.1566  0.5779 -0.1386
 6825SOL    HW232109   0.327   4.649  14.646 -0.4014  3.1396  0.6082
 6826SOL     OW32110   2.885   0.487   6.113  0.1099 -0.3726  0.0285
 6826SOL    HW132111   2.821   0.426   6.149  1.4371 -0.4360  2.3160
 6826SOL    HW232112   2.839   0.523   6.037  2.2815  0.3705 -0.9296
 6827SOL     OW32113   2.106   4.059   2.346  0.2322  0.0928  0.3751
 6827SOL    HW132114   2.062   4.051   2.261  1.0608  0.1017 -0.0544
 6827SOL    HW232115   2.059   3.997   2.401 -0.2544 -1.8344 -2.2149
 6828SOL     OW32116   4.091   3.316   6.817  0.4409  0.3206 -0.0624
 6828SOL    HW132117   4.099   3.399   6.770 -0.9883  0.6431  0.2557
 6828SOL    HW232118   4.178   3.294   6.851 -1.2891 -2.6093  2.4689
 6829SOL     OW32119   1.504   0.768   3.045 -0.1162 -0.2460 -0.7473
 6829SOL    HW132120   1.448   0.712   3.099 -1.6067  0.9967 -0.9939
 6829SOL    HW232121   1.441   0.786   2.976 -0.3518 -0.0579 -0.4823
 6830SOL     OW32122   1.360   0.677   4.612  0.5432  0.0008 -0.7802
 6830SOL    HW132123   1.280   0.696   4.564 -0.0250 -2.1907 -0.6957
 6830SOL    HW232124   1.406   0.761   4.617 -0.6347  0.6766 -1.3036
 6831SOL     OW32125   2.410   3.402   8.031  0.4751  0.0361 -0.2671
 6831SOL    HW132126   2.351   3.433   8.099  0.2436  0.8106 -0.8119
 6831SOL    HW232127   2.482   3.359   8.078 -0.9429  0.1463  1.9767
 6832SOL     OW32128   1.445   2.426  17.083 -0.0976 -0.0662 -0.3772
 6832SOL    HW132129   1.438   2.376  17.002 -0.6884 -0.5030 -0.0542
 6832SOL    HW232130   1.444   2.516  17.051  0.1865 -0.1934 -0.7429
 6833SOL     OW32131   1.658   1.216   4.788 -0.1165  0.2527 -1.0417
 6833SOL    HW132132   1.705   1.266   4.855  0.4232 -0.7380 -0.6711
 6833SOL    HW232133   1.691   1.258   4.708  0.2418 -0.8324 -1.4649
 6834SOL     OW32134   4.199   0.168   6.196 -0.2089  0.1898 -0.2517
 6834SOL    HW132135   4.174   0.082   6.162  0.4924 -0.6984  1.4863
 6834SOL    HW232136   4.162   0.229   6.132 -2.6167  0.0745  1.0547
 6835SOL     OW32137   2.050   3.714   3.499 -0.6270  0.6072  0.2195
 6835SOL    HW132138   2.094   3.631   3.516  0.2085  0.9963 -0.0075
 6835SOL    HW232139   2.122   3.776   3.482  0.8793 -0.7655  1.5850
 6836SOL     OW32140   1.127   4.127   2.604 -0.4694 -0.7374  0.5144
 6836SOL    HW132141   1.162   4.176   2.529  0.6649  0.6008  1.9196
 6836SOL    HW232142   1.033   4.135   2.587 -0.0149  1.7165 -0.7960
 6837SOL     OW32143   1.447   3.853   5.307 -0.4321 -0.1969 -0.2820
 6837SOL    HW132144   1.431   3.873   5.399 -0.1214  0.1101 -0.2930
 6837SOL    HW232145   1.445   3.946   5.283 -0.5222 -0.1867 -0.2344
 6838SOL     OW32146   0.724   2.566   4.231 -0.3703 -0.5331  0.1367
 6838SOL    HW132147   0.754   2.597   4.146 -0.5722 -0.7436 -0.0123
 6838SOL    HW232148   0.794   2.508   4.260 -0.9271 -0.7282  1.1069
 6839SOL     OW32149   0.367   1.732   9.419  0.2550 -0.3452  0.1027
 6839SOL    HW132150   0.403   1.752   9.506  2.9732 -3.3219 -0.3347
 6839SOL    HW232151   0.438   1.779   9.375 -0.2347 -3.0565 -3.5897
 6840SOL     OW32152   2.555   4.225  10.278  0.5789  0.2778  0.1190
 6840SOL    HW132153   2.594   4.287  10.216  1.6632  2.3005  2.8358
 6840SOL    HW232154   2.522   4.284  10.345  1.0336  1.5270 -0.7660
 6841SOL     OW32155   2.688   1.918   7.728 -0.2676 -0.2752 -0.1086
 6841SOL    HW132156   2.668   1.941   7.819 -1.2742  0.1581 -0.4329
 6841SOL    HW232157   2.598   1.923   7.696  0.0898  1.6589 -0.8457
 6842SOL     OW32158   4.713   0.195   3.391 -0.3964 -0.2514  0.3260
 6842SOL    HW132159   0.012   0.108   3.371  0.8493  0.0738  0.9942
 6842SOL    HW232160   0.037   0.244   3.332  0.7489  0.6247  2.1715
 6843SOL     OW32161   4.076   2.866   0.061  0.3412  0.4635 -0.2310
 6843SOL    HW132162   4.079   2.771   0.077  0.0906  0.3698 -0.7348
 6843SOL    HW232163   4.129   2.864  17.718 -1.2714  0.6480 -1.3154
 6844SOL     OW32164   2.161   0.726   5.938 -0.3092  0.1136 -0.4183
 6844SOL    HW132165   2.205   0.670   6.002  0.1479 -1.5036 -2.1466
 6844SOL    HW232166   2.119   0.791   5.994  2.9846 -1.0955  3.5041
 6845SOL     OW32167   0.445   2.434   7.667 -0.2259  0.3299  0.2843
 6845SOL    HW132168   0.450   2.418   7.761  0.8395  2.1239  0.5438
 6845SOL    HW232169   0.354   2.460   7.650 -0.5516 -1.6132 -0.8824
 6846SOL     OW32170   1.513   1.434  16.277  0.2924 -0.0893  0.3771
 6846SOL    HW132171   1.595   1.418  16.231  0.7736  2.4159  0.3864
 6846SOL    HW232172   1.540   1.441  16.368  3.7412  0.1285 -0.6600
 6847SOL     OW32173   2.666   1.484   5.205  0.5141  0.1810 -0.1081
 6847SOL    HW132174   2.602   1.452   5.141 -0.6920  0.8289  0.7869
 6847SOL    HW232175   2.707   1.553   5.153  1.0395  1.3092  1.8108
 6848SOL     OW32176   4.105   4.630   5.441 -0.1624 -0.3647 -0.1968
 6848SOL    HW132177   4.082   4.698   5.378 -0.9852  1.6403  2.2881
 6848SOL    HW232178   4.063   4.555   5.399  0.7764 -0.2346 -1.3585
 6849SOL     OW32179   0.570   0.076  10.260 -0.9136 -0.3850  0.2280
 6849SOL    HW132180   0.491   0.120  10.231  0.5278  1.0150 -1.5562
 6849SOL    HW232181   0.541   0.065  10.351 -2.1249  0.8889 -0.0123
 6850SOL     OW32182   3.046   1.426   6.578  0.2065 -0.2311 -0.1043
 6850SOL    HW132183   2.962   1.456   6.613  0.4839 -1.4315  1.5843
 6850SOL    HW232184   3.050   1.345   6.629  0.1785 -1.3398 -1.9014
 6851SOL     OW32185   3.140   1.376  13.140  0.1278 -0.2282  0.0615
 6851SOL    HW132186   3.131   1.359  13.046  4.4250 -0.9926 -0.1856
 6851SOL    HW232187   3.055   1.336  13.160  0.0802  0.2437  0.7843
 6852SOL     OW32188   0.569   0.706   3.843  0.4015  0.2528 -0.3381
 6852SOL    HW132189   0.633   0.636   3.831  0.7175  0.3858  0.5489
 6852SOL    HW232190   0.592   0.768   3.773  3.1603  1.1434  1.3300
 6853SOL     OW32191   0.345   2.781  12.941 -0.7333 -0.0168  0.4148
 6853SOL    HW132192   0.321   2.727  13.016  1.1688 -1.5824 -0.1096
 6853SOL    HW232193   0.423   2.818  12.982  0.2613 -3.3517  1.4942
 6854SOL     OW32194   3.965   2.400   9.067  0.0215  0.0456 -0.3598
 6854SOL    HW132195   3.870   2.411   9.073  0.2637  1.0748  1.9433
 6854SOL    HW232196   3.981   2.341   9.141  0.3579  0.8676  0.2321
 6855SOL     OW32197   2.024   0.242   3.093 -0.1972 -0.9418  0.3907
 6855SOL    HW132198   2.059   0.218   3.007  0.0583 -0.4432  0.3579
 6855SOL    HW232199   2.058   0.331   3.098  0.0798 -0.9987 -0.3793
 6856SOL     OW32200   3.674   2.207   4.994  0.3342  0.0136  0.3957
 6856SOL    HW132201   3.659   2.278   4.932  0.1521 -1.0819 -0.8288
 6856SOL    HW232202   3.748   2.161   4.954  0.7919  1.4529 -0.4159
 6857SOL     OW32203   4.159   1.139   2.091  0.8473  0.1987  0.9302
 6857SOL    HW132204   4.238   1.100   2.128 -1.3418 -1.2763  4.1012
 6857SOL    HW232205   4.094   1.105   2.152 -2.3887 -0.7460 -3.0722
 6858SOL     OW32206   0.467   1.536   1.236 -0.4784  0.1301 -0.5950
 6858SOL    HW132207   0.404   1.520   1.166 -1.9764 -0.5924  0.9205
 6858SOL    HW232208   0.412   1.568   1.308  0.0697 -2.7805  1.0967
 6859SOL     OW32209   1.978   0.185   9.566 -0.0482 -0.1714  0.1059
 6859SOL    HW132210   1.965   0.134   9.646  1.1853 -0.7555 -0.0800
 6859SOL    HW232211   1.917   0.143   9.506 -1.0709 -0.0784  1.0762
 6860SOL     OW32212   3.378   1.455   6.759 -0.1740  0.3434 -0.0364
 6860SOL    HW132213   3.399   1.505   6.838 -0.2188  1.3089 -0.6408
 6860SOL    HW232214   3.460   1.406   6.749 -0.3371  0.4046 -1.6382
 6861SOL     OW32215   3.885   1.833  12.726  0.0010  0.2541  0.1183
 6861SOL    HW132216   3.945   1.794  12.663 -0.6338 -1.6260  0.6988
 6861SOL    HW232217   3.849   1.900  12.668 -3.5981 -3.3620 -1.8223
 6862SOL     OW32218   2.892   4.182   9.447 -0.1082 -0.2406  0.3777
 6862SOL    HW132219   2.886   4.271   9.412 -0.1403 -0.4616 -0.1795
 6862SOL    HW232220   2.806   4.186   9.489  1.5506  2.1027  3.5064
 6863SOL     OW32221   0.775   1.039   9.791  0.2796 -1.3437 -0.4632
 6863SOL    HW132222   0.714   1.023   9.862 -0.4479  1.2251 -0.5437
 6863SOL    HW232223   0.739   0.978   9.726  2.5016 -1.9491 -1.1545
 6864SOL     OW32224   3.970   2.535   1.613 -0.4285 -0.2391 -0.4140
 6864SOL    HW132225   3.992   2.538   1.519 -0.0020  0.4695 -0.2939
 6864SOL    HW232226   3.888   2.486   1.616  0.1932 -1.3265 -1.2930
 6865SOL     OW32227   3.804   0.003   5.868 -0.2915 -0.4108  0.1493
 6865SOL    HW132228   3.880   4.723   5.812 -1.9278  1.1307 -2.4792
 6865SOL    HW232229   3.808   4.679   5.944 -2.5835 -0.4140  0.2774
 6866SOL     OW32230   1.539   0.182  16.134 -0.0236  0.1805 -0.1743
 6866SOL    HW132231   1.554   0.276  16.122 -1.4939  0.3227 -0.8141
 6866SOL    HW232232   1.565   0.177  16.226  2.4675 -0.5364 -0.8978
 6867SOL     OW32233   1.160   1.304  14.333  0.5647 -0.6835  0.3077
 6867SOL    HW132234   1.085   1.364  14.324  2.1490  1.3939  0.9759
 6867SOL    HW232235   1.171   1.278  14.242 -0.7438  1.8496 -0.5904
 6868SOL     OW32236   2.163   0.363   6.501  0.8678  0.1655 -0.1418
 6868SOL    HW132237   2.107   0.344   6.427  0.6812  0.1591  0.0020
 6868SOL    HW232238   2.114   0.333   6.577  0.6811  1.4864  0.2644
 6869SOL     OW32239   3.129   1.043  16.544 -0.2532 -0.0875  0.0642
 6869SOL    HW132240   3.066   1.113  16.561 -1.3016 -1.3499  1.3726
 6869SOL    HW232241   3.210   1.093  16.528  0.4062 -1.4167 -0.7571
 6870SOL     OW32242   4.266   3.851   2.050  0.1752  0.2476  0.2867
 6870SOL    HW132243   4.203   3.782   2.030  0.9319 -0.6013  0.8283
 6870SOL    HW232244   4.262   3.907   1.973  1.9375 -1.1955 -0.8468
 6871SOL     OW32245   3.295   0.924   9.801  0.0708 -0.4108  0.7625
 6871SOL    HW132246   3.385   0.912   9.769  0.0152  1.8327 -0.1989
 6871SOL    HW232247   3.302   1.011   9.839  1.4210  0.4207 -1.3462
 6872SOL     OW32248   4.350   4.658  13.419  0.0554 -0.4886  0.1162
 6872SOL    HW132249   4.337   0.012  13.386 -1.7604 -0.8637 -0.1329
 6872SOL    HW232250   4.269   4.638  13.465 -0.3160  0.5551 -0.0915
 6873SOL     OW32251   0.523   1.963  15.445 -0.4343  0.8416 -0.2094
 6873SOL    HW132252   0.576   1.883  15.446  0.4974  1.4692  0.1661
 6873SOL    HW232253   0.461   1.960  15.518  1.6397  3.3710  1.6670
 6874SOL     OW32254   2.850   4.071   2.868 -0.3509 -0.1719 -0.0394
 6874SOL    HW132255   2.880   3.992   2.823 -0.6748 -0.9113  1.0366
 6874SOL    HW232256   2.783   4.101   2.807 -0.2264 -1.2588 -0.6977
 6875SOL     OW32257   1.146   3.659   4.442  0.4007 -0.0279  0.2621
 6875SOL    HW132258   1.098   3.641   4.362  2.1844 -0.7004 -0.6564
 6875SOL    HW232259   1.101   3.610   4.511 -0.1338  1.3874  0.9119
 6876SOL     OW32260   4.375   0.184   5.054 -0.0929  0.3532  0.1066
 6876SOL    HW132261   4.430   0.215   4.981  0.7809 -3.5135 -0.8489
 6876SOL    HW232262   4.419   0.229   5.126  0.1003  2.4138 -1.2847
 6877SOL     OW32263   2.729   0.531  12.067  0.2389  0.3033 -0.2449
 6877SOL    HW132264   2.716   0.619  12.029  1.3699 -0.6867 -2.9364
 6877SOL    HW232265   2.726   0.487  11.982  1.2008  0.3613 -0.3073
 6878SOL     OW32266   2.542   0.798   7.133 -0.3712  0.4700 -0.0893
 6878SOL    HW132267   2.537   0.882   7.088  1.4114 -0.0161 -1.1829
 6878SOL    HW232268   2.570   0.741   7.061  0.7230  0.1466  0.5849
 6879SOL     OW32269   2.953   0.949   4.231  0.0914 -0.3110  0.0015
 6879SOL    HW132270   3.038   0.909   4.249  0.8800  1.4948  0.3255
 6879SOL    HW232271   2.901   0.876   4.263 -0.4120  0.0433 -0.0203
 6880SOL     OW32272   4.332   2.426  11.995 -0.1915  0.2036 -0.2335
 6880SOL    HW132273   4.386   2.353  12.024 -1.7472 -0.4352  1.0407
 6880SOL    HW232274   4.287   2.448  12.077  0.2394 -1.1984  0.3732
 6881SOL     OW32275   1.232   3.145   6.895 -0.6670  1.0145 -0.2124
 6881SOL    HW132276   1.300   3.088   6.860  0.0819  3.0604 -2.0605
 6881SOL    HW232277   1.174   3.134   6.819 -1.6775  0.0238  0.6927
 6882SOL     OW32278   3.095   3.779   5.071 -0.1461 -0.0268  0.0438
 6882SOL    HW132279   3.043   3.699   5.077 -0.6014  0.1367 -1.8311
 6882SOL    HW232280   3.180   3.752   5.038  0.7082  2.2291  0.3573
 6883SOL     OW32281   3.819   1.210   6.090 -0.7761  0.5650 -0.3667
 6883SOL    HW132282   3.885   1.240   6.027 -2.2018  0.5629 -1.8891
 6883SOL    HW232283   3.798   1.119   6.070 -2.0844  0.8798 -0.4349
 6884SOL     OW32284   2.623   2.140   5.751 -0.2049  0.4960 -0.1590
 6884SOL    HW132285   2.661   2.105   5.670  0.5579 -2.0031  1.2881
 6884SOL    HW232286   2.670   2.081   5.808  2.1652 -0.2451 -2.8714
 6885SOL     OW32287   4.329   2.681  15.647  0.2080 -0.0319 -0.4832
 6885SOL    HW132288   4.362   2.670  15.736 -1.3678  0.3616  0.1444
 6885SOL    HW232289   4.252   2.625  15.646 -0.9573  1.5852 -0.7520
 6886SOL     OW32290   2.199   2.285   6.936  0.0202  0.1057 -0.4007
 6886SOL    HW132291   2.215   2.242   6.852  0.1684  0.4576 -0.5512
 6886SOL    HW232292   2.247   2.229   6.998 -0.9060  1.3031  1.3911
 6887SOL     OW32293   1.917   2.228   8.466 -0.3176 -0.3794  0.3502
 6887SOL    HW132294   1.988   2.293   8.463  1.0678 -1.8956  0.2594
 6887SOL    HW232295   1.965   2.148   8.486  1.6394  0.8591  0.6759
 6888SOL     OW32296   1.274   4.516   4.789  0.6311  0.7491  0.5066
 6888SOL    HW132297   1.236   4.448   4.844  1.6314 -0.7291 -0.6383
 6888SOL    HW232298   1.282   4.475   4.703 -1.0067  0.1284  0.6480
 6889SOL     OW32299   0.560   1.514   7.460 -0.1332 -0.3487  0.2984
 6889SOL    HW132300   0.655   1.519   7.472 -0.2441  0.3490  0.8656
 6889SOL    HW232301   0.549   1.582   7.392  0.1587 -0.5086  0.0885
 6890SOL     OW32302   0.747   4.600   2.940 -0.7810  0.6229 -0.5746
 6890SOL    HW132303   0.722   4.655   3.014 -0.5577 -0.8664  0.6031
 6890SOL    HW232304   0.817   4.545   2.975 -1.2312 -0.3895 -1.2183
 6891SOL     OW32305   0.364   0.796   7.411 -0.1180 -0.1167  0.0428
 6891SOL    HW132306   0.391   0.846   7.489 -1.9443 -0.7740  1.0903
 6891SOL    HW232307   0.334   0.865   7.352  2.5167 -0.0464 -1.2138
 6892SOL     OW32308   3.185   4.697   1.920  0.6273 -0.1441  0.8654
 6892SOL    HW132309   3.104   4.723   1.965  0.0189 -0.7978  0.1596
 6892SOL    HW232310   3.242   0.040   1.917 -2.1537  1.9379  0.8371
 6893SOL     OW32311   4.377   4.078   1.802  0.1948  0.1011  0.0154
 6893SOL    HW132312   4.441   4.006   1.801 -0.2397 -0.2374 -2.2590
 6893SOL    HW232313   4.321   4.055   1.728 -1.1115  0.3821  0.9151
 6894SOL     OW32314   4.622   3.640  13.773  0.0116  0.3978  0.3212
 6894SOL    HW132315   4.539   3.683  13.753 -0.3535 -0.7888 -0.7528
 6894SOL    HW232316   4.590   3.551  13.758  2.4059 -0.1270 -1.5507
 6895SOL     OW32317   1.863   0.861   5.648  0.4780 -0.0569  0.2740
 6895SOL    HW132318   1.905   0.775   5.656 -0.7630 -0.7484 -0.6362
 6895SOL    HW232319   1.867   0.890   5.557 -3.3656  0.8672  0.3870
 6896SOL     OW32320   4.352   3.327   6.868  0.2109 -0.3946 -0.2391
 6896SOL    HW132321   4.346   3.423   6.866  1.8325 -0.3118 -1.1049
 6896SOL    HW232322   4.441   3.317   6.835  0.7644  0.9296  0.8442
 6897SOL     OW32323   3.644   2.630   3.799  0.4478  0.9228  0.2809
 6897SOL    HW132324   3.669   2.722   3.791 -0.4425  1.0822 -0.6314
 6897SOL    HW232325   3.655   2.616   3.893  0.0615  0.6844  0.2893
 6898SOL     OW32326   0.330   4.546   2.611  0.6673  0.7444  1.1075
 6898SOL    HW132327   0.281   4.501   2.543  1.0043  1.1880  0.5686
 6898SOL    HW232328   0.384   4.602   2.554 -0.9271 -0.7430 -1.8341
 6899SOL     OW32329   3.660   2.489   7.810  0.0673  0.3362 -0.2721
 6899SOL    HW132330   3.736   2.547   7.804  1.8500 -2.0634 -1.2246
 6899SOL    HW232331   3.676   2.441   7.891  2.5923  2.8727  0.7272
 6900SOL     OW32332   4.093   3.956  14.952 -0.1483  0.1884 -0.2279
 6900SOL    HW132333   4.087   3.898  14.875  0.7842  0.5374 -0.5651
 6900SOL    HW232334   4.012   3.936  14.999  0.2902 -2.1094 -0.4434
 6901SOL     OW32335   0.463   1.684   8.400 -0.3713 -0.0407  0.3134
 6901SOL    HW132336   0.468   1.638   8.484  1.4384  0.7858  0.6606
 6901SOL    HW232337   0.431   1.609   8.350 -1.1729  0.7503 -0.3807
 6902SOL     OW32338   1.312   2.984  12.193 -0.2294 -0.3517 -0.0517
 6902SOL    HW132339   1.383   2.941  12.145  0.7966  1.5394 -0.2549
 6902SOL    HW232340   1.261   2.910  12.224  1.5494 -1.2612  0.7163
 6903SOL     OW32341   0.769   4.365   6.864  0.1051  0.4054 -0.0843
 6903SOL    HW132342   0.808   4.448   6.837 -1.4661  1.6244  1.3493
 6903SOL    HW232343   0.699   4.400   6.919  0.0910 -0.5708  0.5323
 6904SOL     OW32344   3.802   2.204   2.792 -0.0382  0.3218 -0.6266
 6904SOL    HW132345   3.744   2.127   2.785  0.7911 -0.1448 -2.2187
 6904SOL    HW232346   3.805   2.235   2.702 -0.1528 -1.5339 -1.2718
 6905SOL     OW32347   1.816   3.903  17.630  0.1051  0.3946  0.3133
 6905SOL    HW132348   1.804   3.912  17.725 -0.3629  0.3020  0.2641
 6905SOL    HW232349   1.839   3.812  17.612 -0.3739  0.2200  0.5781
 6906SOL     OW32350   3.736   3.342   2.922  0.5679  0.2085 -0.3329
 6906SOL    HW132351   3.768   3.324   3.010 -0.8214 -1.4784 -0.1808
 6906SOL    HW232352   3.798   3.294   2.866  0.0977 -0.7331 -0.0471
 6907SOL     OW32353   4.152   3.491   6.568  0.4611 -0.0853 -0.5536
 6907SOL    HW132354   4.194   3.482   6.482 -0.6021  1.0109 -1.1895
 6907SOL    HW232355   4.191   3.573   6.597 -0.5302  0.5913 -1.1365
 6908SOL     OW32356   1.501   2.844  11.908  0.2744  0.1199  0.3059
 6908SOL    HW132357   1.592   2.870  11.917  0.7117 -0.9687 -1.1109
 6908SOL    HW232358   1.490   2.775  11.972 -0.9534  0.8136  0.8534
 6909SOL     OW32359   2.144   3.804   9.927  0.2238 -0.6199  0.0290
 6909SOL    HW132360   2.172   3.895   9.917  0.9180 -0.9042 -0.5596
 6909SOL    HW232361   2.151   3.774   9.837 -0.2760  0.3360 -0.3300
 6910SOL     OW32362   3.031   1.301   5.059 -0.1282  0.1622 -0.3201
 6910SOL    HW132363   2.982   1.298   5.141 -2.8367 -0.6628 -1.9550
 6910SOL    HW232364   3.052   1.395   5.063  1.1716 -0.1491  0.2013
 6911SOL     OW32365   3.140   4.340   5.072 -0.0272 -0.4122 -0.6614
 6911SOL    HW132366   3.231   4.361   5.051 -0.1383  0.8976  0.1715
 6911SOL    HW232367   3.126   4.401   5.144  1.7336  1.1303 -1.6105
 6912SOL     OW32368   2.893   2.936  12.597  0.2455 -1.1335 -0.1504
 6912SOL    HW132369   2.843   3.014  12.622  1.2939  0.2376 -2.3535
 6912SOL    HW232370   2.820   2.874  12.605  0.8633 -1.6176  1.8027
 6913SOL     OW32371   3.533   1.786  10.792 -0.6456  0.2242 -0.1218
 6913SOL    HW132372   3.508   1.860  10.738  2.4110  1.1098 -0.3016
 6913SOL    HW232373   3.545   1.716  10.728 -1.6406  1.5401 -1.7271
 6914SOL     OW32374   0.875   3.036  16.503  1.1089 -0.1936 -0.0039
 6914SOL    HW132375   0.961   3.013  16.538  1.0571 -0.9793 -0.3944
 6914SOL    HW232376   0.833   3.092  16.568  0.7607 -0.0975 -0.3100
 6915SOL     OW32377   2.830   3.570   9.234  0.6507  0.0502  0.3569
 6915SOL    HW132378   2.792   3.622   9.305 -1.2741 -0.5969 -0.1914
 6915SOL    HW232379   2.769   3.594   9.165  0.7937 -1.3382 -0.2604
 6916SOL     OW32380   3.920   4.124   4.321 -0.3638  0.6727  0.2408
 6916SOL    HW132381   3.940   4.119   4.415  0.4910 -2.6289 -0.1357
 6916SOL    HW232382   4.007   4.131   4.283 -2.0610  3.0512 -3.1569
 6917SOL     OW32383   1.744   1.327   7.024 -0.1176 -0.2838  0.1758
 6917SOL    HW132384   1.743   1.421   7.041  1.2817  0.1377 -2.0724
 6917SOL    HW232385   1.775   1.313   6.935  1.4655  2.2031  0.3670
 6918SOL     OW32386   1.913   4.340   6.132 -0.3303  0.1513 -0.4314
 6918SOL    HW132387   1.822   4.359   6.153 -0.7172 -0.6749 -1.3244
 6918SOL    HW232388   1.958   4.419   6.162 -1.1737  0.5728 -0.2673
 6919SOL     OW32389   4.278   1.339  17.191 -0.0274  0.1355 -0.0707
 6919SOL    HW132390   4.233   1.264  17.230  1.1630  0.6859  2.3759
 6919SOL    HW232391   4.278   1.314  17.099  0.7511  2.2580 -0.6509
 6920SOL     OW32392   1.060   3.243   3.959 -0.9914  0.4839  0.2625
 6920SOL    HW132393   1.101   3.290   3.886  0.0626 -2.4676 -1.0338
 6920SOL    HW232394   0.987   3.193   3.923 -0.2912 -0.0528 -0.4109
 6921SOL     OW32395   1.367   1.559  12.427  0.1221  0.3094 -0.0896
 6921SOL    HW132396   1.451   1.553  12.382  1.0599 -0.4559  1.7347
 6921SOL    HW232397   1.403   1.546  12.515 -1.9438  1.6960  0.9637
 6922SOL     OW32398   2.073   3.704   6.636  0.3370 -0.5261 -0.0384
 6922SOL    HW132399   2.156   3.746   6.659  0.1142  0.4139 -0.9723
 6922SOL    HW232400   2.008   3.762   6.676  0.6522 -1.9172  2.4925
 6923SOL     OW32401   0.717   0.211   1.346 -0.5100  0.0471  0.0259
 6923SOL    HW132402   0.755   0.194   1.260  0.8187 -0.4629  0.7116
 6923SOL    HW232403   0.663   0.283   1.314 -0.1386  0.5877  0.6031
 6924SOL     OW32404   1.395   1.360   3.250 -0.4109  0.0628 -0.0195
 6924SOL    HW132405   1.361   1.312   3.175 -1.5421  1.7313 -0.5602
 6924SOL    HW232406   1.475   1.309   3.263  1.2317  2.8093  0.5413
 6925SOL     OW32407   1.177   4.316   5.050  0.4801 -0.3321 -0.0933
 6925SOL    HW132408   1.124   4.360   4.984  2.4448  1.4027 -0.5070
 6925SOL    HW232409   1.242   4.383   5.072  0.5993  0.1087 -1.7639
 6926SOL     OW32410   2.409   4.228  17.385 -0.1025 -0.7303 -0.2514
 6926SOL    HW132411   2.337   4.218  17.447 -1.5162  1.2386 -1.5746
 6926SOL    HW232412   2.482   4.203  17.441 -1.2169 -1.4628  0.8679
 6927SOL     OW32413   0.182   4.087   7.369 -0.1373  0.0017  0.1360
 6927SOL    HW132414   0.133   4.146   7.312  0.1715  0.4248  0.3077
 6927SOL    HW232415   0.260   4.072   7.317  0.6422  0.8726  1.0566
 6928SOL     OW32416   4.156   0.540   6.200 -0.3382  0.3666  0.9747
 6928SOL    HW132417   4.160   0.483   6.277  0.2176  0.2183  0.8354
 6928SOL    HW232418   4.240   0.585   6.202  0.8010 -1.6405 -2.1812
 6929SOL     OW32419   0.612   2.482   2.069 -0.3966  0.1811  0.2500
 6929SOL    HW132420   0.536   2.540   2.070 -0.7685 -0.3278  0.7941
 6929SOL    HW232421   0.619   2.470   2.163  2.5956  0.6732  0.0824
 6930SOL     OW32422   1.968   2.174  15.384  0.2996  0.7066 -0.1155
 6930SOL    HW132423   1.894   2.119  15.410  1.3798 -1.1102 -0.8139
 6930SOL    HW232424   2.041   2.112  15.376 -1.8526 -1.7055 -0.8991
 6931SOL     OW32425   1.926   0.027   3.234  0.1761 -0.3892 -0.3380
 6931SOL    HW132426   1.940   0.103   3.177 -0.1600 -1.0343 -1.2699
 6931SOL    HW232427   1.970   4.688   3.192 -0.2083 -0.3564 -0.8040
 6932SOL     OW32428   0.515   1.469  13.526 -0.0081 -0.0779 -0.1361
 6932SOL    HW132429   0.474   1.394  13.569  1.6471  0.3795  2.2443
 6932SOL    HW232430   0.546   1.510  13.607 -1.7445  1.9187 -0.4668
 6933SOL     OW32431   1.595   4.028   4.469 -0.7695 -0.5783 -0.2841
 6933SOL    HW132432   1.532   3.976   4.418 -0.3435  1.0359 -2.4376
 6933SOL    HW232433   1.671   4.009   4.414  0.0602  1.4101  0.1693
 6934SOL     OW32434   1.741   3.080   9.730  0.0945 -0.1321  0.1460
 6934SOL    HW132435   1.773   3.060   9.818 -0.0473 -2.1217 -0.2544
 6934SOL    HW232436   1.718   3.173   9.733 -3.4398 -1.0066  0.2435
 6935SOL     OW32437   2.105   2.008   8.528  0.4466 -0.1410 -1.0094
 6935SOL    HW132438   2.147   1.997   8.613  0.1988 -2.3549 -1.1920
 6935SOL    HW232439   2.076   1.922   8.498 -2.4525  0.2875  0.5946
 6936SOL     OW32440   2.313   3.127   4.461  0.3290  0.7577  0.3770
 6936SOL    HW132441   2.373   3.072   4.512  0.0641  1.9667  1.9770
 6936SOL    HW232442   2.366   3.150   4.384 -1.5738 -0.0046 -1.1366
 6937SOL     OW32443   0.575   0.259  12.980 -0.3485  0.0548  0.4336
 6937SOL    HW132444   0.634   0.320  13.023 -0.2158 -0.3695  0.8477
 6937SOL    HW232445   0.497   0.267  13.035  0.4510  1.2063  1.3665
 6938SOL     OW32446   1.513   4.456  17.718  0.5854  0.1275 -0.2009
 6938SOL    HW132447   1.555   4.527  17.669  0.0070  0.4689 -0.2006
 6938SOL    HW232448   1.428   4.499  17.730  1.0218  0.4223  1.8302
 6939SOL     OW32449   4.597   3.824   8.419 -0.1752  0.3228 -0.3268
 6939SOL    HW132450   4.520   3.839   8.364 -0.4595  2.3694  0.6278
 6939SOL    HW232451   4.593   3.729   8.433 -0.1995  0.2101 -1.0870
 6940SOL     OW32452   3.574   3.092   6.259  0.0622 -0.1288  0.5395
 6940SOL    HW132453   3.547   3.171   6.306  0.9952  1.3311 -1.3838
 6940SOL    HW232454   3.494   3.059   6.218  1.1795 -0.2173 -1.5935
 6941SOL     OW32455   1.672   4.062   4.751 -0.1212 -0.6623  0.1173
 6941SOL    HW132456   1.652   4.102   4.667  1.2525  0.9434  0.5669
 6941SOL    HW232457   1.674   3.969   4.728  0.9636 -0.9680  1.4094
 6942SOL     OW32458   0.985   0.677  15.765 -0.1330  0.3505  0.5058
 6942SOL    HW132459   0.988   0.755  15.820  0.6804 -0.0977  1.0978
 6942SOL    HW232460   0.892   0.671  15.743  0.2871  0.2087 -1.2850
 6943SOL     OW32461   1.234   4.501  14.030 -0.3699 -0.2635  0.4553
 6943SOL    HW132462   1.165   4.435  14.040  1.1137 -1.8222  0.3404
 6943SOL    HW232463   1.265   4.495  14.120 -0.4754  1.9279  0.6309
 6944SOL     OW32464   2.067   2.682   8.002 -0.3362  0.0099 -0.2031
 6944SOL    HW132465   2.078   2.733   8.082 -0.8471 -0.1833 -0.0118
 6944SOL    HW232466   1.972   2.682   8.000 -0.3449 -0.9272  0.2879
 6945SOL     OW32467   1.714   3.092   2.663 -0.8333 -0.0848  0.0013
 6945SOL    HW132468   1.660   3.030   2.615 -0.1237 -1.3478  0.8380
 6945SOL    HW232469   1.651   3.160   2.687 -0.1064 -0.0874  1.9498
 6946SOL     OW32470   1.864   0.001   4.777 -0.2132  0.1475  0.4366
 6946SOL    HW132471   1.906   0.073   4.823  2.2516 -1.4699  0.7089
 6946SOL    HW232472   1.871   4.663   4.839 -0.5905  0.4027  0.7744
 6947SOL     OW32473   3.702   2.539   6.534  0.1227 -0.5093 -0.3428
 6947SOL    HW132474   3.730   2.469   6.593 -0.5227  1.7618  2.6477
 6947SOL    HW232475   3.654   2.589   6.600  0.3344 -1.7204  0.7315
 6948SOL     OW32476   1.864   3.630  17.544 -0.1873  0.2553 -0.3355
 6948SOL    HW132477   1.829   3.569  17.479  0.4731  0.8208 -1.2271
 6948SOL    HW232478   1.957   3.610  17.537 -0.0235  0.5332  1.0747
 6949SOL     OW32479   3.029   4.047   4.958 -0.4215 -0.1381  0.8856
 6949SOL    HW132480   3.103   3.989   4.976  1.0302  1.3580 -0.2332
 6949SOL    HW232481   3.018   4.089   5.043  2.5935 -0.1218  1.2777
 6950SOL     OW32482   0.491   1.743   3.606  0.0063  0.5600  0.5105
 6950SOL    HW132483   0.553   1.765   3.537  0.3334  2.1421  1.3096
 6950SOL    HW232484   0.507   1.810   3.672  0.2178 -0.6810  1.7279
 6951SOL     OW32485   0.833   4.605   7.909 -0.8749 -0.1374  0.3382
 6951SOL    HW132486   0.770   4.662   7.954 -0.7188 -0.0590  0.4549
 6951SOL    HW232487   0.901   4.593   7.975  0.4216 -0.3892 -1.0494
 6952SOL     OW32488   2.424   3.957  10.462 -0.2035 -0.3361  0.6242
 6952SOL    HW132489   2.509   3.947  10.506 -0.7183  2.1651  2.2278
 6952SOL    HW232490   2.433   4.007  10.381 -0.6615 -0.3564  0.5607
 6953SOL     OW32491   1.408   3.683   1.895 -0.2237  0.0769 -0.9727
 6953SOL    HW132492   1.450   3.647   1.818 -1.0764 -0.0624 -1.3735
 6953SOL    HW232493   1.318   3.673   1.863 -0.5817  0.1070  0.0188
 6954SOL     OW32494   1.573   0.893   6.389 -0.4472  0.8725  0.1154
 6954SOL    HW132495   1.626   0.880   6.467 -0.3294 -0.1891 -0.1361
 6954SOL    HW232496   1.619   0.829   6.334  0.3602  0.7428  0.9453
 6955SOL     OW32497   1.542   1.154   7.117  0.0813  0.5815 -0.3852
 6955SOL    HW132498   1.616   1.211   7.093 -0.1620  1.8588  1.8626
 6955SOL    HW232499   1.484   1.219   7.157 -0.1997 -0.9146  1.6143
 6956SOL     OW32500   2.452   1.156   4.879  0.0934 -0.5398  0.9360
 6956SOL    HW132501   2.438   1.066   4.908 -1.0628 -1.2142 -1.7376
 6956SOL    HW232502   2.402   1.147   4.797  1.2773 -0.2709  0.1800
 6957SOL     OW32503   0.820   1.393   4.429 -0.4227 -0.2305  0.2049
 6957SOL    HW132504   0.734   1.424   4.460 -0.4505  0.4258 -0.5389
 6957SOL    HW232505   0.800   1.309   4.389  0.4944 -0.8696  1.0769
 6958SOL     OW32506   3.726   2.070   6.086  0.7149 -0.3976  0.1401
 6958SOL    HW132507   3.809   2.093   6.126  0.8101  0.3193 -0.4638
 6958SOL    HW232508   3.742   1.980   6.059  2.3313  0.4542 -1.7752
 6959SOL     OW32509   1.059   2.751   2.749 -0.0076 -0.0633  0.1529
 6959SOL    HW132510   1.148   2.715   2.750  0.1472  0.3054 -0.8758
 6959SOL    HW232511   1.037   2.745   2.657  0.3433 -0.4401  0.0890
 6960SOL     OW32512   2.925   3.250  12.174 -0.2456 -0.3305  0.0024
 6960SOL    HW132513   3.014   3.277  12.150 -0.4326  1.0507  0.8302
 6960SOL    HW232514   2.936   3.199  12.254 -1.9366 -1.5539 -0.5581
 6961SOL     OW32515   3.442   2.364   5.819 -0.2365 -0.3505  0.2321
 6961SOL    HW132516   3.440   2.333   5.729 -2.4532 -1.8405  0.7867
 6961SOL    HW232517   3.521   2.330   5.861 -0.0845 -0.8954 -0.5041
 6962SOL     OW32518   0.120   3.512   1.864 -0.1586  0.2326  0.7156
 6962SOL    HW132519   0.056   3.454   1.905 -0.0196 -0.6115 -0.2398
 6962SOL    HW232520   0.142   3.562   1.942  1.2807  1.2864 -0.3675
 6963SOL     OW32521   2.180   2.982  12.185 -0.7441 -0.0001  0.5749
 6963SOL    HW132522   2.254   2.979  12.245 -2.1441 -0.1365  2.3037
 6963SOL    HW232523   2.227   2.942  12.112 -0.5662  1.2012  0.0416
 6964SOL     OW32524   3.413   1.561   5.981 -0.4144  0.0305 -0.1433
 6964SOL    HW132525   3.348   1.630   5.969 -1.0107 -0.7786 -1.5998
 6964SOL    HW232526   3.359   1.493   6.021  0.4625  0.4574  1.7474
 6965SOL     OW32527   3.861   2.022   2.072 -0.3424  0.3874  0.2913
 6965SOL    HW132528   3.785   1.991   2.121 -0.0133  0.9471  1.1637
 6965SOL    HW232529   3.868   1.953   2.006  0.7048  1.0354 -0.2885
 6966SOL     OW32530   4.522   4.069  10.680  0.1528  0.4365 -0.0819
 6966SOL    HW132531   4.496   4.093  10.769 -1.1471  0.1839 -0.3955
 6966SOL    HW232532   4.470   3.988  10.672  1.1705 -0.1626 -0.5950
 6967SOL     OW32533   2.034   4.673   2.907 -0.2334  0.3065  0.1952
 6967SOL    HW132534   2.081   0.019   2.928  0.5668  0.1330 -0.8956
 6967SOL    HW232535   1.953   4.709   2.871 -0.9684 -0.3458  1.1823
 6968SOL     OW32536   3.467   1.668   9.690 -0.4242  0.1511 -0.6204
 6968SOL    HW132537   3.391   1.618   9.720  0.0284 -0.7354 -0.9445
 6968SOL    HW232538   3.442   1.758   9.711 -0.8097 -0.1300  0.1256
 6969SOL     OW32539   2.364   0.950   0.638 -0.2840 -0.1863  0.0063
 6969SOL    HW132540   2.311   0.887   0.688 -3.2246  0.5361 -2.2289
 6969SOL    HW232541   2.334   1.032   0.676 -0.2825  0.1881 -0.7970
 6970SOL     OW32542   4.501   4.597   6.362  0.5651 -0.0134 -0.1268
 6970SOL    HW132543   4.539   4.681   6.335 -2.7314  2.2626  2.2698
 6970SOL    HW232544   4.463   4.623   6.446 -2.2487 -1.7287 -0.8946
 6971SOL     OW32545   2.700   3.804  13.117 -0.3452 -0.4782  0.1732
 6971SOL    HW132546   2.768   3.837  13.058 -1.1037 -0.0459 -0.4524
 6971SOL    HW232547   2.634   3.866  13.086  1.9365  1.4016 -0.8798
 6972SOL     OW32548   1.198   0.866  10.653  0.1444 -0.0500 -0.4603
 6972SOL    HW132549   1.233   0.901  10.735  0.8182  0.1197 -0.8252
 6972SOL    HW232550   1.106   0.892  10.657  0.2890  0.3432  0.3747
 6973SOL     OW32551   3.838   3.800   5.033 -0.0840  0.1907 -0.0024
 6973SOL    HW132552   3.745   3.787   5.049 -0.2788  3.1323  1.1784
 6973SOL    HW232553   3.855   3.724   4.977  0.1122  1.4034 -1.5857
 6974SOL     OW32554   1.400   4.646   1.154  0.2716  0.2122  0.0014
 6974SOL    HW132555   1.492   4.619   1.163  0.1664  0.0491  0.5947
 6974SOL    HW232556   1.394   4.711   1.085  0.7517  0.6139  0.3375
 6975SOL     OW32557   0.713   3.511   4.980 -0.5068  0.4105  0.2122
 6975SOL    HW132558   0.725   3.512   5.075 -2.3569  1.1253  0.4303
 6975SOL    HW232559   0.624   3.543   4.965  0.2767  3.2451  1.7377
 6976SOL     OW32560   4.274   2.369   5.768  0.2660  0.1003  0.0748
 6976SOL    HW132561   4.180   2.364   5.783  0.4377 -0.6801  0.8745
 6976SOL    HW232562   4.290   2.275   5.758  0.4480  0.1255  0.1266
 6977SOL     OW32563   3.849   0.346  16.570 -0.3294 -0.3958 -0.0462
 6977SOL    HW132564   3.756   0.366  16.574 -1.1908 -4.5333  0.5433
 6977SOL    HW232565   3.890   0.422  16.612  2.3124 -2.9352  1.9319
 6978SOL     OW32566   0.740   2.573   9.093 -0.1395 -0.3353 -0.2485
 6978SOL    HW132567   0.812   2.627   9.125 -0.8216  1.5323 -1.8687
 6978SOL    HW232568   0.698   2.636   9.035  1.2953 -1.9228 -2.9890
 6979SOL     OW32569   3.838   1.367   3.580  0.1389 -0.0186  0.1379
 6979SOL    HW132570   3.795   1.297   3.531 -0.5128  0.1775  0.4244
 6979SOL    HW232571   3.852   1.437   3.516 -0.0195 -0.1517 -0.0392
 6980SOL     OW32572   3.163   3.618   5.555 -0.4841 -0.0346 -0.0069
 6980SOL    HW132573   3.129   3.707   5.569  0.2987  0.5231 -1.6750
 6980SOL    HW232574   3.101   3.575   5.496  1.3787 -0.4863 -1.6333
 6981SOL     OW32575   3.111   0.482   2.495  0.0867  0.2247 -0.2096
 6981SOL    HW132576   3.128   0.396   2.534 -1.3682  0.7891  1.6850
 6981SOL    HW232577   3.172   0.534   2.546 -0.6744 -0.3197  1.2463
 6982SOL     OW32578   1.238   2.106   0.660  0.3162 -0.0120 -0.2582
 6982SOL    HW132579   1.264   2.086   0.750  0.5430  0.8425 -0.1353
 6982SOL    HW232580   1.234   2.014   0.633 -1.3157 -1.0170  3.3723
 6983SOL     OW32581   4.644   0.202  17.391 -0.2337  0.4020  0.1793
 6983SOL    HW132582   4.676   0.248  17.313  1.2057  0.6335  0.9063
 6983SOL    HW232583   4.686   0.258  17.456  1.1631 -1.4872  0.9101
 6984SOL     OW32584   2.731   3.012   2.221 -0.4756 -0.1711  0.2437
 6984SOL    HW132585   2.792   2.949   2.260 -3.4848 -3.8422 -0.9597
 6984SOL    HW232586   2.693   2.957   2.152 -2.6616  0.7187  0.7447
 6985SOL     OW32587   2.614   1.444   5.473 -0.2068  0.0784 -0.1384
 6985SOL    HW132588   2.522   1.470   5.481 -0.3104 -0.7394  1.2973
 6985SOL    HW232589   2.634   1.455   5.380  0.4223 -0.8224 -0.1107
 6986SOL     OW32590   1.775   4.195  13.398 -0.5720 -0.0952 -0.3958
 6986SOL    HW132591   1.732   4.194  13.313  0.6065  1.6722 -1.0126
 6986SOL    HW232592   1.697   4.169  13.446 -0.1751  0.1693  0.3944
 6987SOL     OW32593   0.207   1.954   0.057 -0.0080 -0.8166  0.7763
 6987SOL    HW132594   0.185   2.030   0.003  1.9083 -0.8601 -0.0618
 6987SOL    HW232595   0.286   1.982   0.102 -2.0194  2.9489  2.0271
 6988SOL     OW32596   3.449   1.156   6.579 -0.0084  0.0583 -0.2786
 6988SOL    HW132597   3.533   1.118   6.550 -0.9972 -0.8829 -1.9124
 6988SOL    HW232598   3.413   1.187   6.496 -3.9232 -0.4233  1.2531
 6989SOL     OW32599   2.895   2.539   9.326 -0.4451  0.0530 -0.1320
 6989SOL    HW132600   2.927   2.629   9.323  1.4233 -0.5624  1.4021
 6989SOL    HW232601   2.964   2.491   9.280 -0.4301 -2.0638  2.1107
 6990SOL     OW32602   4.657   1.425   0.518  0.5360  0.1580 -0.6414
 6990SOL    HW132603   0.015   1.450   0.529  0.7866  0.2068 -2.8735
 6990SOL    HW232604   4.638   1.368   0.593 -0.7784  2.0278  0.4462
 6991SOL     OW32605   1.900   3.247   4.945  0.4120 -0.5703  0.7612
 6991SOL    HW132606   1.830   3.219   4.886 -1.4458  1.3620  2.0187
 6991SOL    HW232607   1.973   3.265   4.886  0.0647 -0.5264  0.3453
 6992SOL     OW32608   1.000   2.946   7.953  0.7988  0.2141  0.0368
 6992SOL    HW132609   1.034   3.023   7.909  1.1659  0.8035  1.3483
 6992SOL    HW232610   0.945   2.988   8.019  0.7666  3.4879 -2.1240
 6993SOL     OW32611   0.012   3.382  11.884  0.3994 -0.1797 -0.0121
 6993SOL    HW132612   0.030   3.400  11.792  0.7788 -0.0933  0.0775
 6993SOL    HW232613   0.030   3.469  11.919 -0.2477 -0.2900  0.6089
 6994SOL     OW32614   1.561   2.419   9.197 -0.3230 -0.1526 -0.2718
 6994SOL    HW132615   1.655   2.406   9.214  0.3307  0.5917 -3.3635
 6994SOL    HW232616   1.566   2.423   9.102 -1.0189  0.4812 -0.2810
 6995SOL     OW32617   4.619   2.601   0.290  0.5266 -0.4152 -0.2383
 6995SOL    HW132618   4.591   2.554   0.212 -1.3919 -0.3743  0.4170
 6995SOL    HW232619   4.550   2.564   0.346 -0.3040  0.2615 -0.8155
 6996SOL     OW32620   1.881   4.135  17.541 -0.2340  1.1660  0.0486
 6996SOL    HW132621   1.932   4.078  17.483  1.3750  2.1558  0.5179
 6996SOL    HW232622   1.858   4.082  17.617 -2.6597 -0.7039 -1.9897
 6997SOL     OW32623   2.084   2.462   4.764  0.0072  0.1675  0.0769
 6997SOL    HW132624   2.069   2.556   4.757 -2.2578 -0.1259  0.8511
 6997SOL    HW232625   2.059   2.436   4.676  0.2665 -2.5631  0.8041
 6998SOL     OW32626   3.207   2.823   6.934 -0.0070 -0.0133 -0.0191
 6998SOL    HW132627   3.230   2.740   6.974 -0.8916 -1.4294 -2.4447
 6998SOL    HW232628   3.227   2.806   6.842  1.8040 -2.6893  0.8801
 6999SOL     OW32629   0.754   2.966   5.095 -0.1105 -0.0393 -0.0650
 6999SOL    HW132630   0.751   3.060   5.076  0.6506 -0.4469 -2.1706
 6999SOL    HW232631   0.684   2.958   5.160  0.9765 -3.5595  0.6905
 7000SOL     OW32632   0.255   3.139   4.780  0.1173  0.5598 -0.2047
 7000SOL    HW132633   0.211   3.075   4.835  3.8510 -0.6014  1.4420
 7000SOL    HW232634   0.225   3.105   4.695  0.5064 -1.1271  0.3248
 7001SOL     OW32635   2.673   2.348   6.318 -0.0661 -0.0475  0.1318
 7001SOL    HW132636   2.748   2.365   6.376 -0.4444  1.0452  0.3035
 7001SOL    HW232637   2.611   2.409   6.359  1.6454  1.5790  0.3253
 7002SOL     OW32638   1.589   0.552  13.316  0.2185 -0.4722  0.4279
 7002SOL    HW132639   1.514   0.498  13.292  1.2469 -2.1187  0.9096
 7002SOL    HW232640   1.563   0.587  13.401 -1.6833  1.9353 -1.1388
 7003SOL     OW32641   0.722   1.494   6.478 -0.5863 -0.3858 -0.0472
 7003SOL    HW132642   0.669   1.496   6.398 -0.6569  0.2856  0.0135
 7003SOL    HW232643   0.759   1.407   6.466  0.4722  0.0752 -0.1854
 7004SOL     OW32644   1.226   3.443   7.672 -0.2235 -0.1971 -0.0203
 7004SOL    HW132645   1.162   3.471   7.607 -1.0119 -0.2093  0.7413
 7004SOL    HW232646   1.254   3.365   7.624 -2.4673 -1.8822  1.3589
 7005SOL     OW32647   4.110   2.983  13.102 -0.4615  0.0706 -0.3191
 7005SOL    HW132648   4.047   2.932  13.152  1.4564  0.3241  2.3480
 7005SOL    HW232649   4.175   2.917  13.078  1.3299  0.8163  2.4817
 7006SOL     OW32650   3.745   4.247  10.285  0.2741  0.4969 -0.5086
 7006SOL    HW132651   3.816   4.292  10.238 -0.2087 -0.1575 -1.8586
 7006SOL    HW232652   3.711   4.315  10.344  0.1915 -2.9621  3.4440
 7007SOL     OW32653   2.083   3.852   3.167 -0.2682  0.7310  0.1877
 7007SOL    HW132654   2.144   3.862   3.241  0.8622  0.2577 -0.6799
 7007SOL    HW232655   2.042   3.937   3.184 -0.9851  0.5743 -0.8136
 7008SOL     OW32656   1.456   0.028  11.381 -0.0391  0.3833 -0.5087
 7008SOL    HW132657   1.536   0.028  11.433 -0.9782 -0.1066  0.9487
 7008SOL    HW232658   1.482   0.083  11.306  3.0522  0.1198  0.3797
 7009SOL     OW32659   4.021   2.221   7.188 -0.1283 -0.0553  0.7270
 7009SOL    HW132660   4.004   2.127   7.199 -0.3006 -0.1754 -0.6119
 7009SOL    HW232661   3.929   2.247   7.193  0.1590  0.5399  2.7732
 7010SOL     OW32662   1.288   1.960  15.129 -0.5765  0.1340  0.0648
 7010SOL    HW132663   1.272   1.865  15.127  0.1944 -0.0392  1.8048
 7010SOL    HW232664   1.340   1.973  15.050 -1.3040  0.3983 -0.3685
 7011SOL     OW32665   1.709   0.136   9.752 -0.1119 -0.0182 -0.5089
 7011SOL    HW132666   1.638   0.138   9.816 -0.6925  2.0351 -1.2285
 7011SOL    HW232667   1.662   0.120   9.670  0.2394 -3.4696 -0.0594
 7012SOL     OW32668   0.772   2.324   7.992  0.1886  0.0402 -0.0982
 7012SOL    HW132669   0.732   2.388   8.051  1.2182 -0.4019  1.0860
 7012SOL    HW232670   0.771   2.372   7.909  0.2003  1.0584  0.4810
 7013SOL     OW32671   0.785   1.730  12.050  0.0275 -0.0808  0.4260
 7013SOL    HW132672   0.754   1.650  12.007  0.3083 -0.0459  0.1504
 7013SOL    HW232673   0.827   1.707  12.133  0.3055  0.0555  0.3268
 7014SOL     OW32674   4.473   2.985   7.765  0.4008  0.1315  0.0505
 7014SOL    HW132675   4.525   3.003   7.688  2.6762  1.5585  1.9183
 7014SOL    HW232676   4.513   2.902   7.794 -0.8168 -0.4218  0.1718
 7015SOL     OW32677   1.446   4.561  11.131  0.0716  0.9279  0.0813
 7015SOL    HW132678   1.479   4.556  11.220  1.1915  1.3092 -0.3198
 7015SOL    HW232679   1.367   4.507  11.137  0.2784  0.5462 -0.5811
 7016SOL     OW32680   4.492   0.687   8.615  0.2579 -0.3469  0.1303
 7016SOL    HW132681   4.572   0.643   8.643 -0.1863 -0.5792  1.0556
 7016SOL    HW232682   4.476   0.748   8.688  1.0558 -1.2380  1.0413
 7017SOL     OW32683   4.369   0.195  16.218 -0.4008  0.5036 -0.1916
 7017SOL    HW132684   4.401   0.265  16.160  0.4098 -0.3877 -0.8359
 7017SOL    HW232685   4.400   0.234  16.299 -1.8282 -1.5127  1.3243
 7018SOL     OW32686   2.810   0.630   0.847  0.1466  0.4827  0.3311
 7018SOL    HW132687   2.874   0.686   0.802  0.8893  1.4440  2.5981
 7018SOL    HW232688   2.839   0.542   0.823 -1.6781 -0.7650  2.6424
 7019SOL     OW32689   3.144   3.815   9.923 -0.0369 -0.5478  0.1412
 7019SOL    HW132690   3.049   3.804   9.916 -0.2411  0.1299  1.6748
 7019SOL    HW232691   3.146   3.907   9.950  0.3237 -0.2356 -0.9466
 7020SOL     OW32692   2.241   1.156   0.769  1.0134  0.0085 -0.5590
 7020SOL    HW132693   2.225   1.185   0.858 -0.9330 -0.0581 -0.8847
 7020SOL    HW232694   2.153   1.142   0.735  0.4899 -0.2695  0.9321
 7021SOL     OW32695   3.624   0.719   5.533  0.2405 -0.7843 -0.1853
 7021SOL    HW132696   3.568   0.732   5.457 -1.0341  0.3206  0.9500
 7021SOL    HW232697   3.566   0.725   5.609  1.3344 -0.2473  0.6216
 7022SOL     OW32698   1.966   3.814   2.425 -0.5565  0.5811 -0.2784
 7022SOL    HW132699   1.936   3.743   2.369  1.5461  0.1617 -0.8806
 7022SOL    HW232700   1.924   3.794   2.509  0.8798  0.9730  0.5485
 7023SOL     OW32701   2.522   4.293   2.207  0.0511 -0.6753  0.3340
 7023SOL    HW132702   2.502   4.372   2.156  1.6545  0.5057  1.5714
 7023SOL    HW232703   2.436   4.283   2.249  1.0248  0.6664  2.6032
 7024SOL     OW32704   4.677   3.010  10.244  0.0610 -0.2180 -0.1631
 7024SOL    HW132705   0.030   2.975  10.227 -0.6859 -2.1554 -0.0452
 7024SOL    HW232706   4.679   3.055  10.329  0.8689  1.7404 -1.2160
 7025SOL     OW32707   2.314   1.779  12.066  0.1244 -0.4059 -0.2017
 7025SOL    HW132708   2.346   1.819  11.985  0.0199  0.6400  0.2751
 7025SOL    HW232709   2.221   1.794  12.048  0.2732 -0.3990 -0.9492
 7026SOL     OW32710   4.557   1.980   6.168  0.1465  0.5389 -0.3364
 7026SOL    HW132711   4.642   1.993   6.211 -0.9333 -0.2728  2.0857
 7026SOL    HW232712   4.553   1.884   6.176  1.4573  0.4846 -0.2799
 7027SOL     OW32713   1.680   3.084   4.156 -0.5629 -0.1990 -0.0145
 7027SOL    HW132714   1.629   3.004   4.171  0.3730 -0.9095 -0.6271
 7027SOL    HW232715   1.694   3.120   4.243 -1.2047 -1.2264  0.5254
 7028SOL     OW32716   2.674   1.387   7.332  0.5277 -0.6630  0.1056
 7028SOL    HW132717   2.741   1.403   7.265  1.2288 -0.0745  0.9476
 7028SOL    HW232718   2.627   1.319   7.285 -0.6895  0.6452 -0.5658
 7029SOL     OW32719   2.598   3.950   9.558 -0.4547 -0.0780  0.2547
 7029SOL    HW132720   2.626   4.037   9.530 -1.0712 -0.4227 -1.4146
 7029SOL    HW232721   2.686   3.919   9.580  0.1107  1.7188  0.4791
 7030SOL     OW32722   2.759   0.060  10.857  0.0534 -1.0240 -0.3499
 7030SOL    HW132723   2.794   4.726  10.915  0.9826 -0.1644  0.0865
 7030SOL    HW232724   2.819   0.133  10.866 -2.3071  0.7926  0.5161
 7031SOL     OW32725   4.698   2.927   9.371  0.4151  0.6639 -0.4230
 7031SOL    HW132726   4.708   2.845   9.419 -0.0137  0.3785 -0.8211
 7031SOL    HW232727   4.635   2.902   9.304 -0.2175  0.3122  0.3049
 7032SOL     OW32728   4.608   4.394  11.077 -0.3029  0.3996  0.3382
 7032SOL    HW132729   4.686   4.340  11.093 -0.2521 -0.4846 -2.8161
 7032SOL    HW232730   4.559   4.376  11.157  0.8710  1.2499  1.2439
 7033SOL     OW32731   0.046   4.118   7.863  0.1232  0.2360  0.0054
 7033SOL    HW132732   0.080   4.063   7.792 -0.5892 -2.9080  2.0646
 7033SOL    HW232733   4.688   4.094   7.854  0.1480 -0.6703  2.1590
 7034SOL     OW32734   2.517   1.704  13.520 -0.4423  0.0987 -0.2790
 7034SOL    HW132735   2.432   1.664  13.534  0.2228 -1.2996 -0.2264
 7034SOL    HW232736   2.487   1.794  13.514 -0.4455  0.1288  0.1729
 7035SOL     OW32737   4.212   3.260   5.058 -0.9067 -0.3834 -0.2929
 7035SOL    HW132738   4.168   3.251   5.143 -1.3835 -0.0675 -0.5078
 7035SOL    HW232739   4.217   3.166   5.037  0.2131 -1.2498  3.9112
 7036SOL     OW32740   0.845   0.006   9.265  0.5038  0.6531  0.7251
 7036SOL    HW132741   0.874   0.096   9.249  0.6537  0.5752  0.5615
 7036SOL    HW232742   0.909   4.682   9.223 -1.4348  0.3257 -1.7217
 7037SOL     OW32743   1.422   0.694  10.112  0.1006 -0.1915  0.7645
 7037SOL    HW132744   1.515   0.691  10.088 -0.1543 -0.5691 -0.1607
 7037SOL    HW232745   1.413   0.790  10.106 -2.1667 -0.5191 -1.1828
 7038SOL     OW32746   3.537   4.473   7.278  0.2710 -0.0521  0.7705
 7038SOL    HW132747   3.454   4.521   7.276 -0.5309 -1.4162  1.5945
 7038SOL    HW232748   3.503   4.384   7.278 -1.0839  0.4763  0.5884
 7039SOL     OW32749   4.730   0.364   3.610  0.8726 -0.1031 -0.2282
 7039SOL    HW132750   4.725   0.301   3.538 -1.5566 -1.3602  1.0627
 7039SOL    HW232751   4.692   0.443   3.571  1.6549  0.6778  0.5930
 7040SOL     OW32752   0.126   3.133   1.345 -0.0522  0.0013  0.7874
 7040SOL    HW132753   0.114   3.199   1.277  0.6425 -2.1829 -1.4553
 7040SOL    HW232754   0.220   3.114   1.341 -0.2417 -0.9981  1.1313
 7041SOL     OW32755   0.595   2.788   7.185 -0.0910 -0.1407  0.2301
 7041SOL    HW132756   0.605   2.844   7.108 -0.9430  1.5632  1.3622
 7041SOL    HW232757   0.644   2.830   7.256  2.6998 -0.1151 -1.7459
 7042SOL     OW32758   3.353   3.618  11.282  0.2529 -0.1924  0.1339
 7042SOL    HW132759   3.261   3.589  11.280  0.2665 -0.2847  1.1534
 7042SOL    HW232760   3.384   3.595  11.369  3.4348 -2.5338 -1.6224
 7043SOL     OW32761   1.231   2.833   8.258  0.6320  0.2040  0.1111
 7043SOL    HW132762   1.148   2.876   8.239  0.7260  0.9286  1.3298
 7043SOL    HW232763   1.269   2.895   8.320  0.9307  0.0225  0.1136
 7044SOL     OW32764   3.471   1.049  11.628 -0.2378 -0.0061  0.6812
 7044SOL    HW132765   3.526   1.127  11.630 -1.7544  1.0793 -0.5374
 7044SOL    HW232766   3.506   0.998  11.702 -1.0956 -1.0978  0.3309
 7045SOL     OW32767   3.302   2.732   4.467  0.0635 -0.3484  0.2390
 7045SOL    HW132768   3.258   2.814   4.487  2.2152  0.5890  1.0757
 7045SOL    HW232769   3.363   2.727   4.541 -0.1360  2.1155  0.5721
 7046SOL     OW32770   0.239   1.690   1.977 -0.3371 -0.1316 -0.0488
 7046SOL    HW132771   0.242   1.720   2.067 -0.7033  1.5017 -0.5831
 7046SOL    HW232772   0.272   1.601   1.990  0.1709 -0.0177 -0.5516
 7047SOL     OW32773   1.750   2.973  16.877 -0.4017  0.3237  0.6009
 7047SOL    HW132774   1.694   3.016  16.812  1.7822  1.1898 -0.7204
 7047SOL    HW232775   1.835   3.008  16.849  0.0700  0.2249  1.9212
 7048SOL     OW32776   4.471   2.913  13.055  0.0727  0.4154  0.5200
 7048SOL    HW132777   4.414   2.869  13.118  0.9083 -2.8369 -0.9900
 7048SOL    HW232778   4.553   2.928  13.102 -0.8723 -1.5196  2.7655
 7049SOL     OW32779   0.414   2.567   3.358 -0.4407  0.0269 -0.3610
 7049SOL    HW132780   0.376   2.541   3.274 -1.6083 -1.3182  0.5663
 7049SOL    HW232781   0.464   2.489   3.381 -0.1812  0.4357  0.4446
 7050SOL     OW32782   1.744   3.175   3.688 -0.7701 -0.3126 -0.1801
 7050SOL    HW132783   1.749   3.111   3.759  0.8085 -0.0846 -0.0839
 7050SOL    HW232784   1.649   3.178   3.678 -0.8959 -1.8901  0.4726
 7051SOL     OW32785   0.858   2.148   9.107 -0.3982  0.2712 -0.0734
 7051SOL    HW132786   0.888   2.169   9.196 -2.3833  2.1262  0.1603
 7051SOL    HW232787   0.938   2.152   9.055 -0.5217  1.3639 -0.1907
 7052SOL     OW32788   1.843   2.641   0.935  0.9634 -0.6531  0.0511
 7052SOL    HW132789   1.783   2.642   1.009  1.4566 -0.3083  0.4509
 7052SOL    HW232790   1.791   2.599   0.867  0.8407  0.4143 -0.5156
 7053SOL     OW32791   3.418   3.985   2.618 -0.6910 -0.1133 -0.2625
 7053SOL    HW132792   3.379   4.053   2.562 -3.3009 -0.5603  0.9925
 7053SOL    HW232793   3.425   4.043   2.695  2.3807 -2.2779  1.0547
 7054SOL     OW32794   1.354   4.403   4.537  0.7192 -0.1783  0.5357
 7054SOL    HW132795   1.299   4.435   4.466  1.3394 -1.0735 -0.3372
 7054SOL    HW232796   1.425   4.369   4.484  0.8875  1.1151 -0.0613
 7055SOL     OW32797   0.278   4.066   4.655 -0.1270 -0.2523  0.3606
 7055SOL    HW132798   0.239   4.010   4.723 -0.3130 -0.4243  0.1106
 7055SOL    HW232799   0.274   4.016   4.574  1.9852  1.5591 -0.8588
 7056SOL     OW32800   2.765   4.636   9.892  0.0763  0.3849 -0.2754
 7056SOL    HW132801   2.717   4.637   9.974 -1.0262 -0.2133 -0.9240
 7056SOL    HW232802   2.845   4.588   9.914 -0.4449  0.2299  1.2317
 7057SOL     OW32803   2.340   3.301   3.083 -0.0698  0.1972  0.4144
 7057SOL    HW132804   2.325   3.390   3.114 -0.5435  1.4721 -3.4798
 7057SOL    HW232805   2.318   3.245   3.158  2.8978  0.7999  1.7193
 7058SOL     OW32806   2.993   3.527   5.038 -0.2626 -0.1724 -0.5683
 7058SOL    HW132807   2.941   3.487   4.968 -0.3723  0.7293 -1.0121
 7058SOL    HW232808   3.041   3.448   5.060 -1.2517 -1.0811 -1.6614
 7059SOL     OW32809   1.229   0.228  14.283  0.1696  0.3162 -0.6262
 7059SOL    HW132810   1.170   0.160  14.314  0.9521  0.2391  0.6452
 7059SOL    HW232811   1.242   0.194  14.194  0.0392  3.8659 -2.0305
 7060SOL     OW32812   2.141   4.715   8.932  0.0912 -0.4409 -0.3460
 7060SOL    HW132813   2.050   0.008   8.940 -0.4981 -1.7563 -2.5636
 7060SOL    HW232814   2.188   0.064   8.926  0.6262 -0.7776 -0.9094
 7061SOL     OW32815   2.177   4.465   2.811 -0.2577  0.1731  0.2789
 7061SOL    HW132816   2.128   4.545   2.833  1.2857  1.0445  0.5999
 7061SOL    HW232817   2.168   4.424   2.897  0.6504  0.4305  0.4978
 7062SOL     OW32818   1.357   3.014   5.926 -0.2020  0.0592 -0.0489
 7062SOL    HW132819   1.434   2.966   5.896  0.5233  0.3552  1.3407
 7062SOL    HW232820   1.402   3.076   5.983  2.0709 -2.3727  0.7961
 7063SOL     OW32821   2.587   3.046  16.180 -0.8227  0.4511  0.2500
 7063SOL    HW132822   2.628   3.078  16.099  0.6137 -1.0895  0.3793
 7063SOL    HW232823   2.658   2.990  16.211 -1.8844 -1.2987 -0.5126
 7064SOL     OW32824   3.778   0.908   8.467  0.2990 -0.0375  0.0699
 7064SOL    HW132825   3.867   0.941   8.455 -0.3049  1.9584  1.1146
 7064SOL    HW232826   3.726   0.960   8.529  1.0984  0.3677  0.3989
 7065SOL     OW32827   3.966   1.193   6.666 -0.2862 -0.3053  0.4313
 7065SOL    HW132828   3.953   1.278   6.623  0.1990 -0.0368  0.8313
 7065SOL    HW232829   4.018   1.130   6.616 -1.3713 -1.1806  0.3947
 7066SOL     OW32830   0.189   1.311   9.883  0.1872 -0.0533  0.1401
 7066SOL    HW132831   0.277   1.285   9.859  0.1356  0.7530 -0.9406
 7066SOL    HW232832   0.169   1.234   9.936 -0.8097 -0.2746 -0.5487
 7067SOL     OW32833   0.741   1.042   2.517  0.1702 -0.3277 -0.3309
 7067SOL    HW132834   0.699   1.101   2.579 -1.8829 -1.4059 -0.7233
 7067SOL    HW232835   0.827   1.060   2.556 -0.7292  1.3172  0.9044
 7068SOL     OW32836   1.997   1.652   0.407  0.7842 -0.3403  0.1847
 7068SOL    HW132837   1.943   1.675   0.331  1.7845  1.6441  0.0749
 7068SOL    HW232838   1.952   1.572   0.434 -0.6802  0.2610 -0.5041
 7069SOL     OW32839   1.786   2.108   0.357 -0.2982  0.2788  0.3169
 7069SOL    HW132840   1.717   2.072   0.302  0.6161  0.0756 -0.6979
 7069SOL    HW232841   1.773   2.048   0.431  0.6727 -1.2677 -0.7644
 7070SOL     OW32842   3.822   2.708   7.416 -0.5594 -0.7192  0.0552
 7070SOL    HW132843   3.746   2.765   7.408  0.2855  0.3651 -0.3061
 7070SOL    HW232844   3.779   2.624   7.426  0.3323 -1.2064 -0.2188
 7071SOL     OW32845   2.864   4.321  11.697 -0.2145  0.1176  0.3339
 7071SOL    HW132846   2.871   4.370  11.779  0.1034 -2.5941  1.8914
 7071SOL    HW232847   2.807   4.251  11.729  2.1614 -0.5688  3.0489
 7072SOL     OW32848   2.535   2.064   8.974  0.1593 -0.0596  0.1097
 7072SOL    HW132849   2.560   2.039   9.063  1.0408 -1.9806 -0.6704
 7072SOL    HW232850   2.504   1.978   8.946  0.1747 -0.5868  1.7242
 7073SOL     OW32851   2.727   0.941  10.757 -0.3146 -0.0797  0.3141
 7073SOL    HW132852   2.755   0.984  10.838 -1.4099 -2.7532  2.1020
 7073SOL    HW232853   2.636   0.918  10.774 -1.2253  2.3651 -1.2925
 7074SOL     OW32854   0.703   1.944   2.754 -0.2013 -0.4054  0.0142
 7074SOL    HW132855   0.747   1.885   2.815 -0.2254  1.7530  2.0980
 7074SOL    HW232856   0.636   1.996   2.798  0.5808 -1.4433  2.4196
 7075SOL     OW32857   2.687   1.705   8.035 -0.1398  0.1498  0.2892
 7075SOL    HW132858   2.592   1.705   8.023  0.2068  2.9764 -2.6666
 7075SOL    HW232859   2.713   1.780   7.980  0.2699 -0.4608 -0.3420
 7076SOL     OW32860   4.139   0.421   5.658 -0.1516 -0.3001 -0.2270
 7076SOL    HW132861   4.182   0.503   5.683  0.2058 -0.1037 -1.5054
 7076SOL    HW232862   4.082   0.441   5.583  0.5485  3.6056  0.2538
 7077SOL     OW32863   0.079   2.751   4.796  0.2740 -0.4362 -0.4213
 7077SOL    HW132864   0.046   2.669   4.760  1.4327 -1.1822  0.1945
 7077SOL    HW232865   0.140   2.783   4.729  1.9277  0.4268  1.5192
 7078SOL     OW32866   1.285   2.357   1.419 -0.4881 -0.7817 -0.3762
 7078SOL    HW132867   1.333   2.417   1.476 -0.6809 -0.8746 -0.1151
 7078SOL    HW232868   1.284   2.277   1.471  1.0448 -0.0109  0.8134
 7079SOL     OW32869   0.623   0.379  12.299  0.2807 -0.0432 -0.2903
 7079SOL    HW132870   0.681   0.338  12.235  0.4476 -1.4757  0.7711
 7079SOL    HW232871   0.615   0.313  12.368  1.1427 -0.1520 -0.2972
 7080SOL     OW32872   3.263   4.029  15.801 -0.0391  0.3826  0.9553
 7080SOL    HW132873   3.277   3.939  15.774  1.7073  0.8125  0.4037
 7080SOL    HW232874   3.285   4.080  15.723 -0.2378 -1.4976 -0.3295
 7081SOL     OW32875   4.495   0.944   7.693  0.1956 -0.2106  0.2079
 7081SOL    HW132876   4.512   0.858   7.655  1.1635  0.3598 -0.6448
 7081SOL    HW232877   4.460   0.921   7.779  1.8900 -2.7142  0.2312
 7082SOL     OW32878   0.535   4.330   6.209 -0.0683  0.3002 -0.7070
 7082SOL    HW132879   0.512   4.400   6.148  0.4136 -0.0247 -1.2673
 7082SOL    HW232880   0.499   4.351   6.295 -0.1328 -0.6666 -0.5018
 7083SOL     OW32881   1.799   0.356   4.469  0.2012  0.3583  0.2113
 7083SOL    HW132882   1.749   0.325   4.545 -0.1896  0.0452 -0.1702
 7083SOL    HW232883   1.771   0.310   4.390  0.1106 -0.7205  0.8692
 7084SOL     OW32884   1.691   0.952   9.979  0.2703 -0.5906 -0.0914
 7084SOL    HW132885   1.667   0.876   9.926 -1.1110  0.8498 -1.5448
 7084SOL    HW232886   1.612   0.979  10.027  0.4687  1.3929 -0.8972
 7085SOL     OW32887   3.678   2.593  15.059 -0.1855 -0.5980  0.3367
 7085SOL    HW132888   3.698   2.661  15.123  1.6751 -2.1439  1.4205
 7085SOL    HW232889   3.605   2.550  15.105  0.1206 -0.2659  1.1424
 7086SOL     OW32890   4.418   3.328   0.021 -0.1500 -0.0045  0.1931
 7086SOL    HW132891   4.474   3.295   0.091  0.2837  3.2568  1.4088
 7086SOL    HW232892   4.408   3.418   0.052  2.0442  0.8403 -1.5188
 7087SOL     OW32893   4.397   1.366   7.441  0.1042 -0.1252 -0.1561
 7087SOL    HW132894   4.418   1.324   7.358  0.6911  0.1897 -0.1645
 7087SOL    HW232895   4.393   1.296   7.506  0.2592 -1.3829 -1.5029
 7088SOL     OW32896   1.088   4.649   6.374 -0.0253  0.7258 -0.1840
 7088SOL    HW132897   1.028   4.582   6.342  0.4656 -0.7633  2.0666
 7088SOL    HW232898   1.148   4.586   6.413 -0.7575  1.6899  2.4368
 7089SOL     OW32899   4.328   3.793   4.121 -0.0890  0.2355 -0.1904
 7089SOL    HW132900   4.322   3.717   4.179  0.4917 -0.4701 -1.0536
 7089SOL    HW232901   4.246   3.788   4.071 -1.0607 -2.5605  1.6958
 7090SOL     OW32902   0.698   1.278   9.283  0.1315 -0.1971  0.0328
 7090SOL    HW132903   0.704   1.183   9.279  0.6422 -0.1777  0.3510
 7090SOL    HW232904   0.619   1.286   9.336  0.4955 -1.6943  0.7972
 7091SOL     OW32905   0.489   3.301   0.934 -0.2912  1.0113  0.3422
 7091SOL    HW132906   0.567   3.344   0.900  0.2261 -1.3572 -1.4935
 7091SOL    HW232907   0.497   3.218   0.887 -0.5734 -0.4030  2.7832
 7092SOL     OW32908   2.373   1.565   5.538  0.1962  0.3288  0.0095
 7092SOL    HW132909   2.341   1.650   5.509 -1.2376 -0.5731 -1.0609
 7092SOL    HW232910   2.291   1.517   5.545  1.2138 -1.4877 -0.3692
 7093SOL     OW32911   0.514   0.041   6.837  0.1823  0.3257 -0.2148
 7093SOL    HW132912   0.507   0.040   6.932  2.1527 -0.8638 -0.0802
 7093SOL    HW232913   0.602   0.074   6.819  0.0114  1.0094  0.2508
 7094SOL     OW32914   2.201   0.900   9.805  0.7375 -0.0462  0.3547
 7094SOL    HW132915   2.168   0.847   9.733  0.9242  0.7942 -0.3459
 7094SOL    HW232916   2.118   0.931   9.842  0.3963 -0.4173 -0.0901
 7095SOL     OW32917   2.741   2.259   3.303  0.4091 -0.3553 -0.2933
 7095SOL    HW132918   2.724   2.348   3.272  2.3177 -0.3616 -1.3564
 7095SOL    HW232919   2.723   2.211   3.222 -1.6093 -0.0454 -0.0246
 7096SOL     OW32920   1.832   1.972   4.627 -0.0901  0.2525 -0.0997
 7096SOL    HW132921   1.874   2.054   4.651  1.3932 -0.7082  0.6026
 7096SOL    HW232922   1.856   1.938   4.713 -0.5351  4.8494  1.8344
 7097SOL     OW32923   0.524   1.320  17.622  0.2251 -0.2293  0.1443
 7097SOL    HW132924   0.608   1.352  17.655 -0.3584  1.1563  0.2754
 7097SOL    HW232925   0.552   1.244  17.571 -1.1084  0.2609 -1.3210
 7098SOL     OW32926   3.064   0.519  16.061  0.4531  0.2819 -0.3229
 7098SOL    HW132927   3.060   0.468  15.981 -5.2604  0.0725  0.0429
 7098SOL    HW232928   2.984   0.490  16.106  1.0199  1.1008  1.2028
 7099SOL     OW32929   1.153   0.680   8.053 -0.2943  0.0131  0.2938
 7099SOL    HW132930   1.078   0.737   8.037 -0.6792  0.4636  3.5608
 7099SOL    HW232931   1.183   0.648   7.968 -2.3855 -0.0166 -0.4197
 7100SOL     OW32932   2.948   1.819   4.006 -0.1222  0.1172  0.0385
 7100SOL    HW132933   3.022   1.760   4.016 -0.1380  0.0021 -0.5407
 7100SOL    HW232934   2.972   1.912   4.002 -0.3493  0.2836  2.2955
 7101SOL     OW32935   1.093   1.439   5.412  0.6161 -0.2504  0.2378
 7101SOL    HW132936   1.032   1.492   5.464 -0.7901 -1.2840 -0.3593
 7101SOL    HW232937   1.135   1.489   5.343 -0.1572 -0.2278 -0.2161
 7102SOL     OW32938   4.535   3.994   3.903 -0.0008  0.0325  0.4096
 7102SOL    HW132939   4.540   4.081   3.863 -2.5095  1.0644  2.3635
 7102SOL    HW232940   4.471   3.948   3.848 -0.5425  0.6771  0.5020
 7103SOL     OW32941   3.447   1.474  12.203 -0.5025  0.2800  0.3629
 7103SOL    HW132942   3.380   1.409  12.186 -1.8861  2.0491 -0.9262
 7103SOL    HW232943   3.527   1.424  12.222 -0.1729 -0.1079 -2.0110
 7104SOL     OW32944   2.994   1.002   5.745 -0.2983  0.4574  0.3608
 7104SOL    HW132945   2.937   0.925   5.742  0.5166 -0.2063  1.4622
 7104SOL    HW232946   2.931   1.065   5.712  1.1456  1.4281 -0.5680
 7105SOL     OW32947   1.086   0.446  16.504 -0.0931 -0.1289 -0.5111
 7105SOL    HW132948   1.142   0.385  16.553 -0.3330 -0.7550 -1.0162
 7105SOL    HW232949   1.055   0.382  16.440 -0.6882 -1.3323  0.9925
 7106SOL     OW32950   1.245   4.419   7.249  0.2985 -0.0084 -0.1122
 7106SOL    HW132951   1.338   4.441   7.245  0.7499 -2.4529 -3.3575
 7106SOL    HW232952   1.220   4.491   7.307 -0.3177 -0.8425  0.6493
 7107SOL     OW32953   0.110   3.587  17.678  0.6199 -0.0855  0.1874
 7107SOL    HW132954   0.198   3.581  17.716  0.6021 -1.7026 -0.0355
 7107SOL    HW232955   0.101   3.523  17.607 -1.3723 -0.0506  0.4292
 7108SOL     OW32956   1.263   4.285  13.095 -0.7234  0.1089 -0.1561
 7108SOL    HW132957   1.251   4.379  13.108  1.2913 -0.1717  3.7060
 7108SOL    HW232958   1.172   4.265  13.076 -1.0363  0.8493  0.5648
 7109SOL     OW32959   4.171   4.454  11.238 -0.0131 -0.1811 -0.4464
 7109SOL    HW132960   4.221   4.496  11.169  0.0816 -2.2050 -1.6032
 7109SOL    HW232961   4.214   4.368  11.246  0.0878  0.0451  1.4351
 7110SOL     OW32962   0.264   3.243   6.244  0.0081 -0.3112  0.2067
 7110SOL    HW132963   0.199   3.292   6.194 -0.2007  0.1974  0.9837
 7110SOL    HW232964   0.299   3.306   6.307 -1.8854 -0.2050  1.1428
 7111SOL     OW32965   0.147   3.266   5.319 -0.5974  0.4055 -0.0322
 7111SOL    HW132966   0.051   3.272   5.326 -0.5192 -0.0771  1.4215
 7111SOL    HW232967   0.173   3.265   5.411 -0.3462  2.8519 -0.0558
 7112SOL     OW32968   2.890   2.357   7.895  0.0818  0.6792 -0.2817
 7112SOL    HW132969   2.819   2.421   7.887 -2.2688 -2.0792 -1.5646
 7112SOL    HW232970   2.965   2.416   7.902  0.6837 -0.0574 -0.4803
 7113SOL     OW32971   4.368   4.534   1.777  0.1601  0.4584  0.0232
 7113SOL    HW132972   4.289   4.483   1.759  1.2423 -1.4896  0.8503
 7113SOL    HW232973   4.430   4.475   1.735  1.5454 -1.2407  4.4471
 7114SOL     OW32974   2.686   4.660   2.810  0.3991  0.5318 -0.2278
 7114SOL    HW132975   2.682   4.606   2.731  1.7612 -2.3612  1.6974
 7114SOL    HW232976   2.611   4.622   2.856  1.0367 -0.3199  0.1007
 7115SOL     OW32977   0.143   3.073   0.261 -0.6587  1.0384  0.3804
 7115SOL    HW132978   0.175   2.983   0.254  2.3901  2.2149 -0.6314
 7115SOL    HW232979   0.131   3.105   0.171 -0.8458 -1.5285 -0.5208
 7116SOL     OW32980   2.159   2.127   8.295  0.1179 -0.5882 -0.2952
 7116SOL    HW132981   2.136   2.068   8.367  2.0678 -1.6248 -0.5163
 7116SOL    HW232982   2.113   2.206   8.321 -3.0970 -3.0016  1.3690
 7117SOL     OW32983   0.641   1.107   6.658 -0.4826 -0.6190 -0.4853
 7117SOL    HW132984   0.707   1.039   6.670 -0.6364 -0.4859  1.1168
 7117SOL    HW232985   0.678   1.161   6.589 -0.3006  0.2400  0.2857
 7118SOL     OW32986   1.613   0.821   7.665 -0.3585 -0.4248  0.1946
 7118SOL    HW132987   1.662   0.768   7.728 -1.7877 -1.8198  0.1333
 7118SOL    HW232988   1.545   0.861   7.719  0.5864  0.9946  0.3285
 7119SOL     OW32989   2.059   0.161  11.658  0.3241 -0.5272  0.0006
 7119SOL    HW132990   1.984   0.220  11.662  0.9013  0.0776  1.9586
 7119SOL    HW232991   2.132   0.222  11.644 -1.0909  1.0595 -0.4517
 7120SOL     OW32992   4.709   1.108   5.848  0.3379 -0.1348 -0.1596
 7120SOL    HW132993   0.059   1.087   5.887  0.2962  0.5364  0.2905
 7120SOL    HW232994   4.663   1.025   5.857  0.7199 -0.1562  1.6176
 7121SOL     OW32995   3.429   0.728  12.766 -0.0753  0.5734  0.6910
 7121SOL    HW132996   3.416   0.651  12.822 -0.4043 -0.1207 -0.3252
 7121SOL    HW232997   3.346   0.770  12.785  1.2212  2.9774  1.0351
 7122SOL     OW32998   0.628   3.532   4.039  0.0544  0.2772  0.3877
 7122SOL    HW132999   0.582   3.616   4.042  0.2003  0.4417 -1.7428
 7122SOL    HW233000   0.699   3.553   3.977  0.1715 -0.3470  0.3094
 7123SOL     OW33001   0.136   2.338   3.873  0.0975  0.2521  0.1429
 7123SOL    HW133002   0.101   2.361   3.959  0.4048 -2.9205  1.1270
 7123SOL    HW233003   0.127   2.244   3.886 -1.9554  0.7124  2.1386
 7124SOL     OW33004   0.749   0.697   6.873 -0.7231 -0.1089 -0.2427
 7124SOL    HW133005   0.809   0.770   6.889 -0.4472 -0.2923 -0.4479
 7124SOL    HW233006   0.711   0.713   6.787 -0.4536 -0.4105 -0.4125
 7125SOL     OW33007   3.662   2.037   7.873 -0.3566  0.1467  0.0474
 7125SOL    HW133008   3.698   1.958   7.914  1.7021  0.4699 -1.1209
 7125SOL    HW233009   3.569   2.044   7.892 -0.5234  0.0230 -0.7337
 7126SOL     OW33010   3.635   2.560   4.524 -0.4239  0.3702  0.3496
 7126SOL    HW133011   3.618   2.648   4.557 -0.0595  0.3299  0.6425
 7126SOL    HW233012   3.584   2.509   4.587  2.0674 -1.2232  1.0510
 7127SOL     OW33013   1.626   1.748  12.904  0.2927 -0.1048 -0.2569
 7127SOL    HW133014   1.669   1.832  12.916  0.7399 -0.1934 -1.2353
 7127SOL    HW233015   1.555   1.745  12.967 -0.2476 -0.5392 -0.8802
 7128SOL     OW33016   0.996   0.716   5.874 -0.1312  0.0689  0.1226
 7128SOL    HW133017   1.077   0.669   5.853 -0.4237  0.1216 -1.1343
 7128SOL    HW233018   0.932   0.652   5.905  1.5835 -0.6740  2.1243
 7129SOL     OW33019   2.063   1.872  17.591 -0.3708 -0.1731  0.5576
 7129SOL    HW133020   2.049   1.778  17.581 -3.3056  0.1727  1.4204
 7129SOL    HW233021   1.974   1.901  17.612  0.0110  1.0182  0.4917
 7130SOL     OW33022   2.069   4.233   4.857  0.1298  0.1157  0.3711
 7130SOL    HW133023   2.024   4.223   4.940  0.2660 -0.6914  0.3438
 7130SOL    HW233024   2.153   4.207   4.895 -2.3773 -1.6281  4.7336
 7131SOL     OW33025   1.730   2.033  12.659  0.2481 -0.2133  0.5064
 7131SOL    HW133026   1.678   1.954  12.646 -0.4876  0.6841 -1.9807
 7131SOL    HW233027   1.664   2.092  12.695 -1.4942 -0.6952 -1.9124
 7132SOL     OW33028   3.325   2.961   3.278  0.3834  0.1045  0.3759
 7132SOL    HW133029   3.273   2.898   3.329 -0.3316  1.0274  0.7930
 7132SOL    HW233030   3.301   2.934   3.190  0.9855  0.7170  0.0252
 7133SOL     OW33031   2.051   3.683   4.588  0.2395 -0.3630 -0.4519
 7133SOL    HW133032   2.020   3.605   4.633 -1.1970 -0.5214 -1.7225
 7133SOL    HW233033   2.134   3.648   4.554  0.1917 -1.5961  0.7173
 7134SOL     OW33034   1.131   1.317   9.770 -0.1451 -0.0987  0.3947
 7134SOL    HW133035   1.074   1.247   9.738 -0.6433  1.4032 -1.9111
 7134SOL    HW233036   1.073   1.392   9.758  2.4342  1.2238 -3.7429
 7135SOL     OW33037   2.226   1.194   4.288 -0.0288 -0.0749  0.5369
 7135SOL    HW133038   2.258   1.260   4.349 -2.3405 -0.2894  1.9620
 7135SOL    HW233039   2.302   1.190   4.229 -0.6913 -2.3844 -0.1369
 7136SOL     OW33040   2.772   2.146  12.612  0.5205  0.2544  0.3556
 7136SOL    HW133041   2.687   2.122  12.650 -0.6131  4.2759  0.4064
 7136SOL    HW233042   2.803   2.223  12.660 -0.1286 -0.0339  1.2348
 7137SOL     OW33043   3.844   0.604   4.142  0.1548 -0.1029 -0.1246
 7137SOL    HW133044   3.802   0.673   4.090  0.3933 -1.5018 -2.1730
 7137SOL    HW233045   3.922   0.653   4.166  1.8030 -1.7518 -2.1739
 7138SOL     OW33046   1.793   3.799   5.971 -0.3142 -0.1184 -0.2752
 7138SOL    HW133047   1.774   3.886   6.007  0.0020 -0.7103  1.3487
 7138SOL    HW233048   1.882   3.787   6.004 -1.4617 -4.6209  1.1916
 7139SOL     OW33049   3.892   3.438   7.565 -0.9124  0.5768  0.3163
 7139SOL    HW133050   3.842   3.366   7.526 -0.2971  0.2266  0.1579
 7139SOL    HW233051   3.952   3.467   7.496  0.2009 -2.1914  0.1273
 7140SOL     OW33052   1.751   3.955   5.103 -0.0543  0.3526  0.0225
 7140SOL    HW133053   1.772   3.864   5.126 -0.2715  0.1390 -0.6349
 7140SOL    HW233054   1.705   3.932   5.022  0.8277 -0.5545 -0.2267
 7141SOL     OW33055   2.727   0.345  10.213  0.8060 -0.5795  0.8822
 7141SOL    HW133056   2.791   0.300  10.269  0.1873 -1.4018  0.9405
 7141SOL    HW233057   2.744   0.303  10.128 -0.1638  0.8559 -0.0257
 7142SOL     OW33058   2.659   1.072   3.630  0.6034  0.1595  0.3301
 7142SOL    HW133059   2.719   1.141   3.602  1.0574  0.0327  0.9903
 7142SOL    HW233060   2.729   1.009   3.647  1.6563  0.3688 -3.4096
 7143SOL     OW33061   0.854   3.494  11.391 -0.1446  0.0063 -0.0236
 7143SOL    HW133062   0.835   3.485  11.485  2.0873  0.4058  0.4503
 7143SOL    HW233063   0.929   3.435  11.394  0.3090  0.4941 -1.8964
 7144SOL     OW33064   1.536   0.622   3.960  0.5514 -0.6697  0.7307
 7144SOL    HW133065   1.606   0.674   4.000  1.1983 -1.5914  0.7841
 7144SOL    HW233066   1.528   0.542   4.012  0.9940 -1.3071 -0.1903
 7145SOL     OW33067   2.843   1.180   2.711  0.4013  0.3060 -0.1886
 7145SOL    HW133068   2.783   1.139   2.649  0.7428  0.5159 -0.6552
 7145SOL    HW233069   2.922   1.135   2.682  2.5416  4.1146 -0.2096
 7146SOL     OW33070   1.715   1.797   5.092  1.0123  0.3702 -0.0295
 7146SOL    HW133071   1.629   1.802   5.133  1.1435  0.4895  0.2288
 7146SOL    HW233072   1.763   1.865   5.138 -0.0429  0.3716  1.0679
 7147SOL     OW33073   3.902   0.692  13.068 -0.6002 -0.4170  0.5633
 7147SOL    HW133074   3.970   0.661  13.007 -0.1157  1.1079  0.3229
 7147SOL    HW233075   3.832   0.628  13.055 -0.3437 -0.6686  0.4003
 7148SOL     OW33076   3.085   4.483   9.770  0.3397 -0.1165 -0.1924
 7148SOL    HW133077   3.060   4.573   9.787 -0.1929 -0.1701 -0.7071
 7148SOL    HW233078   3.100   4.457   9.861  0.9742 -1.1770 -0.5890
 7149SOL     OW33079   1.290   0.953   8.623  0.3781  0.0113 -0.1414
 7149SOL    HW133080   1.227   0.895   8.580  0.4162 -0.5156  0.5330
 7149SOL    HW233081   1.248   0.953   8.709 -0.8354  0.3012 -0.7188
 7150SOL     OW33082   0.789   1.769   3.900 -0.0650  0.0280  0.2184
 7150SOL    HW133083   0.783   1.724   3.816 -1.1863 -0.5218  0.5763
 7150SOL    HW233084   0.881   1.761   3.923  0.0144  0.1343 -0.0722
 7151SOL     OW33085   1.368   2.243   5.314 -0.4398  0.2250 -0.2967
 7151SOL    HW133086   1.327   2.323   5.282 -2.0407  0.3889  2.1764
 7151SOL    HW233087   1.367   2.263   5.407 -0.4218 -0.5544 -0.1262
 7152SOL     OW33088   2.982   2.333   6.040  0.3778 -0.4477  0.3911
 7152SOL    HW133089   3.069   2.368   6.021  0.0892  0.1477  0.1523
 7152SOL    HW233090   2.953   2.401   6.101  0.5753  0.9010 -1.0098
 7153SOL     OW33091   2.618   1.757   3.582 -0.6182  0.3934 -0.1000
 7153SOL    HW133092   2.596   1.745   3.674 -0.2541  2.7014  0.2990
 7153SOL    HW233093   2.687   1.691   3.580 -0.5029  0.5282 -0.5155
 7154SOL     OW33094   1.178   1.031   6.885  0.2728  0.6143 -0.3608
 7154SOL    HW133095   1.191   1.000   6.975 -2.1159 -0.9404 -0.5602
 7154SOL    HW233096   1.088   1.060   6.869  0.7176  1.4633 -1.2706
 7155SOL     OW33097   0.254   4.716  16.686  0.0895  0.2990  0.4530
 7155SOL    HW133098   0.226   0.064  16.727 -0.9873  0.0122  0.2968
 7155SOL    HW233099   0.349   4.721  16.681 -0.0024  1.7895  0.3242
 7156SOL     OW33100   0.200   1.769  10.892 -0.2834  0.1006  0.0398
 7156SOL    HW133101   0.248   1.800  10.969  0.6009 -0.3885 -0.3166
 7156SOL    HW233102   0.277   1.750  10.838 -1.5618 -0.7235 -1.4985
 7157SOL     OW33103   4.728   1.286   4.272 -0.3562  0.1231  0.8677
 7157SOL    HW133104   4.684   1.325   4.348 -0.8650  0.7755  0.2451
 7157SOL    HW233105   0.074   1.338   4.270 -0.7037  0.5713 -1.6333
 7158SOL     OW33106   4.382   4.446  10.931 -0.6234 -0.5994 -0.6648
 7158SOL    HW133107   4.451   4.448  10.998 -1.2153 -0.1220 -0.0692
 7158SOL    HW233108   4.413   4.373  10.877 -0.7490 -2.6736  2.0764
 7159SOL     OW33109   2.337   1.982   6.016  0.3059 -0.0936 -0.3113
 7159SOL    HW133110   2.243   1.986   6.002  0.1135 -0.0084  1.0052
 7159SOL    HW233111   2.349   2.018   6.104 -0.4718 -0.5180 -0.0326
 7160SOL     OW33112   0.843   2.527  12.484  0.0698 -0.8731 -0.3130
 7160SOL    HW133113   0.787   2.559  12.555  1.1203 -2.3085  1.1732
 7160SOL    HW233114   0.775   2.516  12.418  0.0299 -2.1635 -0.0583
 7161SOL     OW33115   3.210   3.419   7.183  0.1262 -0.3952 -0.2734
 7161SOL    HW133116   3.155   3.470   7.242 -1.8806 -1.9158 -0.8330
 7161SOL    HW233117   3.221   3.333   7.225 -1.0739 -0.9414 -1.0630
 7162SOL     OW33118   3.061   0.521  10.105  0.0011 -0.3080 -0.3236
 7162SOL    HW133119   3.047   0.577  10.181 -0.4949 -1.3348  0.3304
 7162SOL    HW233120   3.032   0.435  10.135 -0.2088 -0.6662 -1.5496
 7163SOL     OW33121   1.200   0.857   0.308 -0.4187  0.0352 -0.2429
 7163SOL    HW133122   1.179   0.836   0.217 -0.7508  1.0847 -0.4022
 7163SOL    HW233123   1.215   0.770   0.345  1.9100  0.3940 -0.3637
 7164SOL     OW33124   4.059   0.989   3.928  0.0553  0.7274 -0.1608
 7164SOL    HW133125   4.049   1.050   3.854 -2.8705  1.5947  0.9620
 7164SOL    HW233126   4.153   0.990   3.943  0.2587  2.6124 -1.5506
 7165SOL     OW33127   0.982   3.223   8.793 -0.0577  0.0300 -0.9271
 7165SOL    HW133128   1.021   3.198   8.710  1.1683  1.2981 -0.7379
 7165SOL    HW233129   0.992   3.318   8.790  1.8915 -0.2160 -1.8010
 7166SOL     OW33130   0.473   2.488   5.188 -0.2730  0.5318  0.0178
 7166SOL    HW133131   0.455   2.511   5.096  0.6033 -0.8131 -0.4841
 7166SOL    HW233132   0.387   2.491   5.230  0.3846 -1.2163  1.4871
 7167SOL     OW33133   3.825   0.665   2.033 -0.0075 -0.2941  0.0129
 7167SOL    HW133134   3.795   0.639   2.120 -1.7604 -1.2512 -0.8841
 7167SOL    HW233135   3.913   0.693   2.059 -0.4636  0.3368  0.8931
 7168SOL     OW33136   2.254   2.195   2.117 -0.1080  0.4869 -0.2187
 7168SOL    HW133137   2.267   2.270   2.175 -3.6311 -0.4352  1.8042
 7168SOL    HW233138   2.327   2.138   2.141  0.7466  3.4094  4.1285
 7169SOL     OW33139   0.191   2.441   3.205 -0.2664  0.2091  0.0815
 7169SOL    HW133140   0.151   2.448   3.118 -0.0834 -0.0170 -0.0191
 7169SOL    HW233141   0.133   2.510   3.237  0.0672  0.4859  0.0849
 7170SOL     OW33142   3.763   3.574   9.396  0.2122 -0.4157  0.2166
 7170SOL    HW133143   3.745   3.558   9.488  0.4930  0.6873  0.4688
 7170SOL    HW233144   3.679   3.613   9.371  0.8252  0.2773 -0.7942
 7171SOL     OW33145   1.003   1.278   9.009  0.2003 -0.3490  0.6394
 7171SOL    HW133146   1.096   1.280   9.028  0.1873 -2.5943  0.8923
 7171SOL    HW233147   0.996   1.357   8.955 -1.1540 -0.4491  0.6529
 7172SOL     OW33148   3.188   3.187  10.846  0.3966  0.1842 -0.0595
 7172SOL    HW133149   3.259   3.183  10.781 -0.9526 -3.0794 -1.3293
 7172SOL    HW233150   3.195   3.278  10.874  2.1718  0.0072  0.0817
 7173SOL     OW33151   1.831   3.327   7.259 -0.0915  0.6555 -0.5649
 7173SOL    HW133152   1.824   3.292   7.348 -0.1085 -0.4992 -1.0244
 7173SOL    HW233153   1.866   3.413   7.285 -0.1123  0.0663  1.4047
 7174SOL     OW33154   1.325   2.757   5.043 -0.2312  0.3593 -0.3320
 7174SOL    HW133155   1.293   2.677   5.000  0.4236 -0.2461  0.3206
 7174SOL    HW233156   1.355   2.811   4.970  0.3259  2.0887  1.1800
 7175SOL     OW33157   4.173   0.493   0.892 -0.0149 -0.0488 -0.4023
 7175SOL    HW133158   4.078   0.494   0.879 -0.0259  0.0459 -0.3081
 7175SOL    HW233159   4.188   0.587   0.877 -0.9607  0.0199 -0.9249
 7176SOL     OW33160   2.753   1.613   5.950  0.2082  0.1330 -0.1834
 7176SOL    HW133161   2.690   1.570   5.892 -0.6402  1.1697 -0.0239
 7176SOL    HW233162   2.826   1.553   5.963 -0.3235 -0.0314  1.9881
 7177SOL     OW33163   1.178   1.517  17.347 -0.4482  0.4475  0.0076
 7177SOL    HW133164   1.167   1.437  17.295  0.8679 -0.7444  1.5433
 7177SOL    HW233165   1.264   1.546  17.316 -0.4749 -0.9792 -1.4419
 7178SOL     OW33166   0.072   3.499  11.638 -0.3073  0.0984  0.4312
 7178SOL    HW133167   0.127   3.575  11.618 -0.6274  0.0879 -0.5050
 7178SOL    HW233168   4.731   3.523  11.584  0.4914  0.7144 -0.4179
 7179SOL     OW33169   3.200   4.338   2.668  0.5096  0.0217 -0.4701
 7179SOL    HW133170   3.133   4.270   2.669  1.9515 -1.4014 -0.2407
 7179SOL    HW233171   3.235   4.350   2.580  0.8184  1.1333 -0.2059
 7180SOL     OW33172   2.021   2.170  11.232  0.9373 -0.4470 -0.6981
 7180SOL    HW133173   2.091   2.148  11.170 -0.2830 -0.6635 -1.9989
 7180SOL    HW233174   1.991   2.255  11.200 -0.5717 -1.1341 -1.1431
 7181SOL     OW33175   0.905   4.452  13.221  0.0188 -0.5764 -0.3293
 7181SOL    HW133176   0.875   4.404  13.143  1.1679 -0.3909 -0.8826
 7181SOL    HW233177   0.960   4.382  13.256 -0.5074 -0.6149  0.4233
 7182SOL     OW33178   0.429   4.611  10.952  0.0548  0.4359 -0.0062
 7182SOL    HW133179   0.501   4.568  10.905  0.1001  0.2103  0.2661
 7182SOL    HW233180   0.364   4.546  10.978  0.1561  0.8432  1.2568
 7183SOL     OW33181   1.215   0.485  14.404 -0.0823 -0.2617  0.0743
 7183SOL    HW133182   1.238   0.409  14.350  1.5376 -0.1041  0.5263
 7183SOL    HW233183   1.123   0.493  14.378 -0.5469  0.6328  2.0350
 7184SOL     OW33184   0.916   1.171  14.431 -0.7785  0.4835 -0.3065
 7184SOL    HW133185   0.909   1.140  14.521 -1.2475 -2.2438 -1.2880
 7184SOL    HW233186   1.009   1.193  14.434 -0.4172 -0.6702 -3.0433
 7185SOL     OW33187   3.197   4.615   0.625 -0.2637  0.1694 -0.2183
 7185SOL    HW133188   3.160   4.599   0.712  2.8935  2.2954  1.5310
 7185SOL    HW233189   3.130   4.660   0.573  0.5809  0.4733 -1.0269
 7186SOL     OW33190   0.528   2.907   6.487 -0.3295  0.4289  0.5682
 7186SOL    HW133191   0.517   2.992   6.445 -0.1238  0.8360  1.3270
 7186SOL    HW233192   0.537   2.846   6.414  1.9088  2.5049 -0.8604
 7187SOL     OW33193   1.202   1.450  15.385  0.0859 -0.1631  0.1151
 7187SOL    HW133194   1.238   1.378  15.437  1.4931  0.7878  0.4340
 7187SOL    HW233195   1.134   1.407  15.333  1.7735 -1.3027 -1.1334
 7188SOL     OW33196   2.872   1.529   5.559 -0.0501 -0.1952 -0.2024
 7188SOL    HW133197   2.784   1.521   5.522  0.5696  1.3848 -1.9667
 7188SOL    HW233198   2.914   1.579   5.489 -1.0531 -0.5225 -1.0388
 7189SOL     OW33199   2.401   0.907   0.952  0.9077  0.0091  0.1030
 7189SOL    HW133200   2.318   0.866   0.926  1.3448 -1.9019  1.6900
 7189SOL    HW233201   2.464   0.848   0.911  0.1273  0.0001 -1.0729
 7190SOL     OW33202   1.141   3.579  16.091  0.0231  0.2368  0.3396
 7190SOL    HW133203   1.222   3.542  16.124 -0.0062 -1.4574 -1.4925
 7190SOL    HW233204   1.180   3.640  16.029 -0.6398 -0.9240 -1.2094
 7191SOL     OW33205   2.277   4.669  17.376 -0.3559  0.3217 -0.0790
 7191SOL    HW133206   2.272   4.637  17.466 -2.1125 -0.7936 -0.5666
 7191SOL    HW233207   2.333   4.602  17.337  0.6493 -0.0117  1.9397
 7192SOL     OW33208   1.840   0.520   9.578  0.0424 -0.2543 -0.5949
 7192SOL    HW133209   1.910   0.539   9.641 -1.7313  3.4178  0.3188
 7192SOL    HW233210   1.882   0.463   9.514  0.1779  1.3253 -1.9171
 7193SOL     OW33211   2.077   3.824   0.806 -0.1182  0.6119  0.5425
 7193SOL    HW133212   2.059   3.846   0.898  1.3004  1.2367  0.6728
 7193SOL    HW233213   1.987   3.813   0.777 -0.2093 -1.4096  1.6348
 7194SOL     OW33214   3.696   2.606   4.082  0.1238  0.3539 -0.5088
 7194SOL    HW133215   3.728   2.583   4.169  2.5685 -1.7168 -1.9491
 7194SOL    HW233216   3.630   2.670   4.108 -2.2224 -2.9294  1.6822
 7195SOL     OW33217   1.169   2.672  13.480 -0.1900 -0.4224 -0.0111
 7195SOL    HW133218   1.217   2.698  13.401  1.3310  0.1326  1.1076
 7195SOL    HW233219   1.236   2.700  13.541  0.8626  1.5857 -2.0820
 7196SOL     OW33220   3.123   1.406   8.869  0.7588  0.1979  0.6401
 7196SOL    HW133221   3.118   1.483   8.813 -2.1304 -0.7501 -0.4060
 7196SOL    HW233222   3.029   1.406   8.889  0.7426 -0.0414  0.5570
 7197SOL     OW33223   0.271   2.245   7.400 -0.6678 -0.3695  0.1340
 7197SOL    HW133224   0.243   2.180   7.336 -0.0372  0.6999 -1.2326
 7197SOL    HW233225   0.185   2.254   7.442 -1.6377 -3.5189 -1.1898
 7198SOL     OW33226   0.432   3.738   2.394 -0.6342 -0.9006 -0.2619
 7198SOL    HW133227   0.513   3.749   2.444 -1.0507 -1.7377  0.5906
 7198SOL    HW233228   0.416   3.644   2.390 -0.2521 -0.9242 -1.3971
 7199SOL     OW33229   0.035   2.104   7.397 -0.0596  0.2557 -0.3431
 7199SOL    HW133230   0.022   2.199   7.396 -0.8961  0.1927  3.0252
 7199SOL    HW233231   4.734   2.088   7.310 -0.9512  2.5926 -0.4240
 7200SOL     OW33232   3.922   1.697   5.687  0.4388 -0.4347  0.1401
 7200SOL    HW133233   3.842   1.724   5.642  1.2914  0.3265 -0.9092
 7200SOL    HW233234   3.887   1.625   5.740 -1.3610 -1.4569 -2.4486
 7201SOL     OW33235   1.706   0.170   8.035  0.6156 -0.7985  0.3001
 7201SOL    HW133236   1.629   0.220   8.006  0.2148 -1.6319 -0.0489
 7201SOL    HW233237   1.713   0.202   8.125  1.3697  1.9775 -0.7188
 7202SOL     OW33238   0.577   3.189   6.914 -0.2593  0.5807  0.1358
 7202SOL    HW133239   0.633   3.265   6.930  0.2867  0.2087 -0.0220
 7202SOL    HW233240   0.584   3.185   6.818  1.8806  2.1515  0.2188
 7203SOL     OW33241   1.533   3.224   8.217 -0.7302 -1.0664 -0.2874
 7203SOL    HW133242   1.571   3.143   8.250  2.1213  0.9131  1.2536
 7203SOL    HW233243   1.509   3.264   8.300  0.6285 -1.2744  0.1920
 7204SOL     OW33244   2.546   1.910   4.056 -0.4806  0.3015  0.4483
 7204SOL    HW133245   2.482   1.839   4.056 -0.0284 -0.1078  0.5835
 7204SOL    HW233246   2.556   1.939   4.147 -0.4892 -2.1048  1.2258
 7205SOL     OW33247   2.791   2.730   5.929 -0.4092  0.1791 -0.3226
 7205SOL    HW133248   2.807   2.819   5.898 -0.2704 -0.3735 -1.8788
 7205SOL    HW233249   2.724   2.729   5.997  0.6016 -3.5500  0.6168
 7206SOL     OW33250   2.751   3.228  11.593 -0.2480  0.2088 -0.6236
 7206SOL    HW133251   2.794   3.252  11.676 -0.3097  3.1142 -1.4488
 7206SOL    HW233252   2.827   3.224  11.536  0.8519 -1.9206  0.9847
 7207SOL     OW33253   0.961   2.779  16.268 -0.1740 -0.0968  0.0590
 7207SOL    HW133254   0.977   2.871  16.289 -0.2325  0.6712 -3.2867
 7207SOL    HW233255   1.015   2.769  16.190 -0.2430  1.8834 -0.2445
 7208SOL     OW33256   4.295   0.249  16.669 -0.1850 -0.4736 -0.4341
 7208SOL    HW133257   4.353   0.273  16.597  0.8905  1.8105  1.1995
 7208SOL    HW233258   4.245   0.327  16.693  1.8531  0.4893  0.6634
 7209SOL     OW33259   3.192   3.465  10.790  0.0908  0.0047 -0.0465
 7209SOL    HW133260   3.143   3.503  10.863  2.6188 -0.3245  1.8333
 7209SOL    HW233261   3.277   3.508  10.800 -0.4361  0.7830  1.0380
 7210SOL     OW33262   4.678   1.169   8.122  0.1030  0.5240  0.6542
 7210SOL    HW133263   4.650   1.174   8.031  0.8344 -1.7955  0.2842
 7210SOL    HW233264   0.037   1.147   8.116 -0.6117 -2.4794  0.6343
 7211SOL     OW33265   1.583   1.964   8.148 -0.0042  0.4241 -0.0112
 7211SOL    HW133266   1.608   1.924   8.231 -1.3547  0.1944  0.2770
 7211SOL    HW233267   1.600   1.898   8.080  3.6559  1.7877 -0.3979
 7212SOL     OW33268   3.635   0.856  11.744 -0.5304  0.2127 -0.0643
 7212SOL    HW133269   3.713   0.852  11.689  1.5154  1.4021  2.7138
 7212SOL    HW233270   3.627   0.770  11.784 -0.1434  1.6094  3.0342
 7213SOL     OW33271   1.596   4.371   7.501 -0.7384 -0.6803  0.8707
 7213SOL    HW133272   1.561   4.283   7.483  1.3758 -1.5001  0.7675
 7213SOL    HW233273   1.548   4.396   7.579  1.3989 -0.4620  2.0993
 7214SOL     OW33274   0.551   0.994   9.993  0.2288 -0.2866  0.8572
 7214SOL    HW133275   0.515   0.914   9.954  1.3012 -0.5389  0.3932
 7214SOL    HW233276   0.578   0.959  10.078 -1.6530 -4.2162 -0.1591
 7215SOL     OW33277   0.063   4.256  12.931 -0.1576  0.0363 -0.0163
 7215SOL    HW133278   0.034   4.187  12.871  3.1327  1.2538 -2.9984
 7215SOL    HW233279   0.158   4.251  12.923 -0.0794 -0.1690  1.0081
 7216SOL     OW33280   1.168   2.541   5.584 -0.1930  0.1080 -0.5652
 7216SOL    HW133281   1.167   2.592   5.665  1.1546 -1.4270  0.4412
 7216SOL    HW233282   1.077   2.543   5.558 -0.4836  1.3419  0.5531
 7217SOL     OW33283   4.666   3.484   8.876  0.8303  0.3874 -0.2314
 7217SOL    HW133284   4.619   3.427   8.816  0.2751 -1.1011  1.6011
 7217SOL    HW233285   4.641   3.437   8.956  0.8228 -0.2481 -0.6077
 7218SOL     OW33286   0.751   3.185   2.027  0.1849  0.1936  0.6379
 7218SOL    HW133287   0.846   3.173   2.017  0.0514  0.5601 -1.1338
 7218SOL    HW233288   0.749   3.267   2.075  0.2790  0.7673 -0.3303
 7219SOL     OW33289   3.819   3.126   0.784 -0.5910  0.2420  0.5021
 7219SOL    HW133290   3.881   3.054   0.787 -0.3388  0.4843  1.0500
 7219SOL    HW233291   3.787   3.114   0.695  0.2431  1.1251  0.0870
 7220SOL     OW33292   1.150   1.713  12.289 -0.2362  0.7452 -0.0918
 7220SOL    HW133293   1.209   1.676  12.355 -1.6195 -0.3999  0.5183
 7220SOL    HW233294   1.129   1.638  12.234 -1.4713 -0.7261  2.3752
 7221SOL     OW33295   0.089   3.006  12.129 -0.0209  0.4835  0.1491
 7221SOL    HW133296   0.116   3.089  12.168 -2.5538  2.1054 -1.5465
 7221SOL    HW233297   0.057   2.960  12.207  1.6710  2.0366  1.7697
 7222SOL     OW33298   0.869   2.337  14.437 -0.3186  0.2431 -0.2841
 7222SOL    HW133299   0.869   2.432  14.431  0.5890  0.4011  2.1697
 7222SOL    HW233300   0.944   2.312  14.382  0.3319  0.8767  0.3145
 7223SOL     OW33301   4.342   4.621   8.499  0.0799  0.1045 -0.4882
 7223SOL    HW133302   4.256   4.656   8.479  0.1183  1.6763  2.1342
 7223SOL    HW233303   4.337   4.537   8.453 -1.5510 -1.0956  1.9005
 7224SOL     OW33304   2.392   4.679   9.153 -0.2010 -0.7047  0.3621
 7224SOL    HW133305   2.317   4.621   9.150 -1.3535  0.7640  0.5195
 7224SOL    HW233306   2.399   4.695   9.248 -0.1713 -2.3683  0.6344
 7225SOL     OW33307   2.567   1.903   4.318 -0.4843  0.2843 -0.0312
 7225SOL    HW133308   2.652   1.926   4.354 -1.3505 -0.3847  2.4273
 7225SOL    HW233309   2.511   1.914   4.395  0.6399  1.0018  0.6787
 7226SOL     OW33310   2.094   3.394   7.026 -0.3752  0.0137 -0.1675
 7226SOL    HW133311   2.115   3.338   7.101 -1.5051 -1.2555 -0.7881
 7226SOL    HW233312   2.141   3.476   7.036  1.3472 -0.8022 -1.6106
 7227SOL     OW33313   1.662   1.427   2.837 -0.6565 -0.5280  0.4526
 7227SOL    HW133314   1.731   1.485   2.869 -1.3304  1.8332 -2.4251
 7227SOL    HW233315   1.689   1.412   2.747 -0.7493 -2.6017  0.7696
 7228SOL     OW33316   3.935   1.369   4.717  0.2031  0.2847  0.5761
 7228SOL    HW133317   3.894   1.373   4.631  0.7493  0.3947  0.3228
 7228SOL    HW233318   3.875   1.424   4.768  2.0070  1.8331  1.0398
 7229SOL     OW33319   2.631   3.854   5.840 -0.3686  0.1150  0.0335
 7229SOL    HW133320   2.712   3.881   5.795  0.3484  1.3523  2.0867
 7229SOL    HW233321   2.574   3.866   5.763  1.9467 -1.7789 -1.9755
 7230SOL     OW33322   3.786   1.446   3.317  0.1643  0.0601 -0.1175
 7230SOL    HW133323   3.778   1.401   3.232 -1.7580  1.6011 -0.7646
 7230SOL    HW233324   3.821   1.533   3.298  0.1243  0.0767 -0.1156
 7231SOL     OW33325   3.514   4.223   7.145 -0.4583 -0.1751  0.0685
 7231SOL    HW133326   3.566   4.244   7.068  0.3660  0.0348  0.6799
 7231SOL    HW233327   3.521   4.128   7.159 -0.7791  0.0326  1.7010
 7232SOL     OW33328   1.611   1.601   5.405 -0.2395 -0.1711 -0.3564
 7232SOL    HW133329   1.616   1.543   5.481  0.1233  1.9774  1.2582
 7232SOL    HW233330   1.549   1.557   5.347 -1.3220  1.1098 -0.1787
 7233SOL     OW33331   3.472   3.033   5.605 -0.2155 -0.6520 -0.8600
 7233SOL    HW133332   3.500   2.979   5.678  2.2152  2.2140  0.3369
 7233SOL    HW233333   3.399   2.975   5.582 -0.3264 -1.3699  1.3691
 7234SOL     OW33334   3.546   2.445   4.830  0.0721 -0.1534 -0.0991
 7234SOL    HW133335   3.522   2.533   4.859 -0.6507 -0.4006  0.0433
 7234SOL    HW233336   3.461   2.401   4.831 -0.5038  0.9574  0.0219
 7235SOL     OW33337   0.250   2.887   6.498  0.0158  0.1123  0.4220
 7235SOL    HW133338   0.342   2.902   6.476  0.3626  0.7881  2.3031
 7235SOL    HW233339   0.218   2.977   6.486 -0.6376 -0.2453 -0.5249
 7236SOL     OW33340   3.648   1.098   5.488  0.2276 -0.6119 -0.3329
 7236SOL    HW133341   3.678   1.189   5.491 -0.5350 -0.3637 -0.3541
 7236SOL    HW233342   3.712   1.049   5.437 -0.4363 -0.9991 -0.7872
 7237SOL     OW33343   0.169   3.153  11.908 -0.1414  0.4347  0.3625
 7237SOL    HW133344   0.143   3.096  11.980 -1.0630 -1.8100 -1.7454
 7237SOL    HW233345   0.113   3.229  11.925 -0.1236  0.6271 -0.4490
 7238SOL     OW33346   0.410   3.911  15.682 -0.1772 -0.2378  0.4350
 7238SOL    HW133347   0.408   3.925  15.587  1.7797 -1.1740  0.2683
 7238SOL    HW233348   0.318   3.926  15.704 -0.6776 -1.5298 -0.7507
 7239SOL     OW33349   3.722   3.540   6.249 -0.0246  0.1668 -0.1284
 7239SOL    HW133350   3.780   3.510   6.319  0.3635  0.8830 -0.1376
 7239SOL    HW233351   3.642   3.489   6.265  0.6796 -1.6462 -2.4829
 7240SOL     OW33352   3.205   3.836   4.707 -0.3361  0.4359 -0.0665
 7240SOL    HW133353   3.179   3.860   4.618  0.9809 -0.6123 -0.7318
 7240SOL    HW233354   3.118   3.833   4.748 -1.3666 -0.1529 -2.2824
 7241SOL     OW33355   3.659   3.025   8.007 -0.1394 -0.0953  0.4703
 7241SOL    HW133356   3.738   3.075   7.986 -1.1011  1.3922  0.3713
 7241SOL    HW233357   3.700   2.938   8.009  0.1160  0.0446  1.5615
 7242SOL     OW33358   0.949   3.121   5.788  0.2893 -0.1330  0.1776
 7242SOL    HW133359   0.871   3.098   5.738  1.1918 -1.6246 -0.5581
 7242SOL    HW233360   0.905   3.155   5.866  0.5473  1.7339 -0.4926
 7243SOL     OW33361   4.101   2.119   3.765  0.0160  0.3854  0.2863
 7243SOL    HW133362   4.063   2.194   3.721 -0.3879  0.4144  0.6821
 7243SOL    HW233363   4.187   2.148   3.795 -0.2100  0.9764  0.3626
 7244SOL     OW33364   0.903   0.439  12.154 -0.4914  0.7557 -0.3539
 7244SOL    HW133365   0.904   0.534  12.141  0.1820  0.5500 -1.7139
 7244SOL    HW233366   0.897   0.405  12.065  0.6671  1.4022 -0.6728
 7245SOL     OW33367   1.991   2.655   6.751 -0.5739 -0.3452 -0.6884
 7245SOL    HW133368   1.962   2.581   6.697 -0.4238 -1.2191  0.4457
 7245SOL    HW233369   1.904   2.695   6.757 -0.1522  0.5056 -0.2326
 7246SOL     OW33370   2.433   3.713  15.278  0.2377 -0.1849 -0.5582
 7246SOL    HW133371   2.525   3.686  15.286  0.2467 -0.6200 -2.0069
 7246SOL    HW233372   2.388   3.629  15.286  0.8488 -0.6064 -1.4614
 7247SOL     OW33373   2.683   4.002   0.924 -0.1348 -0.8232  0.5619
 7247SOL    HW133374   2.678   4.092   0.958  0.4396 -1.1001  1.3992
 7247SOL    HW233375   2.772   4.002   0.889 -0.2358  1.8139  0.3234
 7248SOL     OW33376   2.350   1.178  14.409 -0.1444 -0.1621  0.0502
 7248SOL    HW133377   2.293   1.193  14.485 -0.4593  1.6398 -0.5539
 7248SOL    HW233378   2.366   1.264  14.371 -0.9012 -1.6168 -3.5280
 7249SOL     OW33379   3.761   0.224  10.309  0.6284 -0.3993 -0.1889
 7249SOL    HW133380   3.851   0.221  10.276  1.4904  0.8967  2.0872
 7249SOL    HW233381   3.776   0.232  10.403  0.2919 -0.4237 -0.1323
 7250SOL     OW33382   4.499   3.847   5.004 -0.4177  0.0501  0.3235
 7250SOL    HW133383   4.588   3.815   5.017 -0.2931  0.6307  0.9362
 7250SOL    HW233384   4.456   3.771   4.965 -0.9746 -0.4010  1.8151
 7251SOL     OW33385   1.618   3.536   2.740 -0.4835 -0.3348 -0.2726
 7251SOL    HW133386   1.568   3.458   2.766 -0.8449  0.3278  0.9830
 7251SOL    HW233387   1.602   3.585   2.820  3.5074 -0.9389  0.8882
 7252SOL     OW33388   2.153   1.423   5.565  0.0191  0.1680 -0.7008
 7252SOL    HW133389   2.081   1.446   5.506 -0.7266 -2.0222 -0.6295
 7252SOL    HW233390   2.135   1.469   5.647  2.0671  1.4605 -0.9859
 7253SOL     OW33391   2.589   2.308   5.015  0.1804 -0.2333 -0.1929
 7253SOL    HW133392   2.500   2.280   4.995 -0.7582  2.7397 -0.1865
 7253SOL    HW233393   2.576   2.374   5.083 -1.6032 -2.0652  1.2592
 7254SOL     OW33394   2.854   2.693   9.643  0.0790  0.3678 -0.0963
 7254SOL    HW133395   2.942   2.664   9.665  0.5194  1.8931  0.0969
 7254SOL    HW233396   2.833   2.656   9.557  1.8492 -1.2036  0.1493
 7255SOL     OW33397   2.388   3.151   3.324 -0.0494 -0.2856  0.1262
 7255SOL    HW133398   2.391   3.145   3.419 -0.2704  0.0248  0.1517
 7255SOL    HW233399   2.412   3.060   3.307 -1.1748  0.1448 -3.8421
 7256SOL     OW33400   4.517   3.302   8.191  0.3164  0.2226  0.1547
 7256SOL    HW133401   4.524   3.220   8.142 -1.5037 -0.6892  1.4013
 7256SOL    HW233402   4.466   3.277   8.269  0.9183 -2.0232 -0.1604
 7257SOL     OW33403   4.159   3.298   9.246 -0.1305  0.0573  0.7170
 7257SOL    HW133404   4.078   3.247   9.241 -0.0267  0.1847 -2.1532
 7257SOL    HW233405   4.155   3.305   9.342 -0.3843  1.4183  0.5995
 7258SOL     OW33406   4.120   3.181  11.545  0.5023 -0.1475  0.1495
 7258SOL    HW133407   4.209   3.216  11.543  0.7125 -0.6754  0.1821
 7258SOL    HW233408   4.140   3.088  11.559  1.9326  0.3839  1.5942
 7259SOL     OW33409   1.751   0.943   8.825 -0.5953 -0.2487 -0.1945
 7259SOL    HW133410   1.793   0.943   8.911 -3.5192  0.9455  1.2581
 7259SOL    HW233411   1.829   0.932   8.770 -0.1587 -2.1021  0.8029
 7260SOL     OW33412   0.025   4.364   3.951 -0.4795 -0.4481 -0.1272
 7260SOL    HW133413   4.719   4.326   4.029 -0.4926 -0.1788 -0.0007
 7260SOL    HW233414   0.052   4.449   3.987 -1.9858  0.3727 -0.9207
 7261SOL     OW33415   2.211   1.627  17.176  0.0792  0.5110  0.1721
 7261SOL    HW133416   2.271   1.620  17.250 -0.4589 -1.9258  0.3653
 7261SOL    HW233417   2.157   1.549  17.192 -2.3713  2.6401  2.3912
 7262SOL     OW33418   1.360   1.486   7.849  0.4577 -0.0531  0.6720
 7262SOL    HW133419   1.365   1.391   7.860  1.9372  0.0544  0.9125
 7262SOL    HW233420   1.356   1.516   7.940  5.5052  0.0035  0.8523
 7263SOL     OW33421   1.867   0.273   6.598  0.0807  0.0354 -0.6975
 7263SOL    HW133422   1.811   0.351   6.601 -2.0338 -1.4753 -1.1556
 7263SOL    HW233423   1.839   0.229   6.678  0.3854 -0.5778 -0.9275
 7264SOL     OW33424   3.062   3.204  12.750 -0.1427 -0.1301  0.6314
 7264SOL    HW133425   3.054   3.283  12.803 -1.0773  0.7505 -0.8305
 7264SOL    HW233426   2.970   3.179  12.736  0.1062 -1.0195  0.5510
 7265SOL     OW33427   4.005   2.860   3.705 -0.5201 -0.7208  0.0800
 7265SOL    HW133428   3.979   2.951   3.713  0.4139 -0.0968 -4.3240
 7265SOL    HW233429   3.960   2.836   3.786 -0.1029 -0.9095  0.2577
 7266SOL     OW33430   0.573   2.505   7.436 -1.1015 -0.2308 -0.3340
 7266SOL    HW133431   0.493   2.536   7.393  0.0607  0.1478 -2.2494
 7266SOL    HW233432   0.525   2.462   7.507 -2.4263  2.6690  0.5525
 7267SOL     OW33433   1.037   0.808   2.474 -0.2778  0.2334 -0.1121
 7267SOL    HW133434   0.948   0.822   2.442  0.2954  2.1091 -0.8860
 7267SOL    HW233435   1.059   0.728   2.427 -0.6680  0.8088 -1.2801
 7268SOL     OW33436   0.867   0.191   7.919 -0.1301 -0.0818 -0.0385
 7268SOL    HW133437   0.920   0.232   7.988 -0.3525  1.8731 -1.0121
 7268SOL    HW233438   0.787   0.169   7.967 -0.1329  0.7498  0.3425
 7269SOL     OW33439   0.901   1.151   6.852  0.1774  0.2398  0.3967
 7269SOL    HW133440   0.924   1.129   6.762 -1.1356 -0.9318  0.3550
 7269SOL    HW233441   0.934   1.241   6.848  2.2369 -0.4598  2.1208
 7270SOL     OW33442   0.620   2.657   8.417  0.6743  0.1024 -0.0137
 7270SOL    HW133443   0.680   2.697   8.480  0.8020 -0.9614  0.5485
 7270SOL    HW233444   0.652   2.687   8.332 -3.1467  0.7017 -1.2122
 7271SOL     OW33445   4.470   3.591   8.627  0.1789  0.8385  0.1789
 7271SOL    HW133446   4.504   3.616   8.713 -1.1818 -1.7919  1.4447
 7271SOL    HW233447   4.376   3.595   8.642 -0.0752 -0.5335 -1.0344
 7272SOL     OW33448   0.260   0.586   5.408 -0.0149 -0.1062 -0.1702
 7272SOL    HW133449   0.315   0.524   5.359  0.0211 -0.3562  0.1886
 7272SOL    HW233450   0.328   0.627   5.461  0.3670  1.3455 -1.7791
 7273SOL     OW33451   2.409   2.935   5.891 -0.5611  0.0133 -0.0138
 7273SOL    HW133452   2.356   2.943   5.811 -0.3384  1.6025  0.0100
 7273SOL    HW233453   2.400   3.014   5.944  0.9237 -0.1878  0.5131
 7274SOL     OW33454   4.694   0.149   6.059  0.3563 -0.6619  0.3004
 7274SOL    HW133455   4.651   0.094   5.994  0.7144 -0.5935  0.0084
 7274SOL    HW233456   0.051   0.153   6.031  1.6594 -0.8182  4.4922
 7275SOL     OW33457   1.209   0.528  10.045 -0.2434  0.3256  0.1519
 7275SOL    HW133458   1.276   0.588  10.077 -0.8105  1.3358 -0.5328
 7275SOL    HW233459   1.127   0.564  10.079  0.9049  1.9427  1.1983
 7276SOL     OW33460   4.278   2.951  12.482  0.2547  0.3084 -0.3795
 7276SOL    HW133461   4.278   3.046  12.497  2.1345  0.3026 -0.3342
 7276SOL    HW233462   4.348   2.924  12.542  1.4023  1.9685 -0.9509
 7277SOL     OW33463   2.849   3.141   6.805  0.2853  0.3704  0.2719
 7277SOL    HW133464   2.844   3.236   6.790 -1.4022  0.1793 -0.3761
 7277SOL    HW233465   2.932   3.119   6.765  0.6895  1.4334  0.5134
 7278SOL     OW33466   2.797   1.549   8.608  0.1668 -0.2547 -0.6137
 7278SOL    HW133467   2.823   1.457   8.599 -0.9046 -0.5020 -1.2809
 7278SOL    HW233468   2.717   1.544   8.661  1.0482 -2.8276  0.4794
 7279SOL     OW33469   0.779   0.563   8.990  0.3972  0.1565  0.1578
 7279SOL    HW133470   0.712   0.572   8.922  1.0247  0.9595 -0.3600
 7279SOL    HW233471   0.783   0.468   9.002 -0.8112  0.1490  0.4885
 7280SOL     OW33472   1.760   0.298   3.196  0.0937  0.3878  0.3054
 7280SOL    HW133473   1.845   0.301   3.152  0.4780 -2.2016  0.8476
 7280SOL    HW233474   1.704   0.253   3.134  2.0081 -0.9387 -0.4670
 7281SOL     OW33475   3.225   2.923   7.197 -0.1426  0.1812  0.0954
 7281SOL    HW133476   3.204   2.887   7.110  0.7368  1.6853 -0.7340
 7281SOL    HW233477   3.260   2.847   7.244 -1.9221 -1.3466 -1.0392
 7282SOL     OW33478   3.332   2.573   8.119  0.2500 -0.4328  0.2954
 7282SOL    HW133479   3.364   2.659   8.145 -1.8538  0.5659 -0.3997
 7282SOL    HW233480   3.349   2.572   8.025 -2.9438 -1.4912 -0.2616
 7283SOL     OW33481   1.193   3.623   0.753 -0.1784 -0.2340 -0.2791
 7283SOL    HW133482   1.127   3.595   0.816 -1.7368  0.2485 -1.6757
 7283SOL    HW233483   1.235   3.682   0.815 -0.0568 -1.0364  0.3842
 7284SOL     OW33484   2.431   3.845   2.042 -0.0167 -0.3225 -0.1433
 7284SOL    HW133485   2.342   3.811   2.040  0.4673 -1.7485  2.4184
 7284SOL    HW233486   2.428   3.921   2.099 -1.6534 -0.2338 -0.3451
 7285SOL     OW33487   4.197   2.909  10.890  0.0894 -0.4092 -0.0018
 7285SOL    HW133488   4.119   2.903  10.835 -0.8667 -0.0698  1.3246
 7285SOL    HW233489   4.194   2.999  10.921  1.0174  0.1783 -1.5933
 7286SOL     OW33490   0.938   1.449   2.715  0.1773 -0.0975 -0.2059
 7286SOL    HW133491   0.911   1.485   2.799  0.6703 -0.2461  0.0174
 7286SOL    HW233492   0.952   1.531   2.667 -1.5708 -0.5937 -1.5606
 7287SOL     OW33493   0.477   4.109   6.032 -0.2740  0.3089  0.0178
 7287SOL    HW133494   0.494   4.172   6.103  3.4002 -0.1690 -0.4232
 7287SOL    HW233495   0.532   4.154   5.968 -0.6391 -0.3060 -0.7171
 7288SOL     OW33496   3.875   1.459   5.920  0.3578  0.1280  0.5976
 7288SOL    HW133497   3.835   1.482   6.004  0.8447 -2.0036  1.4020
 7288SOL    HW233498   3.809   1.414   5.868  1.5487  2.2322 -2.7693
 7289SOL     OW33499   0.717   3.442  10.559 -0.4205  0.1171 -0.0949
 7289SOL    HW133500   0.719   3.491  10.477  0.5624  1.0554  0.4788
 7289SOL    HW233501   0.811   3.429  10.573 -0.7418  0.9121  2.8783
 7290SOL     OW33502   3.901   2.382  16.832 -0.5574 -0.5244  0.2452
 7290SOL    HW133503   3.810   2.363  16.812 -0.4565 -0.7025 -0.0468
 7290SOL    HW233504   3.932   2.414  16.747  0.5972 -0.5507  0.6537
 7291SOL     OW33505   3.713   1.231  16.794 -0.3033 -0.0757  0.1073
 7291SOL    HW133506   3.804   1.241  16.822 -1.3723  2.2732  2.6815
 7291SOL    HW233507   3.666   1.200  16.871  0.0006 -1.9601 -0.4708
 7292SOL     OW33508   1.652   3.009  14.621 -0.5417 -0.3507 -0.1790
 7292SOL    HW133509   1.637   3.065  14.545 -1.0977  2.0089  1.6423
 7292SOL    HW233510   1.622   2.923  14.594  0.2528 -0.1870 -1.5540
 7293SOL     OW33511   4.034   0.267   7.832 -0.3356 -0.3595 -0.6691
 7293SOL    HW133512   4.092   0.202   7.793 -1.3074 -1.1356 -0.8069
 7293SOL    HW233513   4.090   0.344   7.822 -1.3568  0.4270 -0.2763
 7294SOL     OW33514   4.185   1.744   5.800  0.4248  0.1220  0.5711
 7294SOL    HW133515   4.117   1.779   5.742  1.1431  1.5962  0.5929
 7294SOL    HW233516   4.266   1.787   5.771 -1.3811  1.1371 -2.9725
 7295SOL     OW33517   3.807   1.354   7.424 -0.1254 -0.2319  0.4506
 7295SOL    HW133518   3.779   1.283   7.367 -0.6242 -1.6245  2.4293
 7295SOL    HW233519   3.742   1.422   7.404 -2.1220 -1.9711  0.9808
 7296SOL     OW33520   3.268   4.036   8.563  0.2133  0.0366 -0.5197
 7296SOL    HW133521   3.215   4.086   8.625 -0.0420 -0.8222 -0.0521
 7296SOL    HW233522   3.253   4.099   8.492 -1.7732 -1.1840 -1.1899
 7297SOL     OW33523   4.178   0.481   7.731  0.7615  0.2119  0.5025
 7297SOL    HW133524   4.246   0.447   7.672  0.8533  0.1700  0.6347
 7297SOL    HW233525   4.191   0.575   7.716  0.6205  0.2273  0.4748
 7298SOL     OW33526   2.396   2.956  10.909 -0.0040 -0.1009  0.2114
 7298SOL    HW133527   2.322   2.936  10.968 -1.4187 -0.6370 -1.7514
 7298SOL    HW233528   2.355   3.030  10.866 -0.1849  0.6638  1.6918
 7299SOL     OW33529   3.270   1.400   7.832 -0.1760 -0.8160 -0.7078
 7299SOL    HW133530   3.222   1.320   7.851 -1.2340  0.2203  0.9671
 7299SOL    HW233531   3.215   1.476   7.853  1.2845 -0.1234  0.5920
 7300SOL     OW33532   3.005   3.308   6.182  0.1127  0.5097  0.8867
 7300SOL    HW133533   3.005   3.396   6.220  2.9956  0.9805 -0.1537
 7300SOL    HW233534   3.022   3.331   6.090 -1.2123  2.1394  1.0655
 7301SOL     OW33535   4.446   4.340   5.583 -0.1915  0.2330 -0.2217
 7301SOL    HW133536   4.509   4.344   5.655 -0.8769 -0.4046  0.4178
 7301SOL    HW233537   4.361   4.354   5.626 -1.4178 -4.0935 -1.2265
 7302SOL     OW33538   4.606   3.787   7.448 -0.0272 -0.2889 -0.2102
 7302SOL    HW133539   4.589   3.699   7.414  3.1619 -0.4564 -1.4262
 7302SOL    HW233540   4.516   3.817   7.456  0.0207  0.0033 -0.7639
 7303SOL     OW33541   3.427   2.395   7.254 -0.4591 -0.6428 -0.2935
 7303SOL    HW133542   3.368   2.405   7.328  1.2392  0.8156  0.8699
 7303SOL    HW233543   3.380   2.329   7.203  0.0930 -2.1966  1.2498
 7304SOL     OW33544   1.826   3.646   1.609  0.0298 -0.3309 -0.4703
 7304SOL    HW133545   1.880   3.719   1.579  1.8257 -1.6736 -0.5124
 7304SOL    HW233546   1.783   3.618   1.529 -0.1383  0.4907 -0.6733
 7305SOL     OW33547   3.320   4.162   5.421 -0.3803  0.9700 -0.5872
 7305SOL    HW133548   3.268   4.097   5.375 -1.4827  0.4900  1.3025
 7305SOL    HW233549   3.252   4.218   5.460 -1.4596 -2.7078  2.9133
 7306SOL     OW33550   4.269   3.791   3.036 -0.1747 -0.1234  0.3515
 7306SOL    HW133551   4.273   3.855   3.107  1.3141 -0.4383  0.5337
 7306SOL    HW233552   4.192   3.745   3.070 -1.2152  0.0302 -1.7892
 7307SOL     OW33553   2.699   1.831   2.905  0.4047 -0.3492 -0.5940
 7307SOL    HW133554   2.636   1.764   2.933 -1.0686  1.7232  1.0672
 7307SOL    HW233555   2.732   1.862   2.989  0.1329  0.5841 -0.8346
 7308SOL     OW33556   4.472   3.877   1.335  0.1490  0.1270 -0.0101
 7308SOL    HW133557   4.433   3.793   1.310 -0.2751 -0.3749  2.3369
 7308SOL    HW233558   4.511   3.854   1.419 -3.0615  0.3323  1.5637
 7309SOL     OW33559   2.989   0.820   0.689 -0.3462  0.4483  0.4766
 7309SOL    HW133560   2.913   0.850   0.640 -0.7657 -0.9514  0.2844
 7309SOL    HW233561   3.016   0.762   0.618 -0.6070 -0.4817  1.1405
 7310SOL     OW33562   2.769   2.063   6.954 -0.1781 -0.0624  0.3706
 7310SOL    HW133563   2.835   2.090   7.017  1.8613  0.7134 -2.0595
 7310SOL    HW233564   2.702   2.131   6.963  0.7964  1.1193 -1.1150
 7311SOL     OW33565   0.914   2.751   0.887  0.0735  0.4858 -0.4072
 7311SOL    HW133566   0.968   2.828   0.903  2.7996 -0.7432 -3.7152
 7311SOL    HW233567   0.826   2.787   0.902 -0.9517 -1.4129 -1.8175
 7312SOL     OW33568   3.487   3.183   5.042 -0.0987 -0.1707  0.5372
 7312SOL    HW133569   3.418   3.148   5.098 -1.1072  0.6419 -0.2114
 7312SOL    HW233570   3.506   3.105   4.990  2.0039 -0.1032  1.2208
 7313SOL     OW33571   0.677   1.085   4.021 -0.3218 -0.1981 -0.6477
 7313SOL    HW133572   0.635   1.004   3.991  0.6166 -1.1908  0.7721
 7313SOL    HW233573   0.610   1.124   4.078  0.1343  0.3264 -0.4727
 7314SOL     OW33574   0.190   4.599   3.801  0.0474  0.4187 -0.2857
 7314SOL    HW133575   0.178   4.677   3.855 -0.0061  1.0273 -1.1817
 7314SOL    HW233576   0.258   4.629   3.740  0.5552 -0.3117 -0.0811
 7315SOL     OW33577   2.426   0.023  15.204 -0.2377  0.3823  0.1421
 7315SOL    HW133578   2.400   0.005  15.294  0.2905  0.1927  0.2546
 7315SOL    HW233579   2.458   4.669  15.184 -1.5875 -0.1021  0.1611
 7316SOL     OW33580   1.963   2.817   9.050  0.1876  0.4818 -0.0342
 7316SOL    HW133581   1.980   2.728   9.021 -0.9054  0.5141 -0.7443
 7316SOL    HW233582   1.920   2.848   8.970 -1.1478 -0.7633  0.1995
 7317SOL     OW33583   2.520   0.313   2.692 -0.1663  0.1152 -0.1394
 7317SOL    HW133584   2.431   0.314   2.657 -0.0801 -1.8825 -0.4203
 7317SOL    HW233585   2.557   0.257   2.623 -0.1229  0.7956 -0.6689
 7318SOL     OW33586   2.572   1.979   5.163  0.2832  0.8192  0.1201
 7318SOL    HW133587   2.538   1.891   5.144  0.0481  1.4350 -2.3561
 7318SOL    HW233588   2.495   2.035   5.173 -0.9343 -1.0153  1.1016
 7319SOL     OW33589   4.301   3.032   3.520  0.2788 -0.3895 -0.3798
 7319SOL    HW133590   4.340   3.010   3.605 -1.6877  1.6695  1.0715
 7319SOL    HW233591   4.385   3.050   3.477  0.8056 -0.7840  0.4824
 7320SOL     OW33592   3.608   0.136   1.769 -0.7884  0.7953 -0.4950
 7320SOL    HW133593   3.524   0.135   1.815 -0.2181  2.7130  0.5433
 7320SOL    HW233594   3.639   0.225   1.782  1.0978  0.2069 -0.9861
 7321SOL     OW33595   0.933   0.898   5.072  0.2459 -0.2853  0.0519
 7321SOL    HW133596   0.968   0.826   5.124 -1.9296  0.4139  2.4948
 7321SOL    HW233597   1.003   0.963   5.079 -0.1268  0.1977 -0.7468
 7322SOL     OW33598   2.120   4.498  10.036 -0.5971 -0.1819 -0.2226
 7322SOL    HW133599   2.025   4.506  10.046 -0.6202 -1.4376  0.5745
 7322SOL    HW233600   2.151   4.491  10.127 -1.3801 -0.6699  0.0023
 7323SOL     OW33601   0.280   2.956   8.086  0.1875 -0.3507  0.0226
 7323SOL    HW133602   0.248   2.900   8.016 -1.8364 -0.1000  0.7437
 7323SOL    HW233603   0.223   3.032   8.073  0.6009 -0.4204 -2.2127
 7324SOL     OW33604   3.021   1.737   4.511 -0.1015  0.6831 -0.2501
 7324SOL    HW133605   3.037   1.655   4.465  1.2867  1.8686 -1.9139
 7324SOL    HW233606   3.096   1.793   4.489  0.0330  1.1559  1.3735
 7325SOL     OW33607   1.342   4.562   3.007 -0.5349  0.1480 -1.0402
 7325SOL    HW133608   1.362   4.589   2.917  0.8020  2.1310 -0.1429
 7325SOL    HW233609   1.255   4.599   3.027 -1.4381 -1.0331 -2.8225
 7326SOL     OW33610   2.507   2.366   5.818  0.4007  0.4360  0.0625
 7326SOL    HW133611   2.592   2.400   5.844  0.0408 -1.1785  3.3948
 7326SOL    HW233612   2.541   2.278   5.803  0.1122  0.5766 -1.3529
 7327SOL     OW33613   1.457   1.517   8.259  0.7594 -0.2120  0.0960
 7327SOL    HW133614   1.508   1.577   8.204  0.5481 -0.0772  0.0470
 7327SOL    HW233615   1.448   1.561   8.343  3.7872  1.1729 -0.3175
 7328SOL     OW33616   0.517   4.676  13.515 -0.2507 -0.3414 -0.3658
 7328SOL    HW133617   0.446   4.633  13.563  0.5080 -1.7469 -0.5042
 7328SOL    HW233618   0.464   4.732  13.458  0.2806 -1.3065 -1.8221
 7329SOL     OW33619   3.554   0.450   3.345  0.0671 -0.4710 -0.2019
 7329SOL    HW133620   3.516   0.406   3.420 -0.8539 -0.4744 -0.6703
 7329SOL    HW233621   3.500   0.404   3.280 -2.3730  0.1121  1.4410
 7330SOL     OW33622   3.012   3.312   3.612 -0.0527 -0.1052 -0.6016
 7330SOL    HW133623   3.078   3.249   3.581  0.3071  0.2973 -0.6551
 7330SOL    HW233624   3.020   3.303   3.707 -3.9573 -0.2890 -0.2965
 7331SOL     OW33625   2.973   3.702   7.525  0.3736  0.0520  0.3107
 7331SOL    HW133626   3.016   3.749   7.453 -2.4213  0.5831 -0.9793
 7331SOL    HW233627   2.955   3.776   7.583 -3.1461 -0.5430 -0.0363
 7332SOL     OW33628   3.376   4.105  12.534  0.1630 -0.1621 -0.4551
 7332SOL    HW133629   3.335   4.020  12.516 -0.2181 -0.2312  0.7679
 7332SOL    HW233630   3.442   4.105  12.465 -0.8883 -1.4683 -1.4621
 7333SOL     OW33631   2.414   1.153   6.287 -0.3814  0.0210 -0.0392
 7333SOL    HW133632   2.361   1.081   6.322 -1.6686  1.2534  0.5510
 7333SOL    HW233633   2.421   1.220   6.355  1.2638  2.0432 -2.1845
 7334SOL     OW33634   0.395   3.980  12.006  0.1792 -0.3553  0.5106
 7334SOL    HW133635   0.491   3.982  12.009  0.2595 -2.0042 -1.2964
 7334SOL    HW233636   0.371   4.057  12.058 -0.3613  0.1618 -0.4883
 7335SOL     OW33637   4.273   1.287   5.502  0.1758  0.3305 -0.2299
 7335SOL    HW133638   4.289   1.379   5.479 -0.2344 -0.2506 -2.8281
 7335SOL    HW233639   4.363   1.278   5.533  0.5551  1.9915 -0.8314
 7336SOL     OW33640   3.657   4.024   4.803 -0.5238  0.2267  0.4242
 7336SOL    HW133641   3.626   3.935   4.793  3.7042 -1.4458  1.9909
 7336SOL    HW233642   3.648   4.054   4.713 -0.6230 -2.3841 -0.4334
 7337SOL     OW33643   4.106   1.049   5.469 -0.3267 -0.2056  0.1905
 7337SOL    HW133644   4.180   1.097   5.506 -0.4876  1.5382 -1.7763
 7337SOL    HW233645   4.132   1.052   5.377  1.2242  0.7121  0.6546
 7338SOL     OW33646   1.148   3.574   1.851  0.2168 -0.1689 -0.4192
 7338SOL    HW133647   1.161   3.543   1.761 -0.9816 -0.3647 -0.5241
 7338SOL    HW233648   1.095   3.498   1.876  0.4732 -0.4316 -0.6675
 7339SOL     OW33649   1.218   2.784  12.339  0.4952 -0.3717 -0.4121
 7339SOL    HW133650   1.298   2.734  12.355 -0.2970 -1.8524 -1.0470
 7339SOL    HW233651   1.156   2.721  12.376  0.2511 -0.8247 -1.5766
 7340SOL     OW33652   4.044   3.342   6.042 -0.0100  0.2407 -0.3516
 7340SOL    HW133653   4.026   3.281   6.113 -2.0342  0.0464 -1.0388
 7340SOL    HW233654   4.139   3.334   6.042  0.0547  0.9891 -0.5940
 7341SOL     OW33655   0.608   3.015  11.878 -0.1685 -0.4858 -0.1583
 7341SOL    HW133656   0.521   3.017  11.918  0.0415 -1.0199  0.3136
 7341SOL    HW233657   0.649   3.082  11.932 -3.8977  2.0684 -0.4492
 7342SOL     OW33658   1.264   3.195   4.690  0.1190 -1.0545 -0.5708
 7342SOL    HW133659   1.171   3.174   4.693 -0.2379  0.8492  1.2027
 7342SOL    HW233660   1.267   3.172   4.597 -0.9232 -0.9846 -0.6242
 7343SOL     OW33661   0.852   2.174   4.196  0.4384  0.3009  0.0022
 7343SOL    HW133662   0.761   2.203   4.198 -0.1715 -1.7262  0.8586
 7343SOL    HW233663   0.886   2.256   4.231  3.2935 -0.6390 -0.5151
 7344SOL     OW33664   2.190   2.781  11.717  0.3108 -0.4549 -0.0723
 7344SOL    HW133665   2.133   2.809  11.788  0.1695  0.9368 -0.7306
 7344SOL    HW233666   2.213   2.694  11.752  0.8546 -0.3268 -0.1115
 7345SOL     OW33667   2.162   2.197   4.032 -0.0630 -0.0034  0.4922
 7345SOL    HW133668   2.224   2.195   4.105  1.3104 -1.8079 -0.7285
 7345SOL    HW233669   2.217   2.163   3.961  1.8897 -1.7823  2.8629
 7346SOL     OW33670   1.390   4.385  10.216 -0.2067 -0.6249  0.4074
 7346SOL    HW133671   1.378   4.435  10.135 -2.3758 -0.0087  1.1172
 7346SOL    HW233672   1.349   4.441  10.282 -2.6394 -0.4700 -1.2187
 7347SOL     OW33673   0.478   3.125   5.156  0.4923 -0.1248 -0.0638
 7347SOL    HW133674   0.422   3.179   5.099  1.2476 -0.6242 -1.2963
 7347SOL    HW233675   0.461   3.165   5.241  1.8181 -2.1058  1.1165
 7348SOL     OW33676   0.825   0.500   8.296 -0.3161 -0.0965  0.7441
 7348SOL    HW133677   0.858   0.417   8.330  0.3054 -0.3126 -0.3845
 7348SOL    HW233678   0.738   0.476   8.264  0.5077 -1.1053 -0.7525
 7349SOL     OW33679   0.195   3.264   8.549 -0.5191  0.0690  0.6403
 7349SOL    HW133680   0.255   3.320   8.499  1.5472 -0.9358  2.0226
 7349SOL    HW233681   0.147   3.232   8.472  0.9242  0.0618 -0.2702
 7350SOL     OW33682   2.391   4.256   5.534  0.1731 -0.2454 -0.0484
 7350SOL    HW133683   2.308   4.259   5.486 -0.3192  0.1298  0.8325
 7350SOL    HW233684   2.364   4.274   5.624 -0.2470 -3.1962  0.4439
 7351SOL     OW33685   2.531   1.988  12.999 -0.1257 -0.9854  0.0712
 7351SOL    HW133686   2.617   2.006  13.037 -0.4351 -0.4135  0.4964
 7351SOL    HW233687   2.528   2.053  12.928 -3.6958  0.6672  1.7708
 7352SOL     OW33688   4.170   2.439   4.317  0.4395 -0.0703  0.5206
 7352SOL    HW133689   4.134   2.381   4.251  1.4156  0.6884 -0.6785
 7352SOL    HW233690   4.263   2.456   4.299  0.2446  1.0232  0.5670
 7353SOL     OW33691   3.299   2.680  15.026  0.3872  0.1047 -0.4762
 7353SOL    HW133692   3.359   2.731  15.080  1.1887  0.5274 -1.7640
 7353SOL    HW233693   3.335   2.594  15.047 -0.3174  0.0113  0.3315
 7354SOL     OW33694   3.623   0.042   7.642 -0.4901 -0.0432  0.0220
 7354SOL    HW133695   3.547   0.097   7.623 -1.5015 -1.5125 -0.2511
 7354SOL    HW233696   3.692   0.073   7.584 -1.4987 -0.7602 -1.5856
 7355SOL     OW33697   3.794   0.504   2.894  0.0155  0.4249 -0.2838
 7355SOL    HW133698   3.783   0.437   2.827 -0.9023  0.2343  0.0620
 7355SOL    HW233699   3.854   0.459   2.953  0.7060 -1.3829 -2.3536
 7356SOL     OW33700   0.277   4.640   0.531  0.6356 -0.3816 -0.2710
 7356SOL    HW133701   0.233   4.630   0.616 -1.0065 -1.7534 -1.2795
 7356SOL    HW233702   0.345   4.575   0.547 -1.0214 -1.8671  0.8054
 7357SOL     OW33703   0.826   0.667   3.281  0.1777  0.1471 -0.2442
 7357SOL    HW133704   0.859   0.757   3.277 -1.8229  0.9212  0.6807
 7357SOL    HW233705   0.802   0.653   3.189  0.2074 -3.0935  0.2636
 7358SOL     OW33706   1.763   4.070   9.624 -0.1118 -0.2534 -0.4033
 7358SOL    HW133707   1.748   4.159   9.592 -1.4356  0.5359  2.4026
 7358SOL    HW233708   1.819   4.087   9.700 -0.1888  0.4855 -0.5189
 7359SOL     OW33709   3.001   0.689   7.575  0.4599 -0.1432  0.3480
 7359SOL    HW133710   2.923   0.724   7.531 -0.7319 -0.8367  1.9393
 7359SOL    HW233711   3.056   0.672   7.498  0.1534  1.8880 -0.3195
 7360SOL     OW33712   1.916   1.161   2.434 -0.1054  0.0086 -0.4235
 7360SOL    HW133713   1.830   1.144   2.396 -0.4175 -0.6412  0.5699
 7360SOL    HW233714   1.898   1.123   2.520  1.2771  1.8968  0.7004
 7361SOL     OW33715   3.833   1.983   8.128 -0.0793  0.0644  0.3517
 7361SOL    HW133716   3.915   1.999   8.174  1.5344  1.4256 -2.9825
 7361SOL    HW233717   3.779   2.056   8.160  2.9655  2.1830  0.6166
 7362SOL     OW33718   3.325   3.438   3.858  0.1708 -0.2508  0.6385
 7362SOL    HW133719   3.317   3.347   3.888  0.4848 -0.8304 -0.9940
 7362SOL    HW233720   3.402   3.470   3.905  0.9800 -0.6075 -0.4420
 7363SOL     OW33721   1.079   2.539   9.065  0.6915  0.0816  0.0494
 7363SOL    HW133722   1.103   2.490   8.987 -0.2843 -1.5367  0.7436
 7363SOL    HW233723   1.027   2.616   9.043  0.9833 -0.6578 -3.1324
 7364SOL     OW33724   2.593   1.969   3.251  0.4860  0.0169  0.1607
 7364SOL    HW133725   2.525   1.979   3.185 -0.2833 -2.5366  0.5485
 7364SOL    HW233726   2.667   1.967   3.189 -1.3155 -1.3977 -1.9404
 7365SOL     OW33727   4.698   1.129   5.332  0.0358 -0.5921 -0.2184
 7365SOL    HW133728   0.044   1.179   5.316 -0.7554  0.4269 -1.0345
 7365SOL    HW233729   4.693   1.072   5.255  2.8819  0.6828 -1.3822
 7366SOL     OW33730   1.946   3.409   8.786 -0.2094  0.0628 -0.4083
 7366SOL    HW133731   1.886   3.372   8.851  0.4237 -1.3364 -0.6222
 7366SOL    HW233732   2.027   3.384   8.831  0.5063 -0.3888 -1.9718
 7367SOL     OW33733   1.823   4.434   9.196  0.6498 -0.4311 -0.5445
 7367SOL    HW133734   1.872   4.420   9.116 -0.3661 -1.1895 -1.0389
 7367SOL    HW233735   1.871   4.504   9.240  0.8337 -1.0256  0.2001
 7368SOL     OW33736   2.812   0.848   2.939 -0.7215 -0.4634 -0.4897
 7368SOL    HW133737   2.776   0.760   2.942 -1.7496 -0.0600 -1.3234
 7368SOL    HW233738   2.825   0.848   3.034  0.7480 -0.8756 -0.6892
 7369SOL     OW33739   1.556   2.388   1.999 -0.1026  0.6017  0.4749
 7369SOL    HW133740   1.614   2.398   1.924 -1.1227  4.4021  0.2108
 7369SOL    HW233741   1.594   2.310   2.038  0.1088 -0.7997 -2.5664
 7370SOL     OW33742   2.356   0.572   5.428 -0.2762  0.1915  0.0200
 7370SOL    HW133743   2.290   0.639   5.412  0.3460  0.9095  0.4796
 7370SOL    HW233744   2.330   0.545   5.516  0.8200 -2.0672 -0.3325
 7371SOL     OW33745   2.325   0.916   4.346 -0.0590  0.3135 -0.0475
 7371SOL    HW133746   2.257   0.899   4.412  1.3903 -0.9756  1.0975
 7371SOL    HW233747   2.384   0.978   4.390  0.8692 -1.1949  0.8261
 7372SOL     OW33748   1.807   4.651   7.170 -0.2430  0.0133 -0.1387
 7372SOL    HW133749   1.741   4.707   7.130 -1.5850  0.3963  2.5779
 7372SOL    HW233750   1.815   4.682   7.260  3.0043  3.6376 -1.6698
 7373SOL     OW33751   3.938   2.867  10.761  0.3586  0.2877 -0.0097
 7373SOL    HW133752   3.924   2.786  10.811 -0.0719 -0.6264 -1.5883
 7373SOL    HW233753   3.861   2.921  10.775 -0.4377 -1.5737  2.7441
 7374SOL     OW33754   2.890   1.862   3.514 -0.1699  0.3769 -0.2931
 7374SOL    HW133755   2.813   1.841   3.566 -0.3000  0.0346 -0.6202
 7374SOL    HW233756   2.863   1.821   3.431 -1.3253 -0.8653  0.6867
 7375SOL     OW33757   3.223   4.178   7.145  0.1072 -0.0379  0.1347
 7375SOL    HW133758   3.248   4.169   7.053 -2.6920 -2.6722 -0.3604
 7375SOL    HW233759   3.215   4.273   7.158 -2.3585 -0.4593  1.7220
 7376SOL     OW33760   3.555   1.371  10.453  0.3324  0.3333 -0.4639
 7376SOL    HW133761   3.487   1.344  10.515 -1.8627  0.2385 -2.8951
 7376SOL    HW233762   3.551   1.295  10.396  2.7233  0.4503 -0.7932
 7377SOL     OW33763   4.719   0.629  15.059 -0.1759 -0.3756  0.4626
 7377SOL    HW133764   4.634   0.624  15.102 -0.4535  0.0212 -0.0491
 7377SOL    HW233765   0.013   0.718  15.079  2.9195 -0.4611 -3.3751
 7378SOL     OW33766   1.804   1.678   9.393  0.0009 -0.3120 -0.2214
 7378SOL    HW133767   1.738   1.656   9.459 -0.9358  0.0614 -1.0288
 7378SOL    HW233768   1.771   1.763   9.364 -2.4684 -0.4668  2.0792
 7379SOL     OW33769   1.209   2.228   0.271  0.2463 -0.2371  0.1228
 7379SOL    HW133770   1.148   2.302   0.273  1.8753  1.0772  1.8242
 7379SOL    HW233771   1.155   2.167   0.220  0.1424  0.2008 -0.2876
 7380SOL     OW33772   1.797   2.941  15.081 -0.0717 -0.1201  0.1150
 7380SOL    HW133773   1.705   2.929  15.100  0.6276 -2.6023  1.8973
 7380SOL    HW233774   1.797   2.931  14.986  1.9155  1.1676 -0.0264
 7381SOL     OW33775   1.283   3.490   8.834 -0.0041 -0.2333 -0.0568
 7381SOL    HW133776   1.358   3.446   8.875  0.2062  0.3672  0.1988
 7381SOL    HW233777   1.297   3.479   8.740  0.8569  3.4673 -0.3706
 7382SOL     OW33778   3.581   1.213  17.039  0.6124 -0.3570 -0.0244
 7382SOL    HW133779   3.504   1.198  17.093 -1.1385  0.9487 -2.1563
 7382SOL    HW233780   3.628   1.274  17.097  1.5068 -0.7530 -0.3305
 7383SOL     OW33781   1.084   3.579   2.189 -0.2461 -0.0092  0.2743
 7383SOL    HW133782   1.051   3.491   2.169 -1.8236 -0.3568  4.4377
 7383SOL    HW233783   1.176   3.564   2.211  0.0152  1.8734  0.4899
 7384SOL     OW33784   1.589   2.902  17.114 -0.0236 -0.3246  0.4117
 7384SOL    HW133785   1.653   2.846  17.159 -0.9410 -0.5997  1.3696
 7384SOL    HW233786   1.635   2.935  17.036 -2.8197  0.3104 -0.9601
 7385SOL     OW33787   1.973   2.830   4.084 -0.1504  0.2721  0.3934
 7385SOL    HW133788   1.994   2.782   4.004 -2.4742 -2.0443  1.1469
 7385SOL    HW233789   1.946   2.763   4.147 -0.4712 -0.3007 -0.3457
 7386SOL     OW33790   3.016   4.646   1.388 -0.6565  0.1172  0.0654
 7386SOL    HW133791   3.010   4.727   1.438 -0.8373  1.1185 -1.5707
 7386SOL    HW233792   3.053   4.594   1.459  1.1289  0.7957 -0.3737
 7387SOL     OW33793   2.129   4.498   7.832  0.3778 -0.4450 -0.2774
 7387SOL    HW133794   2.165   4.544   7.908  0.1340  0.6823 -0.8321
 7387SOL    HW233795   2.137   4.408   7.860  2.1942  0.0108  0.6682
 7388SOL     OW33796   4.219   1.737  11.735  0.0255 -0.0227 -0.1638
 7388SOL    HW133797   4.300   1.779  11.763 -0.1902 -1.4776  2.6468
 7388SOL    HW233798   4.233   1.740  11.640  1.2511 -2.6060 -0.0714
 7389SOL     OW33799   2.198   1.362  13.141  0.7098 -0.5358 -0.1846
 7389SOL    HW133800   2.226   1.304  13.070  0.1607  1.5463 -2.0850
 7389SOL    HW233801   2.125   1.400  13.092 -0.1027 -0.6227  0.9611
 7390SOL     OW33802   0.661   0.926  12.106  0.5723  0.4590  0.9175
 7390SOL    HW133803   0.620   0.855  12.055  3.3687 -0.0140 -0.6519
 7390SOL    HW233804   0.599   0.932  12.178  1.6405  2.8705  1.6083
 7391SOL     OW33805   1.223   3.527  17.612  0.0438  0.1730  0.2227
 7391SOL    HW133806   1.225   3.618  17.643  0.7803  0.1931  0.1005
 7391SOL    HW233807   1.315   3.510  17.594 -0.2352  0.7359 -1.7427
 7392SOL     OW33808   0.101   3.382   4.577 -0.1653  0.4131 -0.2810
 7392SOL    HW133809   0.027   3.399   4.519 -0.2018  0.0769 -0.3335
 7392SOL    HW233810   0.072   3.421   4.659  3.6489  2.6766  0.0167
 7393SOL     OW33811   4.731   3.186   3.571  0.4135 -0.0110  0.3244
 7393SOL    HW133812   4.706   3.274   3.600  1.4593  0.1956  0.6190
 7393SOL    HW233813   4.699   3.133   3.644 -1.0727 -2.1155 -1.8774
 7394SOL     OW33814   1.164   3.922   7.689 -0.0763 -0.0747 -0.0269
 7394SOL    HW133815   1.236   3.949   7.746  1.2257 -1.5050 -0.9840
 7394SOL    HW233816   1.200   3.856   7.629 -2.2315 -1.2990  0.0103
 7395SOL     OW33817   3.524   2.367  14.202 -0.0999 -0.0700  0.0467
 7395SOL    HW133818   3.525   2.452  14.247  1.0099 -0.5648  0.9539
 7395SOL    HW233819   3.473   2.324  14.270  0.7379  0.0513  0.7623
 7396SOL     OW33820   4.348   0.631  11.534  0.0221 -0.1714 -0.2985
 7396SOL    HW133821   4.421   0.690  11.520  0.0833 -0.1001  0.3002
 7396SOL    HW233822   4.333   0.634  11.629  2.2689  0.6535  0.0115
 7397SOL     OW33823   1.803   1.186   5.889  0.0922 -0.0449  0.3712
 7397SOL    HW133824   1.888   1.146   5.873 -0.0169 -0.0716 -0.1514
 7397SOL    HW233825   1.749   1.150   5.819  1.5488  1.5935 -1.5937
 7398SOL     OW33826   3.479   1.417   6.261  0.2659 -0.3603  0.6384
 7398SOL    HW133827   3.399   1.429   6.311 -0.3510  2.1316 -0.9615
 7398SOL    HW233828   3.538   1.463   6.322 -0.5659  0.8669  0.5190
 7399SOL     OW33829   0.127   3.545   5.807 -0.5861 -0.7931  0.2414
 7399SOL    HW133830   0.154   3.632   5.779  1.6884 -1.4649  0.4112
 7399SOL    HW233831   0.074   3.568   5.884 -0.3156  1.7981 -0.3340
 7400SOL     OW33832   4.419   1.470  17.387  0.2830  0.1176 -0.0325
 7400SOL    HW133833   4.350   1.438  17.445  1.6423 -1.2773  0.8257
 7400SOL    HW233834   4.393   1.433  17.303  2.2376  2.0412 -1.4877
 7401SOL     OW33835   3.156   4.090   9.985 -0.0484 -0.4603 -0.0102
 7401SOL    HW133836   3.092   4.136  10.039 -0.0362  0.1170 -0.4923
 7401SOL    HW233837   3.227   4.148  10.014  0.8484 -0.9470 -1.2185
 7402SOL     OW33838   0.236   3.652  16.675  0.0468  0.5590  0.0231
 7402SOL    HW133839   0.306   3.636  16.738  1.3335  0.2205 -1.4853
 7402SOL    HW233840   0.260   3.739  16.644  0.0665 -0.2674 -2.3210
 7403SOL     OW33841   1.885   4.093   6.268  0.4303 -0.1729  0.5600
 7403SOL    HW133842   1.953   4.161   6.260  1.5524 -1.6333 -2.4011
 7403SOL    HW233843   1.845   4.112   6.352 -0.0763  0.7799  0.1069
 7404SOL     OW33844   2.589   4.375   5.355  0.1965  0.4085 -0.4096
 7404SOL    HW133845   2.518   4.338   5.407 -0.1783 -1.2293 -2.0818
 7404SOL    HW233846   2.658   4.368   5.421 -0.1114 -0.4859 -0.1794
 7405SOL     OW33847   1.501   1.364   5.274 -0.9804  1.3603 -0.1713
 7405SOL    HW133848   1.530   1.291   5.330 -0.2141  1.4212 -0.4994
 7405SOL    HW233849   1.407   1.368   5.290 -0.8626 -2.3663  1.5453
 7406SOL     OW33850   3.468   3.490   9.407 -0.1695  0.2754  0.1642
 7406SOL    HW133851   3.452   3.424   9.475  1.2260 -0.9794 -0.7175
 7406SOL    HW233852   3.505   3.437   9.336 -1.8046  0.6292 -0.9545
 7407SOL     OW33853   1.256   1.911   7.958 -0.0575 -0.0866 -0.4035
 7407SOL    HW133854   1.218   1.860   7.886 -0.0485  1.7924 -1.7428
 7407SOL    HW233855   1.281   1.843   8.021  0.2266 -0.8813 -1.3732
 7408SOL     OW33856   2.427   0.187   5.163  0.1972 -0.6999 -0.4747
 7408SOL    HW133857   2.490   0.115   5.169 -0.6799 -1.6699 -3.2374
 7408SOL    HW233858   2.348   0.143   5.132 -1.3790  1.0062  1.1412
 7409SOL     OW33859   2.903   1.232   2.390  0.2564 -0.1891 -0.2079
 7409SOL    HW133860   2.838   1.167   2.416  0.0444 -0.0057 -0.2793
 7409SOL    HW233861   2.848   1.309   2.377  0.2636 -0.1620 -0.0812
 7410SOL     OW33862   0.911   0.254   9.509 -0.7170  0.9048 -0.8897
 7410SOL    HW133863   0.959   0.290   9.584  0.1436  1.3743 -1.6750
 7410SOL    HW233864   0.836   0.313   9.504 -1.6949 -0.3101 -0.5215
 7411SOL     OW33865   2.839   1.839   8.885 -0.0839  0.1691 -0.0580
 7411SOL    HW133866   2.756   1.796   8.907  0.8674 -1.6423  0.0422
 7411SOL    HW233867   2.815   1.893   8.810 -2.3719  0.2770  0.7757
 7412SOL     OW33868   1.687   1.852   5.407 -0.3798 -0.2722  0.2825
 7412SOL    HW133869   1.663   1.759   5.415  1.0135 -0.6575 -0.1494
 7412SOL    HW233870   1.684   1.886   5.497 -1.2916  2.0357 -0.6318
 7413SOL     OW33871   1.402   0.719  10.384  0.1887 -0.3163 -0.1670
 7413SOL    HW133872   1.411   0.706  10.290  2.0472  4.0218 -0.6115
 7413SOL    HW233873   1.445   0.804  10.390 -0.6049  0.1419 -0.9682
 7414SOL     OW33874   0.850   3.514   1.367 -0.1737  0.4511  0.2424
 7414SOL    HW133875   0.870   3.429   1.329  1.9635 -0.3393  3.1710
 7414SOL    HW233876   0.860   3.572   1.291 -0.0375  1.1451  0.7875
 7415SOL     OW33877   0.391   4.615   3.621 -0.4235  0.2133  0.2393
 7415SOL    HW133878   0.447   4.555   3.669  1.2325  2.3356  0.9516
 7415SOL    HW233879   0.455   4.676   3.585 -0.9939 -0.9386 -2.7361
 7416SOL     OW33880   2.141   2.156   0.573 -0.4942 -0.2140  0.3290
 7416SOL    HW133881   2.058   2.109   0.580 -1.3119  1.2457  0.2349
 7416SOL    HW233882   2.110   2.213   0.503 -2.2773 -1.5271  0.0402
 7417SOL     OW33883   1.289   1.755   0.184  0.0925  0.7329 -0.1941
 7417SOL    HW133884   1.222   1.725   0.123 -1.8272  3.0477  0.7958
 7417SOL    HW233885   1.319   1.828   0.131  0.1685  0.0401 -1.1123
 7418SOL     OW33886   2.415   2.559   6.199  0.1302  0.5434 -0.2378
 7418SOL    HW133887   2.360   2.632   6.227 -1.2020 -0.7744  0.5698
 7418SOL    HW233888   2.457   2.533   6.280 -2.2427 -1.3909  0.3762
 7419SOL     OW33889   4.645   2.126   7.636 -0.3025 -0.8412 -0.1892
 7419SOL    HW133890   4.674   2.100   7.549  0.6966 -3.0495  0.7844
 7419SOL    HW233891   4.550   2.140   7.630  0.0429  0.8487 -1.6559
 7420SOL     OW33892   3.703   3.699  14.865 -0.0493  0.3699  0.4225
 7420SOL    HW133893   3.786   3.659  14.840 -0.7896 -0.3609 -0.8822
 7420SOL    HW233894   3.723   3.712  14.958 -0.4112  1.0363  0.4132
 7421SOL     OW33895   1.039   1.849   3.444  0.2420 -0.0048 -0.2337
 7421SOL    HW133896   1.108   1.882   3.386  0.9446  0.3339  0.7841
 7421SOL    HW233897   1.072   1.762   3.465 -0.8578 -0.4370 -0.2879
 7422SOL     OW33898   0.704   3.716   2.175  0.0455  0.3457  0.5467
 7422SOL    HW133899   0.673   3.763   2.253  0.7651 -1.4934  1.9403
 7422SOL    HW233900   0.769   3.775   2.137 -0.1625  0.7992  0.8897
 7423SOL     OW33901   0.099   0.435   6.471 -0.5530 -0.1023 -0.6171
 7423SOL    HW133902   0.153   0.370   6.425 -2.7401 -0.9416 -1.9872
 7423SOL    HW233903   0.138   0.521   6.455 -1.8690  0.6658  0.3130
 7424SOL     OW33904   4.118   2.920  11.820  0.2086 -0.1029 -0.3165
 7424SOL    HW133905   4.188   2.871  11.777  0.7810 -1.0619  1.7033
 7424SOL    HW233906   4.154   2.934  11.907 -0.3836 -0.4664 -0.0067
 7425SOL     OW33907   1.520   2.548   6.621 -0.0450 -0.0767  0.6068
 7425SOL    HW133908   1.482   2.633   6.600  0.2827  0.8529  3.7396
 7425SOL    HW233909   1.514   2.501   6.539  1.2367 -0.5830  0.8002
 7426SOL     OW33910   3.059   2.149   4.254  1.0542  0.1205 -0.0204
 7426SOL    HW133911   3.034   2.239   4.274  0.0544  0.2565 -1.8328
 7426SOL    HW233912   3.032   2.101   4.331 -0.3433 -0.2002 -0.7155
 7427SOL     OW33913   3.876   1.618   2.559 -0.7308 -0.6886 -0.2794
 7427SOL    HW133914   3.923   1.615   2.476 -1.3712 -0.6470 -0.6436
 7427SOL    HW233915   3.948   1.600   2.620 -1.1227 -0.8943  0.1261
 7428SOL     OW33916   2.491   0.550  17.281  0.1568  0.1889 -0.5207
 7428SOL    HW133917   2.489   0.635  17.237  2.6769  0.4507 -0.1133
 7428SOL    HW233918   2.553   0.581  17.346 -0.0176 -0.3578 -0.0922
 7429SOL     OW33919   3.156   1.621   6.812  0.1813  0.4414 -0.7962
 7429SOL    HW133920   3.155   1.655   6.722  0.7922 -1.8449 -1.6691
 7429SOL    HW233921   3.186   1.531   6.802 -0.9175 -0.1258  1.0110
 7430SOL     OW33922   1.215   1.182  12.874  0.0132  0.1264 -0.1850
 7430SOL    HW133923   1.202   1.184  12.968  1.3001  0.2636 -0.0071
 7430SOL    HW233924   1.297   1.132  12.867  1.5844  2.5909  0.4934
 7431SOL     OW33925   3.884   2.979  14.207  0.1611  0.1063  0.2608
 7431SOL    HW133926   3.897   2.966  14.301  0.4453 -1.0445  0.0711
 7431SOL    HW233927   3.860   2.889  14.183 -2.5834  0.6421  1.1046
 7432SOL     OW33928   2.689   3.275   6.100  0.7067  0.2765  0.4040
 7432SOL    HW133929   2.759   3.279   6.165  0.1297  1.1630  0.9705
 7432SOL    HW233930   2.628   3.209   6.134  0.2404 -0.1148 -1.2144
 7433SOL     OW33931   3.878   2.654   2.562 -0.2199  0.4009 -0.0885
 7433SOL    HW133932   3.866   2.699   2.645  0.6337  1.5551 -0.5987
 7433SOL    HW233933   3.912   2.723   2.505 -1.1410  0.8455 -0.0962
 7434SOL     OW33934   0.143   4.150   7.073  0.2440 -0.1533 -0.5620
 7434SOL    HW133935   0.187   4.084   7.019 -2.3156 -2.1007 -0.2864
 7434SOL    HW233936   0.153   4.226   7.017  0.2124 -2.3928 -3.6118
 7435SOL     OW33937   3.473   1.851   9.469  0.6663  0.3314 -0.2679
 7435SOL    HW133938   3.552   1.856   9.523  0.5543  1.4845 -0.2108
 7435SOL    HW233939   3.483   1.765   9.430 -0.8509 -0.4492  1.0819
 7436SOL     OW33940   2.355   2.526   9.918  0.2672  0.3763 -0.4014
 7436SOL    HW133941   2.446   2.538   9.942  0.0624  1.6481 -0.2835
 7436SOL    HW233942   2.321   2.615   9.918  2.8862  1.3612 -0.4392
 7437SOL     OW33943   0.444   0.273   8.059 -0.6530  0.4216 -0.6529
 7437SOL    HW133944   0.362   0.316   8.085 -0.6555  0.6783 -1.0833
 7437SOL    HW233945   0.509   0.330   8.100  0.2625 -1.1956  0.1651
 7438SOL     OW33946   3.120   1.622  10.774 -0.7503  0.0736  0.1502
 7438SOL    HW133947   3.172   1.687  10.822  0.7163  0.1331 -1.5086
 7438SOL    HW233948   3.165   1.620  10.689 -1.4354 -0.0501 -0.2056
 7439SOL     OW33949   0.868   2.717   4.811 -0.5239 -0.1045  0.5173
 7439SOL    HW133950   0.944   2.688   4.760 -0.1003  1.7741  0.1007
 7439SOL    HW233951   0.799   2.653   4.794 -2.1235  1.5102  0.9589
 7440SOL     OW33952   0.669   1.034   6.035 -0.5329  0.4213 -0.4155
 7440SOL    HW133953   0.614   0.971   6.080  0.2109 -0.1328 -0.2859
 7440SOL    HW233954   0.708   0.977   5.969  2.5494  1.8984  0.1114
 7441SOL     OW33955   1.748   1.579   2.038 -0.0878  0.4764 -0.2661
 7441SOL    HW133956   1.775   1.494   2.075 -1.5787 -0.0704 -0.4412
 7441SOL    HW233957   1.826   1.634   2.028  1.3602 -1.1539  1.7685
 7442SOL     OW33958   2.500   3.010   8.418  0.0432 -0.3889 -0.3780
 7442SOL    HW133959   2.470   3.100   8.424 -0.3046 -0.4922 -0.5785
 7442SOL    HW233960   2.418   2.967   8.395  0.3991 -1.9567  1.2465
 7443SOL     OW33961   3.512   4.410  16.016 -0.0011 -0.0542  0.4259
 7443SOL    HW133962   3.540   4.355  16.089  0.2685 -2.3554 -1.4275
 7443SOL    HW233963   3.593   4.461  16.013  0.3254 -0.6397 -0.6853
 7444SOL     OW33964   1.043   4.533   9.206 -0.5141  0.0284  0.1145
 7444SOL    HW133965   1.130   4.566   9.228 -0.9510  0.2878  1.4374
 7444SOL    HW233966   1.058   4.498   9.118  0.0530  0.3660  0.0739
 7445SOL     OW33967   2.571   0.733   0.786  0.5782  0.4058 -0.4661
 7445SOL    HW133968   2.653   0.691   0.811 -0.2748  0.5146  2.5509
 7445SOL    HW233969   2.562   0.711   0.693  0.0644  0.0060 -0.3258
 7446SOL     OW33970   3.080   4.353  16.015  0.9503 -0.6085  0.0844
 7446SOL    HW133971   3.073   4.333  15.922 -0.0570  1.1467 -0.2205
 7446SOL    HW233972   3.151   4.299  16.050  2.1731  2.0029  1.6543
 7447SOL     OW33973   1.616   1.989   0.594  0.0596 -0.4958  0.2273
 7447SOL    HW133974   1.635   1.917   0.534  1.7517 -0.1448  0.3279
 7447SOL    HW233975   1.527   2.009   0.564  0.3042  1.9413  1.1031
 7448SOL     OW33976   3.249   3.856   9.246 -0.6409  0.2230  0.1019
 7448SOL    HW133977   3.287   3.826   9.329  2.9660  1.2242 -1.1634
 7448SOL    HW233978   3.305   3.811   9.184 -0.2629  1.9970 -0.8553
 7449SOL     OW33979   3.650   2.489   8.624  0.4557  0.1018  0.0073
 7449SOL    HW133980   3.614   2.481   8.535  0.7235  3.6073 -0.4325
 7449SOL    HW233981   3.731   2.440   8.613  1.0404  0.6178  2.0428
 7450SOL     OW33982   0.730   3.898  14.487 -0.5191  0.0117 -0.8372
 7450SOL    HW133983   0.734   3.855  14.572  1.4052 -1.7089 -1.7957
 7450SOL    HW233984   0.644   3.874  14.452 -1.1739 -0.7078  1.2789
 7451SOL     OW33985   0.360   3.138  17.238  0.2316  1.3422  0.2204
 7451SOL    HW133986   0.313   3.192  17.174  1.0043  4.0070  1.8966
 7451SOL    HW233987   0.443   3.118  17.195  0.2967 -1.3661  1.6537
 7452SOL     OW33988   1.436   2.941   2.008 -0.5104  0.5360  0.3928
 7452SOL    HW133989   1.386   2.860   1.999 -2.6887  1.9198 -0.1640
 7452SOL    HW233990   1.520   2.910   2.041 -0.1526  0.7959 -0.2670
 7453SOL     OW33991   4.730   3.886   2.849 -0.5374  0.4499  0.0279
 7453SOL    HW133992   0.087   3.874   2.874 -0.0271  1.7081 -1.2495
 7453SOL    HW233993   4.722   3.896   2.754  3.5937  2.5185 -0.0974
 7454SOL     OW33994   4.645   0.890   6.809 -0.0563 -0.2697  0.2846
 7454SOL    HW133995   4.675   0.863   6.896  1.4468 -0.1092 -0.1839
 7454SOL    HW233996   4.650   0.985   6.810 -0.6698 -0.2411  1.9477
 7455SOL     OW33997   4.301   0.010   0.982 -0.8056  0.1918 -0.3988
 7455SOL    HW133998   4.228   4.686   1.000  1.2179 -2.0213  0.7257
 7455SOL    HW233999   4.374   4.704   1.029  0.1623  0.0629 -1.9742
 7456SOL     OW34000   3.332   2.615   3.038  0.3934 -0.0619  0.0044
 7456SOL    HW134001   3.319   2.710   3.044  2.7479  0.2384  0.6275
 7456SOL    HW234002   3.269   2.594   2.970  1.0423  1.1413 -0.9799
 7457SOL     OW34003   2.089   2.411   3.871  0.5991 -0.9491  0.4729
 7457SOL    HW134004   2.178   2.443   3.855  0.5386 -1.3353 -0.6709
 7457SOL    HW234005   2.104   2.344   3.938  1.5880  0.2623  1.4601
 7458SOL     OW34006   1.474   4.154   4.173  0.3152 -0.1302 -0.2443
 7458SOL    HW134007   1.427   4.193   4.247 -1.1368  0.5915 -1.5703
 7458SOL    HW234008   1.563   4.189   4.181 -1.0482  2.9896  1.2331
 7459SOL     OW34009   4.442   4.734  13.898  0.3864 -0.1487 -0.2481
 7459SOL    HW134010   4.428   0.076  13.955 -2.9568 -1.3222  0.5308
 7459SOL    HW234011   4.364   0.007  13.842  1.4690 -0.0624 -1.7261
 7460SOL     OW34012   1.643   3.223   4.407  0.1204 -0.2853 -0.6972
 7460SOL    HW134013   1.643   3.282   4.483 -0.0448 -1.1550 -0.0213
 7460SOL    HW234014   1.566   3.254   4.360  0.1843 -1.9462 -1.8908
 7461SOL     OW34015   3.377   3.928   3.578  0.0544 -0.0005 -0.0747
 7461SOL    HW134016   3.463   3.900   3.545 -0.1825  1.3360 -1.8145
 7461SOL    HW234017   3.382   4.023   3.571  4.2625 -0.1466  0.9792
 7462SOL     OW34018   2.284   2.709   5.218 -0.0289  0.2053 -0.4466
 7462SOL    HW134019   2.263   2.625   5.176 -0.4519 -0.2879  0.7542
 7462SOL    HW234020   2.247   2.771   5.155 -0.2162 -1.1640 -1.6799
 7463SOL     OW34021   1.619   3.320   6.154  0.5921 -0.1118 -0.0616
 7463SOL    HW134022   1.609   3.340   6.247  0.8520  0.6938 -0.2052
 7463SOL    HW234023   1.640   3.410   6.127 -1.3640  0.6843  1.1064
 7464SOL     OW34024   2.990   2.570  15.482  0.2677 -0.3541  0.2656
 7464SOL    HW134025   2.990   2.616  15.398 -0.3363  1.7893  1.4445
 7464SOL    HW234026   3.084   2.561  15.500 -0.1938 -2.0375  1.8364
 7465SOL     OW34027   2.729   2.721   3.437  0.0888 -0.0174  0.2992
 7465SOL    HW134028   2.759   2.805   3.405  0.2001 -1.1630 -2.5769
 7465SOL    HW234029   2.765   2.714   3.526 -1.1278  0.9722  0.8704
 7466SOL     OW34030   4.499   4.301   1.715 -0.1216 -0.0910  0.2789
 7466SOL    HW134031   4.573   4.245   1.692 -0.3676  0.2164 -1.2115
 7466SOL    HW234032   4.450   4.239   1.769 -1.1480  1.9753  1.7568
 7467SOL     OW34033   0.526   1.669   7.252  0.4863 -0.3109  0.2528
 7467SOL    HW134034   0.482   1.637   7.173  1.7318  1.6604 -1.2542
 7467SOL    HW234035   0.514   1.764   7.252  0.0221 -0.3686 -1.8259
 7468SOL     OW34036   1.020   1.590   0.342 -0.1099  0.0138 -0.5913
 7468SOL    HW134037   1.034   1.506   0.298 -1.2911 -1.9713  2.7488
 7468SOL    HW234038   0.993   1.640   0.266 -3.2639 -1.4806 -0.4725
 7469SOL     OW34039   0.685   0.781  14.465 -0.7314  0.1984 -0.4093
 7469SOL    HW134040   0.755   0.733  14.420  2.0208  1.7489  2.2277
 7469SOL    HW234041   0.686   0.861  14.412 -0.0924  0.8270  0.5569
 7470SOL     OW34042   4.189   4.100   3.732 -0.4757 -0.4202 -1.1499
 7470SOL    HW134043   4.191   4.157   3.808 -0.3243  1.2319 -2.3835
 7470SOL    HW234044   4.222   4.161   3.666  1.5575 -0.1229  0.1721
 7471SOL     OW34045   4.214   4.635  12.560  0.3769  0.4781  0.4137
 7471SOL    HW134046   4.300   4.605  12.591  1.2953  1.8547 -0.7855
 7471SOL    HW234047   4.216   4.722  12.600 -2.1001  1.6630 -2.0739
 7472SOL     OW34048   2.310   4.076   0.841 -0.3425 -0.4354  0.1021
 7472SOL    HW134049   2.297   3.998   0.787  1.8502 -0.0037 -1.0286
 7472SOL    HW234050   2.310   4.033   0.927 -3.2892  0.6166  0.6513
 7473SOL     OW34051   3.573   1.832   6.494  0.3669  0.1441 -0.1301
 7473SOL    HW134052   3.643   1.781   6.454  2.0058  0.7437  1.9571
 7473SOL    HW234053   3.555   1.897   6.426 -4.2562 -1.3090 -0.3206
 7474SOL     OW34054   1.099   2.612  12.496 -0.1033 -0.3761 -0.2125
 7474SOL    HW134055   1.145   2.536  12.460 -2.7909 -2.1729  0.0625
 7474SOL    HW234056   1.004   2.601  12.486 -0.2340  1.1124 -0.5698
 7475SOL     OW34057   4.360   3.399   0.577 -0.2668 -0.2200  0.3537
 7475SOL    HW134058   4.323   3.326   0.527  0.2623 -0.5390  0.4352
 7475SOL    HW234059   4.453   3.381   0.567 -0.3546  0.2781 -1.3589
 7476SOL     OW34060   3.846   3.205  16.985  0.2463  0.1030 -0.7315
 7476SOL    HW134061   3.781   3.268  17.014  0.7677  0.0092  0.6693
 7476SOL    HW234062   3.904   3.193  17.061 -0.3872 -0.1671 -0.2912
 7477SOL     OW34063   1.318   4.134   7.824 -0.2138 -0.8813 -0.2459
 7477SOL    HW134064   1.406   4.118   7.789 -0.6584  0.7254 -2.0960
 7477SOL    HW234065   1.290   4.201   7.761 -0.9423 -0.6407  0.3298
 7478SOL     OW34066   0.754   2.960   4.781 -0.1758  0.0255 -0.2119
 7478SOL    HW134067   0.702   2.968   4.862  1.9182  0.7255  1.0503
 7478SOL    HW234068   0.775   2.867   4.783  0.9353  0.2699 -0.7458
 7479SOL     OW34069   1.350   3.449   3.402  0.0323 -0.1151  0.0996
 7479SOL    HW134070   1.288   3.382   3.432  0.1861 -0.7699 -1.0575
 7479SOL    HW234071   1.349   3.520   3.466 -0.1965  1.4789 -1.7001
 7480SOL     OW34072   0.150   1.511   7.626 -0.1290  0.5472 -0.0976
 7480SOL    HW134073   0.056   1.503   7.611 -0.2216  1.5145 -0.0405
 7480SOL    HW234074   0.177   1.439   7.568 -0.7556  0.2944 -0.0815
 7481SOL     OW34075   2.454   3.132   2.693 -0.2189 -0.4436  0.0172
 7481SOL    HW134076   2.494   3.173   2.616 -0.0153  1.5092  1.1476
 7481SOL    HW234077   2.455   3.208   2.752 -0.7333  1.7317 -2.8293
 7482SOL     OW34078   3.603   1.171   4.184  0.2070 -0.0637  0.0233
 7482SOL    HW134079   3.537   1.173   4.253 -0.2570 -1.9084 -0.3674
 7482SOL    HW234080   3.546   1.125   4.122  0.5531  1.3459 -1.3349
 7483SOL     OW34081   1.859   4.523  17.387 -0.8136  0.1066  0.5117
 7483SOL    HW134082   1.792   4.592  17.385 -0.0985  0.8849  3.2991
 7483SOL    HW234083   1.805   4.444  17.396 -0.8371 -0.1811 -2.3387
 7484SOL     OW34084   2.489   4.516   3.657  0.0207  0.3702 -0.0345
 7484SOL    HW134085   2.519   4.604   3.635 -0.7157  0.4174 -0.8780
 7484SOL    HW234086   2.573   4.470   3.665 -0.2753 -0.1199  0.2853
 7485SOL     OW34087   2.776   2.307   6.574 -0.4564  0.6779 -0.2217
 7485SOL    HW134088   2.800   2.380   6.631  0.9829 -0.9228  1.2186
 7485SOL    HW234089   2.681   2.299   6.578 -0.3426 -1.5819 -1.6105
 7486SOL     OW34090   3.258   2.503   0.994  0.3615  0.2560  0.1469
 7486SOL    HW134091   3.293   2.584   0.957  1.5547 -0.8138 -1.0610
 7486SOL    HW234092   3.220   2.459   0.919 -2.4328  0.2496  1.5722
 7487SOL     OW34093   4.198   0.373   8.058  0.2652 -0.3506  0.3430
 7487SOL    HW134094   4.271   0.321   8.089  0.7185  0.0518 -0.0513
 7487SOL    HW234095   4.196   0.430   8.135 -1.7138 -1.2241  0.9314
 7488SOL     OW34096   2.334   0.690   8.493  0.0270 -0.2504  0.0836
 7488SOL    HW134097   2.417   0.723   8.458 -0.0130 -0.4048 -0.1568
 7488SOL    HW234098   2.327   0.744   8.571  1.0387 -2.0575  1.4219
 7489SOL     OW34099   4.078   0.037   5.681 -0.4033 -0.0734  0.5828
 7489SOL    HW134100   4.162   0.062   5.719 -0.5398 -1.4348  1.7951
 7489SOL    HW234101   4.108   4.734   5.598 -0.5976  1.0914 -0.0237
 7490SOL     OW34102   2.032   2.965   2.589 -0.7303 -0.2677  0.5486
 7490SOL    HW134103   1.963   3.023   2.622 -1.9747 -1.2325 -0.3872
 7490SOL    HW234104   2.104   3.016   2.625 -0.2243 -0.0273 -0.8036
 7491SOL     OW34105   3.440   0.422  15.032  0.1146  0.0764  0.2460
 7491SOL    HW134106   3.387   0.362  14.980 -0.7716  0.5537  0.6072
 7491SOL    HW234107   3.506   0.443  14.966 -0.7735  1.1596 -0.2886
 7492SOL     OW34108   1.711   1.205   7.363  0.0920 -0.0229  1.0794
 7492SOL    HW134109   1.640   1.149   7.395 -0.4500  0.0396 -0.0324
 7492SOL    HW234110   1.683   1.293   7.390 -0.6639  0.0606  0.0225
 7493SOL     OW34111   3.951   3.115   3.731 -0.3899 -1.1350  0.5352
 7493SOL    HW134112   3.998   3.195   3.755  0.0684 -0.9201 -1.0674
 7493SOL    HW234113   3.907   3.134   3.648 -0.2424 -0.2794  0.6497
 7494SOL     OW34114   2.215   2.165   8.949  0.0833  0.4503 -0.1577
 7494SOL    HW134115   2.293   2.149   9.003  0.5926 -0.6921 -1.2220
 7494SOL    HW234116   2.232   2.089   8.894 -2.0874  0.4034 -0.7615
 7495SOL     OW34117   4.568   3.454   2.467  0.0236  0.3967 -0.0035
 7495SOL    HW134118   4.531   3.519   2.407 -0.2188  0.6568  0.4251
 7495SOL    HW234119   4.619   3.509   2.527 -0.7916 -1.2097  2.1607
 7496SOL     OW34120   4.477   2.741   5.696 -0.3715  0.0996  0.4803
 7496SOL    HW134121   4.506   2.807   5.759  0.9508 -0.8257  0.8316
 7496SOL    HW234122   4.510   2.760   5.609 -0.2747  1.6778  0.8634
 7497SOL     OW34123   0.786   0.877   5.801  0.1927 -0.1187  0.0897
 7497SOL    HW134124   0.876   0.846   5.812  0.2202 -0.1910 -0.3175
 7497SOL    HW234125   0.788   0.897   5.707 -0.1810 -1.3821 -0.1875
 7498SOL     OW34126   0.836   1.181   3.800  0.4259  0.3278 -0.2775
 7498SOL    HW134127   0.817   1.257   3.854  0.3740 -0.9741  1.5479
 7498SOL    HW234128   0.788   1.114   3.850 -0.0239  0.6823 -0.2328
 7499SOL     OW34129   1.032   3.602   9.347 -0.2392  0.1847  0.2155
 7499SOL    HW134130   0.984   3.656   9.284  1.3124 -0.2171 -1.3117
 7499SOL    HW234131   1.064   3.537   9.284  0.1995  0.9308 -0.3418
 7500SOL     OW34132   2.974   4.168  11.487  0.2216 -0.1656 -0.3075
 7500SOL    HW134133   2.887   4.147  11.454  0.2174  0.1987 -0.5334
 7500SOL    HW234134   2.953   4.229  11.558  2.8360  0.7956 -0.3263
 7501SOL     OW34135   2.985   3.669   1.869  0.0912  0.4763 -0.1544
 7501SOL    HW134136   2.936   3.609   1.926 -0.5822  1.8437  0.6982
 7501SOL    HW234137   2.924   3.742   1.868  1.3412  1.5135 -0.2304
 7502SOL     OW34138   2.517   0.981  12.063  0.4431 -0.0599 -0.2397
 7502SOL    HW134139   2.437   1.032  12.078  0.8192  0.7386 -0.9550
 7502SOL    HW234140   2.587   1.043  12.045  0.6521 -0.3541 -0.4318
 7503SOL     OW34141   1.496   2.667   6.872  0.5949  0.0737 -0.3370
 7503SOL    HW134142   1.589   2.668   6.847  0.8439 -0.6351  0.5720
 7503SOL    HW234143   1.459   2.624   6.795 -1.4387  1.1530  0.0462
 7504SOL     OW34144   1.528   4.633  14.681  1.2473  0.3022 -0.0643
 7504SOL    HW134145   1.470   4.591  14.744  1.1806  0.8951  0.2695
 7504SOL    HW234146   1.498   4.722  14.700  0.2966  0.5778 -2.8611
 7505SOL     OW34147   2.770   2.248   4.396  0.2486 -0.1938 -0.1802
 7505SOL    HW134148   2.833   2.280   4.461 -0.7481  0.6397  0.3663
 7505SOL    HW234149   2.742   2.165   4.432  0.2154 -0.2373 -0.3062
 7506SOL     OW34150   4.111   0.024  16.742 -0.5078  0.1734 -0.3376
 7506SOL    HW134151   4.157   0.107  16.755 -2.4551  0.8498  2.2966
 7506SOL    HW234152   4.047   0.031  16.813 -0.9095  2.4092 -0.9252
 7507SOL     OW34153   3.314   1.390   2.779 -0.3815  0.0620  0.4280
 7507SOL    HW134154   3.309   1.397   2.874  1.1475  0.4885  0.4845
 7507SOL    HW234155   3.329   1.476   2.740 -1.0175  0.6482  1.4742
 7508SOL     OW34156   4.257   4.181   4.498  0.0029 -0.2638 -0.4947
 7508SOL    HW134157   4.267   4.276   4.506  0.0798 -0.2486 -0.7614
 7508SOL    HW234158   4.274   4.154   4.408 -1.6774 -2.9108 -0.0341
 7509SOL     OW34159   2.046   2.891   5.882  0.5857  0.0372 -0.1163
 7509SOL    HW134160   2.058   2.797   5.896 -0.6044 -0.0922  0.0166
 7509SOL    HW234161   2.136   2.915   5.857  0.7799 -0.2179  0.3238
 7510SOL     OW34162   1.836   1.205   5.002 -0.0036 -0.2908  0.2287
 7510SOL    HW134163   1.863   1.285   5.048 -0.0064 -0.9183  1.3241
 7510SOL    HW234164   1.925   1.172   4.985 -0.6827 -2.0547  0.1024
 7511SOL     OW34165   3.842   0.893  14.655 -0.8531  0.5837  0.1629
 7511SOL    HW134166   3.781   0.909  14.727 -0.4246 -1.6876  1.0379
 7511SOL    HW234167   3.783   0.856  14.590  0.0313 -1.8021  0.7356
 7512SOL     OW34168   3.678   4.230   4.288 -0.1724  0.1344 -0.1122
 7512SOL    HW134169   3.639   4.235   4.375  1.3150  0.7855  0.5128
 7512SOL    HW234170   3.761   4.183   4.297  0.8159  1.2117 -3.6779
 7513SOL     OW34171   3.057   2.398   3.521 -0.5299 -0.2000  0.6986
 7513SOL    HW134172   3.028   2.477   3.567  0.9693 -0.3358  1.8997
 7513SOL    HW234173   2.998   2.332   3.556 -0.0033 -1.3898 -0.6680
 7514SOL     OW34174   3.563   1.096   1.771  0.7470  0.1856  0.1439
 7514SOL    HW134175   3.469   1.086   1.783  0.8148 -0.2675  0.3138
 7514SOL    HW234176   3.584   1.006   1.744 -0.5455 -0.1989  0.4357
 7515SOL     OW34177   3.590   0.062   1.501  0.2524 -0.3089  0.2695
 7515SOL    HW134178   3.564   0.133   1.559 -0.8873 -1.2173  0.8567
 7515SOL    HW234179   3.506   0.016   1.493  0.2582 -0.3537  0.4672
 7516SOL     OW34180   3.565   1.521   4.403  0.0616  0.3520 -0.0231
 7516SOL    HW134181   3.582   1.586   4.470  0.9904 -1.2634  1.3153
 7516SOL    HW234182   3.567   1.580   4.328 -1.0551  1.0535  0.5095
 7517SOL     OW34183   4.273   3.825   5.715  0.4546 -0.1528  0.5171
 7517SOL    HW134184   4.201   3.787   5.665  1.9924 -0.8718 -1.1497
 7517SOL    HW234185   4.220   3.881   5.771 -0.2415 -1.5971  1.3099
 7518SOL     OW34186   0.265   1.491  10.079 -0.0830 -0.3942  0.1648
 7518SOL    HW134187   0.230   1.449  10.001 -0.0611 -0.9811  0.4663
 7518SOL    HW234188   0.190   1.484  10.138 -1.8072  1.0322 -1.8978
 7519SOL     OW34189   0.203   2.927   2.367 -0.1897  0.2340 -0.1945
 7519SOL    HW134190   0.181   3.017   2.342  1.2018  0.4720 -0.5652
 7519SOL    HW234191   0.120   2.892   2.398  0.5263 -1.0822  0.2001
 7520SOL     OW34192   0.241   0.201  12.428 -0.2359 -0.2440 -0.6337
 7520SOL    HW134193   0.330   0.220  12.399 -0.4434  1.1313 -0.3451
 7520SOL    HW234194   0.219   0.282  12.473 -0.3090 -0.6882  0.1475
 7521SOL     OW34195   0.514   0.522  10.258  0.2916 -0.2951  0.1460
 7521SOL    HW134196   0.448   0.459  10.287  0.7823  0.0752  2.0350
 7521SOL    HW234197   0.522   0.574  10.338 -0.2789  1.7507 -1.1201
 7522SOL     OW34198   4.606   3.301   5.352 -0.1100  0.3840  0.0352
 7522SOL    HW134199   4.613   3.254   5.435  0.2225 -0.3810 -0.4238
 7522SOL    HW234200   4.521   3.274   5.317 -0.1550  0.6598 -0.0692
 7523SOL     OW34201   2.141   4.542   9.121  0.2862  0.3792  0.1421
 7523SOL    HW134202   2.100   4.603   9.182 -0.7679  1.0746 -1.2759
 7523SOL    HW234203   2.122   4.588   9.039 -0.5896 -0.7184 -0.2694
 7524SOL     OW34204   1.579   3.022   5.462  0.0322 -0.5728 -0.4257
 7524SOL    HW134205   1.559   3.100   5.410  2.9496  1.1089  0.9338
 7524SOL    HW234206   1.583   2.958   5.391  3.0721 -1.1500  0.2651
 7525SOL     OW34207   1.947   1.498   2.924 -0.0833 -0.2742  0.3905
 7525SOL    HW134208   1.998   1.573   2.894  0.7711 -0.8832  0.3154
 7525SOL    HW234209   1.899   1.548   2.989  1.1136  2.3207 -0.7170
 7526SOL     OW34210   4.430   2.492   7.942  0.2090 -0.0236 -0.3594
 7526SOL    HW134211   4.477   2.440   8.007 -0.0913 -0.7683 -0.7483
 7526SOL    HW234212   4.403   2.425   7.880  0.2334  0.8437 -1.3235
 7527SOL     OW34213   0.947   2.745   8.636  0.6069  0.3462  0.4880
 7527SOL    HW134214   0.958   2.793   8.718  0.9792  1.5611 -0.2694
 7527SOL    HW234215   0.904   2.813   8.584 -1.3045 -1.2444  0.0009
 7528SOL     OW34216   2.494   4.418   3.919  0.2586  0.2771  0.8903
 7528SOL    HW134217   2.503   4.405   3.825 -0.4014  2.2293  0.5613
 7528SOL    HW234218   2.434   4.492   3.916  1.0598  0.9051  0.4267
 7529SOL     OW34219   4.715   1.948   2.898  0.5802  0.0728  0.1819
 7529SOL    HW134220   4.626   1.938   2.931  0.3557  2.0314  0.1738
 7529SOL    HW234221   0.018   2.027   2.938  0.2175 -0.4099  1.4803
 7530SOL     OW34222   4.689   2.841  10.738  0.1929 -0.2345 -0.0384
 7530SOL    HW134223   4.688   2.747  10.751 -0.2676  0.0163  1.7012
 7530SOL    HW234224   4.597   2.854  10.715  0.2433 -1.2792 -0.8217
 7531SOL     OW34225   3.992   0.129   2.802  0.2031  0.0562  0.3649
 7531SOL    HW134226   4.048   0.053   2.812  0.2476 -0.1055 -1.0998
 7531SOL    HW234227   3.970   0.132   2.709  2.5346 -0.4170 -0.2093
 7532SOL     OW34228   3.833   3.539   3.212  0.0645  0.0477  0.0744
 7532SOL    HW134229   3.891   3.497   3.277  1.0166  0.9180 -0.2245
 7532SOL    HW234230   3.748   3.498   3.230  1.1786 -1.8133  1.1850
 7533SOL     OW34231   4.117   0.424   4.651 -0.1794  0.5881  0.6718
 7533SOL    HW134232   4.058   0.352   4.673 -1.0142  1.0568 -0.0530
 7533SOL    HW234233   4.091   0.450   4.562 -1.1346  1.3340  1.1676
 7534SOL     OW34234   3.523   1.766   4.484 -0.0242 -0.0779 -0.5055
 7534SOL    HW134235   3.526   1.841   4.542  0.1577  0.2825 -0.9833
 7534SOL    HW234236   3.548   1.801   4.399 -2.5044  0.3522 -1.0670
 7535SOL     OW34237   1.641   0.698   2.240  0.4716 -0.4677 -0.4840
 7535SOL    HW134238   1.553   0.674   2.211  1.2225 -0.6236 -2.6424
 7535SOL    HW234239   1.658   0.628   2.303  0.7657 -0.3358 -0.4160
 7536SOL     OW34240   2.111   3.481  17.467 -0.0226  0.9387 -0.1662
 7536SOL    HW134241   2.195   3.509  17.502 -0.3335 -0.8592  2.0774
 7536SOL    HW234242   2.105   3.521  17.381  2.0845  0.3342 -0.5901
 7537SOL     OW34243   3.460   1.608   6.972 -0.1118 -0.9391 -0.0799
 7537SOL    HW134244   3.549   1.637   6.990 -1.0702  1.9899 -0.1036
 7537SOL    HW234245   3.421   1.695   6.962 -1.4328 -1.5604 -0.4332
 7538SOL     OW34246   1.154   0.935   9.234 -0.2635  0.3765 -0.6904
 7538SOL    HW134247   1.193   1.020   9.254 -0.0341 -0.5491  2.8723
 7538SOL    HW234248   1.133   0.948   9.142  0.0828  2.7477 -0.4393
 7539SOL     OW34249   2.570   1.362   7.780  0.2529  0.3332 -0.2731
 7539SOL    HW134250   2.590   1.405   7.863  0.2453 -0.9000  0.3604
 7539SOL    HW234251   2.650   1.368   7.728 -0.5838 -0.0685 -1.5942
 7540SOL     OW34252   2.684   0.325   9.311 -0.4843  0.5151  0.5469
 7540SOL    HW134253   2.721   0.352   9.395  1.8267  1.9389 -0.9465
 7540SOL    HW234254   2.596   0.359   9.328  0.3501  2.9463  0.1044
 7541SOL     OW34255   1.495   3.394   1.992  0.2696 -0.7177 -0.4255
 7541SOL    HW134256   1.428   3.362   1.932 -0.9723 -0.0530  0.6271
 7541SOL    HW234257   1.552   3.451   1.940  0.2712 -0.9651 -0.6992
 7542SOL     OW34258   2.470   2.427   4.526 -0.1811 -0.1920 -0.3410
 7542SOL    HW134259   2.458   2.521   4.541  1.0347 -0.0203 -0.4510
 7542SOL    HW234260   2.558   2.414   4.561 -0.2419  2.0573  0.6994
 7543SOL     OW34261   0.450   2.338  12.105 -0.6756  0.4637  0.3749
 7543SOL    HW134262   0.433   2.430  12.085 -0.0378  0.9168  1.9221
 7543SOL    HW234263   0.544   2.342  12.092 -0.7025  0.0453  0.0580
 7544SOL     OW34264   4.586   0.333   4.923  0.3822 -0.4097 -0.7412
 7544SOL    HW134265   4.656   0.343   4.858  0.6324  1.1190 -0.2372
 7544SOL    HW234266   4.509   0.384   4.896  0.1623 -0.4042 -0.0883
 7545SOL     OW34267   3.181   2.909   2.670  0.1719  0.3843 -0.1657
 7545SOL    HW134268   3.167   2.852   2.747 -0.4193  0.3206 -0.3211
 7545SOL    HW234269   3.132   2.987   2.695  0.2158  0.2016  0.4957
 7546SOL     OW34270   2.842   1.627   7.345  0.1764  0.2080 -0.7391
 7546SOL    HW134271   2.888   1.547   7.319  1.3739  0.4770  0.5725
 7546SOL    HW234272   2.889   1.687   7.287  0.1623  1.0744  0.1611
 7547SOL     OW34273   4.166   1.561   2.606  0.1185  0.5923  0.5156
 7547SOL    HW134274   4.156   1.634   2.667  1.6977  2.2082 -1.1474
 7547SOL    HW234275   4.222   1.604   2.541  2.1040  0.9989  2.4980
 7548SOL     OW34276   4.672   3.438   7.064  0.1009  0.2075  0.7723
 7548SOL    HW134277   0.011   3.425   7.124 -0.1102  1.4712  1.2963
 7548SOL    HW234278   4.695   3.519   7.020 -0.3378 -1.6122 -2.7932
 7549SOL     OW34279   2.231   2.682   8.757  0.2656  0.2083 -0.1725
 7549SOL    HW134280   2.216   2.773   8.784  0.0059  0.5543 -1.4555
 7549SOL    HW234281   2.307   2.690   8.699  1.1257  3.3228  1.3875
 7550SOL     OW34282   2.027   4.557   5.155  0.3829  0.3604  0.1343
 7550SOL    HW134283   1.995   4.560   5.065 -0.3280 -1.1182  0.3309
 7550SOL    HW234284   1.947   4.563   5.207 -2.2732 -1.9551 -3.6214
 7551SOL     OW34285   2.143   3.012   7.056  0.0908  0.3317 -0.3209
 7551SOL    HW134286   2.054   3.044   7.045 -0.1984  0.5931  2.7736
 7551SOL    HW234287   2.178   3.093   7.095 -0.9550  1.9531 -2.7833
 7552SOL     OW34288   1.729   3.273  13.524  0.1679 -0.1497 -0.3106
 7552SOL    HW134289   1.822   3.279  13.546 -0.4465 -0.2479  2.3683
 7552SOL    HW234290   1.690   3.348  13.568 -2.1417  0.2834 -3.0974
 7553SOL     OW34291   0.951   4.049   4.962  0.5723 -0.0550 -0.0227
 7553SOL    HW134292   1.022   4.106   4.933 -0.6774  1.7706  0.4726
 7553SOL    HW234293   0.908   4.012   4.885 -1.3986 -0.0670  1.0902
 7554SOL     OW34294   0.500   0.150   0.483 -0.4796 -0.3014  0.1224
 7554SOL    HW134295   0.522   0.229   0.534 -0.5373  0.3292 -0.8307
 7554SOL    HW234296   0.501   0.188   0.395  2.1994  1.6125  0.9665
 7555SOL     OW34297   4.387   3.030   0.516  0.7864 -0.1406 -0.3818
 7555SOL    HW134298   4.339   3.077   0.448  0.1133  1.4627  1.1793
 7555SOL    HW234299   4.374   2.941   0.485 -0.5384 -0.0169 -0.1818
 7556SOL     OW34300   3.707   1.196   8.750 -0.0250 -0.3375 -0.4883
 7556SOL    HW134301   3.689   1.236   8.835  1.6052 -1.2924  0.3140
 7556SOL    HW234302   3.703   1.275   8.696 -0.3421  0.5152  0.7873
 7557SOL     OW34303   2.252   0.873   3.821  0.1351  0.8939 -0.4169
 7557SOL    HW134304   2.280   0.804   3.761  0.0956  1.3605 -0.9724
 7557SOL    HW234305   2.328   0.885   3.879  0.0615 -2.1072  0.3087
 7558SOL     OW34306   1.185   1.563  14.533 -0.7827 -0.1408  0.2561
 7558SOL    HW134307   1.265   1.512  14.548 -1.2598 -0.6884  0.9343
 7558SOL    HW234308   1.180   1.622  14.608 -2.2192 -1.2070  0.9836
 7559SOL     OW34309   1.739   0.993   7.985  0.2967  1.1221 -0.6952
 7559SOL    HW134310   1.755   0.912   7.936 -1.0519 -1.0578  2.4612
 7559SOL    HW234311   1.820   1.041   7.966  0.9105  1.3090  2.5117
 7560SOL     OW34312   4.253   4.280   5.122 -0.1989  0.5263  0.1191
 7560SOL    HW134313   4.310   4.280   5.198 -1.4005  1.8447  1.0154
 7560SOL    HW234314   4.306   4.343   5.074  0.4356  0.7562  1.1360
 7561SOL     OW34315   4.445   1.028   6.650  0.4753  0.2550  0.4314
 7561SOL    HW134316   4.392   0.962   6.605  0.9631  1.1363 -1.4239
 7561SOL    HW234317   4.525   0.978   6.665  0.3813 -0.4545 -1.4039
 7562SOL     OW34318   2.379   2.167   8.153 -0.2823  0.1273  0.0055
 7562SOL    HW134319   2.288   2.167   8.184 -0.2900 -0.0089 -0.0170
 7562SOL    HW234320   2.407   2.249   8.193 -0.7730 -0.0182  0.6542
 7563SOL     OW34321   0.393   0.556  14.874 -0.2192 -0.7278  0.1578
 7563SOL    HW134322   0.485   0.552  14.847 -0.6853 -2.3076 -1.1418
 7563SOL    HW234323   0.374   0.649  14.865 -0.8913 -0.8736  0.1074
 7564SOL     OW34324   2.833   0.369   4.756  0.1256  0.6561 -0.0331
 7564SOL    HW134325   2.760   0.423   4.785  1.4782  2.7821 -0.5437
 7564SOL    HW234326   2.787   0.288   4.738  0.8903 -0.6719  3.8452
 7565SOL     OW34327   0.975   0.441  13.512 -0.1868  0.1055 -0.2442
 7565SOL    HW134328   0.949   0.446  13.420 -0.7755  0.3148 -0.0648
 7565SOL    HW234329   1.033   0.515  13.528 -0.8195  0.8834 -1.6073
 7566SOL     OW34330   1.446   3.101   3.066 -0.4049  0.0990  0.0590
 7566SOL    HW134331   1.495   3.024   3.036 -1.7052 -0.3216 -1.0144
 7566SOL    HW234332   1.505   3.120   3.139  0.7530 -4.4329  0.3502
 7567SOL     OW34333   1.163   4.035   3.925  0.0544  0.0420 -0.2663
 7567SOL    HW134334   1.173   4.130   3.912 -0.2462  0.1715  0.4327
 7567SOL    HW234335   1.193   3.998   3.843 -1.7677 -0.1511 -0.8461
 7568SOL     OW34336   3.305   4.599   2.259  0.4618  0.3165 -0.4099
 7568SOL    HW134337   3.210   4.591   2.269  0.4472 -0.3665 -1.1319
 7568SOL    HW234338   3.343   4.595   2.347 -0.9497  4.2847  0.4065
 7569SOL     OW34339   3.988   4.360   8.462  0.2489 -0.2600 -0.0641
 7569SOL    HW134340   4.071   4.399   8.435 -0.5613  1.8187  0.4880
 7569SOL    HW234341   3.992   4.336   8.555  2.1475  2.9658  0.6721
 7570SOL     OW34342   0.135   3.622  12.338  0.7821  0.6246  0.1267
 7570SOL    HW134343   0.089   3.580  12.266  2.1822 -1.4981  0.4793
 7570SOL    HW234344   0.199   3.557  12.367  0.1618 -0.5692 -1.2353
 7571SOL     OW34345   2.640   0.618   6.938  0.2869 -0.6286  0.2753
 7571SOL    HW134346   2.733   0.595   6.943  0.4528 -0.9098 -4.5131
 7571SOL    HW234347   2.623   0.577   6.853 -1.3790  1.8940 -0.5992
 7572SOL     OW34348   0.303   1.416   6.592 -0.7565 -0.0646 -0.7910
 7572SOL    HW134349   0.223   1.457   6.625 -1.1740 -2.5387  1.2338
 7572SOL    HW234350   0.353   1.498   6.596 -0.7972 -0.0347 -0.8817
 7573SOL     OW34351   3.850   0.271  13.422  0.5482 -0.0060  0.0267
 7573SOL    HW134352   3.775   0.328  13.403 -0.7839 -1.5211  0.7496
 7573SOL    HW234353   3.833   0.236  13.509 -0.4136  0.3899  0.0021
 7574SOL     OW34354   1.381   2.444   2.653  0.3483  0.0728  0.6240
 7574SOL    HW134355   1.396   2.388   2.576 -2.0773 -2.2467  1.8597
 7574SOL    HW234356   1.337   2.391   2.719 -2.5358  1.6204 -0.0694
 7575SOL     OW34357   3.759   4.398   7.386  0.1929  0.4091  0.2616
 7575SOL    HW134358   3.685   4.447   7.350 -0.8918 -0.6791  1.0083
 7575SOL    HW234359   3.770   4.336   7.314  1.8728  0.9830  0.0263
 7576SOL     OW34360   2.479   2.426   8.227  0.9157 -0.0770  0.0692
 7576SOL    HW134361   2.440   2.478   8.298  2.4417  1.2906 -0.1042
 7576SOL    HW234362   2.523   2.501   8.187 -0.4912 -0.1388 -1.6211
 7577SOL     OW34363   1.807   0.354   7.353  0.6184  0.4147 -0.2968
 7577SOL    HW134364   1.888   0.354   7.404 -1.3954 -1.1243  2.8941
 7577SOL    HW234365   1.747   0.304   7.409  3.0695 -1.4357  0.6931
 7578SOL     OW34366   0.188   3.330   5.584 -0.2807 -0.4527 -0.0064
 7578SOL    HW134367   0.155   3.420   5.572 -3.4800 -1.5105  0.7912
 7578SOL    HW234368   0.169   3.315   5.677  0.3552 -0.7532  0.0709
 7579SOL     OW34369   3.579   1.038   7.364  0.0577 -0.2126  0.4239
 7579SOL    HW134370   3.496   1.038   7.317 -0.8058 -0.4759  1.9561
 7579SOL    HW234371   3.641   1.093   7.316 -1.2926  0.9174 -0.0358
 7580SOL     OW34372   4.096   1.456   7.276 -0.3693 -0.2332  0.0001
 7580SOL    HW134373   4.024   1.519   7.288  0.3150  0.4550  0.5275
 7580SOL    HW234374   4.104   1.425   7.366 -0.1473  2.1648  0.8145
 7581SOL     OW34375   3.975   0.220   2.101 -0.1669  0.3294 -0.2494
 7581SOL    HW134376   4.007   0.131   2.098 -0.0393  0.4140 -1.5880
 7581SOL    HW234377   3.896   0.205   2.154 -1.2442  0.5174 -1.8014
 7582SOL     OW34378   1.855   4.725   7.452  0.0025 -0.1047 -0.4971
 7582SOL    HW134379   1.780   0.047   7.471  0.4181  0.7920 -1.5489
 7582SOL    HW234380   1.887   4.695   7.537 -1.2803  2.0172  0.7399
 7583SOL     OW34381   1.092   3.476   0.208 -0.4137  0.3124  0.4284
 7583SOL    HW134382   1.076   3.489   0.301 -1.1910  0.7842  0.2251
 7583SOL    HW234383   1.012   3.426   0.194  0.5496 -1.1066 -0.0249
 7584SOL     OW34384   1.289   3.574   2.946 -0.2590 -0.2447  0.0765
 7584SOL    HW134385   1.236   3.513   2.894  1.0215 -0.5933 -0.8491
 7584SOL    HW234386   1.339   3.513   3.000 -0.6868 -0.3742  0.3209
 7585SOL     OW34387   2.102   2.732  11.437 -0.0762 -0.2485  0.5286
 7585SOL    HW134388   2.017   2.771  11.415  0.3152 -0.0501 -0.6237
 7585SOL    HW234389   2.117   2.768  11.524 -0.2193 -0.3973  0.6147
 7586SOL     OW34390   0.801   3.792   8.869 -0.8405  0.2559  0.3384
 7586SOL    HW134391   0.780   3.708   8.827  2.5710 -0.6458  0.3869
 7586SOL    HW234392   0.789   3.754   8.956 -1.1297 -1.5337 -0.4794
 7587SOL     OW34393   3.953   3.638   6.076 -0.0222 -0.1946  0.2087
 7587SOL    HW134394   3.921   3.629   5.986 -2.0014  1.8645  0.7017
 7587SOL    HW234395   3.922   3.562   6.125  0.1065  0.2311  0.9439
 7588SOL     OW34396   0.937   2.935   4.081 -0.1102  0.4483 -0.3533
 7588SOL    HW134397   0.951   2.844   4.053 -2.6152 -0.3198  0.8887
 7588SOL    HW234398   0.880   2.981   4.020  2.1400  1.1079 -1.9441
 7589SOL     OW34399   1.012   2.338   4.584  0.2062 -0.2032  0.2500
 7589SOL    HW134400   0.962   2.264   4.618  2.4163 -2.4789 -1.4790
 7589SOL    HW234401   1.101   2.314   4.608  0.4011 -0.4201 -0.6794
 7590SOL     OW34402   4.524   3.859   0.909  0.2375 -0.1514 -0.2970
 7590SOL    HW134403   4.517   3.873   0.815  3.4781  0.7815 -0.4182
 7590SOL    HW234404   4.486   3.939   0.945  0.1199 -0.5013  0.3628
 7591SOL     OW34405   2.639   1.596  17.629 -0.0190  0.2582 -0.4574
 7591SOL    HW134406   2.619   1.585  17.722  0.1134 -1.5927 -0.6516
 7591SOL    HW234407   2.682   1.681  17.627 -0.8453  0.6935  0.0781
 7592SOL     OW34408   2.050   0.155   4.028  0.2960  0.1816 -0.3119
 7592SOL    HW134409   2.082   0.184   3.942 -1.9449 -0.4786 -1.3609
 7592SOL    HW234410   2.062   0.060   4.020  1.2435  0.2266  0.4912
 7593SOL     OW34411   2.732   3.897   3.779 -0.0265 -0.3086 -0.8020
 7593SOL    HW134412   2.649   3.874   3.737  0.0576 -2.4566  0.2362
 7593SOL    HW234413   2.696   3.975   3.822  0.9791 -0.4112  0.2289
 7594SOL     OW34414   2.462   0.049   6.449 -0.2005  0.3657 -0.1074
 7594SOL    HW134415   2.537   0.015   6.499 -0.2651 -1.5168 -1.3153
 7594SOL    HW234416   2.510   0.070   6.369  0.3345 -1.6444 -0.3192
 7595SOL     OW34417   4.349   3.141  17.560 -0.0102  0.2965  0.4222
 7595SOL    HW134418   4.334   3.201  17.634  1.2837 -0.2773  1.1587
 7595SOL    HW234419   4.442   3.118  17.566  0.1608  1.2297  1.4719
 7596SOL     OW34420   1.745   4.405   4.187  0.4508 -0.4882  0.6340
 7596SOL    HW134421   1.707   4.415   4.274 -2.1446 -0.8343 -0.4359
 7596SOL    HW234422   1.782   4.317   4.185  0.7614 -0.3060 -2.8760
 7597SOL     OW34423   0.302   3.752   6.132 -0.4943  0.6911 -0.6863
 7597SOL    HW134424   0.291   3.804   6.053  0.4511  0.3750 -1.0234
 7597SOL    HW234425   0.361   3.683   6.100 -1.0374 -0.3028  0.4507
 7598SOL     OW34426   2.824   3.656   7.213 -0.0097  0.2768  0.3501
 7598SOL    HW134427   2.884   3.727   7.237  0.8337  0.4928 -2.4507
 7598SOL    HW234428   2.767   3.658   7.290 -2.0637 -0.8851 -1.1327
 7599SOL     OW34429   2.735   2.600   7.896 -0.1406 -0.3554  0.2457
 7599SOL    HW134430   2.719   2.661   7.824  0.3531  2.1140  2.2604
 7599SOL    HW234431   2.642   2.591   7.919  0.0410 -1.0990  0.6704
 7600SOL     OW34432   0.841   1.823   8.785 -0.0285 -0.3431 -0.2346
 7600SOL    HW134433   0.759   1.864   8.812 -0.5925 -1.4464 -0.2769
 7600SOL    HW234434   0.868   1.898   8.732  1.9186  1.5746  3.4874
 7601SOL     OW34435   2.989   2.713   5.707  0.2969 -0.5181  0.1998
 7601SOL    HW134436   2.911   2.693   5.759  1.0427 -1.7664  0.8333
 7601SOL    HW234437   3.015   2.801   5.735  2.3986 -1.0853  0.0411
 7602SOL     OW34438   4.174   3.831  10.272  1.0198  0.3183  0.1580
 7602SOL    HW134439   4.258   3.846  10.317  0.0097  3.2089  1.1246
 7602SOL    HW234440   4.130   3.908  10.307 -1.9296 -1.5779  0.5774
 7603SOL     OW34441   4.045   0.336  15.795  0.0173 -0.4106  0.2152
 7603SOL    HW134442   4.041   0.280  15.873 -0.2840 -1.1124 -0.2994
 7603SOL    HW234443   3.997   0.281  15.733  0.9685 -2.3585  1.2209
 7604SOL     OW34444   0.176   0.878   3.917 -0.4151  0.2257 -0.2245
 7604SOL    HW134445   0.213   0.791   3.934  0.7563  0.5637 -1.0581
 7604SOL    HW234446   0.089   0.844   3.900 -0.4546  0.6995 -0.9754
 7605SOL     OW34447   2.524   4.648   4.190  0.1782  0.2998  0.3162
 7605SOL    HW134448   2.546   4.708   4.119 -1.2697 -0.5025 -0.8172
 7605SOL    HW234449   2.525   4.705   4.267  0.2846  1.4122 -0.4962
 7606SOL     OW34450   4.064   0.590   8.718 -0.8486 -0.0135 -0.0943
 7606SOL    HW134451   4.042   0.522   8.654 -0.5164  1.1148 -1.3883
 7606SOL    HW234452   3.976   0.595   8.755 -0.4893  2.1691  0.4839
 7607SOL     OW34453   3.238   3.990   2.232  0.3142 -0.6279 -0.0931
 7607SOL    HW134454   3.147   3.960   2.237  0.8932 -2.3589  0.1149
 7607SOL    HW234455   3.276   3.914   2.277 -1.3069 -1.7672 -0.6063
 7608SOL     OW34456   2.664   3.379   2.655  0.8428  0.8092  0.0450
 7608SOL    HW134457   2.640   3.415   2.740  0.1183 -0.2558  0.2926
 7608SOL    HW234458   2.594   3.406   2.595  0.2070 -3.1033 -0.9718
 7609SOL     OW34459   3.159   3.423   7.981 -0.5624 -0.2066 -0.0541
 7609SOL    HW134460   3.251   3.442   8.001 -0.7564  0.9968 -0.3477
 7609SOL    HW234461   3.112   3.490   8.029  0.7017  0.4607  0.2581
 7610SOL     OW34462   3.731   0.350   2.673 -0.2510 -0.1646 -0.5608
 7610SOL    HW134463   3.765   0.281   2.616 -0.0410  0.0036 -0.6419
 7610SOL    HW234464   3.776   0.418   2.623 -1.0733 -0.7811 -2.1433
 7611SOL     OW34465   3.951   4.675   4.620 -0.0896 -0.3280 -0.6670
 7611SOL    HW134466   3.900   4.594   4.613  1.1917 -1.0893 -1.1976
 7611SOL    HW234467   4.029   4.645   4.666 -1.8863 -3.7202  0.1805
 7612SOL     OW34468   2.887   3.893   4.285 -0.5866  0.3537 -0.0355
 7612SOL    HW134469   2.975   3.862   4.261 -0.4028  0.1367  0.9355
 7612SOL    HW234470   2.889   3.895   4.380  0.9644  1.0500 -0.0844
 7613SOL     OW34471   0.671   3.211   4.154 -0.0069 -0.0513  0.0793
 7613SOL    HW134472   0.702   3.157   4.226 -0.7457 -0.9077 -0.2306
 7613SOL    HW234473   0.576   3.212   4.165 -0.0114 -1.6763  0.2731
 7614SOL     OW34474   4.008   0.340  11.557 -0.1815 -0.0395 -0.0462
 7614SOL    HW134475   4.014   0.329  11.652  2.2422  0.0160 -0.1881
 7614SOL    HW234476   4.099   0.350  11.528 -0.7922 -3.1806 -3.0007
 7615SOL     OW34477   2.253   3.399   4.988 -0.6730 -0.3848  0.2408
 7615SOL    HW134478   2.225   3.384   4.897 -2.0221 -2.3363  0.9863
 7615SOL    HW234479   2.336   3.352   4.981  0.1105  1.5804 -3.5615
 7616SOL     OW34480   0.210   2.897  16.557  0.2520 -0.1208 -0.3605
 7616SOL    HW134481   0.123   2.887  16.596  0.0627  1.6330 -0.3195
 7616SOL    HW234482   0.210   2.843  16.478  1.5871 -0.5221 -0.0798
 7617SOL     OW34483   3.642   0.349   8.152  0.1638  0.4876 -0.3945
 7617SOL    HW134484   3.598   0.268   8.180 -2.3143  2.3632  1.1109
 7617SOL    HW234485   3.678   0.330   8.066  0.1852 -4.3449  0.6727
 7618SOL     OW34486   0.178   4.308   2.142 -0.2712  0.0541 -0.3353
 7618SOL    HW134487   0.084   4.289   2.141 -0.0238 -1.1360 -0.7825
 7618SOL    HW234488   0.189   4.338   2.052  0.2766  0.6114 -0.0792
 7619SOL     OW34489   3.885   1.274  16.554  0.6123 -0.0973 -0.7934
 7619SOL    HW134490   3.828   1.310  16.486  0.1144 -1.1440 -0.9245
 7619SOL    HW234491   3.827   1.274  16.630  1.2911 -1.2332 -0.2883
 7620SOL     OW34492   3.312   0.055   3.505  0.0897 -0.5397 -0.3498
 7620SOL    HW134493   3.220   0.071   3.526  0.3225 -0.5042  0.6312
 7620SOL    HW234494   3.294   4.720   3.442  1.1287  1.1492 -2.5510
 7621SOL     OW34495   4.067   0.160  14.751  0.4001  0.0469  0.0248
 7621SOL    HW134496   4.052   0.181  14.658  2.7072 -0.1201 -0.3829
 7621SOL    HW234497   4.162   0.160  14.750  0.4019 -3.4117  1.2130
 7622SOL     OW34498   4.326   1.733   7.965  0.3860  0.7970  0.2894
 7622SOL    HW134499   4.259   1.763   7.903 -0.8479  1.0544  1.7520
 7622SOL    HW234500   4.391   1.801   7.946  1.2151 -0.3973 -1.1226
 7623SOL     OW34501   3.833   3.250   6.799  0.3530 -0.0633 -0.1527
 7623SOL    HW134502   3.911   3.270   6.851  1.0567 -0.6730 -0.9550
 7623SOL    HW234503   3.863   3.174   6.749  1.2175 -0.9812  1.7589
 7624SOL     OW34504   1.149   0.626  16.702 -0.2542  0.1083  0.2260
 7624SOL    HW134505   1.128   0.598  16.791 -1.5464  0.5706  0.0733
 7624SOL    HW234506   1.106   0.548  16.666 -1.3349  1.0751 -0.5749
 7625SOL     OW34507   1.084   2.298   6.035 -0.8324  0.2083  0.0105
 7625SOL    HW134508   1.058   2.244   5.961  1.9124 -0.8194 -0.1778
 7625SOL    HW234509   1.032   2.267   6.109  1.2032 -3.0458  0.0857
 7626SOL     OW34510   3.387   3.640  16.426  0.0843 -0.1688  0.7859
 7626SOL    HW134511   3.454   3.704  16.403  0.5798 -1.3288 -1.0768
 7626SOL    HW234512   3.327   3.647  16.352 -0.2873  1.8827  1.2953
 7627SOL     OW34513   3.080   2.530   2.049  0.6196  0.4302 -0.0617
 7627SOL    HW134514   2.986   2.512   2.046  0.5495  0.7846  0.0020
 7627SOL    HW234515   3.091   2.521   1.955 -1.7449 -3.1749 -0.0261
 7628SOL     OW34516   3.226   1.274   4.858 -0.7435  0.6104  0.1888
 7628SOL    HW134517   3.215   1.183   4.833  0.8722  1.0335 -2.0450
 7628SOL    HW234518   3.183   1.279   4.943  0.7385  0.0024  0.9652
 7629SOL     OW34519   2.163   2.720  14.759  0.4452  0.2395  0.7945
 7629SOL    HW134520   2.243   2.759  14.792  2.8314 -3.8212 -0.2328
 7629SOL    HW234521   2.114   2.791  14.716 -0.3910 -0.9748 -0.2807
 7630SOL     OW34522   0.930   1.582   5.597  0.2676 -0.5314 -0.7246
 7630SOL    HW134523   0.841   1.557   5.622  0.2183 -0.1852 -0.5457
 7630SOL    HW234524   0.965   1.602   5.684 -2.9671  0.7218  0.2811
 7631SOL     OW34525   3.416   3.072   6.676  0.1018 -0.0493 -0.1307
 7631SOL    HW134526   3.369   3.145   6.717  0.7023 -0.9441  2.1691
 7631SOL    HW234527   3.508   3.099   6.677 -0.2741  1.2132  0.9532
 7632SOL     OW34528   3.090   0.190   4.161  0.1067 -0.1988 -0.0989
 7632SOL    HW134529   3.153   0.261   4.179  1.9491 -2.4499  2.2882
 7632SOL    HW234530   3.041   0.178   4.242 -0.2655  0.3189 -0.2488
 7633SOL     OW34531   3.389   0.349   5.009  0.0081 -0.2013 -0.0184
 7633SOL    HW134532   3.356   0.435   5.031  0.7545  0.4371 -1.3612
 7633SOL    HW234533   3.411   0.315   5.096  0.1298 -2.0547 -0.7689
 7634SOL     OW34534   1.239   0.668   5.014  0.7678 -0.3457  0.0573
 7634SOL    HW134535   1.296   0.607   4.967  2.0591  2.2663 -1.7396
 7634SOL    HW234536   1.224   0.719   4.935 -1.2245 -0.0678  0.6094
 7635SOL     OW34537   0.880   3.147   1.005 -0.0801 -0.3976  0.1349
 7635SOL    HW134538   0.942   3.208   0.966  1.8750 -2.1392  0.5614
 7635SOL    HW234539   0.852   3.189   1.087  2.0275 -1.7919  1.5632
 7636SOL     OW34540   4.680   2.966   5.854 -0.0362 -0.1404 -0.1153
 7636SOL    HW134541   4.677   2.913   5.933 -3.2244  3.2371  2.0476
 7636SOL    HW234542   4.595   3.010   5.861 -0.3470 -0.5816 -1.1207
 7637SOL     OW34543   0.984   0.075   4.752 -0.0630  0.0501  0.9740
 7637SOL    HW134544   0.944   4.728   4.785  0.6770 -0.0468  1.6272
 7637SOL    HW234545   0.960   0.069   4.659  1.6324  0.0388  0.5339
 7638SOL     OW34546   2.289   2.517   7.264 -0.6581 -0.1733 -0.5266
 7638SOL    HW134547   2.349   2.531   7.190 -1.8733 -0.2180 -1.5350
 7638SOL    HW234548   2.225   2.588   7.262  1.0749  1.3554 -0.5305
 7639SOL     OW34549   0.224   3.799   2.682  0.2576 -0.6513  0.3812
 7639SOL    HW134550   0.229   3.711   2.719 -0.0224 -1.1538 -0.7428
 7639SOL    HW234551   0.285   3.848   2.737 -0.0411  2.2936 -1.9157
 7640SOL     OW34552   1.342   2.013  15.400  0.1687 -0.0705 -0.0344
 7640SOL    HW134553   1.312   1.984  15.314 -0.8823 -1.9804  0.9815
 7640SOL    HW234554   1.272   2.073  15.425  2.9386  2.9951  0.5059
 7641SOL     OW34555   1.139   4.131   3.311 -0.8186 -0.3735 -0.2683
 7641SOL    HW134556   1.050   4.112   3.341 -0.1093 -0.5932  1.6633
 7641SOL    HW234557   1.146   4.089   3.225 -2.1080  0.0093 -0.5495
 7642SOL     OW34558   3.127   4.559   4.267  0.5385  0.5721  0.4135
 7642SOL    HW134559   3.140   4.500   4.192  2.1486  1.7197 -0.2347
 7642SOL    HW234560   3.122   4.500   4.342  0.6775  0.1477  0.0888
 7643SOL     OW34561   0.922   0.879   7.601 -0.4526  0.2126  0.0351
 7643SOL    HW134562   0.958   0.901   7.688 -0.6387  1.6679 -0.2541
 7643SOL    HW234563   0.998   0.876   7.542 -0.6826  0.7017 -0.2845
 7644SOL     OW34564   3.140   3.046  13.627  0.0774 -0.2464 -0.0584
 7644SOL    HW134565   3.124   3.125  13.577  1.1866 -0.1273 -0.2150
 7644SOL    HW234566   3.198   3.085  13.693 -1.0889 -2.4560  2.2925
 7645SOL     OW34567   1.658   3.243  12.923 -0.5302 -0.4764  0.5238
 7645SOL    HW134568   1.634   3.332  12.949  0.5890  0.3719 -1.3480
 7645SOL    HW234569   1.698   3.264  12.839 -0.5775  1.1210  0.8831
 7646SOL     OW34570   3.326   4.396   8.731 -0.3792 -0.1366  0.1340
 7646SOL    HW134571   3.252   4.349   8.771  0.2472  0.5266  2.1060
 7646SOL    HW234572   3.404   4.346   8.757 -0.6172 -0.2265  0.6790
 7647SOL     OW34573   3.343   3.880  15.448 -0.1040 -0.1249 -0.7672
 7647SOL    HW134574   3.320   3.871  15.356  1.9554  2.0698 -1.5059
 7647SOL    HW234575   3.270   3.934  15.479  1.6688  2.0630 -0.3467
 7648SOL     OW34576   2.492   4.424   9.334  0.1832 -0.2538  0.4034
 7648SOL    HW134577   2.422   4.400   9.274 -1.8357  1.1021  2.2392
 7648SOL    HW234578   2.559   4.453   9.271 -2.4238  1.8031 -1.3935
 7649SOL     OW34579   1.105   1.034   5.583  0.1309  0.2915  0.2721
 7649SOL    HW134580   1.162   1.108   5.565  1.3676 -0.7370 -0.0261
 7649SOL    HW234581   1.026   1.062   5.537 -1.6919 -0.1898  3.1140
 7650SOL     OW34582   2.872   1.592   3.073 -0.6761  0.2806 -0.0871
 7650SOL    HW134583   2.936   1.637   3.018 -0.9329 -0.0455 -0.6575
 7650SOL    HW234584   2.855   1.521   3.012  1.0646 -2.0663  2.2083
 7651SOL     OW34585   2.714   4.105   2.145  0.2069 -0.1397  0.3727
 7651SOL    HW134586   2.710   4.012   2.124  1.8890 -0.0748 -0.2794
 7651SOL    HW234587   2.632   4.144   2.115 -0.1989 -0.8919  0.5006
 7652SOL     OW34588   2.682   1.333   4.823  0.0722 -0.7847  0.0598
 7652SOL    HW134589   2.627   1.258   4.847 -1.5302  0.1109 -0.7737
 7652SOL    HW234590   2.772   1.303   4.815  0.4658 -0.0397  1.9852
 7653SOL     OW34591   0.430   2.208   4.847 -0.8888 -0.3571 -0.0504
 7653SOL    HW134592   0.399   2.297   4.862  0.2954  0.1921 -0.8424
 7653SOL    HW234593   0.481   2.186   4.925 -0.2514  0.3568 -0.2660
 7654SOL     OW34594   4.199   0.500  11.792 -0.2229  0.2483 -0.1449
 7654SOL    HW134595   4.281   0.455  11.811 -0.2100 -0.3261 -1.6258
 7654SOL    HW234596   4.138   0.473  11.861  0.4223 -1.3363 -0.2039
 7655SOL     OW34597   4.605   4.000   6.694 -0.2218  0.4843 -0.3783
 7655SOL    HW134598   4.565   4.087   6.681 -0.3988  0.3175 -0.9642
 7655SOL    HW234599   4.690   4.043   6.701 -0.9534  2.1099 -1.3984
 7656SOL     OW34600   3.555   3.889   4.466 -0.3594  0.5489  0.4234
 7656SOL    HW134601   3.556   3.985   4.465 -1.5385  0.5453 -0.7539
 7656SOL    HW234602   3.637   3.882   4.514  0.2415 -1.1808 -0.8492
 7657SOL     OW34603   1.041   1.390   8.679 -0.1249 -0.0833  0.0557
 7657SOL    HW134604   1.064   1.427   8.594 -1.5511 -1.6538 -1.0028
 7657SOL    HW234605   1.019   1.298   8.663 -0.7049 -0.1462  1.2046
 7658SOL     OW34606   3.768   3.569   2.654 -0.5017 -0.6606  0.6422
 7658SOL    HW134607   3.733   3.658   2.665 -0.1646 -0.2908 -1.2364
 7658SOL    HW234608   3.687   3.521   2.675 -0.8861 -1.2244 -2.1485
 7659SOL     OW34609   0.094   1.521   0.891 -0.6039 -0.1929  0.1678
 7659SOL    HW134610   0.083   1.442   0.837 -0.3201  0.5286 -0.9475
 7659SOL    HW234611   0.056   1.579   0.824  2.0193  1.8772  0.4892
 7660SOL     OW34612   1.022   2.217  16.955 -0.0754 -0.1859 -0.0385
 7660SOL    HW134613   1.062   2.133  16.931  2.4638  0.4583  1.9806
 7660SOL    HW234614   0.934   2.195  16.924  0.5321 -0.0471 -1.9113
 7661SOL     OW34615   4.099   1.064   8.905 -0.0247  0.5131 -0.0140
 7661SOL    HW134616   4.089   1.044   8.998  0.8693 -0.5964 -0.1665
 7661SOL    HW234617   4.181   1.113   8.900  0.1011  0.3690  0.7442
 7662SOL     OW34618   3.214   0.533   0.707 -0.4060 -0.0696  0.1753
 7662SOL    HW134619   3.252   0.446   0.700 -0.5179 -0.1602  0.7436
 7662SOL    HW234620   3.286   0.590   0.679  0.1718 -0.6558  0.4836
 7663SOL     OW34621   0.120   4.269  10.741 -0.6705 -0.0073 -0.0503
 7663SOL    HW134622   0.110   4.260  10.646  0.6257 -0.3906 -0.1574
 7663SOL    HW234623   0.155   4.183  10.763  1.6678  1.4625  1.9398
 7664SOL     OW34624   1.595   2.837  17.407  0.2356 -0.6011  0.4472
 7664SOL    HW134625   1.666   2.889  17.370 -0.1380  0.3177  0.9949
 7664SOL    HW234626   1.610   2.752  17.366 -0.9407  0.3243 -1.9084
 7665SOL     OW34627   0.165   0.122   6.414  0.3656  0.1625  0.1831
 7665SOL    HW134628   0.093   0.152   6.359 -1.0182 -2.8405  0.3557
 7665SOL    HW234629   0.129   0.064   6.482  0.2746  2.9508  2.4903
 7666SOL     OW34630   3.673   3.443   2.349  0.5634 -0.1052  0.0025
 7666SOL    HW134631   3.744   3.423   2.410 -1.3782 -1.9803  1.6467
 7666SOL    HW234632   3.703   3.387   2.278 -1.7048 -2.9607  1.2331
 7667SOL     OW34633   3.995   1.800  11.340 -0.4386  0.5152  0.1184
 7667SOL    HW134634   3.993   1.892  11.367 -0.5233  1.0089 -1.5797
 7667SOL    HW234635   4.046   1.764  11.412  2.0802 -1.4104 -2.6507
 7668SOL     OW34636   2.075   1.141  13.559  0.4265 -0.2967  0.0729
 7668SOL    HW134637   2.148   1.116  13.615  0.8847 -1.1440 -0.9007
 7668SOL    HW234638   2.073   1.060  13.508 -1.8013  1.5182 -2.7636
 7669SOL     OW34639   1.614   3.825   2.350 -0.6068 -0.3590  0.3524
 7669SOL    HW134640   1.614   3.805   2.257 -2.1329  3.8984 -0.5607
 7669SOL    HW234641   1.656   3.751   2.394 -0.0825  0.2262  0.8506
 7670SOL     OW34642   1.778   2.738   8.364  0.2613 -0.2543  0.5861
 7670SOL    HW134643   1.769   2.652   8.323  2.0068  1.0532 -2.5797
 7670SOL    HW234644   1.743   2.720   8.451 -1.2959 -1.6598 -0.3323
 7671SOL     OW34645   3.656   3.380  17.031 -0.3278 -0.7735  0.5015
 7671SOL    HW134646   3.615   3.388  17.117 -1.3891  1.4786 -0.2108
 7671SOL    HW234647   3.692   3.468  17.023  0.5781 -1.0645  1.3748
 7672SOL     OW34648   1.697   3.686  13.852 -0.0146 -0.4857  0.5565
 7672SOL    HW134649   1.655   3.607  13.818 -0.7448 -0.5773  1.6782
 7672SOL    HW234650   1.750   3.710  13.776 -0.9105  1.0106  0.4129
 7673SOL     OW34651   2.619   4.130   3.862  0.1423  0.6334 -0.0207
 7673SOL    HW134652   2.646   4.123   3.953 -0.1087  1.8230  0.1523
 7673SOL    HW234653   2.523   4.132   3.863  0.0900 -0.7003 -1.4496
 7674SOL     OW34654   3.638   0.668  11.164 -0.4864  0.5732 -0.0238
 7674SOL    HW134655   3.632   0.609  11.089  0.9195  1.1201 -0.5700
 7674SOL    HW234656   3.734   0.674  11.167 -0.4491  0.5212 -1.0573
 7675SOL     OW34657   1.011   1.573   1.628 -0.2718 -0.0805 -0.1582
 7675SOL    HW134658   0.954   1.514   1.577 -0.1892  1.2390 -1.7726
 7675SOL    HW234659   0.935   1.622   1.658  0.6252  0.9474  0.4349
 7676SOL     OW34660   2.774   3.371   0.300 -0.2166 -0.0784  0.0600
 7676SOL    HW134661   2.702   3.432   0.312  1.7530  1.9332  1.6481
 7676SOL    HW234662   2.843   3.435   0.280 -0.4354 -0.5291 -2.1704
 7677SOL     OW34663   3.723   3.936  16.829 -0.7927  0.0916  0.2794
 7677SOL    HW134664   3.758   3.938  16.918  1.5192 -1.4360 -0.5999
 7677SOL    HW234665   3.788   3.976  16.772 -1.4868  0.5177 -0.2104
 7678SOL     OW34666   4.276   2.095   2.387  0.8521  0.2718  0.2097
 7678SOL    HW134667   4.219   2.065   2.316  1.7935  0.4282 -0.6110
 7678SOL    HW234668   4.323   2.011   2.396  2.0481  0.5139 -3.4903
 7679SOL     OW34669   2.563   4.052   1.700  0.0114 -0.0937  0.1038
 7679SOL    HW134670   2.612   4.090   1.772  1.1900 -2.4636  0.5344
 7679SOL    HW234671   2.486   4.110   1.702 -0.0414 -0.1677  0.1743
 7680SOL     OW34672   3.066   1.174   0.876 -0.1516  0.1930  0.1022
 7680SOL    HW134673   3.004   1.247   0.880 -1.9619 -1.4380  1.6788
 7680SOL    HW234674   3.013   1.100   0.906 -1.0045 -0.0151 -1.9068
 7681SOL     OW34675   2.955   0.430   4.516  0.6140 -0.8149  0.1963
 7681SOL    HW134676   2.972   0.346   4.473  0.6627 -1.0518  0.6791
 7681SOL    HW234677   2.930   0.401   4.604  0.0553  0.1101  0.3458
 7682SOL     OW34678   3.767   1.939   1.204 -0.2804  0.3091 -0.3434
 7682SOL    HW134679   3.766   2.032   1.226  2.3650 -0.0693  1.3277
 7682SOL    HW234680   3.828   1.910   1.272  1.7411 -2.0418 -3.1489
 7683SOL     OW34681   2.581   0.157  15.894 -0.1076 -0.3554 -0.5756
 7683SOL    HW134682   2.495   0.171  15.933 -0.6124 -3.6049 -0.4756
 7683SOL    HW234683   2.631   0.150  15.975 -0.1612 -1.3018 -0.6232
 7684SOL     OW34684   3.839   4.042   8.781 -0.0243  0.0577  0.2077
 7684SOL    HW134685   3.803   4.130   8.780  0.0521  0.1009  1.6299
 7684SOL    HW234686   3.772   3.995   8.831  0.0424 -1.0414 -0.7209
 7685SOL     OW34687   1.200   3.500   1.006 -0.5319 -0.1744  0.1040
 7685SOL    HW134688   1.277   3.480   1.060 -1.4142  0.2063  1.5152
 7685SOL    HW234689   1.199   3.596   1.009 -0.0296 -0.1333 -1.0759
 7686SOL     OW34690   3.532   4.606   3.227 -0.1159  0.6070  0.0442
 7686SOL    HW134691   3.557   4.585   3.137  0.3563 -3.0759  1.0581
 7686SOL    HW234692   3.564   4.696   3.232 -0.5726  0.7939 -0.3006
 7687SOL     OW34693   2.222   3.540   7.814 -0.2109  0.4288  0.7123
 7687SOL    HW134694   2.311   3.505   7.819  0.3636  1.6947 -0.7024
 7687SOL    HW234695   2.198   3.500   7.730  1.7258  0.0428  0.3501
 7688SOL     OW34696   4.214   3.440   6.310 -0.2362  0.1179 -0.3699
 7688SOL    HW134697   4.302   3.402   6.301 -0.2671  0.1962 -1.0105
 7688SOL    HW234698   4.157   3.364   6.301  1.2102 -0.9864 -0.2564
 7689SOL     OW34699   0.546   1.832   8.769 -0.2960 -0.2484  0.5671
 7689SOL    HW134700   0.511   1.765   8.827 -1.9334  0.1420  0.0385
 7689SOL    HW234701   0.494   1.905   8.803  1.1407  2.0422 -2.1504
 7690SOL     OW34702   0.745   2.651  12.182  0.3372  0.2783 -0.8209
 7690SOL    HW134703   0.809   2.713  12.146 -0.1626  1.3051  0.0600
 7690SOL    HW234704   0.671   2.712  12.177  0.1497 -0.0197 -1.6812
 7691SOL     OW34705   2.895   1.948  10.437  0.3057  0.2279 -0.0649
 7691SOL    HW134706   2.870   2.021  10.379  0.0410 -0.2122 -0.5036
 7691SOL    HW234707   2.984   1.963  10.467  0.4842 -0.5093 -0.2456
 7692SOL     OW34708   2.365   0.028   7.362 -0.7100 -0.1284  0.3343
 7692SOL    HW134709   2.419   4.709   7.420  0.5623  1.2287  0.3935
 7692SOL    HW234710   2.290   0.018   7.421 -1.3690 -0.9068 -0.6490
 7693SOL     OW34711   1.780   3.026  11.727  0.0053  0.0761  0.2186
 7693SOL    HW134712   1.790   3.118  11.702 -1.6356  0.3917  0.6977
 7693SOL    HW234713   1.719   3.030  11.800  2.1043  0.9904  1.9012
 7694SOL     OW34714   3.179   3.946   6.341 -0.2989  0.0131  0.5608
 7694SOL    HW134715   3.233   3.973   6.415 -0.8290  1.0725  0.5575
 7694SOL    HW234716   3.220   3.874   6.293 -0.4482  0.0941  0.3156
 7695SOL     OW34717   0.574   3.565  13.032 -0.9757 -0.8804  0.3427
 7695SOL    HW134718   0.618   3.496  12.981  1.5374  0.7127  0.3349
 7695SOL    HW234719   0.540   3.622  12.963  2.4640  0.2965 -0.4072
 7696SOL     OW34720   2.014   1.893  17.029  0.5489 -0.0459  0.2529
 7696SOL    HW134721   1.980   1.860  17.112 -1.0645  1.3008  0.1305
 7696SOL    HW234722   2.109   1.898  17.040  0.8949 -1.9144 -1.9114
 7697SOL     OW34723   4.401   0.645   6.293 -0.1203 -0.7504 -0.0554
 7697SOL    HW134724   4.469   0.598   6.342  0.1868 -1.5044 -1.2070
 7697SOL    HW234725   4.443   0.684   6.217  0.1471 -2.5383 -0.8368
 7698SOL     OW34726   1.247   3.329   2.152  0.1644  0.1104  0.1137
 7698SOL    HW134727   1.302   3.392   2.105  0.7490 -0.6560 -0.2257
 7698SOL    HW234728   1.214   3.264   2.090  0.5929  0.5359 -0.5660
 7699SOL     OW34729   1.247   4.555   5.177  0.1648 -0.2066 -0.3510
 7699SOL    HW134730   1.188   4.589   5.244  1.0648  0.2347  0.2169
 7699SOL    HW234731   1.332   4.573   5.217 -0.1311 -1.5954  0.9295
 7700SOL     OW34732   3.206   2.068   8.156  0.1637  0.1391  0.5138
 7700SOL    HW134733   3.118   2.038   8.180  0.7626 -2.4803 -0.5161
 7700SOL    HW234734   3.199   2.127   8.081 -1.6369  0.4176  0.9048
 7701SOL     OW34735   2.550   1.407  12.942  0.1472 -0.0663  0.5181
 7701SOL    HW134736   2.523   1.321  12.973  1.0996 -0.4851  0.1793
 7701SOL    HW234737   2.626   1.439  12.991 -0.4487  1.0467  0.7200
 7702SOL     OW34738   0.439   3.319  16.073 -0.1649 -0.5597 -0.2719
 7702SOL    HW134739   0.430   3.245  16.133 -1.5103  1.3472  1.8828
 7702SOL    HW234740   0.356   3.363  16.092  0.3778  0.0001  0.7978
 7703SOL     OW34741   3.739   0.562   9.913 -0.3824  0.3028  0.1223
 7703SOL    HW134742   3.748   0.479   9.866 -1.9363 -1.1324  2.3967
 7703SOL    HW234743   3.741   0.533  10.004 -0.4244  0.6135  0.2228
 7704SOL     OW34744   1.061   3.605  15.725  0.1645 -0.9548 -0.5790
 7704SOL    HW134745   0.984   3.620  15.670  0.5183  3.0221 -0.0359
 7704SOL    HW234746   1.109   3.559  15.657 -0.4669 -1.3973 -0.7215
 7705SOL     OW34747   1.405   0.227   9.377 -0.3404  0.0508  0.2063
 7705SOL    HW134748   1.362   0.148   9.348  0.1909 -1.0392  2.3290
 7705SOL    HW234749   1.402   0.215   9.472  0.2189 -1.2452  0.0526
 7706SOL     OW34750   1.101   1.294   2.538 -0.0773  0.1358 -0.3709
 7706SOL    HW134751   1.033   1.332   2.594 -1.0631  0.4185 -1.7686
 7706SOL    HW234752   1.060   1.228   2.482  0.1980  1.7903 -2.5226
 7707SOL     OW34753   2.016   2.034   8.011  0.3258  0.1679  0.2384
 7707SOL    HW134754   2.001   1.977   8.086  0.3894  0.1752  0.2566
 7707SOL    HW234755   2.022   2.119   8.056  2.0330  1.4447 -2.3764
 7708SOL     OW34756   3.044   1.090  15.679 -0.1409  0.1156  0.1192
 7708SOL    HW134757   3.004   1.031  15.743  2.3522 -1.7544 -0.0690
 7708SOL    HW234758   2.983   1.068  15.609 -0.0801 -0.8550  0.3777
 7709SOL     OW34759   3.806   3.120   0.505 -0.1280 -0.6061  0.1955
 7709SOL    HW134760   3.736   3.094   0.444  0.7423  0.0556 -1.0888
 7709SOL    HW234761   3.863   3.182   0.459  0.5242 -1.2607  0.1257
 7710SOL     OW34762   0.166   1.871   6.675 -0.7594 -0.3426 -0.3997
 7710SOL    HW134763   0.210   1.956   6.673 -1.6068  0.0789 -1.4224
 7710SOL    HW234764   0.074   1.889   6.654 -0.8743  0.7923  1.1457
 7711SOL     OW34765   0.420   0.733   5.072 -0.1382  0.7424  0.7138
 7711SOL    HW134766   0.487   0.719   5.006  1.2963  0.7381  2.1859
 7711SOL    HW234767   0.404   0.648   5.112  0.8852  0.3687  0.3144
 7712SOL     OW34768   1.198   3.636   4.054  0.1629  0.1104  0.4837
 7712SOL    HW134769   1.246   3.715   4.032 -0.2973  0.0636 -0.7079
 7712SOL    HW234770   1.132   3.664   4.117 -0.2966  3.3625 -1.4484
 7713SOL     OW34771   1.885   1.314  12.948 -0.6485 -0.5486 -0.3382
 7713SOL    HW134772   1.796   1.338  12.921 -0.5657  0.2097  0.0404
 7713SOL    HW234773   1.921   1.391  12.904  0.4189 -0.2857  0.9715
 7714SOL     OW34774   3.977   0.557  16.670 -0.1901  0.7488  0.0974
 7714SOL    HW134775   4.037   0.621  16.710  0.4760 -0.1336  0.5201
 7714SOL    HW234776   3.896   0.608  16.675 -1.7494 -1.7013 -0.3348
 7715SOL     OW34777   0.848   4.206   3.769 -0.3906 -0.1951  0.1140
 7715SOL    HW134778   0.930   4.204   3.720 -0.6108  0.5142 -0.2895
 7715SOL    HW234779   0.792   4.168   3.702  0.1436 -0.2284 -0.3119
 7716SOL     OW34780   2.381   3.099   3.579  1.2306 -0.1271 -0.2929
 7716SOL    HW134781   2.305   3.074   3.632  2.1756  1.2360  1.7274
 7716SOL    HW234782   2.418   3.164   3.638  3.0904 -0.8531 -0.6572
 7717SOL     OW34783   2.351   1.624   5.927  0.4915  0.1875  0.2009
 7717SOL    HW134784   2.279   1.631   5.865  0.0897  0.6578  0.7220
 7717SOL    HW234785   2.420   1.594   5.868  0.3396 -3.1735  1.6844
 7718SOL     OW34786   3.050   3.749   5.888  0.1484  0.3446 -0.1995
 7718SOL    HW134787   3.000   3.705   5.820  2.1406 -1.0019 -0.7707
 7718SOL    HW234788   3.139   3.727   5.860 -0.9992 -1.6344 -2.2520
 7719SOL     OW34789   4.103   3.222   5.303  0.0965 -0.2393  0.3816
 7719SOL    HW134790   4.012   3.204   5.281  0.3863 -0.4221 -0.6845
 7719SOL    HW234791   4.087   3.229   5.397 -0.3780  0.3914  0.2560
 7720SOL     OW34792   0.972   3.078  11.888 -0.3166 -0.6430 -0.4298
 7720SOL    HW134793   0.951   3.074  11.982 -0.7443  0.1317 -0.4954
 7720SOL    HW234794   0.988   2.986  11.866  0.9542 -0.3058 -0.9190
 7721SOL     OW34795   2.717   2.164   5.302  0.0271  0.4051 -0.0238
 7721SOL    HW134796   2.733   2.106   5.376  1.4021  0.1243 -0.5520
 7721SOL    HW234797   2.674   2.103   5.242  0.5843  0.8883 -0.9064
 7722SOL     OW34798   0.051   3.157   1.720 -0.0312 -0.1632 -0.1660
 7722SOL    HW134799   0.014   3.115   1.642  1.6048 -2.1047  0.1162
 7722SOL    HW234800   0.008   3.108   1.790  0.9616  0.2030  0.6901
 7723SOL     OW34801   1.384   1.558  10.998 -0.1028  0.2998  0.2167
 7723SOL    HW134802   1.372   1.626  11.065  1.2333 -0.5493  1.3191
 7723SOL    HW234803   1.337   1.487  11.041  1.3809  0.2698  1.8119
 7724SOL     OW34804   1.901   4.411   7.109  0.1092 -0.1013  0.1674
 7724SOL    HW134805   1.827   4.356   7.134 -0.6068 -0.7035 -3.2282
 7724SOL    HW234806   1.875   4.483   7.165 -1.1171 -0.0573 -0.4655
 7725SOL     OW34807   4.247   1.758   6.350  0.0606 -0.1870 -0.4645
 7725SOL    HW134808   4.190   1.738   6.276  0.2332 -1.3207 -0.2797
 7725SOL    HW234809   4.334   1.754   6.310 -0.9040  0.3685 -2.6245
 7726SOL     OW34810   1.737   3.669  12.741  0.2643  0.0988 -0.1061
 7726SOL    HW134811   1.828   3.690  12.763  0.9124 -1.9755 -0.8422
 7726SOL    HW234812   1.733   3.713  12.656  0.7037  0.6849  0.1749
 7727SOL     OW34813   2.814   2.944   3.236 -0.4488  0.4618  0.0191
 7727SOL    HW134814   2.869   2.869   3.212  1.2569  2.1501 -1.3844
 7727SOL    HW234815   2.724   2.919   3.214 -0.1360 -1.6279  1.1336
 7728SOL     OW34816   1.798   2.271  16.751 -0.0749 -0.3752  0.2641
 7728SOL    HW134817   1.847   2.193  16.775 -0.2658 -0.2266  1.1336
 7728SOL    HW234818   1.850   2.343  16.788 -0.0729  0.2753 -0.9782
 7729SOL     OW34819   1.283   4.540   9.336  0.3170  0.4359  0.4295
 7729SOL    HW134820   1.275   4.634   9.321 -0.2009  0.7562  2.7471
 7729SOL    HW234821   1.362   4.520   9.285  0.3399 -1.6301  1.2962
 7730SOL     OW34822   3.808   1.210   1.698 -0.6163  0.0268 -0.1567
 7730SOL    HW134823   3.867   1.233   1.770 -0.0818  2.1258 -1.2598
 7730SOL    HW234824   3.740   1.167   1.750  0.5814 -0.7010  0.8018
 7731SOL     OW34825   0.244   1.657  12.503  0.5883 -0.3500 -0.5045
 7731SOL    HW134826   0.337   1.662  12.523  0.3152 -2.7805  1.3503
 7731SOL    HW234827   0.211   1.640  12.591  0.2547 -0.3852 -0.6350
 7732SOL     OW34828   4.339   2.913   8.314 -0.0334  0.1918  0.1241
 7732SOL    HW134829   4.434   2.930   8.315 -0.2229  1.3279 -0.8348
 7732SOL    HW234830   4.331   2.819   8.327  3.4231 -0.0673  0.5801
 7733SOL     OW34831   3.615   2.694  12.220  0.4473 -0.1018 -0.5616
 7733SOL    HW134832   3.614   2.761  12.287  2.2924  0.5620 -1.1994
 7733SOL    HW234833   3.656   2.740  12.147  0.2804  1.5429  0.3893
 7734SOL     OW34834   3.701   0.462  10.159  0.4696  0.6457  0.1633
 7734SOL    HW134835   3.608   0.444  10.140  1.4037 -4.1713  0.0288
 7734SOL    HW234836   3.722   0.376  10.195 -0.3441 -0.4263 -1.8665
 7735SOL     OW34837   2.529   2.556   2.564  0.6528 -0.3049  0.0780
 7735SOL    HW134838   2.543   2.616   2.491 -0.2195  0.7990  0.8179
 7735SOL    HW234839   2.517   2.477   2.510 -0.5049 -0.0451 -0.0541
 7736SOL     OW34840   4.368   0.156   0.641 -0.1929  0.1801  0.4383
 7736SOL    HW134841   4.306   0.094   0.604  0.4730 -0.1060 -0.1865
 7736SOL    HW234842   4.321   0.193   0.716  0.5449  1.2792  0.3438
 7737SOL     OW34843   4.036   3.148   6.268  0.0038 -0.2182  0.4149
 7737SOL    HW134844   3.957   3.127   6.318  0.4301 -0.0804  1.1525
 7737SOL    HW234845   4.074   3.060   6.268 -0.7697 -0.5645  1.5759
 7738SOL     OW34846   2.443   1.469  17.464  0.1062 -0.0770  0.1159
 7738SOL    HW134847   2.398   1.550  17.441 -1.6728 -0.9328  0.5725
 7738SOL    HW234848   2.528   1.503  17.491 -0.2629 -0.1694  1.3915
 7739SOL     OW34849   2.185   0.137  13.355 -0.1972 -0.1021  0.3224
 7739SOL    HW134850   2.096   0.172  13.353  0.0765  0.5282 -0.8083
 7739SOL    HW234851   2.245   0.197  13.310  0.0898 -1.1608 -0.7224
 7740SOL     OW34852   1.186   1.997   6.653  0.0851  0.2556  0.3149
 7740SOL    HW134853   1.193   2.068   6.718  1.7608  0.6048 -0.2499
 7740SOL    HW234854   1.258   2.019   6.594  0.4189 -0.0263  0.6186
 7741SOL     OW34855   4.458   1.420   6.926 -0.2488 -0.1150 -0.2293
 7741SOL    HW134856   4.369   1.430   6.960 -0.5766  0.4230 -1.2170
 7741SOL    HW234857   4.502   1.401   7.008  0.7485 -1.6037 -1.0996
 7742SOL     OW34858   2.839   4.586   1.215 -0.0031 -0.0052  0.2806
 7742SOL    HW134859   2.776   4.617   1.280  0.0856  2.2959 -0.7093
 7742SOL    HW234860   2.912   4.561   1.271  2.8100 -1.1839 -3.9321
 7743SOL     OW34861   1.611   0.474   6.955  0.2293 -0.8010 -0.1497
 7743SOL    HW134862   1.615   0.524   6.873  0.2110 -0.3113  0.1462
 7743SOL    HW234863   1.622   0.546   7.018 -0.5873 -1.9588  1.3032
 7744SOL     OW34864   3.390   3.677   8.876 -0.1825  0.3090  0.0136
 7744SOL    HW134865   3.474   3.653   8.914 -0.8127 -0.6349  0.8136
 7744SOL    HW234866   3.412   3.763   8.839 -0.4449  0.8949  1.2212
 7745SOL     OW34867   2.661   2.928  14.215 -0.6545  0.0304  0.0543
 7745SOL    HW134868   2.744   2.891  14.185 -1.2244 -1.0134 -0.2113
 7745SOL    HW234869   2.601   2.861  14.183 -1.6229  0.7016  0.4710
 7746SOL     OW34870   2.597   1.849  11.449 -0.4951 -0.3352 -0.3445
 7746SOL    HW134871   2.634   1.877  11.366 -1.1062  0.4121 -0.3664
 7746SOL    HW234872   2.574   1.938  11.478  1.5927  1.2460 -3.6423
 7747SOL     OW34873   1.486   2.671   7.338  0.1021  0.0552 -0.0038
 7747SOL    HW134874   1.444   2.696   7.421  0.3502  1.3917 -0.2763
 7747SOL    HW234875   1.561   2.616   7.360  0.1000  0.3659  0.8108
 7748SOL     OW34876   4.136   4.229   6.704 -0.2867 -0.5665 -0.0526
 7748SOL    HW134877   4.206   4.213   6.640 -0.8873 -0.9868 -0.6077
 7748SOL    HW234878   4.104   4.318   6.690 -0.4189 -0.3911  1.3531
 7749SOL     OW34879   4.488   2.265   2.358  0.0474 -0.1172  0.0947
 7749SOL    HW134880   4.503   2.271   2.452  3.6149  0.6721 -0.5073
 7749SOL    HW234881   4.436   2.184   2.359 -1.1051  0.6026 -0.8781
 7750SOL     OW34882   3.923   0.161   8.112 -0.1499 -0.5912 -0.2537
 7750SOL    HW134883   3.980   0.158   8.189 -0.3645  0.9128 -0.0149
 7750SOL    HW234884   3.981   0.200   8.047 -3.2684  0.3608 -2.5198
 7751SOL     OW34885   3.139   2.832   2.389 -0.7327  0.1011 -0.4682
 7751SOL    HW134886   3.164   2.917   2.353  0.6051  0.4094  1.2009
 7751SOL    HW234887   3.162   2.835   2.481 -0.1043  0.4149 -0.6349
 7752SOL     OW34888   1.424   3.564  16.479 -0.2571 -0.5106 -0.2539
 7752SOL    HW134889   1.502   3.615  16.459 -0.0511 -1.3708 -1.6309
 7752SOL    HW234890   1.375   3.620  16.539 -1.5986 -0.8655 -1.0219
 7753SOL     OW34891   2.553   1.171  15.471 -0.2048  0.0968 -0.2500
 7753SOL    HW134892   2.506   1.253  15.481  1.6998  1.2885 -1.0647
 7753SOL    HW234893   2.555   1.163  15.376  2.2963 -1.1527 -0.1051
 7754SOL     OW34894   0.752   1.219   5.273 -0.6979 -0.2879 -0.0381
 7754SOL    HW134895   0.732   1.195   5.182  2.4331  1.0081 -1.0578
 7754SOL    HW234896   0.840   1.185   5.290 -0.8122  0.7423  2.5515
 7755SOL     OW34897   1.533   1.237   6.055  0.9067  0.1301  0.4876
 7755SOL    HW134898   1.579   1.212   5.975  1.5807  2.0680  0.2725
 7755SOL    HW234899   1.473   1.309   6.036  0.5369 -0.4494 -0.4909
 7756SOL     OW34900   4.052   4.036  10.432 -0.8343 -0.3094 -0.3128
 7756SOL    HW134901   4.046   4.097  10.359 -0.1242  0.3584  0.1829
 7756SOL    HW234902   4.082   4.097  10.499 -0.5962 -1.8234  0.9652
 7757SOL     OW34903   2.587   3.967   5.252  0.2208  0.0541  0.7006
 7757SOL    HW134904   2.573   3.989   5.344  1.2174  0.4853  0.7502
 7757SOL    HW234905   2.668   3.917   5.266  0.3768  0.4928  1.3276
 7758SOL     OW34906   2.707   0.770   4.823 -0.0370 -0.1416  0.1225
 7758SOL    HW134907   2.630   0.804   4.869 -0.3351  1.6829 -1.6996
 7758SOL    HW234908   2.764   0.724   4.884  1.8850  0.2284 -1.3981
 7759SOL     OW34909   0.028   0.685   1.130  0.3652  0.2919 -0.0115
 7759SOL    HW134910   4.685   0.704   1.182  1.8346  1.1796  1.8417
 7759SOL    HW234911   0.082   0.755   1.167  0.0761  0.2136  0.5577
 7760SOL     OW34912   2.934   1.754   7.608  0.1190 -0.4137  0.1842
 7760SOL    HW134913   2.865   1.816   7.631  0.5785  0.4163 -0.7235
 7760SOL    HW234914   2.909   1.740   7.517 -0.0763 -0.9445  0.3179
 7761SOL     OW34915   0.058   0.058  10.890  0.2899  0.1552  0.4092
 7761SOL    HW134916   0.078   0.060  10.983 -1.5796  0.9327  0.7832
 7761SOL    HW234917   0.012   4.709  10.886  2.1478 -0.6839 -3.4328
 7762SOL     OW34918   3.305   0.042   1.460 -0.3918  0.3972 -0.3204
 7762SOL    HW134919   3.267   0.130   1.453 -1.5918  0.1596  2.9536
 7762SOL    HW234920   3.245   0.001   1.523  0.2114 -0.5390 -0.3588
 7763SOL     OW34921   2.978   0.347   9.854  0.1510  0.7948  0.5884
 7763SOL    HW134922   3.025   0.301   9.784  0.2020  1.9731 -0.1431
 7763SOL    HW234923   3.046   0.376   9.914  1.0843  1.2494 -0.6971
 7764SOL     OW34924   3.628   1.068   0.502  0.3465 -0.2915  0.3598
 7764SOL    HW134925   3.712   1.103   0.530  1.1754 -2.8065  0.9461
 7764SOL    HW234926   3.569   1.142   0.519  1.6722  0.6066  0.9833
 7765SOL     OW34927   0.770   2.914   8.512 -0.8146 -0.4659 -0.5345
 7765SOL    HW134928   0.774   2.993   8.459  0.6664 -0.8015 -0.9333
 7765SOL    HW234929   0.689   2.928   8.561 -0.3389 -3.5206  1.1218
 7766SOL     OW34930   0.081   0.142   4.177 -0.5998 -0.1962  0.4776
 7766SOL    HW134931   0.101   0.236   4.178 -0.9557 -0.1421  2.3432
 7766SOL    HW234932   0.167   0.115   4.208 -1.0979 -0.0806  1.9893
 7767SOL     OW34933   2.149   2.417   8.471  0.6384 -0.2751  0.0357
 7767SOL    HW134934   2.212   2.472   8.424  0.0667  0.6094  0.3059
 7767SOL    HW234935   2.093   2.482   8.514  2.5766 -0.2457  2.5078
 7768SOL     OW34936   3.865   1.190  14.870 -0.1645  0.2026 -0.1406
 7768SOL    HW134937   3.810   1.152  14.938 -1.5926 -0.1166 -1.4583
 7768SOL    HW234938   3.908   1.259  14.921 -0.4395  0.3286 -0.0819
 7769SOL     OW34939   0.071   3.948   9.440  0.0479  0.1794  0.4101
 7769SOL    HW134940   4.716   3.951   9.474  0.1271  0.8183  0.5696
 7769SOL    HW234941   0.062   3.925   9.348  0.1078  2.6330 -0.2094
 7770SOL     OW34942   0.874   3.363  15.000 -0.4616 -0.5898  0.0043
 7770SOL    HW134943   0.830   3.282  14.977  0.3769 -0.6560 -1.3716
 7770SOL    HW234944   0.941   3.355  15.068 -2.0335 -1.7719  1.4354
 7771SOL     OW34945   3.014   0.508  16.429 -0.7693 -0.0735  0.5024
 7771SOL    HW134946   3.029   0.498  16.523  1.4163  0.3977  0.2303
 7771SOL    HW234947   2.994   0.601  16.420  0.0265  0.0408 -0.1145
 7772SOL     OW34948   1.353   0.072   8.918  0.3696  0.0350  0.1198
 7772SOL    HW134949   1.316   4.731   8.871  0.2394  0.3765 -0.3209
 7772SOL    HW234950   1.361   0.133   8.846  0.4601 -1.1012 -0.8266
 7773SOL     OW34951   3.608   4.624  10.611  0.0974  0.2055  0.0232
 7773SOL    HW134952   3.585   4.684  10.540 -0.4789 -0.7626 -0.6045
 7773SOL    HW234953   3.524   4.633  10.656  0.0463 -1.8096  0.3309
 7774SOL     OW34954   1.894   2.221   4.043 -0.0910 -0.0104 -0.5914
 7774SOL    HW134955   1.984   2.191   4.031 -0.4602 -1.6213  0.6860
 7774SOL    HW234956   1.852   2.135   4.042  2.2037 -1.1377 -0.6382
 7775SOL     OW34957   4.431   3.061   4.378  0.8368  0.4379  0.9069
 7775SOL    HW134958   4.342   3.031   4.361  1.5621 -1.3578  0.3287
 7775SOL    HW234959   4.466   3.092   4.295 -1.4156 -1.5323 -0.7557
 7776SOL     OW34960   1.690   1.926   9.360  0.7634 -0.6900  0.6064
 7776SOL    HW134961   1.667   1.900   9.449  0.5695  0.1514  0.8080
 7776SOL    HW234962   1.734   2.011   9.373 -1.1187  0.8536 -3.1882
 7777SOL     OW34963   2.628   4.219   9.507  0.0823 -0.2890 -0.2414
 7777SOL    HW134964   2.597   4.306   9.533 -2.7636 -1.2560 -0.4241
 7777SOL    HW234965   2.578   4.213   9.425 -1.1950  0.0160  0.5133
 7778SOL     OW34966   2.033   1.025   2.183  0.5314 -0.8231  0.2017
 7778SOL    HW134967   1.972   0.960   2.148 -0.5991  1.1952 -1.5639
 7778SOL    HW234968   1.990   1.056   2.263 -0.7598 -0.9462 -0.4359
 7779SOL     OW34969   2.486   1.045   9.593 -0.4392 -0.3974  0.3500
 7779SOL    HW134970   2.517   0.956   9.608  2.4848  0.7643  1.2600
 7779SOL    HW234971   2.412   1.018   9.539 -0.6435  2.4031 -0.7820
 7780SOL     OW34972   0.082   3.182   0.634  0.4777  0.0763  0.4979
 7780SOL    HW134973   0.127   3.235   0.568  0.4716 -0.1903  0.2777
 7780SOL    HW234974   0.093   3.092   0.601 -0.6347  0.3914 -0.7503
 7781SOL     OW34975   1.907   2.157   9.355 -0.3218  0.6755 -0.3450
 7781SOL    HW134976   1.937   2.234   9.403 -1.0406  1.1410 -0.6412
 7781SOL    HW234977   1.957   2.179   9.277  1.8981 -0.7655  0.6885
 7782SOL     OW34978   0.402   3.137   5.815  0.1971 -0.4232 -0.0238
 7782SOL    HW134979   0.309   3.153   5.830  0.6983  2.5649 -0.0811
 7782SOL    HW234980   0.439   3.226   5.812 -1.7105  0.3590 -0.2944
 7783SOL     OW34981   2.025   4.049   2.092 -0.0268  0.0866 -0.1719
 7783SOL    HW134982   1.959   3.990   2.057  0.2882 -1.0667  1.1940
 7783SOL    HW234983   2.052   4.094   2.011 -0.2085  1.6341  0.6344
 7784SOL     OW34984   2.582   0.279   4.247 -0.3309  0.2401 -0.3927
 7784SOL    HW134985   2.505   0.330   4.221  1.1148  2.3996 -0.4813
 7784SOL    HW234986   2.555   0.223   4.319  1.5797  2.4255  2.0179
 7785SOL     OW34987   2.597   3.228   3.729 -0.8586 -0.1872 -0.3143
 7785SOL    HW134988   2.594   3.277   3.811  1.6793 -0.6615  0.0780
 7785SOL    HW234989   2.651   3.281   3.670  2.2885 -1.6590  1.2030
 7786SOL     OW34990   0.996   1.505   0.786 -0.1562  0.4901  0.5537
 7786SOL    HW134991   1.040   1.590   0.787  1.7560 -0.5110  0.5196
 7786SOL    HW234992   1.044   1.458   0.718  0.9365  2.8832 -0.3438
 7787SOL     OW34993   1.864   2.098  13.101 -0.1981  0.0945 -0.0298
 7787SOL    HW134994   1.884   2.077  13.192  2.8734  3.2242  0.0088
 7787SOL    HW234995   1.835   2.188  13.115  0.9011  0.6903 -1.5479
 7788SOL     OW34996   0.153   0.966  12.236  0.3653  0.5640 -0.4359
 7788SOL    HW134997   0.093   1.007  12.174  0.7606 -0.1148 -1.2698
 7788SOL    HW234998   0.183   1.039  12.291 -1.0635  3.5343 -3.5730
 7789SOL     OW34999   0.683   1.168   4.977  0.4351  0.3295 -0.1254
 7789SOL    HW135000   0.691   1.119   4.895 -2.1337 -0.6355  0.1945
 7789SOL    HW235001   0.768   1.211   4.971  1.9204 -2.6489 -0.4520
 7790SOL     OW35002   0.873   2.805   3.805  0.3637 -0.0334 -0.4537
 7790SOL    HW135003   0.848   2.893   3.777 -0.9252 -0.4738 -0.7071
 7790SOL    HW235004   0.929   2.774   3.734  0.0563  0.6627 -1.0060
 7791SOL     OW35005   2.823   2.465   5.848 -0.2285  0.5378 -0.0911
 7791SOL    HW135006   2.879   2.410   5.903 -1.5992 -3.2063 -2.4205
 7791SOL    HW235007   2.832   2.556   5.877 -0.9494  0.4461  0.3865
 7792SOL     OW35008   2.169   0.302   7.122 -0.0487  0.4313  0.1792
 7792SOL    HW135009   2.259   0.270   7.128 -0.4079 -0.5989  0.0188
 7792SOL    HW235010   2.123   0.236   7.174 -1.7503  0.5607 -1.1616
 7793SOL     OW35011   2.747   2.166   2.531  0.1253  0.1437 -0.1245
 7793SOL    HW135012   2.726   2.135   2.619 -0.6943  1.2028  0.0622
 7793SOL    HW235013   2.672   2.224   2.515  0.6693  0.9453  0.2040
 7794SOL     OW35014   0.479   3.931   2.216 -0.1410 -0.1815  0.8298
 7794SOL    HW135015   0.499   3.881   2.295  0.6155 -0.2162  0.6193
 7794SOL    HW235016   0.446   4.013   2.253 -2.1678 -0.3548 -0.6011
 7795SOL     OW35017   2.454   4.298  17.117 -0.3930  0.0899 -0.3299
 7795SOL    HW135018   2.477   4.214  17.077 -3.1549 -2.1453  2.7581
 7795SOL    HW235019   2.418   4.271  17.202 -0.6274 -0.1095 -0.4920
 7796SOL     OW35020   0.991   4.716   4.390  0.0352  0.3330 -0.6703
 7796SOL    HW135021   0.963   0.072   4.384  0.0941  0.5415  2.2956
 7796SOL    HW235022   0.935   4.670   4.453  2.0556 -0.6973  0.3971
 7797SOL     OW35023   2.102   2.993   7.497  0.7249  0.2853  0.5421
 7797SOL    HW135024   2.151   2.942   7.432  1.1562 -1.5077  2.2548
 7797SOL    HW235025   2.063   3.059   7.441 -0.5559 -1.5107 -0.6699
 7798SOL     OW35026   1.642   2.591   1.162  0.1742 -0.6063  0.4313
 7798SOL    HW135027   1.591   2.512   1.181  1.0300 -1.2981 -0.1625
 7798SOL    HW235028   1.583   2.640   1.105  1.0387 -2.2008 -1.8313
 7799SOL     OW35029   2.304   2.318  14.938  0.3288 -0.0839  0.0429
 7799SOL    HW135030   2.250   2.270  15.001  0.2103  0.3910  0.3049
 7799SOL    HW235031   2.326   2.252  14.872 -0.9791  0.7498 -1.2417
 7800SOL     OW35032   1.429   2.576   4.720  0.4394  0.0374 -0.3124
 7800SOL    HW135033   1.484   2.633   4.666  2.0191  0.4489  1.7148
 7800SOL    HW235034   1.494   2.510   4.744  1.4582  0.7395 -1.1389
 7801SOL     OW35035   1.516   4.403   3.163  0.2829 -0.3444  0.1936
 7801SOL    HW135036   1.451   4.448   3.108 -1.4338 -1.4090  1.3588
 7801SOL    HW235037   1.600   4.432   3.127  0.6357 -1.5922  0.0096
 7802SOL     OW35038   3.053   4.658   2.507 -0.4227 -0.4086 -0.2284
 7802SOL    HW135039   3.042   0.004   2.457 -1.0738  0.2716  0.9995
 7802SOL    HW235040   3.014   4.682   2.591 -0.1015  1.8439 -0.7312
 7803SOL     OW35041   4.482   1.310   6.657 -0.5903 -0.7661 -0.0322
 7803SOL    HW135042   4.462   1.217   6.664 -1.3195 -0.6104 -0.1325
 7803SOL    HW235043   4.452   1.350   6.739 -0.4484 -0.1053 -0.3020
 7804SOL     OW35044   0.252   1.550  11.225  0.1649  0.5716  0.5714
 7804SOL    HW135045   0.326   1.521  11.170 -1.0786 -0.7236 -0.4180
 7804SOL    HW235046   0.192   1.478  11.207  0.1771  0.1488  2.2456
 7805SOL     OW35047   1.545   1.014  16.708  0.5626 -0.4957  0.1406
 7805SOL    HW135048   1.510   0.926  16.697 -0.8553  0.0682  0.1514
 7805SOL    HW235049   1.514   1.027  16.798 -0.4334 -3.7119  0.2702
 7806SOL     OW35050   4.197   2.457  16.916  0.5686 -0.0995  0.5490
 7806SOL    HW135051   4.163   2.436  16.830 -0.9660 -1.7767  1.5625
 7806SOL    HW235052   4.291   2.450  16.899  0.0696 -0.3654 -2.0580
 7807SOL     OW35053   3.429   3.117  15.393 -0.3239  0.1852 -0.0488
 7807SOL    HW135054   3.367   3.190  15.388  1.2218  1.5540  0.4344
 7807SOL    HW235055   3.398   3.053  15.329  1.0457 -2.0745  1.5483
 7808SOL     OW35056   3.838   1.838   0.948  0.3832  0.0783 -0.2660
 7808SOL    HW135057   3.762   1.888   0.920 -2.1393 -3.4761  0.2082
 7808SOL    HW235058   3.859   1.882   1.030 -0.6217 -0.6508  0.3800
 7809SOL     OW35059   0.844   3.478   7.905  0.5817 -0.0933 -0.2066
 7809SOL    HW135060   0.893   3.560   7.905  0.4077  0.0105 -0.6784
 7809SOL    HW235061   0.872   3.430   7.828  1.1697  0.9123 -0.6181
 7810SOL     OW35062   0.865   0.435  12.865  0.4681  0.0766  0.2073
 7810SOL    HW135063   0.800   0.431  12.795  0.5790 -1.9220  0.2356
 7810SOL    HW235064   0.807   0.464  12.935 -2.1139 -0.5561 -1.6729
 7811SOL     OW35065   0.318   1.951   5.373  0.4970  0.4187 -0.0223
 7811SOL    HW135066   0.337   2.001   5.453 -0.9910 -0.8191  1.0960
 7811SOL    HW235067   0.367   1.877   5.410 -1.0981 -0.7848 -0.3241
 7812SOL     OW35068   4.297   2.427   2.247  0.4289 -0.3679  0.1346
 7812SOL    HW135069   4.374   2.388   2.289  0.0676 -0.1392  1.0033
 7812SOL    HW235070   4.301   2.520   2.270  0.7239 -0.6004  1.0358
 7813SOL     OW35071   2.308   0.427  17.467  0.1927  0.2891  0.0429
 7813SOL    HW135072   2.321   0.338  17.435  2.3596  0.9951 -1.0165
 7813SOL    HW235073   2.360   0.473  17.401  0.0162  1.4526  0.7046
 7814SOL     OW35074   0.564   0.661   5.842 -0.1142 -0.0604  0.0773
 7814SOL    HW135075   0.639   0.623   5.887  0.0285  0.2960  0.1356
 7814SOL    HW235076   0.594   0.750   5.823  1.0602 -0.8906 -1.9537
 7815SOL     OW35077   4.381   2.256   1.949  0.5040 -0.0612  0.0436
 7815SOL    HW135078   4.460   2.298   1.917 -0.6815  1.2491 -1.1450
 7815SOL    HW235079   4.325   2.251   1.871  0.5250  0.7084 -0.0227
 7816SOL     OW35080   0.031   0.326  14.389 -0.4944  0.0427  0.0800
 7816SOL    HW135081   4.703   0.398  14.391  0.2215  0.5748  3.6107
 7816SOL    HW235082   4.724   0.253  14.343  0.9855 -0.4118 -0.5314
 7817SOL     OW35083   4.155   1.608  17.215  0.1133 -0.2429  1.0618
 7817SOL    HW135084   4.211   1.534  17.238 -0.9670 -1.1051  0.9201
 7817SOL    HW235085   4.182   1.671  17.281 -0.7766  3.1209 -1.7595
 7818SOL     OW35086   2.975   2.464   8.608  0.1194 -0.3421 -0.3141
 7818SOL    HW135087   2.883   2.462   8.632  0.8032  0.5556  2.3629
 7818SOL    HW235088   3.008   2.552   8.625 -1.0446  0.1237 -0.4841
 7819SOL     OW35089   0.709   0.560   2.562  0.4130 -0.1258 -0.7703
 7819SOL    HW135090   0.762   0.506   2.503  0.4112  1.3112 -2.0738
 7819SOL    HW235091   0.707   0.642   2.513 -2.8897  0.1039 -0.2715
 7820SOL     OW35092   1.353   2.153  13.955  0.3411 -0.5205 -0.6171
 7820SOL    HW135093   1.405   2.233  13.966 -1.1825  0.4117 -0.2122
 7820SOL    HW235094   1.407   2.112  13.887 -0.0622  0.6385 -1.6380
 7821SOL     OW35095   1.044   2.262   7.857 -0.1077 -0.1744  0.2291
 7821SOL    HW135096   0.958   2.221   7.849  0.0978 -0.2414 -1.6238
 7821SOL    HW235097   1.062   2.288   7.766  1.1330  0.5789  0.6888
 7822SOL     OW35098   3.973   1.066  15.254  0.3201  0.3915 -0.0818
 7822SOL    HW135099   4.042   1.045  15.318  0.1526  0.2559  0.0529
 7822SOL    HW235100   4.015   1.130  15.196  0.5820 -0.0653 -0.3932
 7823SOL     OW35101   4.074   0.897  14.516 -0.4236 -0.4219 -0.1864
 7823SOL    HW135102   3.989   0.879  14.557  0.4750  2.7775  3.0281
 7823SOL    HW235103   4.026   0.934  14.441 -1.4837  0.7351  1.0646
 7824SOL     OW35104   1.314   2.944  15.737  0.1516 -0.0069  0.4757
 7824SOL    HW135105   1.270   3.016  15.782  0.4230  0.8085 -0.5618
 7824SOL    HW235106   1.251   2.935  15.665 -0.4486 -1.8018  1.2412
 7825SOL     OW35107   4.671   1.980   3.907  0.2964 -0.5250 -0.2861
 7825SOL    HW135108   4.654   1.999   3.815  0.9832  1.0028 -0.0917
 7825SOL    HW235109   0.029   2.006   3.907  0.3659 -0.7671 -0.0057
 7826SOL     OW35110   2.506   3.013   4.622 -0.5577  0.5234 -0.5734
 7826SOL    HW135111   2.499   3.052   4.709 -2.6600 -0.0446 -0.5070
 7826SOL    HW235112   2.580   2.954   4.637 -0.4562  1.0411  1.0001
 7827SOL     OW35113   1.774   3.955   7.065  0.2162  0.1258 -0.2734
 7827SOL    HW135114   1.715   3.880   7.070  1.4181 -0.9700 -2.4559
 7827SOL    HW235115   1.806   3.951   7.155 -1.7553  1.1367  0.4605
 7828SOL     OW35116   0.813   1.447   1.467  0.3831 -0.3667  0.6606
 7828SOL    HW135117   0.783   1.487   1.386  1.9969  1.9561  1.2099
 7828SOL    HW235118   0.727   1.425   1.505  0.1027 -0.1679  0.1339
 7829SOL     OW35119   0.103   4.621   6.729 -0.2153 -0.0347 -0.3502
 7829SOL    HW135120   0.087   4.617   6.823 -1.3181 -1.3760 -0.5933
 7829SOL    HW235121   0.045   4.693   6.706  2.0019  1.6877 -0.5475
 7830SOL     OW35122   3.908   0.454   1.884 -0.3607 -0.7767  0.3566
 7830SOL    HW135123   3.994   0.452   1.926 -0.2464  2.1087  0.2020
 7830SOL    HW235124   3.862   0.525   1.928 -1.6625 -0.5762 -1.3707
 7831SOL     OW35125   2.906   1.599   9.210 -0.3733  0.3810 -0.1784
 7831SOL    HW135126   2.981   1.541   9.224 -1.1256 -0.1936  1.4157
 7831SOL    HW235127   2.867   1.587   9.297  0.1506  0.4846  0.0740
 7832SOL     OW35128   2.486   0.163  10.060 -0.4684  0.2072  0.1925
 7832SOL    HW135129   2.569   0.175  10.014  0.1279 -0.8285  1.0136
 7832SOL    HW235130   2.429   0.187   9.986 -2.0464  0.7386  1.5908
 7833SOL     OW35131   0.965   4.137  10.783  0.3352 -0.1711  0.4908
 7833SOL    HW135132   1.011   4.203  10.731 -0.3725  0.4915  0.7112
 7833SOL    HW235133   1.018   4.063  10.752 -0.5860 -1.1453  1.2288
 7834SOL     OW35134   2.784   2.893   4.934  0.1440 -0.5182  0.4090
 7834SOL    HW135135   2.836   2.837   4.992  0.9954  1.6647  1.7276
 7834SOL    HW235136   2.832   2.975   4.936  1.3481 -1.1568 -1.8589
 7835SOL     OW35137   0.831   2.519  17.693 -0.2223 -0.2076 -0.3057
 7835SOL    HW135138   0.858   2.589  17.633  4.1200 -0.9949  0.7840
 7835SOL    HW235139   0.800   2.449  17.636  1.7960  0.5175 -2.2773
 7836SOL     OW35140   3.213   1.676  16.131  0.0496  0.0208  0.0979
 7836SOL    HW135141   3.151   1.646  16.064 -0.4284  1.9730 -0.3525
 7836SOL    HW235142   3.294   1.652  16.086 -0.4552 -1.6316  0.0569
 7837SOL     OW35143   1.349   2.963  17.210 -0.0804 -0.2448 -0.2013
 7837SOL    HW135144   1.340   2.877  17.250  0.9542 -0.1321  0.2753
 7837SOL    HW235145   1.439   2.958  17.177  0.1752 -1.2262  0.6607
 7838SOL     OW35146   4.300   3.256   3.128  0.2641  0.5263 -0.1173
 7838SOL    HW135147   4.257   3.181   3.170 -1.1714  1.9543  0.9457
 7838SOL    HW235148   4.228   3.291   3.075  0.1297 -1.4003 -1.2433
 7839SOL     OW35149   2.870   3.391   4.012  0.3648  1.1616  0.2281
 7839SOL    HW135150   2.911   3.316   3.969  0.0117  0.7354  0.6373
 7839SOL    HW235151   2.840   3.452   3.945  1.2651  0.0496 -1.1930
 7840SOL     OW35152   2.058   1.723   7.921 -0.6501 -0.1235 -0.1466
 7840SOL    HW135153   2.091   1.640   7.956  1.6615  0.6575 -0.4282
 7840SOL    HW235154   2.040   1.765   8.005  1.4520  0.3229  0.0823
 7841SOL     OW35155   2.004   1.062   0.268 -0.2126  0.0597 -0.3541
 7841SOL    HW135156   1.960   1.118   0.203  0.7282  2.5407  1.1701
 7841SOL    HW235157   1.946   1.089   0.339 -0.2880  0.1121 -0.4338
 7842SOL     OW35158   2.794   1.271   8.487  0.0048  0.6664  0.4209
 7842SOL    HW135159   2.856   1.232   8.549 -0.5726  0.1186  0.6523
 7842SOL    HW235160   2.851   1.284   8.411  1.0469 -0.7589  0.9412
 7843SOL     OW35161   1.663   0.193   9.264  0.6228  0.1312 -0.0712
 7843SOL    HW135162   1.575   0.200   9.303 -0.8335 -0.7824 -3.2051
 7843SOL    HW235163   1.636   0.157   9.180  2.5082 -1.5337  0.0314
 7844SOL     OW35164   0.376   3.047  14.540 -0.2567  0.3152  0.2162
 7844SOL    HW135165   0.358   3.003  14.623  1.7268  0.3349  0.6620
 7844SOL    HW235166   0.392   2.970  14.485 -2.6146  0.6205 -0.8718
 7845SOL     OW35167   1.456   2.799   6.270 -0.4166 -0.3302  0.0999
 7845SOL    HW135168   1.467   2.873   6.211  1.3393 -1.8888 -1.5521
 7845SOL    HW235169   1.509   2.741   6.215 -0.7406 -2.2089  1.7757
 7846SOL     OW35170   2.425   1.539  15.681  0.5643 -0.1150  0.2033
 7846SOL    HW135171   2.439   1.618  15.734 -2.1656  1.4964 -1.4937
 7846SOL    HW235172   2.428   1.466  15.742  1.1530 -0.0695  0.2311
 7847SOL     OW35173   2.657   3.652   1.592 -0.2189  0.4180  0.8771
 7847SOL    HW135174   2.569   3.617   1.576  0.5786 -1.7619  1.3507
 7847SOL    HW235175   2.708   3.613   1.521  1.5789  2.6538  0.9287
 7848SOL     OW35176   3.692   3.572   9.676 -0.0311 -0.2005  0.4724
 7848SOL    HW135177   3.618   3.521   9.709  0.0119 -1.0127 -0.7013
 7848SOL    HW235178   3.694   3.642   9.742 -1.0303  0.6798 -0.4394
 7849SOL     OW35179   0.059   1.018   7.765  0.4055 -0.0392 -0.4306
 7849SOL    HW135180   0.091   1.047   7.679  0.0023 -0.7692 -0.8225
 7849SOL    HW235181   4.730   1.089   7.777  0.6168  0.2608 -1.1010
 7850SOL     OW35182   3.723   4.569   2.716 -0.3112 -0.3260 -0.7466
 7850SOL    HW135183   3.712   4.477   2.691 -2.0892  0.0150 -1.2532
 7850SOL    HW235184   3.812   4.591   2.690  0.4889 -1.4478  1.0716
 7851SOL     OW35185   2.635   4.288   6.665  0.2256 -0.0626  0.0982
 7851SOL    HW135186   2.660   4.296   6.757 -2.4698 -0.8196  0.8929
 7851SOL    HW235187   2.697   4.221   6.637  1.3983  0.6090  1.0638
 7852SOL     OW35188   0.001   3.561   0.284 -0.0515  0.3004  0.5814
 7852SOL    HW135189   4.714   3.654   0.289  3.5920  1.2380 -0.9170
 7852SOL    HW235190   0.093   3.579   0.263 -0.7084  2.0609 -0.8189
 7853SOL     OW35191   4.590   1.207   7.802 -0.2096 -0.3809  0.2031
 7853SOL    HW135192   4.510   1.167   7.767 -1.0448  0.2489  1.3587
 7853SOL    HW235193   4.565   1.300   7.803 -0.9717 -0.5871  1.3415
 7854SOL     OW35194   1.419   3.835   3.249  0.2548 -0.3401 -0.0256
 7854SOL    HW135195   1.460   3.803   3.169  0.9547 -0.8547  0.5413
 7854SOL    HW235196   1.463   3.780   3.314  1.7925  0.9095  0.0034
 7855SOL     OW35197   1.705   1.182  16.611 -0.2464 -0.1777 -0.0250
 7855SOL    HW135198   1.643   1.132  16.663  0.1355  0.6774  1.2539
 7855SOL    HW235199   1.643   1.245  16.576  0.5712  0.8121  0.2957
 7856SOL     OW35200   0.849   2.736   6.250 -0.3277  0.2488  0.6731
 7856SOL    HW135201   0.785   2.805   6.230 -1.1493 -0.8214 -0.4398
 7856SOL    HW235202   0.790   2.684   6.304 -1.0636 -1.3373 -1.6269
 7857SOL     OW35203   2.155   0.748   5.343  0.0312 -0.1464  0.0771
 7857SOL    HW135204   2.174   0.801   5.266  1.7884 -0.6624  0.1511
 7857SOL    HW235205   2.123   0.671   5.296  0.7688 -0.0667 -0.5570
 7858SOL     OW35206   1.567   2.086  12.025  0.0593 -0.0096  0.5855
 7858SOL    HW135207   1.530   2.099  11.938 -0.3658 -3.5115  0.2604
 7858SOL    HW235208   1.628   2.015  12.008  1.2339  1.3132 -0.8087
 7859SOL     OW35209   2.946   0.459   9.164  0.4465  0.4701  0.1248
 7859SOL    HW135210   2.929   0.512   9.241  0.3285 -0.8998  1.0497
 7859SOL    HW235211   2.895   0.378   9.173  1.9900 -0.3743  1.3328
 7860SOL     OW35212   1.057   0.431   3.082 -0.1110  0.3018  0.4648
 7860SOL    HW135213   0.970   0.458   3.055 -1.2093 -2.9312  0.7793
 7860SOL    HW235214   1.075   0.352   3.031  1.6073 -0.5249  2.3435
 7861SOL     OW35215   1.017   1.116   3.073 -0.6519 -0.3696  0.4974
 7861SOL    HW135216   0.937   1.168   3.076  0.0792  0.7908 -0.3910
 7861SOL    HW235217   1.079   1.172   3.027 -0.7352  0.4230  1.3461
 7862SOL     OW35218   1.517   0.776   8.640  0.3927 -0.2423 -0.1110
 7862SOL    HW135219   1.461   0.850   8.663  1.4503  0.5940 -0.2288
 7862SOL    HW235220   1.538   0.727   8.719 -1.4457  1.1137  1.2087
 7863SOL     OW35221   2.309   1.115   0.396  0.1110 -0.2407  0.6620
 7863SOL    HW135222   2.308   1.056   0.471 -0.6788 -1.0301  0.0315
 7863SOL    HW235223   2.238   1.073   0.347  0.9096 -0.5701 -0.2162
 7864SOL     OW35224   0.447   4.131   3.083 -0.4305 -0.3322  0.1125
 7864SOL    HW135225   0.493   4.194   3.027 -0.0518 -0.4457  0.2972
 7864SOL    HW235226   0.510   4.059   3.078  1.0856  1.1604 -1.9673
 7865SOL     OW35227   1.113   4.449  13.777  0.0255  0.2145 -0.2533
 7865SOL    HW135228   1.105   4.526  13.721  0.9673  1.0950  0.8325
 7865SOL    HW235229   1.111   4.498  13.859 -0.5288 -1.5213  0.7766
 7866SOL     OW35230   0.173   0.095   4.924  0.0434  0.1849  0.5295
 7866SOL    HW135231   0.197   0.005   4.901 -0.7297 -0.1303  0.9775
 7866SOL    HW235232   0.249   0.140   4.886 -0.8156 -0.5053 -2.0589
 7867SOL     OW35233   0.633   0.861   8.419 -0.6386 -0.2606  0.3568
 7867SOL    HW135234   0.538   0.862   8.413 -0.5757  1.1631 -0.3553
 7867SOL    HW235235   0.665   0.825   8.336  1.3650  0.1206  0.9594
 7868SOL     OW35236   3.233   2.539   5.179  0.2266 -0.0073  0.1467
 7868SOL    HW135237   3.168   2.534   5.249 -0.8377  1.0895 -0.7826
 7868SOL    HW235238   3.224   2.448   5.150 -0.8836  0.1228  0.0762
 7869SOL     OW35239   0.651   1.906   5.828  0.1557  0.0860  0.0199
 7869SOL    HW135240   0.706   1.925   5.752  1.0047 -0.4186  0.5096
 7869SOL    HW235241   0.713   1.925   5.899  1.6242 -3.0247 -0.4390
 7870SOL     OW35242   2.576   3.444   3.884 -0.1981 -0.1230  0.5312
 7870SOL    HW135243   2.657   3.488   3.858  0.9305 -1.6967  1.3527
 7870SOL    HW235244   2.530   3.518   3.924  0.8136 -0.2121  1.8649
 7871SOL     OW35245   0.454   1.368   2.288  0.2257 -0.0594 -0.2400
 7871SOL    HW135246   0.376   1.369   2.343  0.2231 -2.0184 -0.2000
 7871SOL    HW235247   0.524   1.402   2.344  0.8386 -0.5739 -0.6910
 7872SOL     OW35248   1.215   0.966   2.192 -0.1017  0.4862 -0.2598
 7872SOL    HW135249   1.146   0.906   2.163  1.1744 -0.7236 -0.8193
 7872SOL    HW235250   1.207   1.030   2.122 -2.0039  3.0193  2.3278
 7873SOL     OW35251   3.526   2.810   4.155  0.2818  0.1452  0.0104
 7873SOL    HW135252   3.562   2.852   4.233  2.4037  0.0279 -0.8830
 7873SOL    HW235253   3.434   2.798   4.175 -0.0112  0.0469 -1.3808
 7874SOL     OW35254   3.731   0.632   2.282 -0.2375 -0.0035 -0.3941
 7874SOL    HW135255   3.728   0.724   2.310  0.9727 -0.6880  1.9540
 7874SOL    HW235256   3.788   0.610   2.355  0.1511  2.4979  0.0765
 7875SOL     OW35257   0.583   1.365   5.799 -0.4008  0.0805 -0.1000
 7875SOL    HW135258   0.538   1.443   5.769 -0.2553 -0.5715 -1.9917
 7875SOL    HW235259   0.512   1.310   5.832 -0.9945 -0.4646 -2.2681
 7876SOL     OW35260   4.521   2.411   6.582  0.2763 -0.2513  0.8105
 7876SOL    HW135261   4.526   2.418   6.487 -0.1547  0.0215  0.8070
 7876SOL    HW235262   4.610   2.441   6.601 -0.0801  1.2705  0.1466
 7877SOL     OW35263   1.776   3.285  11.695 -0.4810  0.0728 -0.6736
 7877SOL    HW135264   1.841   3.351  11.673  2.5223 -2.0363  1.9683
 7877SOL    HW235265   1.723   3.336  11.756 -0.3017 -2.0102  1.2123
 7878SOL     OW35266   2.014   4.551  14.941  0.4331 -0.3117 -0.2400
 7878SOL    HW135267   2.033   4.462  14.972 -0.4841 -0.2088  0.6472
 7878SOL    HW235268   2.010   4.597  15.025  0.2200 -1.0771  0.1660
 7879SOL     OW35269   0.061   2.645   8.339  0.3191  0.2047 -0.2179
 7879SOL    HW135270   0.095   2.641   8.428  0.4317 -0.7499 -0.3095
 7879SOL    HW235271   0.116   2.711   8.297  1.5759 -1.4307 -1.1344
 7880SOL     OW35272   3.485   3.904   2.945  0.1610  0.0472  0.0941
 7880SOL    HW135273   3.515   3.972   3.006 -2.7525 -1.5364  3.2989
 7880SOL    HW235274   3.473   3.831   3.006  0.7806  0.4276  0.6845
 7881SOL     OW35275   1.587   3.195   3.296  0.1670  0.0787  0.3895
 7881SOL    HW135276   1.590   3.280   3.340  0.4327  0.1349  0.2617
 7881SOL    HW235277   1.577   3.135   3.369  2.9853 -0.0251  0.6911
 7882SOL     OW35278   0.625   1.289   1.140 -0.3130  0.0754  0.1643
 7882SOL    HW135279   0.706   1.304   1.091  0.4149  0.2665  1.4234
 7882SOL    HW235280   0.589   1.378   1.146 -0.1440  0.2910 -2.0642
 7883SOL     OW35281   2.868   2.575   3.653 -0.4550  0.4670 -0.0843
 7883SOL    HW135282   2.894   2.645   3.712 -2.5799 -0.0820  1.5106
 7883SOL    HW235283   2.840   2.510   3.718  1.4914  0.2675  0.5583
 7884SOL     OW35284   3.917   2.988  17.535 -0.0218  0.3158  0.7377
 7884SOL    HW135285   3.869   3.011  17.456  0.6243  5.8315  1.9409
 7884SOL    HW235286   3.911   2.892  17.539  0.9805  0.1487 -2.0055
 7885SOL     OW35287   3.932   0.954   6.398 -0.1953  0.0472 -0.0751
 7885SOL    HW135288   3.927   0.884   6.333 -1.4623  1.2644 -1.2712
 7885SOL    HW235289   4.022   0.937   6.426 -0.1106 -0.2398 -0.5219
 7886SOL     OW35290   3.677   1.547   5.645  0.7464 -0.2062 -0.3532
 7886SOL    HW135291   3.632   1.488   5.706  0.3613  0.0518 -0.3854
 7886SOL    HW235292   3.609   1.613   5.631  0.0938 -1.2402 -2.0203
 7887SOL     OW35293   3.409   1.968   7.964  0.5819  0.0497 -0.3249
 7887SOL    HW135294   3.366   2.012   8.038  2.5176  0.5147  0.5097
 7887SOL    HW235295   3.418   1.882   8.006  0.2985 -0.0990 -0.5668
 7888SOL     OW35296   1.390   2.640   7.624 -0.3835 -0.0387  0.0762
 7888SOL    HW135297   1.451   2.602   7.687 -2.7196 -0.7885  1.8732
 7888SOL    HW235298   1.312   2.589   7.644 -0.3321  0.6684  2.1312
 7889SOL     OW35299   4.440   0.369   8.702 -0.1798  0.1752  0.3123
 7889SOL    HW135300   4.435   0.288   8.650  0.0432  0.3601  0.0025
 7889SOL    HW235301   4.350   0.366   8.735 -0.1885 -2.1278  0.1226
 7890SOL     OW35302   3.578   3.471  12.118  0.0971  0.1356  0.1007
 7890SOL    HW135303   3.636   3.521  12.061 -0.8906 -0.3085 -1.2828
 7890SOL    HW235304   3.500   3.525  12.104  0.9296  1.2349 -0.3157
 7891SOL     OW35305   0.942   4.399  11.705 -0.0103  0.3167  0.1536
 7891SOL    HW135306   1.026   4.397  11.753 -0.2368  2.1206  0.6220
 7891SOL    HW235307   0.888   4.343  11.760  0.4184  0.6391  0.9056
 7892SOL     OW35308   3.499   0.958   1.314  0.3502  0.1683  0.4258
 7892SOL    HW135309   3.442   0.922   1.382  1.3001 -0.2912  0.9954
 7892SOL    HW235310   3.480   0.895   1.245  0.4759 -0.6655  1.1443
 7893SOL     OW35311   4.058   1.728   4.844 -0.0213  0.1726 -0.5049
 7893SOL    HW135312   4.032   1.819   4.829 -0.1928  0.4269  1.3172
 7893SOL    HW235313   4.138   1.729   4.791  0.5325  0.0435  0.3289
 7894SOL     OW35314   0.329   1.733   4.717 -0.2617  0.3510 -0.1077
 7894SOL    HW135315   0.421   1.732   4.742  0.1378  1.3529 -1.4881
 7894SOL    HW235316   0.328   1.828   4.702 -1.2003  0.3343 -0.1697
 7895SOL     OW35317   3.457   1.061   4.845 -0.5023 -0.5058 -0.9212
 7895SOL    HW135318   3.442   1.156   4.840 -1.4784 -0.6412 -0.7086
 7895SOL    HW235319   3.529   1.052   4.783 -0.9988 -1.7051 -1.3213
 7896SOL     OW35320   3.281   1.611   7.190  0.4916 -0.1490  0.4384
 7896SOL    HW135321   3.320   1.628   7.275 -0.4681  1.2322  0.6146
 7896SOL    HW235322   3.350   1.608   7.124  0.9426 -2.7676  1.0350
 7897SOL     OW35323   3.097   3.289  15.621  0.7407  0.0273  0.4717
 7897SOL    HW135324   3.146   3.371  15.621 -0.3319  0.6751  0.2670
 7897SOL    HW235325   3.149   3.238  15.559  0.1252 -0.9296  0.7384
 7898SOL     OW35326   1.161   4.485   4.363  0.0752  0.1443 -0.0181
 7898SOL    HW135327   1.213   4.488   4.283 -2.1716  1.5893 -1.4240
 7898SOL    HW235328   1.124   4.573   4.370  2.7028  1.2976 -0.6233
 7899SOL     OW35329   2.858   2.934   7.419 -0.0983  0.2863 -0.1817
 7899SOL    HW135330   2.770   2.966   7.400  0.1634 -0.5459 -2.8363
 7899SOL    HW235331   2.853   2.840   7.435  1.0168 -0.2083 -2.5936
 7900SOL     OW35332   3.049   0.848   9.879 -0.1996 -0.3290 -0.5428
 7900SOL    HW135333   3.040   0.899   9.959 -1.3061 -2.1940  0.5090
 7900SOL    HW235334   3.122   0.896   9.840 -0.5028  0.5528 -0.0221
 7901SOL     OW35335   0.761   4.706   7.299 -0.0220  0.4374  0.3436
 7901SOL    HW135336   0.723   0.058   7.312  0.2506  0.4865  0.8397
 7901SOL    HW235337   0.733   4.655   7.375 -0.9381  1.2167  0.5236
 7902SOL     OW35338   1.616   2.302  10.424  0.4653  0.0435 -0.2101
 7902SOL    HW135339   1.669   2.231  10.461  1.0075  1.1983  1.2432
 7902SOL    HW235340   1.648   2.381  10.468 -0.6364  0.5166 -0.2716
 7903SOL     OW35341   4.025   4.567   8.776 -0.3319  0.1318 -0.0043
 7903SOL    HW135342   3.943   4.569   8.727  0.5194 -0.3339 -1.4181
 7903SOL    HW235343   4.000   4.557   8.868 -0.2528 -1.4579 -0.1705
 7904SOL     OW35344   4.257   0.645   5.739  0.3255 -0.7570 -0.2552
 7904SOL    HW135345   4.253   0.710   5.809  2.7151  0.5584 -1.3449
 7904SOL    HW235346   4.260   0.703   5.663  0.7220 -0.3867  0.0378
 7905SOL     OW35347   2.828   2.643   7.413  0.3152 -0.0872  0.2415
 7905SOL    HW135348   2.758   2.619   7.353 -0.2160 -1.0105  1.2379
 7905SOL    HW235349   2.849   2.557   7.450 -0.0848 -0.7769 -1.1372
 7906SOL     OW35350   3.490   2.626   6.345  0.1237 -0.0772 -0.5464
 7906SOL    HW135351   3.416   2.677   6.378  1.6703  2.4035 -0.8579
 7906SOL    HW235352   3.565   2.638   6.404  0.3914  1.5838 -1.2359
 7907SOL     OW35353   2.613   1.172   6.728 -0.4996  0.1854  0.1608
 7907SOL    HW135354   2.648   1.137   6.646  2.0143  1.3351  0.7416
 7907SOL    HW235355   2.550   1.231   6.687 -0.1048 -0.9979 -2.1334
 7908SOL     OW35356   0.366   3.400  16.374 -1.0113 -0.0913  0.0935
 7908SOL    HW135357   0.444   3.353  16.404 -0.4500  1.1602  0.6049
 7908SOL    HW235358   0.409   3.481  16.344 -0.2474 -1.4596 -2.4862
 7909SOL     OW35359   2.992   3.988  16.706  0.0385  0.8479  1.3376
 7909SOL    HW135360   3.028   3.908  16.746  1.2573 -0.9903 -3.3704
 7909SOL    HW235361   3.034   3.996  16.620  1.2960 -0.2721  1.8420
 7910SOL     OW35362   1.486   3.140   3.605  0.2860 -0.3085  0.2217
 7910SOL    HW135363   1.431   3.063   3.592  0.1565 -0.2251  0.2739
 7910SOL    HW235364   1.440   3.210   3.651 -0.1485  0.1397 -0.8783
 7911SOL     OW35365   1.504   3.938  13.377  0.0561 -0.3486  0.0633
 7911SOL    HW135366   1.471   4.008  13.434  1.0105  0.7665 -0.7421
 7911SOL    HW235367   1.486   3.975  13.291  0.9667 -2.9793 -1.2522
 7912SOL     OW35368   3.241   2.902   3.007 -0.2668  0.5282 -0.0784
 7912SOL    HW135369   3.150   2.888   2.981 -0.3256 -0.3651  0.6088
 7912SOL    HW235370   3.271   2.974   2.952  1.4725 -1.3962 -1.6546
 7913SOL     OW35371   1.424   2.716  15.829 -0.7995 -0.4244  0.0746
 7913SOL    HW135372   1.351   2.668  15.789 -1.4130  1.9351 -1.6688
 7913SOL    HW235373   1.413   2.805  15.795 -1.7936  0.3500  2.4076
 7914SOL     OW35374   0.217   0.461   7.251 -0.3680 -0.5008 -0.7506
 7914SOL    HW135375   0.295   0.516   7.245 -1.2337  0.7105 -0.7130
 7914SOL    HW235376   0.168   0.483   7.172 -0.6557  0.6181 -0.2597
 7915SOL     OW35377   0.662   3.451   3.565  0.1793  0.0871  0.4379
 7915SOL    HW135378   0.589   3.471   3.507 -0.7084 -0.3855  1.3823
 7915SOL    HW235379   0.612   3.410   3.636  2.5246 -1.0410  1.4292
 7916SOL     OW35380   3.822   0.610   7.491 -0.1270  0.2112 -0.2174
 7916SOL    HW135381   3.879   0.686   7.500 -0.2906  0.1806  1.0761
 7916SOL    HW235382   3.738   0.641   7.524 -0.4383 -1.1611  0.2386
 7917SOL     OW35383   3.380   4.663   9.245 -0.2229 -0.0092 -0.5892
 7917SOL    HW135384   3.446   4.595   9.259 -0.4814 -0.2917 -0.7663
 7917SOL    HW235385   3.346   4.662   9.334 -0.9213 -1.5685 -0.8794
 7918SOL     OW35386   3.385   1.767   8.721  0.2931 -0.3887 -0.8035
 7918SOL    HW135387   3.423   1.681   8.742  1.2226  0.5357  1.2958
 7918SOL    HW235388   3.344   1.732   8.641 -1.8475 -1.8427  0.9457
 7919SOL     OW35389   0.506   0.192   0.193 -0.2460  0.2260 -0.0080
 7919SOL    HW135390   0.589   0.225   0.159 -1.0844  1.4490 -0.8609
 7919SOL    HW235391   0.443   0.262   0.178 -1.3432 -0.5668  0.9536
 7920SOL     OW35392   3.540   2.152   2.433  0.1743  0.5337 -0.0254
 7920SOL    HW135393   3.474   2.220   2.447 -1.5183 -1.2666  0.8860
 7920SOL    HW235394   3.624   2.198   2.434  0.7202 -0.3750 -3.8538
 7921SOL     OW35395   0.016   0.143   8.434 -0.0159  0.5186 -0.2580
 7921SOL    HW135396   0.047   0.082   8.367 -3.1690 -0.5577 -0.7421
 7921SOL    HW235397   0.044   0.227   8.398  0.1373  0.3757 -0.4683
 7922SOL     OW35398   0.996   3.021  12.826  0.0413  0.1161 -0.1069
 7922SOL    HW135399   1.045   3.004  12.745  2.2515 -0.8334  1.4226
 7922SOL    HW235400   1.067   2.997  12.886 -1.9082  0.2006  2.2032
 7923SOL     OW35401   3.888   4.517  16.919  0.5464  0.1493  0.1909
 7923SOL    HW135402   3.870   4.611  16.928  0.5388  0.0466  1.2787
 7923SOL    HW235403   3.903   4.492  17.010 -1.2734 -1.0938  0.1495
 7924SOL     OW35404   1.561   2.140   6.640 -0.1032  0.0094  0.1349
 7924SOL    HW135405   1.535   2.158   6.730  0.0812  1.0359 -0.0241
 7924SOL    HW235406   1.478   2.149   6.593  0.8946 -3.1254 -2.2590
 7925SOL     OW35407   0.560   1.471   4.456  0.4010 -0.0351 -0.7530
 7925SOL    HW135408   0.489   1.536   4.457  0.6674  0.2299  2.8655
 7925SOL    HW235409   0.518   1.385   4.454  1.3334 -0.4123 -3.9713
 7926SOL     OW35410   2.100   4.522   8.140  0.6559  0.8489 -0.0572
 7926SOL    HW135411   2.126   4.599   8.190 -1.3904  0.7460  1.2095
 7926SOL    HW235412   2.007   4.517   8.165  0.8911  0.1800  0.6773
 7927SOL     OW35413   3.316   1.895  12.122 -0.4579  0.6180 -0.1200
 7927SOL    HW135414   3.375   1.855  12.186 -2.0943  1.2439  1.7903
 7927SOL    HW235415   3.266   1.958  12.174 -0.2792  0.6169  0.0531
 7928SOL     OW35416   3.980   1.575   5.394 -0.1343  0.1773 -0.3946
 7928SOL    HW135417   3.994   1.668   5.377 -2.0225  0.6998  0.9914
 7928SOL    HW235418   3.905   1.566   5.336 -1.0050  1.7660  0.4916
 7929SOL     OW35419   1.609   1.417   0.484  0.7730 -0.2491 -0.2914
 7929SOL    HW135420   1.531   1.379   0.525  0.4831  0.4965 -0.1465
 7929SOL    HW235421   1.564   1.461   0.411 -0.5689 -0.0731  0.6381
 7930SOL     OW35422   0.495   1.787   5.107  0.0910 -0.1329  0.7484
 7930SOL    HW135423   0.431   1.721   5.081  1.9755 -1.1094 -1.3929
 7930SOL    HW235424   0.440   1.850   5.154  0.0968 -0.2762  0.9457
 7931SOL     OW35425   0.576   2.760  17.565  0.2445  0.0819  0.1575
 7931SOL    HW135426   0.646   2.819  17.591  0.2495  0.8444 -1.6129
 7931SOL    HW235427   0.586   2.735  17.473 -0.7504  0.2343  0.0043
 7932SOL     OW35428   4.611   3.647   3.079 -0.0521 -0.2065 -0.2195
 7932SOL    HW135429   4.572   3.566   3.111  0.5444 -0.3683  0.1073
 7932SOL    HW235430   4.680   3.668   3.143 -0.5149 -1.4539  0.6891
 7933SOL     OW35431   3.249   0.535   7.742  0.7161  0.6305  0.0948
 7933SOL    HW135432   3.299   0.551   7.662 -0.5398  1.6698 -0.4706
 7933SOL    HW235433   3.245   0.624   7.777  0.2790  0.2709  0.9529
 7934SOL     OW35434   3.759   2.314   2.298 -0.2217 -0.1116  0.3870
 7934SOL    HW135435   3.710   2.249   2.247  0.3626 -3.1708  3.7474
 7934SOL    HW235436   3.711   2.394   2.279  0.4263  0.1186 -0.2858
 7935SOL     OW35437   4.259   0.918   2.770 -0.1787 -0.5271  0.9843
 7935SOL    HW135438   4.274   0.868   2.690 -0.8343  1.2274 -0.2464
 7935SOL    HW235439   4.350   0.917   2.801 -0.1395  0.5320  0.9176
 7936SOL     OW35440   2.194   0.394   4.995 -0.2571  0.5655 -0.0304
 7936SOL    HW135441   2.228   0.398   5.085 -1.2923 -1.2989  0.4459
 7936SOL    HW235442   2.107   0.357   5.006  0.4784 -1.2552 -0.2894
 7937SOL     OW35443   4.704   1.508   6.305  0.0633  0.5364 -0.3869
 7937SOL    HW135444   0.054   1.546   6.283 -0.0076  0.9122  0.0016
 7937SOL    HW235445   4.704   1.533   6.397  0.9020  1.3248 -0.6056
 7938SOL     OW35446   4.011   1.879   3.668 -0.5493 -0.2764 -0.3528
 7938SOL    HW135447   4.017   1.825   3.746  0.0215  0.1197 -0.1206
 7938SOL    HW235448   4.041   1.963   3.705  2.2608 -0.0938 -3.0706
 7939SOL     OW35449   0.127   4.587   0.741 -0.2421 -0.4981 -0.4696
 7939SOL    HW135450   0.052   4.622   0.789  0.1576 -0.4098  0.0964
 7939SOL    HW235451   0.075   4.513   0.710  0.8631 -0.7327 -1.7476
 7940SOL     OW35452   2.793   3.650   1.354 -0.0165 -0.0954  0.2799
 7940SOL    HW135453   2.789   3.737   1.314 -1.2039  0.2770  1.2315
 7940SOL    HW235454   2.886   3.626   1.355 -0.1606 -0.6955 -1.1062
 7941SOL     OW35455   2.019   3.068   6.752 -0.4416 -0.1215  0.4497
 7941SOL    HW135456   2.061   3.147   6.784  1.7557 -0.4587 -1.6112
 7941SOL    HW235457   2.070   2.995   6.788  0.2140  0.9996  1.7573
 7942SOL     OW35458   4.237   2.150  12.266 -0.2674 -0.1406  0.5084
 7942SOL    HW135459   4.231   2.226  12.324  0.9843 -0.0516  0.5200
 7942SOL    HW235460   4.322   2.154  12.222 -0.4694 -1.0018  0.0300
 7943SOL     OW35461   0.803   0.534   5.954 -0.1453 -0.4154 -1.1145
 7943SOL    HW135462   0.793   0.453   5.904  0.2667 -0.2668 -1.4378
 7943SOL    HW235463   0.794   0.499   6.042 -1.5030 -0.0085 -1.0921
 7944SOL     OW35464   3.027   0.132   0.015  0.3247  0.2876 -0.5622
 7944SOL    HW135465   2.985   0.217   0.028 -1.9705 -1.3990  2.8701
 7944SOL    HW235466   3.042   0.107   0.106 -0.4856 -2.1965 -1.1241
 7945SOL     OW35467   1.920   4.459   4.868 -0.0499 -0.6224  0.2833
 7945SOL    HW135468   1.990   4.398   4.845  3.0385  3.0131  0.1181
 7945SOL    HW235469   1.841   4.409   4.886 -1.1611  0.9533 -0.1419
 7946SOL     OW35470   4.583   2.735   6.517  0.1730 -0.1464  0.4144
 7946SOL    HW135471   4.592   2.643   6.493  0.9847 -0.2481  1.0933
 7946SOL    HW235472   4.645   2.739   6.590  2.5983 -1.2523 -1.5855
 7947SOL     OW35473   0.719   0.934   7.430 -0.4092  0.4234 -0.0435
 7947SOL    HW135474   0.792   0.899   7.481 -1.1424  0.0132  0.7405
 7947SOL    HW235475   0.699   0.863   7.369  0.1218  1.1785 -1.0891
 7948SOL     OW35476   3.414   0.167   2.507  0.0408 -0.3559  0.7773
 7948SOL    HW135477   3.432   0.255   2.475  1.0410 -1.0855 -0.6798
 7948SOL    HW235478   3.458   0.122   2.434  2.6673  0.9165  1.5614
 7949SOL     OW35479   1.490   3.885  16.832  0.4010 -0.0267  0.1002
 7949SOL    HW135480   1.452   3.807  16.872  2.6121 -1.4425 -0.5613
 7949SOL    HW235481   1.411   3.938  16.819 -0.5252 -0.7614  2.7842
 7950SOL     OW35482   4.007   3.687   9.307 -0.5057 -0.0017  0.2364
 7950SOL    HW135483   3.930   3.722   9.262 -0.9185  0.0923  1.0137
 7950SOL    HW235484   3.958   3.609   9.336 -0.8124  0.4690  1.0026
 7951SOL     OW35485   4.315   2.957   7.381 -0.0287 -0.4346  0.1871
 7951SOL    HW135486   4.326   3.022   7.451  1.8867 -1.8806  1.2392
 7951SOL    HW235487   4.395   2.904   7.388  0.6736  0.6204  0.1392
 7952SOL     OW35488   4.535   1.225   2.008 -0.5327 -0.4557  0.7032
 7952SOL    HW135489   4.473   1.194   1.942  3.0980 -1.0967 -2.3646
 7952SOL    HW235490   4.596   1.279   1.958  0.5553  0.0593  2.5954
 7953SOL     OW35491   1.025   1.809   6.551  0.5949  0.0585  0.4106
 7953SOL    HW135492   1.077   1.863   6.609  3.6863 -2.2997 -0.1521
 7953SOL    HW235493   0.993   1.731   6.597 -1.7268 -0.2060 -1.6225
 7954SOL     OW35494   2.154   0.948   4.552 -0.0441 -1.1610  0.0071
 7954SOL    HW135495   2.160   0.927   4.645 -0.2801 -0.4670  0.1814
 7954SOL    HW235496   2.062   0.973   4.545 -0.0213 -0.9413  0.5166
 7955SOL     OW35497   0.017   3.303   4.031  0.5904 -0.2086 -0.1030
 7955SOL    HW135498   0.021   3.241   4.104  0.4753 -2.1555 -1.7556
 7955SOL    HW235499   0.104   3.340   4.047  0.0477  1.3559 -0.7502
 7956SOL     OW35500   4.542   0.781   6.052  0.2570  0.4800 -0.6705
 7956SOL    HW135501   4.467   0.841   6.059 -0.6301 -0.6563 -0.3519
 7956SOL    HW235502   4.553   0.788   5.958  1.5490  1.8004 -0.4338
 7957SOL     OW35503   0.617   0.451   8.124 -0.0435 -0.3499 -0.1419
 7957SOL    HW135504   0.569   0.510   8.065 -0.8246  1.1500  1.9816
 7957SOL    HW235505   0.696   0.432   8.074 -1.4702 -2.9511 -1.4297
 7958SOL     OW35506   0.549   0.677  10.493 -0.2393 -0.0310 -0.3426
 7958SOL    HW135507   0.604   0.623  10.549  0.0875  0.0188 -0.6148
 7958SOL    HW235508   0.537   0.746  10.558 -1.5624  0.2482 -0.8809
 7959SOL     OW35509   1.194   0.561   0.448 -0.1792  0.3220  0.1184
 7959SOL    HW135510   1.175   0.628   0.514 -2.8640 -0.4770  0.1556
 7959SOL    HW235511   1.181   0.478   0.494 -0.2883  0.7552  0.8693
 7960SOL     OW35512   1.168   0.877   6.654  0.2889  0.0284 -0.3513
 7960SOL    HW135513   1.177   0.945   6.587 -0.2780 -1.5198 -1.9856
 7960SOL    HW235514   1.208   0.903   6.737  0.3491 -3.5866  0.7335
 7961SOL     OW35515   4.436   1.435   3.269 -0.2962  0.1030  0.1243
 7961SOL    HW135516   4.370   1.500   3.247  2.8291  2.9341 -0.8760
 7961SOL    HW235517   4.412   1.356   3.221  0.5761 -0.3203  0.3745
 7962SOL     OW35518   2.962   4.405   3.249  0.3540 -0.4129  0.2300
 7962SOL    HW135519   2.950   4.490   3.207  4.0144  0.9244  1.9667
 7962SOL    HW235520   2.927   4.411   3.338 -1.2819  0.7567 -0.4909
 7963SOL     OW35521   3.761   0.409   3.851 -0.1756 -0.0287  0.4600
 7963SOL    HW135522   3.804   0.489   3.880 -1.3917  0.5996  0.5529
 7963SOL    HW235523   3.728   0.379   3.936  1.2895 -1.1269  0.6283
 7964SOL     OW35524   0.957   0.503   8.674 -0.2932  0.3940  0.5638
 7964SOL    HW135525   0.864   0.523   8.677 -0.5864 -1.1780  2.0332
 7964SOL    HW235526   0.968   0.452   8.755  1.9825 -0.4118 -0.2478
 7965SOL     OW35527   4.429   3.365   8.461  0.6136  0.4241 -0.0497
 7965SOL    HW135528   4.435   3.409   8.546  0.1618 -0.1384  0.2689
 7965SOL    HW235529   4.406   3.445   8.413  1.2394 -0.2349 -1.4540
 7966SOL     OW35530   2.508   2.521   5.201  0.2010 -0.1392 -0.3504
 7966SOL    HW135531   2.427   2.558   5.236  0.4637 -1.0390  1.2075
 7966SOL    HW235532   2.569   2.559   5.265  1.3749  2.4287 -2.9430
 7967SOL     OW35533   3.661   1.573   7.311 -0.1117 -0.0714 -0.5561
 7967SOL    HW135534   3.606   1.646   7.281 -2.8608 -1.7976  0.3309
 7967SOL    HW235535   3.596   1.504   7.321  0.1577 -0.2135  0.2201
 7968SOL     OW35536   2.291   2.283   8.680 -0.0036  0.6015  0.0596
 7968SOL    HW135537   2.226   2.335   8.632 -1.7572 -0.5315  1.2463
 7968SOL    HW235538   2.261   2.309   8.767 -0.5427 -0.9922  0.3495
 7969SOL     OW35539   4.611   3.089   2.803 -0.4802 -0.3110  0.5855
 7969SOL    HW135540   4.581   3.170   2.843  2.7822  0.8375  0.7308
 7969SOL    HW235541   4.587   3.105   2.711 -1.7229 -1.2992  0.7556
 7970SOL     OW35542   0.797   4.085   6.865  0.0287  0.1491  0.6889
 7970SOL    HW135543   0.784   4.180   6.856  0.2230  0.1700  0.6354
 7970SOL    HW235544   0.883   4.085   6.906  0.9477  1.1821 -1.2436
 7971SOL     OW35545   0.246   2.397  10.453 -0.4568 -0.1294 -0.4799
 7971SOL    HW135546   0.313   2.464  10.454  1.6493 -2.2365  0.2537
 7971SOL    HW235547   0.163   2.446  10.455  1.4294  3.1138 -1.8840
 7972SOL     OW35548   4.162   3.875  11.920  0.2467 -0.4775 -0.2052
 7972SOL    HW135549   4.135   3.958  11.959  0.2136 -1.1615  1.2396
 7972SOL    HW235550   4.229   3.901  11.857  0.7301 -2.1360 -0.3793
 7973SOL     OW35551   0.420   0.198  16.450  0.1499 -0.0917 -0.0616
 7973SOL    HW135552   0.331   0.161  16.450 -0.1832  0.6984  3.5209
 7973SOL    HW235553   0.434   0.231  16.361 -0.3429  1.5387  0.4644
 7974SOL     OW35554   0.458   2.633   1.303  0.0129  0.0318  0.1568
 7974SOL    HW135555   0.471   2.642   1.208  1.9351  1.2469  0.5335
 7974SOL    HW235556   0.445   2.538   1.297  0.0790 -0.0187  0.8961
 7975SOL     OW35557   1.478   1.687   7.214 -0.3502 -0.2360  0.4541
 7975SOL    HW135558   1.498   1.665   7.305 -2.8413  0.2245  1.1088
 7975SOL    HW235559   1.512   1.777   7.215 -0.4244 -0.2175  1.5211
 7976SOL     OW35560   2.994   1.660   5.342 -0.4691  0.4157  0.4710
 7976SOL    HW135561   2.955   1.691   5.260 -0.6254 -1.8094 -0.2914
 7976SOL    HW235562   3.010   1.744   5.386 -1.7564  1.2793 -0.7125
 7977SOL     OW35563   3.151   1.260   9.915  0.4093  0.2411  0.3734
 7977SOL    HW135564   3.162   1.284  10.007  1.1806  2.9204 -0.4405
 7977SOL    HW235565   3.063   1.221   9.913  0.3449  0.4004  0.1131
 7978SOL     OW35566   4.444   0.624   7.330  0.0323  0.7702  0.4715
 7978SOL    HW135567   4.531   0.585   7.334  0.4899  1.7729  0.0914
 7978SOL    HW235568   4.454   0.693   7.396  1.7793  0.1074  0.8828
 7979SOL     OW35569   2.509   2.785   4.461  0.5835  0.0916  0.0635
 7979SOL    HW135570   2.562   2.784   4.541  1.7617  1.5324 -0.6975
 7979SOL    HW235571   2.518   2.881   4.457  0.7190  0.1736  2.3691
 7980SOL     OW35572   2.251   1.655   0.878  0.4593  0.5475  0.0135
 7980SOL    HW135573   2.330   1.611   0.847  1.4360  1.2005  1.5609
 7980SOL    HW235574   2.178   1.605   0.842  0.1590 -0.5728  2.1846
 7981SOL     OW35575   3.777   1.819   5.947 -0.7068 -0.3651 -0.3909
 7981SOL    HW135576   3.833   1.768   5.889 -1.2724 -0.1480 -1.1218
 7981SOL    HW235577   3.724   1.751   5.989  1.6013 -0.6678  2.0493
 7982SOL     OW35578   0.039   2.142   5.281 -0.2803 -0.4018 -0.3235
 7982SOL    HW135579   0.026   2.067   5.339 -0.1838  1.0693  1.5524
 7982SOL    HW235580   0.099   2.097   5.221  0.6928  0.5802 -0.0825
 7983SOL     OW35581   1.935   0.557  14.371 -0.5991 -0.0241  0.2608
 7983SOL    HW135582   2.006   0.501  14.340 -2.2340 -1.4361 -0.9400
 7983SOL    HW235583   1.863   0.514  14.326  1.3358 -2.5474 -0.4235
 7984SOL     OW35584   0.177   1.868   9.764 -0.0938  0.3457  0.0251
 7984SOL    HW135585   0.249   1.812   9.793  0.8692  2.0446  0.9244
 7984SOL    HW235586   0.098   1.814   9.765 -0.0619  0.1732 -4.2583
 7985SOL     OW35587   2.977   3.287   0.034 -0.0212 -0.1076 -0.4760
 7985SOL    HW135588   2.888   3.316   0.057  0.3319  0.3261  0.3500
 7985SOL    HW235589   2.972   3.293  17.675 -1.9941 -2.3582 -0.5287
 7986SOL     OW35590   3.883   1.361   0.416 -0.0918 -0.4687 -0.4096
 7986SOL    HW135591   3.940   1.319   0.352  0.8186 -2.4352  1.6961
 7986SOL    HW235592   3.903   1.452   0.392  0.0201 -0.2395  0.5547
 7987SOL     OW35593   2.977   3.082  12.379 -0.1474  0.4599 -0.5053
 7987SOL    HW135594   3.061   3.116  12.411 -0.4194  1.2355 -0.6119
 7987SOL    HW235595   2.957   3.024  12.453  0.3083 -0.6130 -1.2213
 7988SOL     OW35596   2.652   3.068  15.896 -0.0177  0.0506  0.0379
 7988SOL    HW135597   2.567   3.028  15.876  0.1110  0.5567 -1.4592
 7988SOL    HW235598   2.686   3.087  15.809 -0.9177 -2.4273 -0.8531
 7989SOL     OW35599   3.524   3.515   2.852 -0.1667 -0.1131  0.3641
 7989SOL    HW135600   3.588   3.448   2.877 -0.8050  0.3282  3.1938
 7989SOL    HW235601   3.530   3.589   2.913  3.7980 -0.3898  0.3387
 7990SOL     OW35602   1.766   1.400   3.193 -0.4479  0.0435 -0.1277
 7990SOL    HW135603   1.713   1.340   3.245 -0.5625  0.1651 -0.1041
 7990SOL    HW235604   1.855   1.381   3.222  0.2688  1.2293 -1.5249
 7991SOL     OW35605   1.306   1.020   8.979  0.2596  0.6344  0.6810
 7991SOL    HW135606   1.228   0.978   8.943  0.2008  2.3316 -1.1883
 7991SOL    HW235607   1.261   1.101   9.002 -1.3363 -0.4435  1.3785
 7992SOL     OW35608   2.332   4.686   5.407  0.5854 -0.0349  0.2054
 7992SOL    HW135609   2.350   4.635   5.486  1.5273 -0.1933 -0.1161
 7992SOL    HW235610   2.403   4.660   5.348 -0.7458 -2.1084 -0.4918
 7993SOL     OW35611   0.467   4.104   2.638  0.1083  0.6107  0.0311
 7993SOL    HW135612   0.422   4.047   2.700 -1.4907  1.3631 -0.4485
 7993SOL    HW235613   0.393   4.124   2.581 -0.2310  0.1519  0.3154
 7994SOL     OW35614   1.753   0.392  15.008 -0.6908 -0.0456 -0.4729
 7994SOL    HW135615   1.734   0.416  14.917 -1.3871 -0.2656 -0.3828
 7994SOL    HW235616   1.797   0.472  15.036 -1.2007  0.6183 -1.5618
 7995SOL     OW35617   2.275   0.177   5.682 -0.5156 -0.6053 -0.0946
 7995SOL    HW135618   2.271   0.171   5.587 -0.0566 -1.4246 -0.0621
 7995SOL    HW235619   2.358   0.224   5.689 -0.8933 -0.0610  0.7783
 7996SOL     OW35620   1.331   0.046   5.801 -0.7120 -0.3563 -0.4161
 7996SOL    HW135621   1.287   0.004   5.875 -0.2799 -2.1538 -1.1710
 7996SOL    HW235622   1.410   0.075   5.846 -1.6862 -0.3791  1.3328
 7997SOL     OW35623   1.237   0.582   7.814  0.4294  0.0316 -0.3339
 7997SOL    HW135624   1.223   0.491   7.840 -0.7588  1.3236  3.4836
 7997SOL    HW235625   1.204   0.584   7.724  1.4918 -1.3102 -0.7487
 7998SOL     OW35626   4.419   0.878   7.968 -0.4058  0.1065 -0.5803
 7998SOL    HW135627   4.380   0.791   7.979 -0.3545  0.5508  3.2758
 7998SOL    HW235628   4.360   0.936   8.016  1.5893  0.9594  0.8838
 7999SOL     OW35629   3.163   1.330   3.283 -0.0306 -0.1866  0.1107
 7999SOL    HW135630   3.124   1.414   3.308 -2.0218 -0.5647 -1.7196
 7999SOL    HW235631   3.089   1.270   3.286 -1.4341  1.6139  1.6764
 8000SOL     OW35632   3.391   3.055   7.943 -0.3136  0.0371 -0.1483
 8000SOL    HW135633   3.475   3.032   7.984 -1.8560 -5.0326  0.2376
 8000SOL    HW235634   3.388   3.150   7.956  1.0013  0.2827 -1.6498
 8001SOL     OW35635   3.951   2.142   6.612  0.4716  0.4233 -0.1715
 8001SOL    HW135636   3.969   2.048   6.608  0.1791  0.3141  1.0930
 8001SOL    HW235637   4.036   2.172   6.647 -0.8597 -0.2445  3.7005
 8002SOL     OW35638   4.720   1.110   8.478  0.6289 -0.0249 -0.2000
 8002SOL    HW135639   0.046   1.183   8.487  1.8332 -0.9256 -0.9735
 8002SOL    HW235640   4.673   1.119   8.561  0.5026  0.8247 -0.3628
 8003SOL     OW35641   3.024   1.305   4.556  0.1424 -0.2952  0.4603
 8003SOL    HW135642   2.937   1.341   4.540  0.8263  0.3179 -1.9168
 8003SOL    HW235643   3.015   1.294   4.651 -0.7829  1.8816  0.6088
 8004SOL     OW35644   2.333   1.510  13.531 -0.6716  0.7647  0.0608
 8004SOL    HW135645   2.250   1.468  13.511 -0.6901  0.3611  1.0001
 8004SOL    HW235646   2.370   1.501  13.443 -1.7058  0.1859 -0.3119
 8005SOL     OW35647   2.859   0.466  17.112  0.0440  0.0283 -0.3699
 8005SOL    HW135648   2.874   0.539  17.052  0.7607  1.1402  1.1713
 8005SOL    HW235649   2.861   0.519  17.191 -0.2960  0.2857 -0.5321
 8006SOL     OW35650   0.876   1.451  14.581  0.2047  0.1589 -0.2837
 8006SOL    HW135651   0.784   1.456  14.555 -0.4355  1.2209  2.1980
 8006SOL    HW235652   0.907   1.369  14.541  1.5129 -0.0195  1.0833
 8007SOL     OW35653   2.031   1.958   6.575 -0.2117  0.2880 -0.1185
 8007SOL    HW135654   2.005   1.880   6.623 -1.2313 -0.1780 -1.4339
 8007SOL    HW235655   1.951   2.010   6.588  0.5058  1.1643  0.8035
 8008SOL     OW35656   0.152   4.595  13.786 -0.2010  0.0418 -0.3157
 8008SOL    HW135657   0.216   4.576  13.854  0.5890 -0.4535 -1.2068
 8008SOL    HW235658   0.197   4.576  13.704  0.3141 -1.0771  0.2229
 8009SOL     OW35659   3.865   3.255   4.597  0.4823  0.2835  0.2331
 8009SOL    HW135660   3.919   3.288   4.525 -0.3524 -1.8411 -1.3612
 8009SOL    HW235661   3.806   3.327   4.620  2.8443  2.8696 -1.8632
 8010SOL     OW35662   1.813   3.318   9.031 -0.0159 -0.3533  0.2710
 8010SOL    HW135663   1.760   3.371   9.091  0.6458 -0.9177  1.3551
 8010SOL    HW235664   1.889   3.316   9.089  1.5532 -1.5726 -1.8408
 8011SOL     OW35665   4.295   0.199   3.163  0.3704  0.2625 -0.0846
 8011SOL    HW135666   4.237   0.238   3.098 -1.6031  0.2122  1.6583
 8011SOL    HW235667   4.290   0.264   3.233 -1.7081  0.3646 -0.3227
 8012SOL     OW35668   1.848   2.307  12.085 -0.0472  0.4786 -0.1140
 8012SOL    HW135669   1.757   2.286  12.066  0.8691 -2.1376 -1.5995
 8012SOL    HW235670   1.884   2.220  12.104 -0.1723  0.7315  1.2758
 8013SOL     OW35671   3.100   3.794   6.879 -0.1751  0.0524 -0.0816
 8013SOL    HW135672   3.189   3.817   6.851  0.7731 -1.0373  2.0297
 8013SOL    HW235673   3.077   3.862   6.943  1.6437 -0.9358  1.6348
 8014SOL     OW35674   3.579   0.803   8.929  0.3881  0.1477 -0.4274
 8014SOL    HW135675   3.597   0.878   8.985 -1.4942  0.7214 -0.6053
 8014SOL    HW235676   3.519   0.754   8.985 -1.8300  2.4715 -0.7843
 8015SOL     OW35677   0.272   0.943   6.312 -0.0870 -0.3749 -0.0152
 8015SOL    HW135678   0.190   0.893   6.311  0.1878 -0.8178 -0.4275
 8015SOL    HW235679   0.244   1.029   6.341 -3.3698 -1.1638 -0.8579
 8016SOL     OW35680   3.817   0.630   1.132 -0.3714 -0.0661  0.0734
 8016SOL    HW135681   3.876   0.614   1.058 -0.6971 -1.6224  0.1552
 8016SOL    HW235682   3.761   0.701   1.101  0.8501  0.4071 -1.0078
 8017SOL     OW35683   1.847   1.637   4.687  0.4356 -0.1274  0.3187
 8017SOL    HW135684   1.813   1.723   4.664  1.6570  0.1943 -0.2791
 8017SOL    HW235685   1.788   1.614   4.758 -0.6265 -0.4974 -0.6804
 8018SOL     OW35686   2.367   2.769   3.630 -0.2750 -0.5911  0.1270
 8018SOL    HW135687   2.348   2.700   3.566  1.9956  1.4451 -2.7870
 8018SOL    HW235688   2.327   2.845   3.588 -0.9471 -0.8266  0.3536
 8019SOL     OW35689   0.574   1.102  17.440  0.3617  0.2133 -0.4598
 8019SOL    HW135690   0.554   1.119  17.348  1.0526  1.3581 -0.3903
 8019SOL    HW235691   0.596   1.009  17.436  2.2663  0.6354  0.2332
 8020SOL     OW35692   3.089   0.400   7.180 -0.0871  0.3142  0.2328
 8020SOL    HW135693   3.134   0.397   7.096 -1.0670  0.7191 -0.3048
 8020SOL    HW235694   3.004   0.365   7.153 -0.5419  0.6028  1.2616
 8021SOL     OW35695   1.202   2.927  11.576  0.4335 -0.2602  0.3087
 8021SOL    HW135696   1.243   2.992  11.519  1.0216  2.0178  3.2782
 8021SOL    HW235697   1.202   2.975  11.659 -1.3067  2.1288 -1.1030
 8022SOL     OW35698   1.666   0.048  12.318 -0.1948  0.5181  0.1012
 8022SOL    HW135699   1.714   4.708  12.355 -0.5153  0.6791  0.8311
 8022SOL    HW235700   1.609   0.059  12.394 -0.1001 -0.4909  0.3206
 8023SOL     OW35701   4.461   2.641   2.661  0.8985  0.6091 -0.0950
 8023SOL    HW135702   4.529   2.694   2.703 -0.4407 -0.1656  3.0451
 8023SOL    HW235703   4.450   2.682   2.575 -0.8029  1.7178  0.6471
 8024SOL     OW35704   2.440   2.004   7.657 -0.0406  1.4241 -0.0974
 8024SOL    HW135705   2.349   2.008   7.686 -0.2823 -1.0732 -0.5055
 8024SOL    HW235706   2.418   1.991   7.565  2.7655 -1.3540 -0.4002
 8025SOL     OW35707   3.140   0.136  12.912  0.3819  0.1090  0.2182
 8025SOL    HW135708   3.088   0.134  12.831  0.3399  1.6854  0.2061
 8025SOL    HW235709   3.114   0.052  12.951  0.1656 -0.1293 -0.4493
 8026SOL     OW35710   4.344   2.159   5.447 -0.2631  0.5657  0.0998
 8026SOL    HW135711   4.408   2.089   5.461 -1.4323 -0.8655 -1.6901
 8026SOL    HW235712   4.266   2.108   5.473 -0.7898  1.9123  1.1698
 8027SOL     OW35713   0.573   0.887   3.620 -0.0691 -0.0256 -0.4674
 8027SOL    HW135714   0.578   0.817   3.555 -1.0910 -1.7493  1.3120
 8027SOL    HW235715   0.623   0.949   3.566  0.8742 -2.1451 -1.9990
 8028SOL     OW35716   4.002   4.284  15.569  0.2854  0.4082  0.2660
 8028SOL    HW135717   4.040   4.276  15.656 -0.2328  0.7121  0.5153
 8028SOL    HW235718   4.072   4.323  15.517 -1.5811  2.9188 -0.3767
 8029SOL     OW35719   1.534   1.458   9.016 -0.5728  0.4195  0.1020
 8029SOL    HW135720   1.446   1.485   9.042 -0.4446  0.6120  0.3421
 8029SOL    HW235721   1.590   1.518   9.066 -1.9804  0.9763  1.0130
 8030SOL     OW35722   4.269   4.087   5.779  0.3594  0.8381 -0.1200
 8030SOL    HW135723   4.330   4.090   5.853  0.2702  4.0236 -0.1988
 8030SOL    HW235724   4.238   4.177   5.787 -0.0004  0.7471 -0.4639
 8031SOL     OW35725   1.277   1.476  11.792  0.0845 -0.4522  0.0566
 8031SOL    HW135726   1.296   1.515  11.878  0.4257  1.4984 -0.9008
 8031SOL    HW235727   1.182   1.471  11.800  0.2370 -3.0836 -0.0352
 8032SOL     OW35728   3.458   0.347   7.093 -0.6401 -0.0967 -0.3696
 8032SOL    HW135729   3.399   0.275   7.113  2.0204 -2.2457 -0.3326
 8032SOL    HW235730   3.528   0.316   7.151 -0.8631 -2.2658 -1.2784
 8033SOL     OW35731   0.473   1.602  17.497 -0.1106 -0.4923  0.5091
 8033SOL    HW135732   0.526   1.526  17.471  0.3358 -0.4552  1.3285
 8033SOL    HW235733   0.477   1.596  17.592  1.8151  1.2951  0.5361
 8034SOL     OW35734   3.199   1.589   5.534 -0.1915  0.0300 -0.2063
 8034SOL    HW135735   3.144   1.548   5.468  0.7837 -0.5750 -0.6453
 8034SOL    HW235736   3.259   1.516   5.554 -1.5007 -0.1752  2.9794
 8035SOL     OW35737   1.143   3.357   3.538  0.6305  0.1030  0.0259
 8035SOL    HW135738   1.101   3.292   3.482  0.3185 -1.3400  1.9342
 8035SOL    HW235739   1.065   3.409   3.561  0.8319 -0.0303  1.0337
 8036SOL     OW35740   3.296   3.562  12.357  0.4453 -0.2593  0.6824
 8036SOL    HW135741   3.201   3.569  12.368  0.4814 -0.2664  0.9991
 8036SOL    HW235742   3.303   3.621  12.283  0.0673 -0.2308  0.6687
 8037SOL     OW35743   4.577   3.366   3.238 -0.0832 -0.0503  0.2917
 8037SOL    HW135744   4.506   3.335   3.294 -0.0921 -2.1233 -0.8505
 8037SOL    HW235745   4.614   3.444   3.280  0.7450  0.4329 -1.3588
 8038SOL     OW35746   0.448   0.538   7.545  0.0592  0.5888  0.2864
 8038SOL    HW135747   0.506   0.552   7.469 -1.3517  0.2331 -0.8613
 8038SOL    HW235748   0.379   0.597   7.515 -1.0548 -1.1229 -0.5113
 8039SOL     OW35749   0.259   0.929  15.686 -0.7509 -0.8741  0.0777
 8039SOL    HW135750   0.206   0.912  15.764 -0.5789  2.0010  0.8230
 8039SOL    HW235751   0.296   0.846  15.658 -0.8291 -1.5631  2.0069
 8040SOL     OW35752   1.567   1.522   6.803  0.3527 -0.0858 -0.8755
 8040SOL    HW135753   1.484   1.538   6.848 -0.3654 -0.6031 -2.0122
 8040SOL    HW235754   1.630   1.537   6.874 -1.3302  0.6281  0.4804
 8041SOL     OW35755   0.386   2.047   5.806  0.6913  0.3146 -0.7412
 8041SOL    HW135756   0.456   1.983   5.798  0.5113 -0.1053  1.1613
 8041SOL    HW235757   0.392   2.088   5.719 -0.4321 -0.5924 -1.2382
 8042SOL     OW35758   1.104   1.213   6.076 -0.0511  0.0231  0.4707
 8042SOL    HW135759   1.154   1.137   6.047 -0.1568 -0.0227  0.4122
 8042SOL    HW235760   1.178   1.269   6.053 -0.1222 -2.3684 -5.4763
 8043SOL     OW35761   1.852   2.290  14.843 -0.2715  0.5414 -0.1449
 8043SOL    HW135762   1.883   2.288  14.934 -0.9203  2.4907  0.1130
 8043SOL    HW235763   1.764   2.318  14.868  0.7139  1.5505  2.2164
 8044SOL     OW35764   3.654   3.882   3.559 -0.1308  0.0977 -0.1246
 8044SOL    HW135765   3.660   3.977   3.551  2.7212 -0.0257  0.8173
 8044SOL    HW235766   3.709   3.851   3.488 -0.3442 -0.5360 -0.0213
 8045SOL     OW35767   1.531   1.005   1.999  0.2443  0.2653  0.3410
 8045SOL    HW135768   1.574   0.989   2.083 -0.3277 -1.9899  0.2008
 8045SOL    HW235769   1.570   1.091   1.981  2.1453 -0.8089 -0.7100
 8046SOL     OW35770   3.559   3.995  11.104 -0.4052  0.0745 -0.5149
 8046SOL    HW135771   3.513   3.911  11.104  1.1643 -0.7814 -0.3044
 8046SOL    HW235772   3.613   3.986  11.182 -0.9922 -3.2515 -0.4722
 8047SOL     OW35773   1.504   0.098   0.210  0.1821 -0.0306  0.4531
 8047SOL    HW135774   1.594   0.067   0.215 -0.1175 -0.7600  1.3626
 8047SOL    HW235775   1.471   0.037   0.143  1.1462  2.5986 -2.4416
 8048SOL     OW35776   1.496   2.741   8.953 -0.1461  0.1506  0.4377
 8048SOL    HW135777   1.509   2.801   9.026 -1.6685  0.7331  0.2146
 8048SOL    HW235778   1.435   2.791   8.899  0.6840  0.5560 -0.1442
 8049SOL     OW35779   0.188   0.233   5.542  0.0031 -0.2617  0.3622
 8049SOL    HW135780   0.141   0.151   5.554 -1.5566  0.6702  0.6760
 8049SOL    HW235781   0.129   0.282   5.484  2.3807  0.7437 -1.2094
 8050SOL     OW35782   4.633   2.533   4.729 -0.3300 -1.0090 -0.0021
 8050SOL    HW135783   4.622   2.447   4.771  0.0126 -1.6457 -1.1974
 8050SOL    HW235784   4.668   2.504   4.645  3.0773  1.3743  0.6179
 8051SOL     OW35785   0.647   1.104   4.710 -0.1739 -0.1188 -0.4160
 8051SOL    HW135786   0.699   1.029   4.680 -1.3412 -0.9172 -0.4272
 8051SOL    HW235787   0.580   1.120   4.644 -1.8666  1.3801  1.6432
 8052SOL     OW35788   0.315   2.695   0.314  0.3014  0.6014 -0.5119
 8052SOL    HW135789   0.338   2.602   0.310  0.0226  0.6429 -2.6894
 8052SOL    HW235790   0.371   2.737   0.380 -0.5230 -0.6853  1.0050
 8053SOL     OW35791   0.690   4.136  14.203  0.0178  0.1964  0.0933
 8053SOL    HW135792   0.667   4.221  14.241  0.0852 -0.0613  0.7241
 8053SOL    HW235793   0.777   4.116  14.237  0.0099  0.1269  0.0712
 8054SOL     OW35794   2.583   1.391   2.364 -0.1943  0.2526 -0.1850
 8054SOL    HW135795   2.661   1.425   2.408  0.8049  0.7064 -2.2782
 8054SOL    HW235796   2.516   1.412   2.429  2.2070 -0.3314  2.4306
 8055SOL     OW35797   3.459   3.318   5.650  0.2858 -0.0858 -0.3076
 8055SOL    HW135798   3.539   3.328   5.600 -0.2702 -1.5338 -1.5105
 8055SOL    HW235799   3.475   3.230   5.685  2.0850  0.8603  1.1981
 8056SOL     OW35800   1.890   2.139   2.753  0.3828  0.0248 -0.6331
 8056SOL    HW135801   1.821   2.152   2.818 -2.2625 -1.2267 -3.2621
 8056SOL    HW235802   1.912   2.228   2.726  2.4026 -0.1540  0.3887
 8057SOL     OW35803   1.329   1.220  13.400  0.8158  0.9639 -0.3362
 8057SOL    HW135804   1.376   1.138  13.416  0.5743  0.9907  0.5461
 8057SOL    HW235805   1.390   1.292  13.417 -0.8098  2.4332 -0.7005
 8058SOL     OW35806   0.168   2.511  17.263  0.1847  0.3628 -0.2317
 8058SOL    HW135807   0.083   2.545  17.238 -0.3381 -1.0406 -0.3624
 8058SOL    HW235808   0.147   2.499  17.356  2.5365  1.3991  0.4301
 8059SOL     OW35809   0.075   2.276   2.666  0.0614  0.2519 -0.0165
 8059SOL    HW135810   0.101   2.192   2.704  3.4466  1.0812 -0.5469
 8059SOL    HW235811   0.160   2.320   2.661  0.5211 -0.4066  1.9458
 8060SOL     OW35812   1.178   1.175   8.100  0.2549  0.5160 -0.4546
 8060SOL    HW135813   1.179   1.098   8.157 -0.4311 -0.0639 -1.2359
 8060SOL    HW235814   1.196   1.245   8.163  1.3556  0.1567 -0.3692
 8061SOL     OW35815   1.962   3.083   3.540  0.1882 -0.2942  0.5028
 8061SOL    HW135816   1.883   3.114   3.585  0.5346  2.1640 -0.6209
 8061SOL    HW235817   1.934   3.036   3.461 -0.8547 -0.0191  0.6987
 8062SOL     OW35818   2.055   0.633   4.321  0.2316 -0.0006 -0.1883
 8062SOL    HW135819   2.077   0.539   4.322  0.7573  0.1145 -0.4504
 8062SOL    HW235820   2.089   0.650   4.233  0.2446  1.3079  0.0794
 8063SOL     OW35821   1.600   0.085   4.840  0.6654  0.6545  0.1850
 8063SOL    HW135822   1.552   0.154   4.796  0.9531  0.7490  0.0151
 8063SOL    HW235823   1.681   0.064   4.792  1.2687  0.1177  1.4436
 8064SOL     OW35824   0.622   3.661   7.132 -0.2726  0.5943  0.6119
 8064SOL    HW135825   0.650   3.704   7.051 -0.6178 -1.2145 -0.4659
 8064SOL    HW235826   0.617   3.739   7.186 -0.7495  1.3713 -0.5630
 8065SOL     OW35827   2.941   0.933   3.641 -0.2798  0.4709  0.1110
 8065SOL    HW135828   2.962   0.858   3.697  0.2000  0.2241 -0.4095
 8065SOL    HW235829   2.999   0.923   3.566  0.1229  2.4756  0.1528
 8066SOL     OW35830   2.472   2.078   8.603  0.1377 -0.3422  0.4228
 8066SOL    HW135831   2.398   2.137   8.615 -1.0733 -1.4122 -1.6273
 8066SOL    HW235832   2.452   2.052   8.513  1.4506 -1.3119  0.4140
 8067SOL     OW35833   4.165   1.582   3.715  0.3083 -0.9829  0.1027
 8067SOL    HW135834   4.227   1.606   3.784  1.2446 -1.4508 -0.5851
 8067SOL    HW235835   4.084   1.614   3.755  0.5166 -1.4422  0.8921
 8068SOL     OW35836   4.206   4.365   2.812 -0.1487  0.1604 -0.0488
 8068SOL    HW135837   4.192   4.273   2.789 -1.5104 -0.1667  2.0011
 8068SOL    HW235838   4.233   4.339   2.900 -0.7258  1.9378  0.6584
 8069SOL     OW35839   1.109   3.587   5.442 -0.9932  0.1022 -0.2356
 8069SOL    HW135840   1.093   3.673   5.404  1.5846 -0.0856 -1.7189
 8069SOL    HW235841   1.026   3.539   5.445 -1.2039  0.4641 -0.2813
 8070SOL     OW35842   2.684   1.613   8.971 -0.2036  0.2607 -0.5225
 8070SOL    HW135843   2.637   1.546   9.021  0.4133 -1.1394 -1.8188
 8070SOL    HW235844   2.776   1.589   8.988  0.0271  1.0818 -0.6072
 8071SOL     OW35845   2.510   4.009   6.126 -0.1381 -0.3001  0.6863
 8071SOL    HW135846   2.572   3.948   6.087 -0.8350 -0.9153  0.5394
 8071SOL    HW235847   2.554   4.094   6.116  0.9107 -0.9270 -0.0400
 8072SOL     OW35848   4.030   3.827   5.588  0.7347  0.4654 -0.1169
 8072SOL    HW135849   4.037   3.757   5.524 -0.9791 -1.2429  1.5368
 8072SOL    HW235850   4.033   3.910   5.541 -0.4641  0.8630  0.4956
 8073SOL     OW35851   3.688   3.064   8.675 -0.1689 -0.4920  0.1466
 8073SOL    HW135852   3.605   3.025   8.702 -0.2533  0.6529  1.5627
 8073SOL    HW235853   3.739   2.983   8.681 -0.7535 -0.6502  2.9843
 8074SOL     OW35854   2.692   0.882   9.176 -0.1000  0.4070  0.1174
 8074SOL    HW135855   2.721   0.875   9.266 -1.8935 -1.4786  0.5452
 8074SOL    HW235856   2.778   0.882   9.134 -1.0869 -1.5702 -1.9041
 8075SOL     OW35857   2.970   3.848   7.914 -0.2653 -0.2694 -0.4522
 8075SOL    HW135858   2.902   3.911   7.937 -1.1567 -0.9707 -1.1480
 8075SOL    HW235859   2.969   3.852   7.819  1.9223 -2.3733 -0.5748
 8076SOL     OW35860   0.315   0.192   3.050  0.0430 -0.1262  0.0314
 8076SOL    HW135861   0.360   0.108   3.042  0.8957 -0.0042  3.7034
 8076SOL    HW235862   0.335   0.215   3.140  0.4385  1.4122 -0.4572
 8077SOL     OW35863   2.081   4.532  17.206  0.4580  0.2170  0.1833
 8077SOL    HW135864   2.009   4.514  17.267 -1.8389 -0.8509 -2.8252
 8077SOL    HW235865   2.124   4.598  17.260 -0.7414  2.0559 -1.0989
 8078SOL     OW35866   2.205   0.920   6.840  0.3013 -0.5905 -0.1755
 8078SOL    HW135867   2.152   0.932   6.919  0.2056  0.3303 -0.3790
 8078SOL    HW235868   2.272   0.988   6.850 -0.3483  0.0120  0.0392
 8079SOL     OW35869   0.699   2.299  12.352  0.2099  0.3240  0.2166
 8079SOL    HW135870   0.635   2.244  12.397 -1.2201  1.6237 -0.2461
 8079SOL    HW235871   0.774   2.297  12.412  0.8138 -1.4796 -0.5909
 8080SOL     OW35872   1.569   2.481   7.784  0.0199 -0.6982 -0.2219
 8080SOL    HW135873   1.660   2.483   7.754  0.2534  2.3394  0.6829
 8080SOL    HW235874   1.542   2.410   7.726 -1.9792 -1.3376  1.4986
 8081SOL     OW35875   4.184   1.352   3.937 -0.3318  0.1675  0.7779
 8081SOL    HW135876   4.207   1.416   3.870 -3.2086 -0.6987 -1.0432
 8081SOL    HW235877   4.256   1.289   3.939  1.6328  2.3039 -2.2551
 8082SOL     OW35878   0.405   4.000   1.526 -0.9191  0.2976  0.2370
 8082SOL    HW135879   0.325   3.948   1.533  0.2606 -1.4333  0.9524
 8082SOL    HW235880   0.412   4.034   1.615 -0.0393 -1.6311  0.8969
 8083SOL     OW35881   4.443   4.289  11.723  0.0406  0.2437  0.6299
 8083SOL    HW135882   4.381   4.314  11.791 -1.3268 -1.3694 -0.0004
 8083SOL    HW235883   4.441   4.365  11.665  1.9165 -0.4354 -0.3315
 8084SOL     OW35884   0.637   2.290   0.500  0.3196  0.6410 -0.1975
 8084SOL    HW135885   0.606   2.230   0.568  1.9307 -0.5833 -0.5365
 8084SOL    HW235886   0.698   2.348   0.546  0.6593  1.6029 -1.8762
 8085SOL     OW35887   0.381   0.169   4.521  0.1777 -0.2530 -0.0101
 8085SOL    HW135888   0.374   0.089   4.469  2.0085  0.5291 -1.4883
 8085SOL    HW235889   0.475   0.162   4.542  0.5987  0.8391 -1.5372
 8086SOL     OW35890   0.867   3.725   5.054 -0.5217  0.1640  0.2049
 8086SOL    HW135891   0.942   3.774   5.019 -0.4662  0.5245  0.8224
 8086SOL    HW235892   0.889   3.639   5.018  0.2783  0.2514  0.4783
 8087SOL     OW35893   1.362   1.115   7.543  0.1386  0.9108  0.5977
 8087SOL    HW135894   1.413   1.072   7.473  1.1079 -0.0692  1.8979
 8087SOL    HW235895   1.418   1.191   7.562  1.1097  0.7335 -1.5418
 8088SOL     OW35896   1.073   4.056   9.123  0.2656  0.3927  0.0920
 8088SOL    HW135897   1.056   4.129   9.183 -2.4371  0.5772 -0.8560
 8088SOL    HW235898   1.035   4.086   9.040 -0.2471 -1.0593 -0.2076
 8089SOL     OW35899   2.331   4.637   6.982 -0.0482 -0.4640 -0.4572
 8089SOL    HW135900   2.336   4.661   6.889 -1.6285 -1.8663 -0.8947
 8089SOL    HW235901   2.419   4.650   7.018 -0.6794 -0.5232  1.1060
 8090SOL     OW35902   0.179   2.585   7.680 -0.9624 -0.0507  0.0320
 8090SOL    HW135903   0.084   2.580   7.674 -0.6184 -1.0805 -5.0505
 8090SOL    HW235904   0.201   2.630   7.598 -2.5009 -1.1943 -1.0300
 8091SOL     OW35905   3.345   4.145   2.421  0.4483  1.1877  0.6506
 8091SOL    HW135906   3.277   4.110   2.362 -2.0772  1.8259  3.1793
 8091SOL    HW235907   3.394   4.195   2.355  0.0453 -0.4179 -0.8689
 8092SOL     OW35908   4.657   1.780   5.820 -0.2399  0.0733 -0.0082
 8092SOL    HW135909   4.704   1.713   5.770  0.9096  0.0575  1.1009
 8092SOL    HW235910   4.725   1.846   5.828 -0.7320  0.4644  0.9720
 8093SOL     OW35911   1.543   2.690  11.160 -0.2293  0.0252  0.1384
 8093SOL    HW135912   1.608   2.624  11.186  2.9589  2.4607 -1.7123
 8093SOL    HW235913   1.465   2.663  11.209 -1.1835 -1.5793 -2.2155
 8094SOL     OW35914   2.463   0.167   5.996 -0.2430  0.4056  0.6334
 8094SOL    HW135915   2.457   0.210   6.082 -0.2838 -1.3943  1.5272
 8094SOL    HW235916   2.506   0.086   6.023 -2.0180 -0.6155  0.3635
 8095SOL     OW35917   0.233   3.953  16.939 -0.0513  0.0415 -0.2501
 8095SOL    HW135918   0.321   3.932  16.906 -0.0778  0.2647 -0.4656
 8095SOL    HW235919   0.224   4.041  16.902 -1.9744 -1.0385 -2.3752
 8096SOL     OW35920   4.139   1.004   0.344 -0.1011 -0.5518  0.3378
 8096SOL    HW135921   4.190   0.924   0.329  0.6836 -0.0042  0.0986
 8096SOL    HW235922   4.122   1.004   0.438 -1.7010 -3.1773  0.0595
 8097SOL     OW35923   0.217   2.754   5.528  0.6207  0.0007 -0.1932
 8097SOL    HW135924   0.200   2.846   5.546 -0.0040  0.0266 -0.9422
 8097SOL    HW235925   0.265   2.718   5.603 -0.4084 -1.0710 -0.0446
 8098SOL     OW35926   4.102   1.345   2.993  0.1253 -0.1914  0.6177
 8098SOL    HW135927   4.148   1.410   3.047  2.5962 -0.8578 -0.6926
 8098SOL    HW235928   4.016   1.368   3.029 -0.7176  1.5054 -2.4723
 8099SOL     OW35929   2.142   2.266  13.739 -0.0688  0.2773  0.0424
 8099SOL    HW135930   2.209   2.324  13.775 -0.4202  0.6062  0.1656
 8099SOL    HW235931   2.070   2.329  13.743 -0.8315 -0.7450  1.8348
 8100SOL     OW35932   2.176   0.029   8.314  1.4588 -0.1306 -0.4349
 8100SOL    HW135933   2.228   4.705   8.369 -0.1534 -1.0206  0.1658
 8100SOL    HW235934   2.243   0.095   8.295  0.7029 -0.2003 -3.4080
 8101SOL     OW35935   0.948   2.651   5.367 -0.0700 -0.7203 -0.0327
 8101SOL    HW135936   0.922   2.675   5.278 -0.1334 -2.0269 -0.3693
 8101SOL    HW235937   1.044   2.652   5.358 -0.1374  1.7945 -0.6373
 8102SOL     OW35938   1.344   1.535   5.796 -0.5284 -0.2872  0.0357
 8102SOL    HW135939   1.304   1.577   5.720  3.2859 -0.0730 -1.8578
 8102SOL    HW235940   1.371   1.605   5.855  1.5096  0.7004 -2.0676
 8103SOL     OW35941   3.912   0.546  14.602 -0.2831  0.7692 -0.5968
 8103SOL    HW135942   3.990   0.570  14.552  1.6216 -0.2312  1.8964
 8103SOL    HW235943   3.851   0.600  14.552 -1.0769  1.3452  0.9818
 8104SOL     OW35944   1.745   0.288   7.108 -0.1225  0.1762  0.1749
 8104SOL    HW135945   1.694   0.364   7.081 -1.3906 -1.8359 -3.0607
 8104SOL    HW235946   1.787   0.329   7.184  1.9228  1.6816 -1.7555
 8105SOL     OW35947   3.384   1.648   7.993 -0.2769  1.0600  0.1031
 8105SOL    HW135948   3.430   1.572   8.027 -2.8108 -0.7129 -0.4103
 8105SOL    HW235949   3.434   1.681   7.918 -2.5977  1.5669 -1.2076
 8106SOL     OW35950   0.492   3.461  13.261  0.0993  0.4764 -0.4332
 8106SOL    HW135951   0.511   3.504  13.178 -0.5550  0.6336 -0.4975
 8106SOL    HW235952   0.570   3.494  13.306  0.5082  0.5944 -1.2389
 8107SOL     OW35953   4.709   4.498   3.032  0.3926 -0.0339  0.4360
 8107SOL    HW135954   4.693   4.421   3.088 -0.2624 -0.7543 -0.7346
 8107SOL    HW235955   4.637   4.489   2.969 -1.1040 -0.0768  2.1264
 8108SOL     OW35956   0.211   3.745   0.649  0.2849 -0.0085  0.2468
 8108SOL    HW135957   0.167   3.755   0.565  0.6284  0.6037  0.1327
 8108SOL    HW235958   0.146   3.701   0.703  1.6435  0.2128  2.0382
 8109SOL     OW35959   1.805   3.814   9.224  0.6669 -0.0597 -0.0587
 8109SOL    HW135960   1.714   3.795   9.246  0.6558 -0.2731 -0.2903
 8109SOL    HW235961   1.827   3.845   9.311 -2.9181  1.6986  0.2379
 8110SOL     OW35962   1.786   2.766   5.374  0.3151 -0.1251  0.6697
 8110SOL    HW135963   1.770   2.707   5.447  0.7616  1.4332  2.0160
 8110SOL    HW235964   1.708   2.737   5.326  2.1029 -4.5844  0.4750
 8111SOL     OW35965   3.627   0.148   8.375  0.4590  0.4878 -0.3365
 8111SOL    HW135966   3.580   0.064   8.374  0.2723  0.5845  0.1648
 8111SOL    HW235967   3.684   0.140   8.452  1.3414  2.2747 -0.8262
 8112SOL     OW35968   0.201   4.710   7.593  0.4675 -0.0501  0.4876
 8112SOL    HW135969   0.106   4.695   7.589  0.6270 -1.1305  0.7999
 8112SOL    HW235970   0.233   4.627   7.558  3.3771  1.2999 -0.0004
 8113SOL     OW35971   4.523   1.961   5.472  0.4092  0.5404 -0.5830
 8113SOL    HW135972   4.616   1.947   5.453  0.4401 -0.6222  0.4370
 8113SOL    HW235973   4.496   1.869   5.470 -1.4330  1.0226  2.3767
 8114SOL     OW35974   3.016   4.610   7.543  0.7580  0.0556 -0.1934
 8114SOL    HW135975   3.108   4.636   7.553  0.2992  0.7351  2.2397
 8114SOL    HW235976   2.985   4.664   7.470  1.2968  1.9412  0.9540
 8115SOL     OW35977   4.501   3.597   6.432 -0.4206 -0.3968 -0.2066
 8115SOL    HW135978   4.496   3.660   6.361  0.3685  0.7932  0.8071
 8115SOL    HW235979   4.410   3.590   6.462 -0.1838 -0.8113  0.4121
 8116SOL     OW35980   0.852   2.630  13.740  0.3219  0.1673 -0.8096
 8116SOL    HW135981   0.763   2.621  13.774  0.6500  0.1677  0.0464
 8116SOL    HW235982   0.890   2.555  13.785 -1.1007  0.6058  1.1006
 8117SOL     OW35983   1.066   0.567   0.218  0.0504  0.0575 -0.6293
 8117SOL    HW135984   1.132   0.554   0.285 -0.2387 -0.3768 -0.4285
 8117SOL    HW235985   0.982   0.553   0.261 -0.2144  0.2793 -1.0681
 8118SOL     OW35986   2.810   1.786  17.590  0.4303  0.4776 -0.0465
 8118SOL    HW135987   2.802   1.874  17.628  0.8276  0.9914 -1.1692
 8118SOL    HW235988   2.903   1.766  17.600 -0.2435 -1.0476  3.1093
 8119SOL     OW35989   1.953   1.820   0.675 -0.7059 -0.0612  0.5414
 8119SOL    HW135990   1.907   1.902   0.659 -0.0666  0.4745  1.4100
 8119SOL    HW235991   1.987   1.789   0.591 -0.5293 -1.2524  1.0604
 8120SOL     OW35992   2.041   4.670  14.249 -0.5357 -0.2613 -0.0404
 8120SOL    HW135993   2.028   4.596  14.308  3.9627 -0.5227  0.5990
 8120SOL    HW235994   2.101   4.727  14.297  0.5721 -1.4870  0.0255
 8121SOL     OW35995   0.816   1.755  13.628 -0.1170 -0.5533  0.1849
 8121SOL    HW135996   0.739   1.705  13.653 -0.4882 -0.8644 -1.5955
 8121SOL    HW235997   0.832   1.804  13.709 -0.0547 -1.3982  0.6824
 8122SOL     OW35998   3.018   0.721  11.901  0.3624  0.4818 -0.0260
 8122SOL    HW135999   3.083   0.784  11.933  1.4340 -0.1048 -1.0633
 8122SOL    HW236000   2.935   0.764  11.922  0.9332  1.5856 -0.0282
 8123SOL     OW36001   0.315   1.930  15.632 -0.2550  0.3330 -0.2893
 8123SOL    HW136002   0.349   1.841  15.643 -1.9445 -0.3349 -0.4572
 8123SOL    HW236003   0.221   1.924  15.647 -0.2661 -1.9870 -1.1702
 8124SOL     OW36004   2.904   2.824   7.672 -0.0143 -0.0980  0.2863
 8124SOL    HW136005   2.858   2.905   7.651  1.6776 -0.0112 -3.0047
 8124SOL    HW236006   2.827   2.769   7.654  0.1320  0.0407 -0.7874
 8125SOL     OW36007   0.305   1.047   7.292  0.3758 -0.4317 -0.2199
 8125SOL    HW136008   0.346   1.116   7.240 -0.3133  0.2761  0.1674
 8125SOL    HW236009   0.216   1.035   7.259  0.1497  0.3707  0.0864
 8126SOL     OW36010   3.904   2.274   6.387  0.2248 -0.1711 -0.0108
 8126SOL    HW136011   3.951   2.351   6.419  1.1820 -1.1848  1.0310
 8126SOL    HW236012   3.917   2.208   6.456 -0.2072 -2.2619 -1.9233
 8127SOL     OW36013   2.301   4.152   1.674 -0.4126  0.1488 -0.0288
 8127SOL    HW136014   2.254   4.165   1.756  0.9994  1.1386  0.6264
 8127SOL    HW236015   2.240   4.204   1.623 -0.3884 -0.0821 -0.2896
 8128SOL     OW36016   1.352   0.995  15.795  0.1378 -0.4034  0.1463
 8128SOL    HW136017   1.367   0.993  15.701 -1.2025 -0.7303 -0.0505
 8128SOL    HW236018   1.410   1.069  15.814  0.1168 -0.4680  0.4571
 8129SOL     OW36019   1.212   2.537   4.877 -0.2017 -0.0786 -0.4019
 8129SOL    HW136020   1.139   2.545   4.816 -0.6386  1.0357  0.2633
 8129SOL    HW236021   1.280   2.565   4.815 -1.0246 -0.6579 -1.5592
 8130SOL     OW36022   4.413   0.239   8.154 -0.1043 -0.6711 -0.2918
 8130SOL    HW136023   4.474   0.224   8.081  0.5435 -0.4853  0.2087
 8130SOL    HW236024   4.453   0.319   8.187 -2.7092  0.2962  0.4613
 8131SOL     OW36025   0.478   3.084  16.264  0.3240  0.2132 -0.1705
 8131SOL    HW136026   0.430   3.020  16.212  0.0617 -0.1456  0.5159
 8131SOL    HW236027   0.566   3.055  16.242 -0.5855 -2.7389  0.0973
 8132SOL     OW36028   3.184   1.995  12.548  0.1122 -0.4815 -0.7838
 8132SOL    HW136029   3.273   2.027  12.535 -0.0497  0.7576  1.2639
 8132SOL    HW236030   3.141   2.001  12.462 -0.5876  2.0414 -0.2601
 8133SOL     OW36031   2.458   0.164   3.923  0.0373 -0.1219 -0.4188
 8133SOL    HW136032   2.488   0.153   4.013  0.6688  0.9249 -0.4976
 8133SOL    HW236033   2.533   0.127   3.876  1.4666  3.5365 -1.0358
 8134SOL     OW36034   1.959   0.289   6.333 -0.5061  0.0354  0.7977
 8134SOL    HW136035   1.884   0.274   6.276  1.4018 -1.1458 -1.4093
 8134SOL    HW236036   1.919   0.287   6.419 -2.1008  0.3665  0.0534
 8135SOL     OW36037   4.371   4.310   6.043 -0.4759 -0.2165 -0.0808
 8135SOL    HW136038   4.315   4.370   6.092 -0.7308 -0.6426  0.1520
 8135SOL    HW236039   4.393   4.252   6.116 -0.7332  1.4998  1.3414
 8136SOL     OW36040   2.746   1.538  12.623 -0.1888  0.0575 -0.2148
 8136SOL    HW136041   2.763   1.535  12.717 -1.5482 -0.1224  0.0199
 8136SOL    HW236042   2.725   1.628  12.601  0.8608  0.3500  0.0006
 8137SOL     OW36043   4.646   0.756   4.977 -0.3694 -0.2290 -0.4099
 8137SOL    HW136044   4.658   0.788   4.888  1.3480  0.7449  0.1681
 8137SOL    HW236045   4.555   0.727   4.980 -0.2919 -0.5676 -1.3660
 8138SOL     OW36046   3.973   1.153   8.703  0.9724 -0.2551 -0.0031
 8138SOL    HW136047   4.022   1.129   8.782 -0.3027 -1.6512  0.3611
 8138SOL    HW236048   3.880   1.147   8.724  0.5569  0.0464 -1.8185
 8139SOL     OW36049   1.476   2.178   8.040  0.1003  0.0250 -0.5573
 8139SOL    HW136050   1.388   2.167   8.074 -0.1879 -1.5463 -1.7776
 8139SOL    HW236051   1.515   2.095   8.069  2.9577  0.8611 -1.9204
 8140SOL     OW36052   2.188   0.819   0.320  0.3388  0.2958  0.4310
 8140SOL    HW136053   2.137   0.781   0.248  1.3553  0.3771 -0.3366
 8140SOL    HW236054   2.220   0.744   0.370 -0.1174  0.5921  1.1605
 8141SOL     OW36055   4.233   1.892   7.482 -0.1420  0.2479 -0.6762
 8141SOL    HW136056   4.169   1.938   7.428 -1.2369 -1.2810 -0.6742
 8141SOL    HW236057   4.235   1.802   7.451  3.4027 -0.4293  1.4387
 8142SOL     OW36058   3.163   3.486   9.831  0.3784 -0.1954  0.2057
 8142SOL    HW136059   3.236   3.425   9.841 -0.3762 -0.8353  1.8313
 8142SOL    HW236060   3.192   3.570   9.864  0.3065  0.2295 -0.8019
 8143SOL     OW36061   4.697   2.377   7.020 -0.5292 -0.3464 -0.2963
 8143SOL    HW136062   4.707   2.306   7.084  0.6581  0.2387  0.1720
 8143SOL    HW236063   0.004   2.344   6.940 -2.2043  2.4190 -2.3167
 8144SOL     OW36064   2.640   4.178  17.568 -0.2010  0.0532 -0.1570
 8144SOL    HW136065   2.691   4.229  17.505 -0.2783  2.1763  1.4951
 8144SOL    HW236066   2.695   4.100  17.560  0.3562  0.5265 -1.0189
 8145SOL     OW36067   3.177   3.215  14.744  0.0985  0.0976  0.1104
 8145SOL    HW136068   3.122   3.292  14.740  0.2288  0.1775 -0.1769
 8145SOL    HW236069   3.130   3.145  14.698 -0.0049 -0.0238  0.4028
 8146SOL     OW36070   3.855   4.413  12.499  0.0295  0.2010 -0.0294
 8146SOL    HW136071   3.805   4.405  12.418  1.4957  0.9050 -0.9942
 8146SOL    HW236072   3.810   4.486  12.541 -0.9774 -1.3163  1.5086
 8147SOL     OW36073   1.115   3.837   2.475 -0.4525 -0.1359 -0.3212
 8147SOL    HW136074   1.196   3.879   2.505 -0.6412 -0.3974  0.5617
 8147SOL    HW236075   1.069   3.897   2.416 -2.7015  1.3498  2.9445
 8148SOL     OW36076   3.977   3.068  17.194 -0.3193 -0.1595  0.1651
 8148SOL    HW136077   4.051   3.052  17.253 -1.0891 -0.9738  0.9194
 8148SOL    HW236078   3.951   2.978  17.176  0.5772 -0.9095  2.6417
 8149SOL     OW36079   1.238   2.983   2.608 -0.1945  0.0156  0.1242
 8149SOL    HW136080   1.239   2.901   2.558  0.1966 -0.2835  0.6256
 8149SOL    HW236081   1.153   3.019   2.585  0.1789  1.4944  1.0755
 8150SOL     OW36082   4.573   4.386  15.627 -0.2975 -0.4691 -0.1024
 8150SOL    HW136083   4.511   4.442  15.673  0.9935  0.9135 -0.0575
 8150SOL    HW236084   4.611   4.332  15.696 -0.5131 -3.6355 -2.4321
 8151SOL     OW36085   3.803   3.743  12.397  0.5482 -0.5428 -0.1157
 8151SOL    HW136086   3.709   3.727  12.394  0.9302 -2.5736 -1.4440
 8151SOL    HW236087   3.817   3.771  12.306  2.1168  3.7394  1.4631
 8152SOL     OW36088   0.712   1.439   9.055 -0.4223 -0.1934  0.1598
 8152SOL    HW136089   0.796   1.483   9.041 -0.0394 -1.6656 -2.1673
 8152SOL    HW236090   0.739   1.390   9.133 -2.3942  1.2560  1.7484
 8153SOL     OW36091   4.454   0.804  15.839 -0.2809  0.2781  0.3279
 8153SOL    HW136092   4.511   0.758  15.901  0.8418  0.4480 -0.5709
 8153SOL    HW236093   4.392   0.849  15.896  0.0469  0.5574  0.4605
 8154SOL     OW36094   3.645   2.229   4.394  0.4344  0.2626  0.3182
 8154SOL    HW136095   3.561   2.245   4.351  0.3599  0.8879  0.6959
 8154SOL    HW236096   3.612   2.210   4.482 -1.2066 -0.6759 -0.5043
 8155SOL     OW36097   2.940   2.306   4.615 -0.6820 -0.0590  0.0622
 8155SOL    HW136098   2.870   2.294   4.678  1.7106 -3.5018  2.1037
 8155SOL    HW236099   3.007   2.261   4.668  1.9699  1.4928 -1.9424
 8156SOL     OW36100   3.393   2.525  12.845 -0.1285  0.0101  0.0220
 8156SOL    HW136101   3.419   2.490  12.760 -0.0091  0.2205 -0.0281
 8156SOL    HW236102   3.320   2.573  12.805 -1.8771 -2.7949 -0.1408
 8157SOL     OW36103   0.471   4.567   5.495  0.4338  0.3176  0.4795
 8157SOL    HW136104   0.462   4.653   5.454 -0.9826  0.7193  1.6318
 8157SOL    HW236105   0.388   4.566   5.543  0.0821 -0.4916 -0.1440
 8158SOL     OW36106   0.544   2.316   3.384  0.1003  0.2350 -0.2605
 8158SOL    HW136107   0.492   2.247   3.426 -0.0648  0.8131  0.4953
 8158SOL    HW236108   0.631   2.312   3.423  0.3956  0.6436 -0.8866
 8159SOL     OW36109   2.997   3.335   4.415 -0.1321  0.4245  0.4862
 8159SOL    HW136110   2.994   3.431   4.417  0.0016  0.3819  2.6084
 8159SOL    HW236111   2.903   3.318   4.412 -0.2886  1.4424 -0.1869
 8160SOL     OW36112   0.726   0.412   2.326 -0.0693 -0.2184 -0.3167
 8160SOL    HW136113   0.643   0.382   2.289  0.5090 -1.3123 -0.6925
 8160SOL    HW236114   0.739   0.480   2.261 -1.1764  1.1128  0.8328
 8161SOL     OW36115   1.709   3.550   1.863  0.8461 -0.1044  0.3645
 8161SOL    HW136116   1.761   3.591   1.793  0.0258  1.8164  0.8903
 8161SOL    HW236117   1.734   3.458   1.854 -0.1793 -0.4477  1.0147
 8162SOL     OW36118   0.257   0.639   6.407  0.0426  0.3706 -0.4832
 8162SOL    HW136119   0.269   0.724   6.449  2.6371 -0.8176  1.1253
 8162SOL    HW236120   0.347   0.607   6.398 -1.3860 -2.7925 -3.6587
 8163SOL     OW36121   0.444   0.827   9.204  0.0542 -0.5710  0.2576
 8163SOL    HW136122   0.394   0.751   9.173 -0.6499 -0.6619  1.6027
 8163SOL    HW236123   0.366   0.872   9.236  1.0038 -2.4292  5.2239
 8164SOL     OW36124   1.444   0.579   8.428  0.3701  0.3240  0.4625
 8164SOL    HW136125   1.535   0.587   8.457  1.0612  1.1464 -1.9475
 8164SOL    HW236126   1.407   0.631   8.499  1.2424  0.6191  0.6961
 8165SOL     OW36127   3.799   3.075   5.649  0.4832  0.3489  0.1542
 8165SOL    HW136128   3.726   3.117   5.694 -1.1502 -0.4786 -1.7087
 8165SOL    HW236129   3.769   3.039   5.565  2.7197  0.4938 -0.6913
 8166SOL     OW36130   4.398   2.954   5.471  0.2212  0.4381 -0.4745
 8166SOL    HW136131   4.436   2.928   5.387 -2.0221  1.2669 -1.7439
 8166SOL    HW236132   4.380   3.046   5.450 -2.2748  0.1133  0.1801
 8167SOL     OW36133   4.263   2.615   7.430  0.4414 -1.0974  0.6010
 8167SOL    HW136134   4.217   2.542   7.389  1.3672 -0.2632 -1.8866
 8167SOL    HW236135   4.199   2.687   7.434  0.7959 -0.6212 -2.2948
 8168SOL     OW36136   1.560   2.182  16.885 -0.4292 -0.3392 -0.0139
 8168SOL    HW136137   1.604   2.207  16.804  1.0940  1.2592  1.3208
 8168SOL    HW236138   1.524   2.096  16.863 -0.4799  0.2975 -2.4000
 8169SOL     OW36139   1.946   3.298  12.657 -0.3738  0.1517  0.7290
 8169SOL    HW136140   2.001   3.250  12.596 -0.2408 -0.0643  1.0177
 8169SOL    HW236141   2.005   3.341  12.718 -1.8262  1.1846  1.4257
 8170SOL     OW36142   0.316   4.531  14.030 -0.4010  0.1996 -0.3166
 8170SOL    HW136143   0.286   4.600  14.089 -0.1838 -0.2913  0.3669
 8170SOL    HW236144   0.266   4.456  14.062 -0.6802  0.6305  0.2592
 8171SOL     OW36145   2.067   4.347  14.232 -0.1130  0.6071  0.2876
 8171SOL    HW136146   2.001   4.373  14.296 -1.4508 -0.4247 -0.6805
 8171SOL    HW236147   2.029   4.265  14.201  0.3473  0.3867  0.3165
 8172SOL     OW36148   1.461   3.040  12.828  0.5337 -0.2241 -0.0367
 8172SOL    HW136149   1.537   2.987  12.803  0.8369 -1.2590  3.1135
 8172SOL    HW236150   1.505   3.082  12.902  1.0022 -1.4484  0.3792
 8173SOL     OW36151   1.305   1.829  10.000 -0.1763  0.0972  0.4601
 8173SOL    HW136152   1.329   1.772  10.073 -0.3293  0.4341  0.7730
 8173SOL    HW236153   1.380   1.888   9.995  0.7246 -0.9331  2.2994
 8174SOL     OW36154   0.145   2.535   4.203 -0.1381 -0.2112 -0.0667
 8174SOL    HW136155   0.220   2.510   4.150  0.4010 -1.0901  1.0866
 8174SOL    HW236156   0.089   2.574   4.136  0.5776  2.5560  0.9746
 8175SOL     OW36157   1.865   2.599   2.801 -0.0984 -0.1823 -0.3763
 8175SOL    HW136158   1.787   2.546   2.788 -0.5959  0.4524  0.0251
 8175SOL    HW236159   1.910   2.541   2.862 -1.1256  0.3733  0.8905
 8176SOL     OW36160   2.260   4.299   8.204 -0.2390  0.3602 -0.4885
 8176SOL    HW136161   2.328   4.291   8.136 -1.4835 -2.3177 -1.4042
 8176SOL    HW236162   2.229   4.386   8.180 -0.6859  0.4703  0.5276
 8177SOL     OW36163   4.456   2.467   0.836 -0.0532 -0.1967 -0.6690
 8177SOL    HW136164   4.542   2.433   0.811  0.3560  1.1682 -1.1514
 8177SOL    HW236165   4.477   2.480   0.929  0.3500  0.0376 -0.7906
 8178SOL     OW36166   0.630   0.358   6.886 -0.6408 -0.0792  0.5244
 8178SOL    HW136167   0.567   0.406   6.939  1.0220  1.4559  1.0888
 8178SOL    HW236168   0.587   0.376   6.802  1.2239  1.2381 -0.1684
 8179SOL     OW36169   3.215   2.221   9.024 -0.0353 -0.2773 -0.0703
 8179SOL    HW136170   3.152   2.209   8.954 -1.9991  0.9737  1.4822
 8179SOL    HW236171   3.281   2.280   8.987 -0.0322  1.2998  2.3850
 8180SOL     OW36172   0.809   1.245  15.409 -0.3089  0.0374 -0.2591
 8180SOL    HW136173   0.779   1.154  15.401  1.9185 -0.8632  2.0005
 8180SOL    HW236174   0.861   1.241  15.489 -0.9825  0.6584  0.2118
 8181SOL     OW36175   3.719   4.474   4.140  0.0457  0.9201 -0.0918
 8181SOL    HW136176   3.686   4.405   4.196  0.5651  0.8642  0.1427
 8181SOL    HW236177   3.794   4.497   4.193  0.0190 -0.3253  0.4741
 8182SOL     OW36178   3.308   0.113   7.158 -0.7018  0.0634 -0.4097
 8182SOL    HW136179   3.333   0.021   7.151 -1.0303 -0.1746  1.7787
 8182SOL    HW236180   3.239   0.098   7.223 -1.9856 -1.2289 -2.0461
 8183SOL     OW36181   2.409   1.109   9.002 -0.3232 -0.5404  0.3178
 8183SOL    HW136182   2.321   1.095   8.969  0.0688  0.7430 -1.2246
 8183SOL    HW236183   2.423   1.203   8.989 -0.5792 -0.6783 -0.9222
 8184SOL     OW36184   0.897   3.530   0.898 -0.4032 -0.3280  0.2722
 8184SOL    HW136185   0.893   3.623   0.917  1.9394  0.0477 -1.1058
 8184SOL    HW236186   0.956   3.495   0.965 -0.3106  1.6143  1.1903
 8185SOL     OW36187   1.928   1.613   7.376 -0.2207  0.3491 -0.3102
 8185SOL    HW136188   1.988   1.621   7.449  1.2456 -1.8530 -1.2502
 8185SOL    HW236189   1.972   1.550   7.319 -1.0959 -1.0206  0.5188
 8186SOL     OW36190   0.454   3.568   5.368  0.1008 -0.0985 -0.8985
 8186SOL    HW136191   0.441   3.659   5.395  1.9486 -0.4426  1.0691
 8186SOL    HW236192   0.379   3.557   5.309 -1.6007 -2.3076  1.6616
 8187SOL     OW36193   0.521   2.722   7.657 -0.4989 -0.1884 -0.3467
 8187SOL    HW136194   0.520   2.627   7.667  0.7211 -0.1582  0.0550
 8187SOL    HW236195   0.504   2.742   7.749  2.9114 -0.3474  0.3217
 8188SOL     OW36196   2.809   3.531   2.088  0.0870  0.0535 -0.1494
 8188SOL    HW136197   2.726   3.576   2.104  0.2905 -0.3701  2.0666
 8188SOL    HW236198   2.819   3.463   2.154  1.3532  1.4542  1.0986
 8189SOL     OW36199   3.199   3.100   6.922 -0.0940 -0.0061 -0.1469
 8189SOL    HW136200   3.212   3.006   6.936  0.5531  0.0643 -0.2580
 8189SOL    HW236201   3.109   3.108   6.954 -0.6765 -0.7446 -1.6353
 8190SOL     OW36202   2.927   2.814   7.986  0.3519 -0.2006  0.1376
 8190SOL    HW136203   2.901   2.760   7.912  0.0701  0.4091 -0.2064
 8190SOL    HW236204   2.857   2.878   7.979 -0.3229 -0.8814  0.7154
 8191SOL     OW36205   2.633   0.354   7.738  0.1593  0.6599  0.5882
 8191SOL    HW136206   2.661   0.404   7.661 -1.4264 -0.1386 -0.5039
 8191SOL    HW236207   2.636   0.418   7.809 -4.3167 -0.7331  2.0635
 8192SOL     OW36208   3.273   0.361   5.993 -0.0296  0.1550  0.0666
 8192SOL    HW136209   3.323   0.333   5.916 -0.2865  2.7088 -1.0140
 8192SOL    HW236210   3.214   0.287   5.999  1.0861 -0.7668 -0.2788
 8193SOL     OW36211   1.027   0.253   6.034  0.0295 -0.0908  0.4539
 8193SOL    HW136212   1.012   0.248   6.129  2.6539 -2.4622  0.7549
 8193SOL    HW236213   1.022   0.164   5.999  1.7138 -0.3172  0.7552
 8194SOL     OW36214   0.179   3.120   2.164  0.7549 -0.7025  0.0664
 8194SOL    HW136215   0.093   3.155   2.187  0.9783  1.4631 -2.4925
 8194SOL    HW236216   0.208   3.171   2.088 -1.7059  0.9155  0.2148
 8195SOL     OW36217   4.404   2.705   4.723 -0.1260 -0.1410 -0.6478
 8195SOL    HW136218   4.413   2.780   4.782  0.6457  0.2447 -1.2455
 8195SOL    HW236219   4.489   2.662   4.733  0.4565  1.1001 -0.2066
 8196SOL     OW36220   2.090   4.612   3.660 -0.4802  0.7865  0.2805
 8196SOL    HW136221   2.120   4.702   3.672 -1.8980  1.2742  0.1939
 8196SOL    HW236222   2.005   4.628   3.620 -0.1028  0.7020 -0.5660
 8197SOL     OW36223   2.511   0.248   9.634 -0.3949  0.1329  0.0936
 8197SOL    HW136224   2.450   0.246   9.708 -0.4776 -2.0913 -0.0393
 8197SOL    HW236225   2.590   0.197   9.654 -1.5832 -2.0888 -0.8568
 8198SOL     OW36226   4.381   3.817   3.756  0.4888  0.7156 -0.0239
 8198SOL    HW136227   4.389   3.830   3.661 -2.5449  2.5325 -0.0449
 8198SOL    HW236228   4.288   3.797   3.770 -0.0751  2.9749 -0.5075
 8199SOL     OW36229   2.805   3.387   6.693  0.0496  0.3740  0.2835
 8199SOL    HW136230   2.867   3.455   6.718  1.8842 -0.4837 -1.9396
 8199SOL    HW236231   2.734   3.401   6.756 -0.8756  2.7397 -1.2784
 8200SOL     OW36232   3.594   0.598   6.291 -0.0286  0.1949 -0.0106
 8200SOL    HW136233   3.598   0.503   6.291  0.0268  0.1977 -0.0050
 8200SOL    HW236234   3.637   0.623   6.373  0.2441 -0.7303  0.1263
 8201SOL     OW36235   2.336   3.580  17.553  0.3586  0.8307  0.2993
 8201SOL    HW136236   2.315   3.670  17.528 -0.1490  0.5350 -0.3463
 8201SOL    HW236237   2.357   3.576  17.647 -1.8136  2.0400  0.8340
 8202SOL     OW36238   0.595   3.939   6.205  0.1904 -0.7086  0.2230
 8202SOL    HW136239   0.528   3.976   6.148  0.3633 -0.2605  0.3097
 8202SOL    HW236240   0.651   3.893   6.143 -0.5981 -0.0229 -0.9962
 8203SOL     OW36241   3.808   2.988   7.014 -0.1886 -0.3999 -0.6530
 8203SOL    HW136242   3.846   2.910   6.973 -1.0577 -1.3691  0.3981
 8203SOL    HW236243   3.715   2.971   7.001 -0.5155  2.3226 -1.8684
 8204SOL     OW36244   0.564   4.662   4.235 -0.6750 -0.5646  0.9376
 8204SOL    HW136245   0.536   4.570   4.237  0.0391 -0.7847  1.0324
 8204SOL    HW236246   0.542   4.680   4.144 -1.1728 -2.2155  0.7319
 8205SOL     OW36247   1.288   2.160   5.007  0.3196  0.2431  0.3415
 8205SOL    HW136248   1.261   2.074   4.975 -0.9582  1.1438 -0.9623
 8205SOL    HW236249   1.209   2.213   5.016 -0.0992 -0.4664  0.8425
 8206SOL     OW36250   3.242   0.468   5.600  0.2256  0.9006 -0.1451
 8206SOL    HW136251   3.237   0.547   5.653  2.6503  0.8419  0.1667
 8206SOL    HW236252   3.275   0.396   5.654 -0.6385  1.3392  0.9672
 8207SOL     OW36253   4.725   2.893  17.696 -0.0801 -0.4240 -0.7212
 8207SOL    HW136254   0.022   2.828   0.022 -0.8617 -0.8285 -0.7556
 8207SOL    HW236255   4.632   2.903  17.718 -0.2752 -1.5852 -0.9822
 8208SOL     OW36256   2.605   0.773   8.605 -0.0515  0.1177 -0.1049
 8208SOL    HW136257   2.563   0.745   8.686  1.3151 -0.0451  0.5472
 8208SOL    HW236258   2.690   0.730   8.597 -0.4905 -1.3067  3.0865
 8209SOL     OW36259   0.488   1.333  12.367  0.1173 -0.3856 -0.5301
 8209SOL    HW136260   0.575   1.333  12.327 -0.2986  0.5021 -1.4341
 8209SOL    HW236261   0.495   1.401  12.434 -0.1212 -0.6497 -0.2379
 8210SOL     OW36262   2.208   4.199  15.770  0.0676 -0.0647 -0.4126
 8210SOL    HW136263   2.175   4.262  15.707 -3.2327 -0.0105  1.3812
 8210SOL    HW236264   2.220   4.252  15.849 -2.5109  1.4451 -1.0462
 8211SOL     OW36265   4.441   4.304   4.171 -0.3074  0.0889 -0.6292
 8211SOL    HW136266   4.383   4.242   4.214  3.3761 -3.8256 -1.3799
 8211SOL    HW236267   4.401   4.310   4.084 -0.8781 -0.6274 -0.4096
 8212SOL     OW36268   2.195   0.014   6.358  1.0400 -0.1664  0.7214
 8212SOL    HW136269   2.153   0.053   6.434 -0.2148  1.0014 -0.5779
 8212SOL    HW236270   2.287   0.019   6.384  0.6730 -0.0095  1.9660
 8213SOL     OW36271   4.646   3.074   7.292  0.3423 -0.2829  0.4483
 8213SOL    HW136272   4.655   3.039   7.380 -0.3326 -0.2708  0.5225
 8213SOL    HW236273   4.567   3.128   7.303  1.8671  1.9776  0.4750
 8214SOL     OW36274   2.238   0.783   1.474 -0.1014 -0.2380 -0.6110
 8214SOL    HW136275   2.180   0.812   1.543  2.2467  0.0653  1.2221
 8214SOL    HW236276   2.306   0.738   1.525 -2.2180 -0.0275  2.3415
 8215SOL     OW36277   0.053   0.079  12.289  0.1022  0.2427  0.4961
 8215SOL    HW136278   0.031   4.730  12.330 -2.5102  1.4658  1.6215
 8215SOL    HW236279   0.121   0.118  12.343  0.1216  1.2658 -0.2572
 8216SOL     OW36280   3.907   4.383   8.093  0.2003 -0.2198  0.2400
 8216SOL    HW136281   3.962   4.309   8.121 -0.1444 -0.5829 -0.0394
 8216SOL    HW236282   3.953   4.407   8.013 -1.0690  0.1465 -0.3751
 8217SOL     OW36283   1.031   0.260   8.137  0.1474 -0.0125 -0.8708
 8217SOL    HW136284   1.005   0.231   8.224  0.8729  0.6828 -0.4232
 8217SOL    HW236285   1.121   0.285   8.154 -0.9196  2.2674  1.4885
 8218SOL     OW36286   0.632   1.644   4.107  0.1040 -0.2183  0.9205
 8218SOL    HW136287   0.701   1.656   4.041 -0.1629  0.2416  0.7266
 8218SOL    HW236288   0.621   1.737   4.130  1.7552  0.5536 -1.3748
 8219SOL     OW36289   1.049   0.358   8.911  0.5206  0.3352  0.1283
 8219SOL    HW136290   1.034   0.437   8.963 -2.4969  0.7404 -1.3237
 8219SOL    HW236291   1.135   0.373   8.872 -0.1290  0.7345 -1.1720
 8220SOL     OW36292   2.714   1.813  12.536  0.4253  0.7286  0.3475
 8220SOL    HW136293   2.755   1.810  12.450  1.4126 -0.7652  0.8582
 8220SOL    HW236294   2.786   1.836  12.594  1.3131 -2.2686  0.4456
 8221SOL     OW36295   2.387   3.544   5.690 -0.5014 -0.0206  0.4944
 8221SOL    HW136296   2.435   3.560   5.771  0.1671  0.6108 -0.0315
 8221SOL    HW236297   2.365   3.635   5.672  0.3342  0.2824  0.9960
 8222SOL     OW36298   4.589   2.357  17.546 -0.5946 -0.3190 -1.0507
 8222SOL    HW136299   4.581   2.328  17.455  2.2337 -2.6402 -0.5432
 8222SOL    HW236300   4.532   2.434  17.539  0.7315  0.5697 -2.3088
 8223SOL     OW36301   3.374   1.061   2.992 -0.1870  1.2140 -0.1897
 8223SOL    HW136302   3.279   1.067   2.986 -0.3816  0.7786  2.2895
 8223SOL    HW236303   3.394   1.019   2.908 -1.9552 -2.2878  1.1507
 8224SOL     OW36304   0.149   1.993   2.692  0.3683 -0.2228  0.2754
 8224SOL    HW136305   0.078   1.959   2.745 -0.7030  2.8643  0.8194
 8224SOL    HW236306   0.216   1.925   2.691 -0.8782 -1.4455 -1.9467
 8225SOL     OW36307   0.943   4.584   7.071 -0.8482 -0.4828  0.1730
 8225SOL    HW136308   1.012   4.540   7.121 -2.2942 -1.0180  1.6878
 8225SOL    HW236309   0.948   4.669   7.115  0.3280 -1.4785  2.0004
 8226SOL     OW36310   0.275   3.167  12.278 -0.2980  0.1487  0.2378
 8226SOL    HW136311   0.292   3.257  12.306  0.4584  0.7754 -2.2613
 8226SOL    HW236312   0.297   3.118  12.358  0.4190 -0.4957 -0.3478
 8227SOL     OW36313   3.968   2.687  14.421 -0.0581  0.0392  0.3120
 8227SOL    HW136314   4.044   2.699  14.364 -0.3553 -1.1359 -0.3050
 8227SOL    HW236315   3.955   2.777  14.454 -2.3528 -0.0359 -0.4294
 8228SOL     OW36316   4.070   0.471  12.077 -0.0351  0.7080 -0.4814
 8228SOL    HW136317   4.080   0.558  12.117 -0.9179  1.1483 -1.2059
 8228SOL    HW236318   4.075   0.411  12.152  1.8689  1.7714  0.2569
 8229SOL     OW36319   3.697   0.652  13.294 -0.7257  0.2265 -0.0944
 8229SOL    HW136320   3.654   0.642  13.208  0.7921 -0.2408 -0.7987
 8229SOL    HW236321   3.772   0.706  13.269 -1.7353  1.7434  0.1827
 8230SOL     OW36322   0.050   4.022   5.267  0.7875  0.1425  0.3324
 8230SOL    HW136323   4.731   4.095   5.235 -0.6350 -0.7210  0.7046
 8230SOL    HW236324   0.072   3.976   5.187  2.1133  0.9057  0.2671
 8231SOL     OW36325   2.979   1.603  16.568 -0.2239  0.5578  0.1475
 8231SOL    HW136326   3.029   1.587  16.648  3.9654  0.4842 -2.4516
 8231SOL    HW236327   3.051   1.640  16.517  0.3462 -1.4093 -0.4913
 8232SOL     OW36328   0.627   4.509   5.698  0.2427 -0.0480  0.1888
 8232SOL    HW136329   0.575   4.514   5.618 -1.1437  1.2125  1.1761
 8232SOL    HW236330   0.594   4.582   5.749  1.3709 -1.0172  2.3128
 8233SOL     OW36331   3.168   1.507  16.763  0.1447  0.6886 -0.0943
 8233SOL    HW136332   3.233   1.469  16.703  0.6767 -0.0027  0.9325
 8233SOL    HW236333   3.223   1.539  16.834  0.9340  2.0663 -1.3404
 8234SOL     OW36334   4.704   2.678  11.434  0.7001 -0.0779  0.0569
 8234SOL    HW136335   4.670   2.688  11.523 -1.9244  0.6847 -1.0460
 8234SOL    HW236336   0.009   2.764  11.422  0.3493  0.2800  1.4720
 8235SOL     OW36337   0.125   3.470  16.507 -0.2653  0.1091 -1.1013
 8235SOL    HW136338   0.209   3.435  16.477  0.9352  2.2283 -0.2069
 8235SOL    HW236339   0.162   3.540  16.561  0.4215  0.7476 -2.3931
 8236SOL     OW36340   4.158   0.624   4.813 -0.6095 -0.3255  0.3743
 8236SOL    HW136341   4.108   0.572   4.751 -0.0934 -0.4449  0.0666
 8236SOL    HW236342   4.193   0.692   4.756 -1.5803  0.0592  0.2331
 8237SOL     OW36343   1.464   2.421   0.162  0.1353 -0.6544 -0.4877
 8237SOL    HW136344   1.429   2.336   0.189 -1.9863  0.8969  1.6822
 8237SOL    HW236345   1.475   2.414   0.067 -1.9130 -1.7320 -0.6571
 8238SOL     OW36346   2.474   4.460   6.220  0.8189 -0.2641 -0.0218
 8238SOL    HW136347   2.382   4.432   6.230 -0.4738  3.4097 -1.5981
 8238SOL    HW236348   2.500   4.488   6.308  1.3057  0.2135 -0.3164
 8239SOL     OW36349   1.482   3.883   5.581 -0.1312 -0.0248 -1.0106
 8239SOL    HW136350   1.477   3.971   5.618 -0.9222 -1.8934  3.2209
 8239SOL    HW236351   1.571   3.861   5.607 -0.4728  1.2730  1.2958
 8240SOL     OW36352   2.549   1.934   0.095 -0.1514 -0.1322 -0.0393
 8240SOL    HW136353   2.637   1.966   0.077 -0.4101 -1.5911 -3.8108
 8240SOL    HW236354   2.528   1.992   0.169  0.7603  0.9737 -0.6377
 8241SOL     OW36355   2.440   3.811   5.077  0.0409  0.1587  0.2307
 8241SOL    HW136356   2.484   3.865   5.142 -2.1642  1.9181  0.2624
 8241SOL    HW236357   2.462   3.850   4.993 -0.7156  0.3913  0.1377
 8242SOL     OW36358   0.375   1.744  12.090 -0.0842  0.2373 -0.7739
 8242SOL    HW136359   0.307   1.764  12.154  0.5685 -0.0798  0.0146
 8242SOL    HW236360   0.455   1.720  12.137 -0.8791  0.4361  0.6835
 8243SOL     OW36361   2.870   3.311   2.237 -0.2119  0.1278 -0.0074
 8243SOL    HW136362   2.889   3.323   2.330 -2.0081 -2.5364  0.6987
 8243SOL    HW236363   2.828   3.225   2.233 -0.9214  0.4901 -0.3587
 8244SOL     OW36364   3.943   2.874   5.817 -0.2455 -0.1395  0.5030
 8244SOL    HW136365   3.945   2.949   5.876 -0.7872 -0.1993  0.5981
 8244SOL    HW236366   3.992   2.899   5.738 -1.0789  1.7756  0.5918
 8245SOL     OW36367   0.623   0.862   7.812 -0.4925 -0.4795  0.0859
 8245SOL    HW136368   0.692   0.926   7.796 -1.2408  0.6558  1.4570
 8245SOL    HW236369   0.578   0.909   7.882 -1.5930 -1.0995 -0.1932
 8246SOL     OW36370   0.355   1.889   4.299  0.4486 -0.4685  0.0350
 8246SOL    HW136371   0.321   1.800   4.313  1.5304 -1.2165 -2.1132
 8246SOL    HW236372   0.438   1.901   4.345 -1.2083  0.8063  2.6975
 8247SOL     OW36373   0.595   2.082   8.330  0.2987  0.0307  0.2581
 8247SOL    HW136374   0.626   2.016   8.392  0.1720  0.0623  0.3539
 8247SOL    HW236375   0.663   2.075   8.263  0.8095  0.1768  0.7618
 8248SOL     OW36376   0.071   3.950   8.539 -0.1285 -0.1423 -0.6637
 8248SOL    HW136377   0.019   3.903   8.473  1.2246 -0.4362 -1.5292
 8248SOL    HW236378   0.108   4.015   8.479  2.2321 -1.6673 -0.8577
 8249SOL     OW36379   1.038   2.091   0.896  0.1692 -0.3871  0.3426
 8249SOL    HW136380   1.127   2.080   0.930 -0.8929 -4.9948  1.7710
 8249SOL    HW236381   1.037   2.181   0.865 -0.2493 -0.3980  0.3184
 8250SOL     OW36382   0.562   2.032   3.479 -0.8250  0.3647 -0.6240
 8250SOL    HW136383   0.614   1.952   3.477 -2.5831 -0.8046  0.6724
 8250SOL    HW236384   0.584   2.053   3.569  2.0178  1.4842 -1.5890
 8251SOL     OW36385   2.873   2.305  15.369 -0.0268 -0.0223 -0.2350
 8251SOL    HW136386   2.893   2.386  15.416  1.7343  1.0122 -2.7595
 8251SOL    HW236387   2.954   2.295  15.319 -0.9276  0.4976 -1.8139
 8252SOL     OW36388   1.132   2.173   6.893 -0.5988 -1.2006 -0.5061
 8252SOL    HW136389   1.100   2.182   6.983 -0.6756 -1.3328 -0.5192
 8252SOL    HW236390   1.062   2.216   6.846  0.5849 -0.0086 -1.1665
 8253SOL     OW36391   0.412   1.647  15.604 -0.0506  0.2075  0.0513
 8253SOL    HW136392   0.390   1.555  15.588  1.2047  0.2228 -1.7032
 8253SOL    HW236393   0.500   1.648  15.567  0.7624 -1.2820  1.9345
 8254SOL     OW36394   3.537   2.864   5.848  0.3694 -0.1123  0.2646
 8254SOL    HW136395   3.463   2.842   5.906  0.8303 -1.2209  0.4341
 8254SOL    HW236396   3.546   2.774   5.815  0.2957  0.4411 -1.2602
 8255SOL     OW36397   0.989   4.474   4.912 -0.3476  0.0634  0.4424
 8255SOL    HW136398   0.922   4.540   4.929 -0.7849 -0.9655  2.6542
 8255SOL    HW236399   0.952   4.419   4.843 -0.1467  0.1588  0.2587
 8256SOL     OW36400   2.920   2.699   3.117 -0.0530  0.0756  0.1999
 8256SOL    HW136401   2.986   2.643   3.158 -1.4891 -1.0211  0.9914
 8256SOL    HW236402   2.853   2.632   3.106 -0.0854  0.1341  0.0373
 8257SOL     OW36403   1.740   2.686  16.505  0.6115  0.2671 -0.4393
 8257SOL    HW136404   1.731   2.768  16.456 -0.9202  0.1313 -0.3797
 8257SOL    HW236405   1.743   2.617  16.439 -2.4555 -0.0671 -0.2390
 8258SOL     OW36406   2.427   4.586   9.688 -0.3817 -0.5208 -0.2551
 8258SOL    HW136407   2.371   4.565   9.763 -0.8794  0.6898 -0.2853
 8258SOL    HW236408   2.397   4.668   9.650  1.7927  0.4068  0.0370
 8259SOL     OW36409   1.800   0.316  12.428  0.4022  0.2190  0.7113
 8259SOL    HW136410   1.809   0.269  12.511 -3.2815 -0.7161  0.6006
 8259SOL    HW236411   1.712   0.351  12.444  1.2619  1.7598  2.1162
 8260SOL     OW36412   3.913   0.004  16.194  0.3197 -0.2671 -0.0861
 8260SOL    HW136413   4.008   0.001  16.187  0.3206 -0.9184  0.1516
 8260SOL    HW236414   3.908   0.050  16.278 -0.3349  1.4969 -1.0875
 8261SOL     OW36415   2.689   0.113  15.256 -1.0545  0.1887  0.2785
 8261SOL    HW136416   2.601   0.083  15.232 -1.2015 -0.9209  2.2608
 8261SOL    HW236417   2.723   0.052  15.321 -0.6055 -1.0311 -1.0789
 8262SOL     OW36418   0.784   4.014   8.503 -0.4674 -0.4250 -0.6047
 8262SOL    HW136419   0.722   4.080   8.472 -0.0522 -0.6925 -1.9870
 8262SOL    HW236420   0.769   4.019   8.597 -0.4536  0.4738 -0.6506
 8263SOL     OW36421   1.619   3.233   2.183 -0.4110 -0.5255  0.0245
 8263SOL    HW136422   1.589   3.307   2.130 -0.0048 -1.2902 -1.2709
 8263SOL    HW236423   1.594   3.266   2.269 -0.5727  2.9635 -1.3522
 8264SOL     OW36424   4.419   4.461   3.792 -0.2503  0.0770  0.1111
 8264SOL    HW136425   4.386   4.506   3.714  1.1877 -1.3145 -1.3039
 8264SOL    HW236426   4.400   4.522   3.863  0.6221  1.8973 -1.2211
 8265SOL     OW36427   0.147   0.392   3.244  0.5922  0.2058  0.1603
 8265SOL    HW136428   0.100   0.475   3.246 -0.1553 -0.2475  1.3680
 8265SOL    HW236429   0.228   0.416   3.290  0.8854 -1.4806  0.5320
 8266SOL     OW36430   3.503   1.258  17.692  0.5848  0.1245 -0.0401
 8266SOL    HW136431   3.520   1.218   0.041 -0.8222 -1.6255 -0.5885
 8266SOL    HW236432   3.488   1.345  17.728  1.6923  0.0909  0.5029
 8267SOL     OW36433   4.005   2.037   5.923  0.7335 -0.5644  0.3506
 8267SOL    HW136434   3.939   1.968   5.927  0.9246 -0.6026  2.5865
 8267SOL    HW236435   4.002   2.070   6.013 -1.7731 -0.4889  0.2553
 8268SOL     OW36436   1.034   3.398   2.984  0.1598  0.1705 -0.0409
 8268SOL    HW136437   1.075   3.373   2.901 -1.9572  0.3779 -1.1644
 8268SOL    HW236438   1.092   3.362   3.051 -1.6223 -2.1226  0.2878
 8269SOL     OW36439   4.110   2.396  16.660 -0.4808 -0.2109 -0.6131
 8269SOL    HW136440   4.087   2.305  16.640 -4.2814  0.7619 -0.7066
 8269SOL    HW236441   4.146   2.420  16.575  1.8390 -1.1460  0.0933
 8270SOL     OW36442   4.713   2.062   8.685 -0.1951 -0.8299  0.3045
 8270SOL    HW136443   0.054   2.089   8.632 -1.6327  0.7060 -0.9896
 8270SOL    HW236444   4.653   2.136   8.676  2.5841  1.4718  0.6419
 8271SOL     OW36445   2.782   4.727   6.427  0.5606  0.2120 -0.0760
 8271SOL    HW136446   2.845   4.677   6.375 -0.4622 -2.5444  1.3054
 8271SOL    HW236447   2.823   4.729   6.514 -0.4006 -0.5646  0.3977
 8272SOL     OW36448   4.218   0.124   4.141 -0.6168  0.6597 -0.3638
 8272SOL    HW136449   4.152   0.088   4.081 -0.7230  0.0930  0.0915
 8272SOL    HW236450   4.268   0.046   4.166 -3.3461 -0.6597  1.0285
 8273SOL     OW36451   2.602   0.820   9.630  0.1829 -0.5704 -0.2457
 8273SOL    HW136452   2.601   0.725   9.621  3.3397 -0.5592 -0.6336
 8273SOL    HW236453   2.662   0.825   9.704 -0.9195 -0.9494  0.6735
 8274SOL     OW36454   4.023   4.284   4.111  0.1216  0.5288 -0.1393
 8274SOL    HW136455   4.012   4.337   4.190  0.7184 -1.0673  1.0278
 8274SOL    HW236456   3.933   4.276   4.081  0.8529 -1.3858 -1.7773
 8275SOL     OW36457   1.300   3.765  15.933 -0.8291  0.2667 -0.4218
 8275SOL    HW136458   1.283   3.813  15.851  1.8958  0.2332 -1.0201
 8275SOL    HW236459   1.358   3.699  15.896 -1.1924 -0.4667  0.3261
 8276SOL     OW36460   0.013   2.372   8.339 -0.3364 -0.6792  0.1882
 8276SOL    HW136461   0.098   2.347   8.301  0.7195  1.4572  1.1476
 8276SOL    HW236462   0.025   2.467   8.341 -3.0637 -0.3326  0.0225
 8277SOL     OW36463   4.236   2.238  13.870 -0.1995  0.2157 -0.2067
 8277SOL    HW136464   4.159   2.214  13.923  0.5385 -0.9384  0.3477
 8277SOL    HW236465   4.308   2.195  13.915 -1.1007  0.1135  1.1437
 8278SOL     OW36466   3.939   2.623   1.892 -0.1113 -0.6193  0.1594
 8278SOL    HW136467   3.966   2.550   1.947 -0.3524 -1.7741 -1.2521
 8278SOL    HW236468   3.947   2.598   1.800  0.1460  2.6557 -0.7008
 8279SOL     OW36469   0.519   1.489   9.658  0.7033 -0.3169  0.1288
 8279SOL    HW136470   0.462   1.521   9.727  0.4628 -0.0718 -0.1866
 8279SOL    HW236471   0.542   1.577   9.628 -0.0909 -0.2872 -0.3760
 8280SOL     OW36472   0.698   0.071   2.087 -0.0803  0.7048 -0.1669
 8280SOL    HW136473   0.668   0.006   2.150  0.2632  0.5182 -0.1948
 8280SOL    HW236474   0.632   0.139   2.095  1.6069  2.6204 -2.5527
 8281SOL     OW36475   4.175   4.162  15.987  0.0915  0.3859  0.4738
 8281SOL    HW136476   4.261   4.167  16.029  1.0595 -0.0578 -1.4607
 8281SOL    HW236477   4.182   4.092  15.922  0.2893 -0.2982  1.2310
 8282SOL     OW36478   0.477   1.704  13.072 -0.7339  0.1681  0.2530
 8282SOL    HW136479   0.553   1.724  13.017 -1.1733  0.3149 -0.2970
 8282SOL    HW236480   0.520   1.671  13.152  0.7554  1.7548  0.1159
 8283SOL     OW36481   3.176   0.563   8.086 -0.4151 -0.3677 -0.9469
 8283SOL    HW136482   3.254   0.530   8.131 -0.5116  1.1677  0.3508
 8283SOL    HW236483   3.143   0.494   8.028 -1.1957 -0.3693 -0.4953
 8284SOL     OW36484   4.182   3.318   8.819  0.1305  0.0821 -0.7944
 8284SOL    HW136485   4.106   3.274   8.858  0.5216  0.7033  0.6686
 8284SOL    HW236486   4.170   3.281   8.732  1.1467  0.4390 -1.0861
 8285SOL     OW36487   0.780   0.474   6.199  0.2838 -0.4941  0.3339
 8285SOL    HW136488   0.764   0.390   6.242  0.1601 -0.2904  0.6830
 8285SOL    HW236489   0.857   0.505   6.248 -0.4437  0.5453  0.8085
 8286SOL     OW36490   1.988   2.797  13.149 -0.0474  0.0030 -0.4586
 8286SOL    HW136491   1.900   2.800  13.112  0.2129 -0.8904 -1.1556
 8286SOL    HW236492   1.992   2.708  13.184 -0.1011  0.3895  0.5384
 8287SOL     OW36493   0.690   2.960   5.721  0.5809  0.3601 -0.7770
 8287SOL    HW136494   0.737   2.899   5.664  1.7708  0.5124  0.0337
 8287SOL    HW236495   0.622   2.986   5.658 -0.2740  1.6762  0.6861
 8288SOL     OW36496   0.312   3.696   6.409 -0.5514  0.0248  0.3037
 8288SOL    HW136497   0.309   3.733   6.321  0.3640 -0.5006  0.0503
 8288SOL    HW236498   0.330   3.769   6.468 -0.0225 -0.6008  0.9235
 8289SOL     OW36499   0.072   3.220   3.301 -0.3118 -0.1618 -0.1756
 8289SOL    HW136500   4.732   3.270   3.269 -0.1732  0.8296  1.0420
 8289SOL    HW236501   0.054   3.211   3.394 -0.6962  1.2353 -0.1262
 8290SOL     OW36502   3.430   3.491   8.005 -0.1741 -0.3273  0.1117
 8290SOL    HW136503   3.443   3.581   8.034  2.4872 -0.3879 -0.8552
 8290SOL    HW236504   3.482   3.480   7.925 -2.2521  2.5430 -1.6292
 8291SOL     OW36505   1.706   0.521   2.450 -0.4064 -0.0400 -0.1599
 8291SOL    HW136506   1.656   0.463   2.507  0.3321  0.6304  1.1525
 8291SOL    HW236507   1.738   0.570   2.525 -0.6614 -0.7211  0.3971
 8292SOL     OW36508   2.277   0.229  16.528 -0.4422  0.1034  0.2232
 8292SOL    HW136509   2.269   0.168  16.601 -0.5070  0.7870  0.7819
 8292SOL    HW236510   2.239   0.177  16.456 -1.5007  0.3403  0.6111
 8293SOL     OW36511   3.068   4.636  17.421  0.5175 -0.2680 -0.4358
 8293SOL    HW136512   3.023   4.720  17.433 -0.2442 -0.5857 -1.0083
 8293SOL    HW236513   3.087   4.643  17.328 -1.7738  1.8547 -0.7327
 8294SOL     OW36514   4.056   3.042   2.796 -0.0226 -0.6723  0.1025
 8294SOL    HW136515   4.044   3.032   2.702  0.3304  2.2872 -0.2710
 8294SOL    HW236516   4.053   2.952   2.828 -2.1624 -0.2774  0.9941
 8295SOL     OW36517   4.640   4.619  16.235 -0.0115 -0.0808  0.4562
 8295SOL    HW136518   4.692   4.586  16.308  1.3730  0.8427 -0.1300
 8295SOL    HW236519   4.551   4.590  16.255 -0.5011 -0.3497 -2.0733
 8296SOL     OW36520   0.492   1.274   3.185  0.4959  0.0864  0.0997
 8296SOL    HW136521   0.444   1.192   3.177  2.0838 -0.9985  1.5479
 8296SOL    HW236522   0.442   1.314   3.256  0.6204  0.4630 -0.0277
 8297SOL     OW36523   0.213   0.866   7.946  0.5719  0.0011  0.2555
 8297SOL    HW136524   0.122   0.838   7.957  0.7753 -0.9295 -0.4717
 8297SOL    HW236525   0.216   0.899   7.856  1.1943  0.8140  0.5848
 8298SOL     OW36526   1.803   4.063  12.358  0.1798  0.2804 -0.4056
 8298SOL    HW136527   1.713   4.032  12.365  0.5267 -0.5866  0.2399
 8298SOL    HW236528   1.840   4.001  12.295 -0.1948  0.4583 -0.7923
 8299SOL     OW36529   4.557   0.693   7.587 -0.3748 -0.2245  0.0230
 8299SOL    HW136530   4.623   0.638   7.545  0.3802  0.3610  0.4539
 8299SOL    HW236531   4.528   0.625   7.649 -1.1762  2.2485  2.3358
 8300SOL     OW36532   4.225   1.974  12.488  0.4281  0.5284  0.4203
 8300SOL    HW136533   4.180   2.015  12.561 -0.1678  0.8070 -0.1032
 8300SOL    HW236534   4.206   2.033  12.414  0.3329  0.5996  0.5014
 8301SOL     OW36535   1.267   4.343   2.708  0.2283 -0.1998  0.0659
 8301SOL    HW136536   1.186   4.347   2.759  2.3891  1.5668  3.3179
 8301SOL    HW236537   1.259   4.258   2.664 -0.6760  0.1290 -0.4144
 8302SOL     OW36538   3.440   3.719   4.741 -0.3091 -0.1124 -0.4835
 8302SOL    HW136539   3.471   3.735   4.652  2.0778 -0.8848  0.2254
 8302SOL    HW236540   3.354   3.761   4.731 -0.1538  0.2448 -0.3196
 8303SOL     OW36541   4.413   4.070   9.329  0.0896 -0.4485  0.5627
 8303SOL    HW136542   4.472   4.016   9.382  0.0314 -2.1030 -1.0596
 8303SOL    HW236543   4.485   4.122   9.293  0.6656  0.0424  2.4216
 8304SOL     OW36544   2.618   1.364   3.718 -0.7866  0.0942  0.1466
 8304SOL    HW136545   2.709   1.335   3.728 -1.0329 -0.3908  0.9577
 8304SOL    HW236546   2.609   1.404   3.804 -0.0987  2.1987 -0.7553
 8305SOL     OW36547   2.852   3.144   2.992  0.6540 -0.0246  0.1552
 8305SOL    HW136548   2.852   3.048   2.983  0.0090  0.1217 -1.2746
 8305SOL    HW236549   2.761   3.170   2.998 -0.1620 -2.9404  0.5120
 8306SOL     OW36550   3.409   4.235   0.591  0.6277 -0.5376  0.0516
 8306SOL    HW136551   3.448   4.250   0.677  1.9352 -1.4885 -0.3735
 8306SOL    HW236552   3.410   4.322   0.553  0.2613 -0.6807 -0.2828
 8307SOL     OW36553   3.258   2.732  13.018 -0.2864  0.0109 -0.3801
 8307SOL    HW136554   3.242   2.699  12.930 -0.7919 -0.2426 -0.1983
 8307SOL    HW236555   3.193   2.682  13.067 -0.9118 -0.0721 -1.2995
 8308SOL     OW36556   4.555   1.386   5.273 -0.1099 -0.1631 -0.2143
 8308SOL    HW136557   4.561   1.295   5.301 -0.9329 -0.3209 -0.5432
 8308SOL    HW236558   4.470   1.387   5.228  0.1446  1.4321 -0.6721
 8309SOL     OW36559   2.758   0.752   2.180 -0.3622  0.1942  0.1735
 8309SOL    HW136560   2.753   0.846   2.159 -2.1571  0.4255  1.6017
 8309SOL    HW236561   2.843   0.747   2.223 -0.4546  1.5584  0.5072
 8310SOL     OW36562   0.092   0.800   4.188 -0.2736 -0.1146  0.1516
 8310SOL    HW136563   0.035   0.849   4.247 -2.5569 -0.4455 -1.7691
 8310SOL    HW236564   0.106   0.873   4.128 -1.1186 -0.5150 -0.5291
 8311SOL     OW36565   2.695   1.869   8.378 -0.5640  0.7040  0.3150
 8311SOL    HW136566   2.713   1.888   8.286 -1.5414 -0.6293 -0.1601
 8311SOL    HW236567   2.601   1.885   8.376 -0.4906  1.0048 -0.8377
 8312SOL     OW36568   0.779   1.555   9.388  0.1448  0.2841  0.0041
 8312SOL    HW136569   0.805   1.466   9.364 -0.3696 -0.1980  1.2049
 8312SOL    HW236570   0.689   1.544   9.420 -0.6048  1.1759 -1.8223
 8313SOL     OW36571   0.231   1.114   8.104 -0.0128 -0.3120  0.3627
 8313SOL    HW136572   0.244   1.167   8.025 -1.0891  1.1542  1.1946
 8313SOL    HW236573   0.227   1.028   8.061  0.2874 -0.4182  0.5467
 8314SOL     OW36574   0.662   0.587   4.581 -0.7844  0.5248  0.1881
 8314SOL    HW136575   0.699   0.526   4.646 -1.0630 -0.8070 -0.9025
 8314SOL    HW236576   0.574   0.552   4.565  0.0115 -1.6672  0.5120
 8315SOL     OW36577   4.712   3.701   4.610 -0.1387 -0.2343 -0.3680
 8315SOL    HW136578   0.002   3.709   4.518 -1.5387  1.9572 -0.5293
 8315SOL    HW236579   4.616   3.697   4.608 -0.1603  0.4687 -0.7096
 8316SOL     OW36580   2.298   0.750   2.624  0.3335 -0.6696  0.4453
 8316SOL    HW136581   2.294   0.688   2.551  0.3947  0.2627 -0.3468
 8316SOL    HW236582   2.367   0.808   2.592  0.9261 -1.1395  0.8647
 8317SOL     OW36583   2.714   0.102   9.705  0.0638  0.0582 -0.0902
 8317SOL    HW136584   2.697   0.022   9.756  0.7252  0.6488  1.0560
 8317SOL    HW236585   2.803   0.084   9.676  0.4497  2.4205 -0.3072
 8318SOL     OW36586   0.065   2.992  15.148 -0.1555  0.2960  0.7713
 8318SOL    HW136587   0.146   2.951  15.115  0.3367 -1.6056  4.2059
 8318SOL    HW236588   0.049   3.048  15.073  1.9851  0.2077  0.2301
 8319SOL     OW36589   4.049   0.169  16.015  0.0791  0.3524  0.1119
 8319SOL    HW136590   3.959   0.136  16.022 -0.0169  1.4048  3.7388
 8319SOL    HW236591   4.090   0.131  16.093 -1.6947 -1.8140  0.0086
 8320SOL     OW36592   4.242   1.757   2.990 -0.0636 -0.1646  0.0647
 8320SOL    HW136593   4.173   1.794   3.045 -0.0373 -0.3903  0.2481
 8320SOL    HW236594   4.209   1.763   2.901 -0.3870 -0.0148  0.1947
 8321SOL     OW36595   2.002   0.429  11.776 -0.3640 -0.4468 -0.7448
 8321SOL    HW136596   1.996   0.516  11.737  2.6010 -0.3548 -0.9575
 8321SOL    HW236597   1.979   0.445  11.868  2.1257  0.7926 -0.3373
 8322SOL     OW36598   1.557   3.728   9.297  0.5069 -0.0202  0.4533
 8322SOL    HW136599   1.535   3.756   9.385  0.3082  0.1814  0.3404
 8322SOL    HW236600   1.467   3.706   9.271  0.0244  0.7061  1.5181
 8323SOL     OW36601   2.522   3.279   5.883 -0.0491  0.1831  0.2537
 8323SOL    HW136602   2.586   3.277   5.954  0.1121 -1.3717  0.0661
 8323SOL    HW236603   2.444   3.300   5.935 -0.7166 -1.5647 -0.0474
 8324SOL     OW36604   0.216   1.000   5.962  0.6941  0.6757 -0.3742
 8324SOL    HW136605   0.227   0.959   5.876  0.6118  2.5229 -1.2753
 8324SOL    HW236606   0.284   0.945   6.001  0.8155  0.2011 -1.2480
 8325SOL     OW36607   4.233   3.481  17.537  0.3339  0.2649 -0.7331
 8325SOL    HW136608   4.265   3.391  17.539 -0.6748 -0.1103 -1.1917
 8325SOL    HW236609   4.172   3.484  17.611 -0.8585 -0.6063 -1.6730
 8326SOL     OW36610   0.318   4.394   6.395  0.6817 -0.1932 -0.2859
 8326SOL    HW136611   0.239   4.421   6.441 -0.0449  0.4379 -1.9279
 8326SOL    HW236612   0.381   4.432   6.456 -0.0773 -0.0027  0.3826
 8327SOL     OW36613   3.200   3.346  11.504 -0.1476  0.2811 -0.3622
 8327SOL    HW136614   3.295   3.338  11.494 -0.1154  2.3520 -1.6117
 8327SOL    HW236615   3.197   3.426  11.557 -0.9229  0.6502 -0.9642
 8328SOL     OW36616   2.172   0.369  12.209 -0.1810  0.1431  0.6055
 8328SOL    HW136617   2.218   0.314  12.147  0.4003  0.8940  0.3626
 8328SOL    HW236618   2.179   0.328  12.296  0.4036 -0.4891  0.2604
 8329SOL     OW36619   2.401   4.639   6.698 -0.8445  0.0688  0.3627
 8329SOL    HW136620   2.353   4.712   6.660  1.2041  1.8869  1.2353
 8329SOL    HW236621   2.415   4.577   6.627  0.6759  0.5471  0.2440
 8330SOL     OW36622   1.579   1.713   0.689 -0.2671  0.0783 -0.0702
 8330SOL    HW136623   1.651   1.663   0.728  1.2397  3.7215  1.8561
 8330SOL    HW236624   1.598   1.724   0.595 -0.8291  0.5651 -0.1278
 8331SOL     OW36625   4.128   1.385   4.371 -0.7309 -0.0784  0.3169
 8331SOL    HW136626   4.115   1.401   4.277  0.8445 -2.3304 -0.2890
 8331SOL    HW236627   4.079   1.460   4.404 -0.8042 -0.2627  0.6322
 8332SOL     OW36628   4.023   3.360   4.875 -0.3834 -0.5100 -0.0511
 8332SOL    HW136629   4.093   3.310   4.917 -0.4321 -0.5446 -0.0116
 8332SOL    HW236630   4.014   3.325   4.787  1.6256 -3.2077  0.8266
 8333SOL     OW36631   4.501   4.660   4.528  0.2372 -0.1927  0.5218
 8333SOL    HW136632   4.508   4.691   4.437 -0.1928  1.8394  1.1751
 8333SOL    HW236633   4.592   4.664   4.557 -0.0618 -0.0626  1.4386
 8334SOL     OW36634   4.159   1.869   7.785  0.5670 -0.0561 -0.5248
 8334SOL    HW136635   4.120   1.956   7.794  3.1785  1.0407  0.4177
 8334SOL    HW236636   4.160   1.857   7.691 -0.1495  2.4839 -0.8609
 8335SOL     OW36637   2.638   1.597   6.919 -0.2296 -0.1008 -0.3429
 8335SOL    HW136638   2.709   1.553   6.965  0.1856  1.9603  0.9416
 8335SOL    HW236639   2.684   1.652   6.855  1.2005 -1.7517 -0.7312
 8336SOL     OW36640   4.264   2.994   7.925  0.2221 -0.2366 -0.0519
 8336SOL    HW136641   4.358   3.003   7.905 -0.3150  2.1382 -1.4787
 8336SOL    HW236642   4.234   2.945   7.848 -0.7996  0.4980 -0.1222
 8337SOL     OW36643   0.157   1.315   7.235 -0.1050  0.5097 -0.0203
 8337SOL    HW136644   0.213   1.338   7.310  1.2923  1.0896 -1.2561
 8337SOL    HW236645   0.164   1.390   7.177  0.9376  0.9084  0.6156
 8338SOL     OW36646   4.239   1.931   4.597  0.0739 -0.6110 -0.3337
 8338SOL    HW136647   4.316   1.965   4.552 -0.6270  0.7273 -0.5191
 8338SOL    HW236648   4.183   2.008   4.588  0.8757 -0.1416 -1.2882
 8339SOL     OW36649   4.276   2.880   6.690  0.2602 -0.3826 -0.0446
 8339SOL    HW136650   4.216   2.921   6.753  1.0969  0.1236  0.4274
 8339SOL    HW236651   4.360   2.880   6.736 -0.4669  1.6610  1.3200
 8340SOL     OW36652   4.507   4.181   2.793  0.3799 -0.2797  0.7432
 8340SOL    HW136653   4.475   4.093   2.813 -2.3142  0.7331  0.8715
 8340SOL    HW236654   4.560   4.199   2.871  1.1723 -0.0600  0.1445
 8341SOL     OW36655   1.789   1.944  17.682 -0.1475 -0.1178 -0.3758
 8341SOL    HW136656   1.790   2.035  17.654  2.3282 -0.4549 -1.3467
 8341SOL    HW236657   1.698   1.940  17.653 -0.5491 -1.9420  1.1193
 8342SOL     OW36658   2.330   2.188   0.919  0.1965  0.2284  0.4167
 8342SOL    HW136659   2.315   2.118   0.855  3.5497  0.6464 -0.8341
 8342SOL    HW236660   2.371   2.257   0.867 -1.3574  0.4474 -0.5000
 8343SOL     OW36661   0.383   4.613   6.650  0.1080 -0.6940 -0.1455
 8343SOL    HW136662   0.433   4.660   6.717  0.5789 -1.9421  0.3834
 8343SOL    HW236663   0.297   4.618   6.692  2.0769  0.1967  3.7620
 8344SOL     OW36664   0.596   2.337   1.831  0.4038 -0.3226 -0.5655
 8344SOL    HW136665   0.599   2.372   1.920 -0.7719 -2.9936  0.5003
 8344SOL    HW236666   0.670   2.276   1.826  0.4212 -0.1560 -2.2060
 8345SOL     OW36667   4.641   3.910   2.556 -0.1465  0.0396 -0.2502
 8345SOL    HW136668   4.607   3.830   2.516  0.9798 -1.1476  1.1757
 8345SOL    HW236669   4.674   3.959   2.481  0.1642  0.2142  0.0041
 8346SOL     OW36670   1.119   1.228   1.480  0.7327 -0.4673 -0.1787
 8346SOL    HW136671   1.161   1.254   1.562  1.6503 -0.5815 -0.6110
 8346SOL    HW236672   1.027   1.231   1.508  1.0226  0.2223  0.7359
 8347SOL     OW36673   4.421   2.091   8.003 -0.4118  0.2025 -0.7630
 8347SOL    HW136674   4.469   2.027   7.949 -1.4298  0.0451 -1.4706
 8347SOL    HW236675   4.498   2.134   8.039  0.1164 -0.9756 -0.4787
 8348SOL     OW36676   2.128   4.189   6.058 -0.0998  0.1590  0.0732
 8348SOL    HW136677   2.038   4.217   6.074  0.0380  0.2063  0.7510
 8348SOL    HW236678   2.114   4.097   6.037 -1.4719  0.5217 -0.6159
 8349SOL     OW36679   0.086   2.646   4.465 -0.9994 -0.5292  0.5172
 8349SOL    HW136680   0.066   2.573   4.407  1.6005 -0.4270 -0.4969
 8349SOL    HW236681   0.172   2.666   4.429 -2.0421  1.7328 -0.6733
 8350SOL     OW36682   0.530   0.701   3.402 -0.3025 -0.6342  0.4295
 8350SOL    HW136683   0.571   0.750   3.331 -1.8886 -0.0923 -0.1085
 8350SOL    HW236684   0.443   0.676   3.370 -1.6320  1.9196  2.0136
 8351SOL     OW36685   3.259   1.399   8.159  0.0913 -0.0097 -0.4321
 8351SOL    HW136686   3.229   1.335   8.094  1.1999  1.4893 -2.4170
 8351SOL    HW236687   3.233   1.483   8.121 -0.4691  0.1717  0.3496
 8352SOL     OW36688   0.909   1.291   4.936  0.2012 -0.0039 -0.3295
 8352SOL    HW136689   0.937   1.275   4.846 -0.7106 -3.1035 -0.0578
 8352SOL    HW236690   0.999   1.281   4.968  0.2116  1.3805  0.0704
 8353SOL     OW36691   3.371   1.899   2.034 -0.3013 -0.1183 -0.0600
 8353SOL    HW136692   3.325   1.935   1.958  1.6154 -0.9098 -1.6038
 8353SOL    HW236693   3.360   1.805   2.020 -0.5893  0.0107 -0.7104
 8354SOL     OW36694   3.649   0.898   3.129  0.6075 -0.0588  0.3732
 8354SOL    HW136695   3.557   0.880   3.149  0.2688 -0.6645 -1.6518
 8354SOL    HW236696   3.666   0.807   3.102  0.9718  1.1522 -3.4852
 8355SOL     OW36697   4.676   3.274   8.662 -0.2156  0.3360 -0.0488
 8355SOL    HW136698   0.021   3.289   8.610 -0.0297 -0.6714 -0.0653
 8355SOL    HW236699   4.714   3.229   8.737  1.0331  1.0670 -0.2389
 8356SOL     OW36700   1.165   2.692   6.501  0.1182  0.1106 -0.0971
 8356SOL    HW136701   1.162   2.711   6.408 -0.8717  0.2476 -0.0320
 8356SOL    HW236702   1.233   2.758   6.519 -1.1631  1.1893  0.8326
 8357SOL     OW36703   3.757   3.114   4.803  0.5051 -0.5260  0.4145
 8357SOL    HW136704   3.808   3.081   4.877 -1.6049 -0.2814  1.9689
 8357SOL    HW236705   3.811   3.170   4.747 -0.5102  1.1785  1.1679
 8358SOL     OW36706   3.794   4.435  15.815 -0.0208 -0.2797  0.2214
 8358SOL    HW136707   3.880   4.394  15.815 -0.3187 -0.9053  0.2194
 8358SOL    HW236708   3.804   4.508  15.876 -0.4591 -0.5872  0.6651
 8359SOL     OW36709   2.768   0.446   5.594  0.4326 -0.0832  0.4143
 8359SOL    HW136710   2.739   0.367   5.641  4.2819 -1.5948  0.2386
 8359SOL    HW236711   2.850   0.409   5.561  0.3259 -0.7394  0.8762
 8360SOL     OW36712   2.749   2.535  12.043  0.3260  0.7975 -0.3029
 8360SOL    HW136713   2.758   2.618  11.996 -0.7064  0.1562 -1.6402
 8360SOL    HW236714   2.828   2.486  12.019 -0.6470 -0.3725 -1.1143
 8361SOL     OW36715   0.022   1.936  11.941 -0.4390  0.0090  0.3053
 8361SOL    HW136716   4.671   1.976  11.924 -1.3086 -1.2873  1.6834
 8361SOL    HW236717   0.000   1.872  12.008 -2.2723 -1.0390 -1.2889
 8362SOL     OW36718   3.627   2.281   0.102 -0.4081 -0.9609 -0.3706
 8362SOL    HW136719   3.686   2.222   0.149  3.2794  3.6531  0.8327
 8362SOL    HW236720   3.624   2.341   0.177 -0.7139 -0.6077 -0.6644
 8363SOL     OW36721   2.404   3.406   9.430  0.5268 -0.2712  0.3194
 8363SOL    HW136722   2.381   3.318   9.458 -2.0603  0.0436 -0.7989
 8363SOL    HW236723   2.468   3.400   9.359  0.2700  0.5139  0.0142
 8364SOL     OW36724   0.103   0.036  17.240  0.0989  0.0913  0.3813
 8364SOL    HW136725   0.107   0.060  17.147 -1.6932 -3.4222 -0.6018
 8364SOL    HW236726   0.055   0.114  17.270 -1.6443 -0.6042 -0.6167
 8365SOL     OW36727   4.455   1.713   5.466 -0.2352  0.6023 -0.0306
 8365SOL    HW136728   4.535   1.661   5.464 -0.2175  0.6195  0.3500
 8365SOL    HW236729   4.386   1.663   5.422  0.0640  1.3655 -1.3592
 8366SOL     OW36730   3.826   0.598  13.552  0.1729  0.0793  0.5275
 8366SOL    HW136731   3.922   0.609  13.553  0.4208 -2.2197  1.8523
 8366SOL    HW236732   3.807   0.620  13.460 -1.7158  0.6650  1.0740
 8367SOL     OW36733   1.656   4.223  16.057  0.5570  0.0265  0.2349
 8367SOL    HW136734   1.652   4.221  16.153  2.7330  2.1897  0.3798
 8367SOL    HW236735   1.571   4.186  16.035  1.1363 -0.7734 -0.6612
 8368SOL     OW36736   4.150   3.149   8.109  0.6600  0.0657 -0.2614
 8368SOL    HW136737   4.147   3.067   8.159  2.5062  1.8938  2.8594
 8368SOL    HW236738   4.186   3.116   8.027  0.9736 -1.0469  0.3238
 8369SOL     OW36739   0.154   2.845   3.961 -0.0285 -0.3125 -0.2699
 8369SOL    HW136740   0.185   2.900   3.889  0.8999  2.6968  2.4245
 8369SOL    HW236741   0.074   2.897   3.964 -1.3814 -2.5319  2.6766
 8370SOL     OW36742   1.188   4.060   9.938  0.2363  0.5997 -0.8462
 8370SOL    HW136743   1.224   4.032  10.022 -0.3659  0.7894 -0.5207
 8370SOL    HW236744   1.152   3.977   9.906 -2.3746  2.0195 -1.5976
 8371SOL     OW36745   2.231   3.169   2.510  0.1789  0.1647  0.1956
 8371SOL    HW136746   2.303   3.136   2.563  0.1520 -0.4799 -0.1730
 8371SOL    HW236747   2.237   3.121   2.427  0.8584 -1.2444  1.0663
 8372SOL     OW36748   1.189   3.983   5.719  0.3780 -0.1280  0.1265
 8372SOL    HW136749   1.250   4.016   5.786  1.1145 -0.7695 -0.2300
 8372SOL    HW236750   1.221   3.895   5.699 -1.8102 -0.6055 -1.1748
 8373SOL     OW36751   1.332   2.284   5.572  0.2688 -0.1358  0.7226
 8373SOL    HW136752   1.263   2.350   5.565  0.6926  0.1793 -0.5144
 8373SOL    HW236753   1.401   2.339   5.608  0.3470  0.2908 -0.0794
 8374SOL     OW36754   0.536   0.888   4.365 -0.0744  0.0967  0.2319
 8374SOL    HW136755   0.465   0.835   4.400 -0.9435  0.9816 -0.1758
 8374SOL    HW236756   0.526   0.880   4.270  0.2189  0.0562  0.2041
 8375SOL     OW36757   3.784   4.626   7.825 -0.2648  0.1589  0.8108
 8375SOL    HW136758   3.752   4.671   7.904 -1.5047  1.3676 -0.3899
 8375SOL    HW236759   3.714   4.657   7.768 -0.3339  0.0144  0.8160
 8376SOL     OW36760   3.325   1.120   2.699  0.4085 -0.1804 -0.4907
 8376SOL    HW136761   3.418   1.103   2.687  0.6365 -0.2209  1.3057
 8376SOL    HW236762   3.324   1.211   2.731 -0.5230 -0.5351  0.4817
 8377SOL     OW36763   0.675   0.410   3.908  0.2220  0.2143 -0.1248
 8377SOL    HW136764   0.718   0.325   3.892 -2.5155 -1.0835 -0.6605
 8377SOL    HW236765   0.700   0.440   3.995 -0.5288 -0.2089  0.2426
 8378SOL     OW36766   3.834   1.009   5.347  0.1713 -0.1582 -0.0871
 8378SOL    HW136767   3.920   1.007   5.389 -0.3444  3.4373  1.1830
 8378SOL    HW236768   3.850   0.947   5.277  0.8956 -1.5868  1.3375
 8379SOL     OW36769   1.777   1.358   3.954  0.5029 -0.1014 -0.0374
 8379SOL    HW136770   1.762   1.383   3.863  0.4952  1.3358  0.3615
 8379SOL    HW236771   1.857   1.307   3.943  0.2677 -0.4265 -0.2729
 8380SOL     OW36772   1.239   2.905   9.435 -0.1965 -1.0516  0.5826
 8380SOL    HW136773   1.271   2.817   9.414  0.8539 -0.7055  0.7240
 8380SOL    HW236774   1.280   2.948   9.359 -1.6040  1.6918  1.3982
 8381SOL     OW36775   0.153   1.935   0.324  0.6615 -0.6882 -0.0904
 8381SOL    HW136776   0.061   1.910   0.327  0.1074  1.2128 -1.2011
 8381SOL    HW236777   0.165   1.962   0.232  0.4580 -1.0875 -0.2344
 8382SOL     OW36778   2.845   1.266   9.257  0.4550  0.0493  0.1860
 8382SOL    HW136779   2.841   1.289   9.349 -2.2250  0.8838 -0.1359
 8382SOL    HW236780   2.935   1.234   9.251  0.9014  1.5921 -1.6521
 8383SOL     OW36781   0.612   1.350   2.537  0.1787 -0.4027  0.7314
 8383SOL    HW136782   0.653   1.386   2.459 -0.5252 -3.7955 -1.2451
 8383SOL    HW236783   0.618   1.419   2.602  0.5791  1.5923 -1.4390
 8384SOL     OW36784   1.660   1.147   6.278 -0.4880 -0.3976 -0.5996
 8384SOL    HW136785   1.607   1.069   6.296 -0.3091 -0.1304  1.1744
 8384SOL    HW236786   1.609   1.180   6.204 -0.4797  1.0780  0.0380
 8385SOL     OW36787   4.159   4.563   4.772 -0.6961 -0.0472  0.2969
 8385SOL    HW136788   4.180   4.640   4.826  0.6454 -1.8116  2.2922
 8385SOL    HW236789   4.148   4.495   4.838 -0.8324 -1.0414 -0.7593
 8386SOL     OW36790   4.202   1.821   9.350 -0.2316  0.6125  0.3753
 8386SOL    HW136791   4.224   1.823   9.257  1.7597 -0.1125  0.8453
 8386SOL    HW236792   4.117   1.865   9.343 -0.6979 -0.3094  0.2866
 8387SOL     OW36793   3.772   4.362  16.736  0.0553  0.1802 -0.1634
 8387SOL    HW136794   3.804   4.273  16.743  2.5834  1.0321 -1.0448
 8387SOL    HW236795   3.806   4.402  16.816 -1.5409  1.2713 -0.0137
 8388SOL     OW36796   0.370   3.146   8.752 -0.0247  0.3457 -0.4202
 8388SOL    HW136797   0.371   3.193   8.835  0.3837 -0.5290  0.0624
 8388SOL    HW236798   0.298   3.188   8.704 -1.6865 -0.6894  1.1927
 8389SOL     OW36799   2.383   1.913   2.680  0.2257 -0.5131 -0.3187
 8389SOL    HW136800   2.304   1.967   2.689  0.2882 -0.2702 -1.2109
 8389SOL    HW236801   2.360   1.821   2.688 -0.6355 -0.4524 -2.0099
 8390SOL     OW36802   2.492   3.676   3.012 -0.2519 -0.6926 -0.5021
 8390SOL    HW136803   2.433   3.706   2.944 -0.9867  0.8612  0.8276
 8390SOL    HW236804   2.557   3.746   3.008  0.8734 -1.6143  1.5492
 8391SOL     OW36805   3.299   4.576   9.505 -0.8114  0.0521  0.4237
 8391SOL    HW136806   3.208   4.566   9.476 -0.9269 -1.5598  1.3621
 8391SOL    HW236807   3.309   4.515   9.578 -1.5534  0.0261  0.4955
 8392SOL     OW36808   4.272   4.571   2.205 -0.3194  0.7464  0.0354
 8392SOL    HW136809   4.331   4.543   2.136 -2.0789  1.5966 -1.8237
 8392SOL    HW236810   4.195   4.601   2.156 -0.1326 -1.0620 -1.3512
 8393SOL     OW36811   2.574   4.664   7.110 -0.3035 -0.3965 -0.4541
 8393SOL    HW136812   2.667   4.660   7.130 -1.1451  2.6318  3.8106
 8393SOL    HW236813   2.531   4.650   7.194  1.3008  0.3657  0.4822
 8394SOL     OW36814   0.273   2.639   1.553  0.1073 -0.0940 -0.4149
 8394SOL    HW136815   0.337   2.620   1.485  0.4870 -0.9413  0.1854
 8394SOL    HW236816   0.252   2.728   1.524 -0.7210 -0.8941 -2.3052
 8395SOL     OW36817   1.213   1.688   8.171  0.0306  0.8636  0.0025
 8395SOL    HW136818   1.222   1.671   8.264  0.3872 -0.5728 -0.2876
 8395SOL    HW236819   1.119   1.692   8.154 -0.3381  0.9316  2.1785
 8396SOL     OW36820   1.545   2.995  12.411  0.7970 -0.1148  0.2989
 8396SOL    HW136821   1.545   2.924  12.347  1.4100  0.6632 -0.5702
 8396SOL    HW236822   1.480   3.054  12.373  0.6904 -1.3435 -1.4154
 8397SOL     OW36823   3.022   2.281   7.342 -0.3957 -0.2427 -0.2100
 8397SOL    HW136824   2.971   2.282   7.262  0.2079 -1.1626 -0.6116
 8397SOL    HW236825   3.064   2.195   7.342 -0.9570 -0.5478  2.7798
 8398SOL     OW36826   4.425   0.908   7.328  0.0214  0.1701 -0.2677
 8398SOL    HW136827   4.498   0.937   7.383 -0.0008 -0.8827  0.3133
 8398SOL    HW236828   4.348   0.958   7.355  0.0346 -0.3747  0.8023
 8399SOL     OW36829   3.575   1.987   2.817 -0.2270  0.0821  0.0699
 8399SOL    HW136830   3.601   1.905   2.773  1.7248  1.4870 -1.3727
 8399SOL    HW236831   3.481   1.995   2.802 -0.5692 -1.6065  1.2727
 8400SOL     OW36832   2.740   3.820  11.192  0.1418 -0.1866  0.3805
 8400SOL    HW136833   2.768   3.775  11.272  0.2282 -0.4465  0.2029
 8400SOL    HW236834   2.778   3.768  11.121 -1.9845  1.3808 -1.9194
 8401SOL     OW36835   3.214   3.173  12.529  0.5959  0.6850  0.1910
 8401SOL    HW136836   3.255   3.255  12.558  0.6676 -0.2171  2.6875
 8401SOL    HW236837   3.168   3.154  12.611 -0.1116  0.9229 -0.1478
 8402SOL     OW36838   3.535   1.201   7.667 -0.1440  0.6092 -0.3016
 8402SOL    HW136839   3.514   1.119   7.710  2.7229  0.3068  0.5698
 8402SOL    HW236840   3.453   1.221   7.622 -1.4994  1.5988  2.5952
 8403SOL     OW36841   4.574   4.708   3.755 -0.0801  0.3360 -0.2307
 8403SOL    HW136842   4.545   0.029   3.683  1.3251 -0.1357 -1.1545
 8403SOL    HW236843   4.543   4.625   3.720 -0.2697  0.7030 -0.9314
 8404SOL     OW36844   1.077   3.450   4.589 -0.3413  0.0786  0.0747
 8404SOL    HW136845   1.014   3.414   4.652  1.7810 -0.1073  2.0831
 8404SOL    HW236846   1.076   3.383   4.520 -1.7790 -0.4392  0.5810
 8405SOL     OW36847   1.252   0.357  13.779  0.3446 -0.7986 -0.2586
 8405SOL    HW136848   1.234   0.449  13.799 -1.1089 -0.8039 -1.5500
 8405SOL    HW236849   1.170   0.316  13.807 -1.5643  4.5053  1.8446
 8406SOL     OW36850   0.524   0.484   4.997  0.1188 -0.4259 -0.0938
 8406SOL    HW136851   0.489   0.460   4.911 -0.4961  0.7078 -0.1524
 8406SOL    HW236852   0.616   0.503   4.977 -0.3057  0.5882 -1.0828
 8407SOL     OW36853   1.735   2.502   4.687  0.2423  0.1109 -0.0783
 8407SOL    HW136854   1.773   2.559   4.620  0.7352 -1.3535 -1.0206
 8407SOL    HW236855   1.740   2.552   4.769 -0.4833 -0.0419  0.0588
 8408SOL     OW36856   4.280   4.370   8.417  0.0034  0.1763 -0.7681
 8408SOL    HW136857   4.323   4.291   8.448  1.5903  1.6714  0.7958
 8408SOL    HW236858   4.278   4.357   8.322 -1.5475 -0.0797 -0.7055
 8409SOL     OW36859   2.751   3.704   4.964  0.3745  0.3468  0.5495
 8409SOL    HW136860   2.700   3.774   4.924  0.8010 -0.1793 -0.9488
 8409SOL    HW236861   2.717   3.622   4.927  0.9457  0.3238  0.0833
 8410SOL     OW36862   3.784   1.343   6.328  0.7435  0.3099 -0.2612
 8410SOL    HW136863   3.791   1.267   6.386 -1.9325  0.7065  0.5557
 8410SOL    HW236864   3.796   1.306   6.241 -1.5592  1.9667 -1.2878
 8411SOL     OW36865   1.326   4.663  11.618  0.3382 -0.3939  0.5067
 8411SOL    HW136866   1.401   4.607  11.638 -0.1368 -1.0035  0.5901
 8411SOL    HW236867   1.348   4.698  11.532 -0.6712 -2.9893 -0.8228
 8412SOL     OW36868   0.840   3.691   5.334  0.1685 -0.2814  0.2850
 8412SOL    HW136869   0.843   3.721   5.243  1.7236  0.4856  0.5778
 8412SOL    HW236870   0.805   3.603   5.319 -0.9181  0.1071  0.5989
 8413SOL     OW36871   0.488   2.994  16.797 -0.2169 -0.1378  0.1247
 8413SOL    HW136872   0.528   3.038  16.723  2.0234 -1.2381  0.7001
 8413SOL    HW236873   0.525   2.906  16.790  1.4143  0.6908 -1.6854
 8414SOL     OW36874   1.922   0.514   7.985 -0.0308 -0.9240 -0.2987
 8414SOL    HW136875   1.992   0.456   8.015  0.7457 -0.3456 -0.9986
 8414SOL    HW236876   1.867   0.452   7.937 -1.1172  1.9597 -2.7303
 8415SOL     OW36877   3.693   0.312   2.009  0.3601 -0.1960  0.1115
 8415SOL    HW136878   3.788   0.323   2.008  0.3102  0.3004  0.6466
 8415SOL    HW236879   3.680   0.219   1.987  2.3012  0.1717 -2.6938
 8416SOL     OW36880   0.827   3.637   8.619  0.5705 -0.3626 -0.3340
 8416SOL    HW136881   0.809   3.684   8.538  1.0658 -1.5885 -1.1733
 8416SOL    HW236882   0.781   3.553   8.612  0.8798 -0.7041  1.7821
 8417SOL     OW36883   4.386   2.138   7.565 -0.0008  0.1644 -0.1994
 8417SOL    HW136884   4.346   2.051   7.567  0.1555  0.1792  2.5610
 8417SOL    HW236885   4.339   2.187   7.497 -1.2418 -1.2968 -0.4085
 8418SOL     OW36886   2.796   0.249   5.838 -0.2683  0.2267 -0.2398
 8418SOL    HW136887   2.705   0.258   5.808 -0.4639 -0.5140  0.1187
 8418SOL    HW236888   2.809   0.156   5.855 -0.4972  0.3324  0.5268
 8419SOL     OW36889   3.250   0.323   2.214 -0.3021 -0.2248 -0.0380
 8419SOL    HW136890   3.215   0.388   2.152 -2.1636 -0.6682  0.5364
 8419SOL    HW236891   3.282   0.373   2.289  1.8711 -1.8479  0.1111
 8420SOL     OW36892   0.355   1.267  14.817 -0.5853  0.3022  0.1330
 8420SOL    HW136893   0.420   1.292  14.882 -0.1998 -0.9776  0.2309
 8420SOL    HW236894   0.387   1.315  14.741 -1.3407 -0.5785 -0.7442
 8421SOL     OW36895   3.610   0.615  11.874 -0.5479  0.2268 -0.9976
 8421SOL    HW136896   3.572   0.583  11.956  0.9821 -0.3555 -0.5150
 8421SOL    HW236897   3.704   0.595  11.872 -0.2563  1.7227 -2.0436
 8422SOL     OW36898   0.711   2.949   6.987 -0.2925 -0.2275  0.5523
 8422SOL    HW136899   0.693   2.944   6.893  0.1954 -0.2932  0.4639
 8422SOL    HW236900   0.676   3.035   7.007 -1.8387 -1.1047  1.6561
 8423SOL     OW36901   1.365   3.069   0.345 -0.7384  0.2331 -0.4637
 8423SOL    HW136902   1.394   2.988   0.385 -0.2550  0.4092 -0.4591
 8423SOL    HW236903   1.270   3.070   0.356 -0.3412  2.3233  2.6239
 8424SOL     OW36904   2.481   4.630   7.753  0.0344  0.1302 -0.0805
 8424SOL    HW136905   2.525   4.653   7.835 -2.3187  0.7623  0.9771
 8424SOL    HW236906   2.475   4.718   7.717 -2.1065  0.0631  0.1670
 8425SOL     OW36907   2.873   2.177   3.547 -0.3735 -0.2648  0.1945
 8425SOL    HW136908   2.841   2.200   3.460 -1.8819  1.6735  1.2415
 8425SOL    HW236909   2.877   2.082   3.541  1.0317 -0.3879  2.9229
 8426SOL     OW36910   1.950   0.039  10.872  0.1265  0.5300 -0.0351
 8426SOL    HW136911   1.856   0.056  10.865 -0.3464 -3.3342 -3.0832
 8426SOL    HW236912   1.951   0.033  10.968  0.9700  1.9443  0.0502
 8427SOL     OW36913   4.039   0.400   2.327 -0.7673  0.2379  0.0105
 8427SOL    HW136914   4.022   0.350   2.247  0.6866  0.8729 -0.6992
 8427SOL    HW236915   4.094   0.336   2.372 -2.2533  0.6701  2.4489
 8428SOL     OW36916   0.434   4.146   7.904  0.8160 -0.0869 -0.1519
 8428SOL    HW136917   0.518   4.103   7.888  0.9307 -0.1002  0.4982
 8428SOL    HW236918   0.405   4.150   7.812  0.1251  1.7687  0.1498
 8429SOL     OW36919   3.669   3.645   4.354 -0.3119 -0.1005  0.4408
 8429SOL    HW136920   3.628   3.622   4.270  1.2901  1.5450 -0.7948
 8429SOL    HW236921   3.618   3.724   4.372  1.8806  1.7076 -1.1730
 8430SOL     OW36922   4.034   1.065  12.743 -0.7356  0.3302  0.0632
 8430SOL    HW136923   4.101   1.066  12.674  0.7671  0.5101  1.5150
 8430SOL    HW236924   3.958   1.050  12.687 -1.8013  0.7278  1.4036
 8431SOL     OW36925   2.283   0.349  11.615  0.4184 -0.0552 -0.0290
 8431SOL    HW136926   2.343   0.294  11.665  0.5059  0.7736  0.7772
 8431SOL    HW236927   2.316   0.434  11.644  1.2953 -0.0681 -0.9898
 8432SOL     OW36928   2.606   2.176  14.448  0.2893  0.0225 -0.2512
 8432SOL    HW136929   2.584   2.083  14.459 -0.2784  0.4115  1.8306
 8432SOL    HW236930   2.541   2.213  14.508  2.0379  0.8730  1.1024
 8433SOL     OW36931   3.711   3.129   9.933  0.0534  0.1958 -0.3890
 8433SOL    HW136932   3.694   3.121   9.839 -0.9550  0.9840 -0.2782
 8433SOL    HW236933   3.683   3.042   9.965  1.0208  0.3193  0.7917
 8434SOL     OW36934   1.874   1.475   5.056  0.2285 -0.4074  0.3111
 8434SOL    HW136935   1.880   1.536   5.130  1.3794  1.1330 -1.0535
 8434SOL    HW236936   1.797   1.518   5.020  0.7800  1.0644  0.8845
 8435SOL     OW36937   3.798   1.082   0.929  0.7789  0.0432 -0.2603
 8435SOL    HW136938   3.801   1.160   0.874  0.6148 -0.4303 -0.9393
 8435SOL    HW236939   3.761   1.120   1.009  0.1942 -0.7120 -0.1698
 8436SOL     OW36940   1.005   4.428   3.472  0.2712 -0.4511 -0.6556
 8436SOL    HW136941   1.068   4.384   3.416  0.1334  0.7376 -1.7417
 8436SOL    HW236942   1.061   4.447   3.548  1.3731  0.0469 -1.6009
 8437SOL     OW36943   0.198   1.734   6.317 -0.0382  0.5877 -0.3237
 8437SOL    HW136944   0.245   1.817   6.325  1.2199  0.0310 -1.7751
 8437SOL    HW236945   0.167   1.742   6.227 -0.2958 -2.2772 -0.5055
 8438SOL     OW36946   3.305   1.848   6.439  0.2687 -0.3932 -0.4134
 8438SOL    HW136947   3.249   1.879   6.511 -0.1149  2.1826 -1.8189
 8438SOL    HW236948   3.391   1.841   6.480  0.3805  0.9840 -0.3976
 8439SOL     OW36949   3.519   2.006   8.689  0.2947 -0.1138 -0.1912
 8439SOL    HW136950   3.465   2.037   8.616 -2.8158 -1.2488  1.6103
 8439SOL    HW236951   3.481   1.919   8.700 -1.6703  0.9891  1.5816
 8440SOL     OW36952   0.015   4.039   6.453  0.5601 -0.3654  0.5230
 8440SOL    HW136953   0.051   4.096   6.520  0.2731  1.1470 -0.6056
 8440SOL    HW236954   0.012   4.085   6.369 -0.0460 -0.0941  0.6981
 8441SOL     OW36955   3.955   0.156   9.576 -0.2609 -1.1434 -0.6634
 8441SOL    HW136956   4.003   0.114   9.505 -0.7498  0.5033 -1.9722
 8441SOL    HW236957   3.864   0.143   9.549 -0.6837 -0.0093  0.2306
 8442SOL     OW36958   4.366   4.158   2.093 -0.1854  0.1828 -0.1439
 8442SOL    HW136959   4.331   4.129   2.009 -1.7305 -0.8289  0.8388
 8442SOL    HW236960   4.388   4.070   2.125  0.1705  0.4355  0.3101
 8443SOL     OW36961   1.258   3.402  15.529  0.5928  0.3757 -0.1791
 8443SOL    HW136962   1.294   3.371  15.446 -0.7061  0.5358 -0.7968
 8443SOL    HW236963   1.171   3.362  15.537  0.8176  0.0811  0.8927
 8444SOL     OW36964   3.273   0.194  10.218  0.2947  0.2887  0.2319
 8444SOL    HW136965   3.331   0.119  10.204 -0.2358 -0.4982  2.2209
 8444SOL    HW236966   3.325   0.265  10.182 -2.0405  0.3245 -3.0913
 8445SOL     OW36967   2.952   1.054   6.030  0.6897  0.1872 -0.7818
 8445SOL    HW136968   3.025   0.999   6.059  0.0762  0.4683  1.2594
 8445SOL    HW236969   2.945   1.041   5.935 -4.3107  1.8210 -0.6331
 8446SOL     OW36970   3.576   3.047   4.626 -0.0018  0.3153  0.2172
 8446SOL    HW136971   3.646   3.066   4.689 -0.9457  0.0775  1.3224
 8446SOL    HW236972   3.556   3.132   4.589 -0.6402  0.9251  1.9762
 8447SOL     OW36973   4.623   2.599   3.268  0.2261  0.1309  0.1523
 8447SOL    HW136974   4.612   2.550   3.186 -3.1516 -0.5779  1.0112
 8447SOL    HW236975   4.665   2.678   3.235  1.1306 -0.5461 -0.3017
 8448SOL     OW36976   1.135   2.914  13.690 -0.2310 -0.7909  0.1624
 8448SOL    HW136977   1.078   2.985  13.721  0.9646 -0.7361  2.2569
 8448SOL    HW236978   1.075   2.876  13.626 -2.5833  0.2935  1.6944
 8449SOL     OW36979   0.414   4.120   0.997 -0.1817 -0.0028  0.0988
 8449SOL    HW136980   0.377   4.079   0.919  0.4829 -1.6231  0.6417
 8449SOL    HW236981   0.399   4.051   1.061 -2.2404 -0.5261 -0.9464
 8450SOL     OW36982   2.042   3.612  16.533 -0.1980  0.0522  0.2467
 8450SOL    HW136983   2.037   3.672  16.458  0.8769  0.4651  0.5026
 8450SOL    HW236984   2.047   3.685  16.595 -1.1128 -1.3854  1.9863
 8451SOL     OW36985   0.645   3.979   2.956  0.9104  0.5950  0.2059
 8451SOL    HW136986   0.703   3.961   3.030  0.2224 -0.5504  0.4647
 8451SOL    HW236987   0.707   4.024   2.898 -1.8046  1.2832 -2.1407
 8452SOL     OW36988   1.414   1.689   9.320 -0.1106 -0.1480 -0.3851
 8452SOL    HW136989   1.351   1.630   9.280 -2.2868  0.8574  1.5723
 8452SOL    HW236990   1.360   1.746   9.375  0.3648  1.7123 -1.8290
 8453SOL     OW36991   2.187   1.067  12.909  0.3585 -0.3998  0.2142
 8453SOL    HW136992   2.223   0.979  12.906  2.5393  0.4720  0.4900
 8453SOL    HW236993   2.265   1.113  12.941  0.6323  0.0938 -1.1571
 8454SOL     OW36994   4.335   0.655   9.806 -0.2705 -0.2949  0.0570
 8454SOL    HW136995   4.420   0.673   9.765 -0.1730 -0.9806 -0.0351
 8454SOL    HW236996   4.275   0.684   9.737 -1.1803 -1.4485  0.3797
 8455SOL     OW36997   3.217   0.081   2.823 -0.4439 -0.1344 -0.3833
 8455SOL    HW136998   3.311   0.063   2.814 -0.3574  0.9785 -1.7621
 8455SOL    HW236999   3.175   4.731   2.810 -1.0265  0.2231 -0.8081
 8456SOL     OW37000   3.855   1.776  12.969 -0.3152 -0.0848 -0.7749
 8456SOL    HW137001   3.867   1.682  12.958  0.1812 -0.6601  4.4994
 8456SOL    HW237002   3.872   1.807  12.881  2.0013  1.4992  0.2301
 8457SOL     OW37003   2.097   2.632   5.931  0.0779  0.8771 -0.0428
 8457SOL    HW137004   2.148   2.560   5.967 -2.1841  0.6371  2.6540
 8457SOL    HW237005   2.147   2.646   5.850 -0.0116  1.5865  0.0211
 8458SOL     OW37006   4.294   0.382  14.438 -0.3087  0.9189 -0.1077
 8458SOL    HW137007   4.241   0.372  14.517  0.6927 -2.2832  0.1523
 8458SOL    HW237008   4.256   0.317  14.380  1.5383 -0.7224  0.5291
 8459SOL     OW37009   4.362   1.084  15.191 -0.4206 -0.2672  0.3340
 8459SOL    HW137010   4.326   1.040  15.267  0.5549 -0.2332  0.8172
 8459SOL    HW237011   4.281   1.096  15.141  0.6093  1.8966 -0.8686
 8460SOL     OW37012   3.000   3.547   6.828 -0.1945 -0.2529  0.7148
 8460SOL    HW137013   2.996   3.474   6.890  1.6272 -1.2768 -0.3821
 8460SOL    HW237014   3.032   3.624   6.875 -0.9996  0.1978  0.5282
 8461SOL     OW37015   0.222   2.940   6.909 -0.4327 -0.5835 -0.8750
 8461SOL    HW137016   0.265   3.021   6.880 -1.6286  0.5978  0.6943
 8461SOL    HW237017   0.146   2.976   6.954  0.8785 -1.2233  1.8577
 8462SOL     OW37018   4.225   2.351  12.481  0.0478 -0.2917 -0.3144
 8462SOL    HW137019   4.166   2.340  12.556 -0.1473 -2.5967 -0.8128
 8462SOL    HW237020   4.311   2.333  12.519  0.0322 -0.9099 -0.5833
 8463SOL     OW37021   4.437   3.274   7.127 -0.4274  0.0236 -0.1886
 8463SOL    HW137022   4.509   3.327   7.094 -1.1635  0.9108 -0.3756
 8463SOL    HW237023   4.381   3.275   7.049  0.2369 -0.3088 -0.6641
 8464SOL     OW37024   4.077   3.773  13.291 -0.4259  0.0026 -0.4131
 8464SOL    HW137025   4.061   3.773  13.385 -1.6224  1.0269 -0.6010
 8464SOL    HW237026   4.155   3.718  13.290 -0.3045  0.1714 -0.2001
 8465SOL     OW37027   2.216   3.815   7.837 -0.1129  0.8474 -0.1678
 8465SOL    HW137028   2.301   3.857   7.824  1.3456 -1.9046  0.6382
 8465SOL    HW237029   2.237   3.722   7.844 -1.3280  0.7344  1.8728
 8466SOL     OW37030   0.319   0.564   4.517  0.5838  0.2572  0.0628
 8466SOL    HW137031   0.224   0.565   4.529  0.5488  3.9481 -0.5318
 8466SOL    HW237032   0.324   0.646   4.467 -0.7245  0.5390  0.3950
 8467SOL     OW37033   0.777   3.871   5.539 -0.3014 -0.1062  0.3021
 8467SOL    HW137034   0.797   3.823   5.459  1.9651 -0.1482  0.9143
 8467SOL    HW237035   0.837   3.945   5.540 -0.0426 -0.3020 -1.9428
 8468SOL     OW37036   4.497   4.108   1.205 -0.1163 -0.3301  0.4780
 8468SOL    HW137037   4.491   4.154   1.289 -2.6454 -2.0743  1.2462
 8468SOL    HW237038   4.510   4.016   1.226  0.3182 -0.3521  0.0961
 8469SOL     OW37039   3.533   0.077  10.419  0.4301 -0.6543 -0.5282
 8469SOL    HW137040   3.603   0.113  10.364 -0.0743 -0.7526 -1.2295
 8469SOL    HW237041   3.507   0.156  10.467  0.4830 -1.4515  0.7927
 8470SOL     OW37042   3.930   3.557   2.210  0.6075 -0.1412 -0.8604
 8470SOL    HW137043   3.967   3.631   2.257  0.7811 -0.2080 -0.8924
 8470SOL    HW237044   3.937   3.491   2.279 -1.0238  0.9932  0.3930
 8471SOL     OW37045   0.068   1.227   3.096 -0.5245 -0.0119  0.2437
 8471SOL    HW137046   0.145   1.268   3.057 -0.3802 -1.3052 -0.8308
 8471SOL    HW237047   4.733   1.231   3.031 -1.0740 -1.2467  0.7497
 8472SOL     OW37048   3.630   1.680   4.163  0.2317 -0.0052  0.9085
 8472SOL    HW137049   3.643   1.738   4.089 -1.0062 -0.6006  0.2331
 8472SOL    HW237050   3.687   1.607   4.138  1.0155 -0.0037  2.6609
 8473SOL     OW37051   2.142   3.798   9.661  0.8000  0.3015  0.0327
 8473SOL    HW137052   2.161   3.889   9.637 -2.0938  1.4361  1.9346
 8473SOL    HW237053   2.063   3.784   9.609  1.5207 -1.3528 -0.6219
 8474SOL     OW37054   2.859   1.097   4.035 -0.2454 -0.0038  0.0687
 8474SOL    HW137055   2.812   1.159   4.090 -1.1493 -0.7809  0.1641
 8474SOL    HW237056   2.901   1.037   4.096 -1.2976 -0.7629  0.0385
 8475SOL     OW37057   1.226   4.685   2.564  0.2213 -0.0450  0.4779
 8475SOL    HW137058   1.137   4.652   2.556  0.2312  0.7576 -2.8099
 8475SOL    HW237059   1.284   4.610   2.557 -0.9221 -0.7798 -1.0846
 8476SOL     OW37060   3.233   2.979  16.610  1.1194 -0.0508  0.1706
 8476SOL    HW137061   3.293   3.049  16.635  1.8350 -1.2683  1.9252
 8476SOL    HW237062   3.207   3.018  16.527  1.1624 -1.3623 -0.4674
 8477SOL     OW37063   1.948   1.020  13.113  0.2425  0.1930 -0.8188
 8477SOL    HW137064   1.878   1.064  13.161 -0.4672 -0.3065 -1.3957
 8477SOL    HW237065   1.951   0.939  13.164  1.1597  0.7275 -0.0047
 8478SOL     OW37066   4.599   3.548   5.264 -0.2846  0.3905  0.0047
 8478SOL    HW137067   4.650   3.588   5.335  0.6620 -0.6462 -0.0771
 8478SOL    HW237068   4.599   3.458   5.298 -0.1522  0.5264  0.3697
 8479SOL     OW37069   1.070   0.237   4.219 -0.2566 -0.1682 -0.1220
 8479SOL    HW137070   1.116   0.253   4.137  0.1839  2.0305  0.5558
 8479SOL    HW237071   1.045   0.325   4.249 -1.6798 -0.7506  0.4054
 8480SOL     OW37072   3.652   0.003   4.648  0.1434  0.5039 -0.6067
 8480SOL    HW137073   3.692   0.054   4.718  1.9874 -2.0630  0.2205
 8480SOL    HW237074   3.713   0.013   4.575  1.0579 -2.5967 -0.2820
 8481SOL     OW37075   2.054   3.821   7.458 -0.1765 -0.1692 -0.1218
 8481SOL    HW137076   2.020   3.779   7.537 -0.9275 -1.3633 -1.0908
 8481SOL    HW237077   2.087   3.905   7.491  0.7072 -1.8967  3.4039
 8482SOL     OW37078   3.649   0.434  13.638  0.5862  0.4530 -0.2328
 8482SOL    HW137079   3.567   0.420  13.590  1.8853 -0.5786 -2.1331
 8482SOL    HW237080   3.693   0.505  13.590  2.2289 -0.8819 -0.7036
 8483SOL     OW37081   1.734   2.392   4.404 -0.0909  0.1686 -0.3799
 8483SOL    HW137082   1.707   2.315   4.355  1.8777 -0.4344 -0.5059
 8483SOL    HW237083   1.654   2.437   4.432 -0.8024  0.5841 -3.0655
 8484SOL     OW37084   3.726   0.422  14.283 -0.5755  1.0010  0.0028
 8484SOL    HW137085   3.703   0.329  14.282 -0.3557  0.9686 -1.4662
 8484SOL    HW237086   3.648   0.465  14.318 -1.4153  0.8059 -1.6430
 8485SOL     OW37087   2.960   3.803  14.257  0.1726  0.1458  0.3763
 8485SOL    HW137088   2.908   3.817  14.178  0.4956  0.5257  0.2333
 8485SOL    HW237089   3.042   3.847  14.236 -0.1856  0.8615  0.5065
 8486SOL     OW37090   0.627   1.600   1.852 -0.1714 -0.3455  0.8668
 8486SOL    HW137091   0.534   1.590   1.830 -0.6274  2.5518  1.4985
 8486SOL    HW237092   0.624   1.595   1.948 -0.0229 -0.5132  0.8635
 8487SOL     OW37093   3.339   2.053   2.245 -0.0671 -0.1114  0.4210
 8487SOL    HW137094   3.372   1.999   2.174 -2.0594 -1.4026  0.4743
 8487SOL    HW237095   3.423   2.083   2.280  0.5716 -1.5888  0.1844
 8488SOL     OW37096   0.890   1.056   9.359 -0.5838 -0.2014  0.3041
 8488SOL    HW137097   0.821   0.991   9.370  0.9693 -1.8235  0.5729
 8488SOL    HW237098   0.925   1.034   9.273  0.5107  0.0344  0.6861
 8489SOL     OW37099   2.099   4.576   6.175 -0.2044  0.2768  0.1638
 8489SOL    HW137100   2.151   4.500   6.198  0.4797  1.4144  2.3512
 8489SOL    HW237101   2.129   4.624   6.252  0.1304  1.4307 -0.6728
 8490SOL     OW37102   4.181   3.451  17.254  0.1327  0.3078  0.2623
 8490SOL    HW137103   4.188   3.441  17.349 -1.7003  1.4252  0.5071
 8490SOL    HW237104   4.250   3.393  17.220 -1.2769  0.1237 -2.2675
 8491SOL     OW37105   0.802   2.869   5.989  0.3935 -0.0835 -0.2609
 8491SOL    HW137106   0.863   2.889   5.918  0.1547  0.1115 -0.4112
 8491SOL    HW237107   0.804   2.774   5.981  0.7300 -0.0250 -0.8954
 8492SOL     OW37108   2.979   3.169   3.885  0.3709  0.2405  0.1459
 8492SOL    HW137109   2.920   3.110   3.837  0.6254 -1.0312  1.4133
 8492SOL    HW237110   3.066   3.132   3.871  0.1201  0.5649 -2.2489
 8493SOL     OW37111   3.007   0.835  13.518  0.1380  0.4997 -0.2848
 8493SOL    HW137112   3.081   0.856  13.575  0.0242  0.4725 -0.1285
 8493SOL    HW237113   2.966   0.759  13.560 -2.2621  1.3715 -1.0859
 8494SOL     OW37114   4.307   1.120   5.873 -0.0262  0.2626 -0.3358
 8494SOL    HW137115   4.372   1.174   5.918 -0.1001 -1.1022  1.4322
 8494SOL    HW237116   4.242   1.181   5.839 -2.3966 -2.4889 -0.7641
 8495SOL     OW37117   1.086   0.513   5.389 -0.7863 -0.3038 -0.2036
 8495SOL    HW137118   1.054   0.585   5.442 -1.4646 -1.4452  0.9314
 8495SOL    HW237119   1.076   0.447   5.458 -0.0154  0.9661  1.1178
 8496SOL     OW37120   0.646   3.875   5.133 -0.0087 -0.1439  0.0003
 8496SOL    HW137121   0.690   3.952   5.170  2.5564 -1.9355  0.6920
 8496SOL    HW237122   0.714   3.828   5.085  0.6192  1.8743 -1.1219
 8497SOL     OW37123   1.010   3.462   7.177  0.4784 -0.0856  0.2416
 8497SOL    HW137124   1.058   3.384   7.148  0.4251 -0.1072  0.2125
 8497SOL    HW237125   0.986   3.499   7.092  0.0675  1.9161  1.2270
 8498SOL     OW37126   2.345   3.970   4.328 -0.0142 -0.3432  0.2181
 8498SOL    HW137127   2.306   3.940   4.246 -0.5886 -1.4865  0.9072
 8498SOL    HW237128   2.433   3.938   4.307  0.9499  2.0954  0.5284
 8499SOL     OW37129   0.324   2.765   7.440 -0.2135  0.1275  0.3576
 8499SOL    HW137130   0.410   2.751   7.479 -0.0432 -1.1332 -0.4532
 8499SOL    HW237131   0.302   2.680   7.400  0.0897  0.0876  0.2703
 8500SOL     OW37132   1.588   0.730   5.605  0.0788  0.5088  0.0124
 8500SOL    HW137133   1.610   0.734   5.512  1.7344  0.0603  0.3858
 8500SOL    HW237134   1.493   0.745   5.600  0.0722  0.3888 -0.2401
 8501SOL     OW37135   3.623   0.949  11.430 -0.3954  0.5604  0.2532
 8501SOL    HW137136   3.671   0.908  11.502 -1.2243 -2.5962 -0.9974
 8501SOL    HW237137   3.559   1.002  11.477  0.3376  0.7330  1.0620
 8502SOL     OW37138   2.828   4.612   5.377 -0.5990 -0.2128 -0.3793
 8502SOL    HW137139   2.810   4.699   5.342  2.0676 -0.1013 -1.4880
 8502SOL    HW237140   2.903   4.593   5.321 -0.6569 -1.4881 -0.0167
 8503SOL     OW37141   1.585   0.238   2.290 -0.0665 -0.2750 -0.3400
 8503SOL    HW137142   1.555   0.147   2.299  0.1944 -0.3861 -0.5960
 8503SOL    HW237143   1.614   0.242   2.382 -0.2458  0.3071 -0.3127
 8504SOL     OW37144   1.739   0.061   5.509  0.2416  0.3814 -0.0498
 8504SOL    HW137145   1.798   4.730   5.545 -1.3059 -0.7196  0.4974
 8504SOL    HW237146   1.753   0.115   5.587  0.3977 -1.1737  0.9963
 8505SOL     OW37147   3.944   1.054   2.647 -0.6804  0.2639  0.0562
 8505SOL    HW137148   4.011   1.116   2.676  0.1665  0.8221 -3.0502
 8505SOL    HW237149   3.969   0.978   2.698  0.0861 -0.1869 -0.9778
 8506SOL     OW37150   3.247   4.554   3.683  0.2347 -0.0177  0.7036
 8506SOL    HW137151   3.242   4.639   3.727  1.1988  1.2493 -1.6668
 8506SOL    HW237152   3.331   4.517   3.713  0.4810 -1.4032 -1.6891
 8507SOL     OW37153   4.371   3.064   6.317  0.5501 -0.3616  0.6074
 8507SOL    HW137154   4.311   3.081   6.390 -0.3997 -0.6321 -0.1127
 8507SOL    HW237155   4.378   2.968   6.316  0.6996 -0.3476  0.3607
 8508SOL     OW37156   3.660   4.425   5.257  0.1447 -0.5748  0.0047
 8508SOL    HW137157   3.721   4.492   5.288 -0.5220 -1.6995  3.6802
 8508SOL    HW237158   3.718   4.361   5.216  0.2495  1.1741 -2.5999
 8509SOL     OW37159   0.224   1.795   7.110 -0.2448 -0.2440  0.1447
 8509SOL    HW137160   0.204   1.777   7.202 -0.6812  2.7264  0.6368
 8509SOL    HW237161   0.145   1.792   7.056 -1.0003 -0.7462  1.2609
 8510SOL     OW37162   3.027   0.741   2.662  0.3526 -0.2877  0.1630
 8510SOL    HW137163   3.044   0.803   2.733  0.0865 -0.1956  0.1456
 8510SOL    HW237164   3.116   0.715   2.640  1.2026  2.3236  0.5784
 8511SOL     OW37165   2.453   3.394   3.401  0.4055 -0.2774  0.0213
 8511SOL    HW137166   2.427   3.307   3.370 -0.0758 -0.2664  0.3942
 8511SOL    HW237167   2.537   3.400   3.356  0.8857  0.6418  1.0430
 8512SOL     OW37168   3.067   2.465   1.741  0.4799  0.0291  0.0271
 8512SOL    HW137169   3.115   2.534   1.695 -1.3859  0.0189 -1.9079
 8512SOL    HW237170   2.984   2.461   1.693  1.3514  2.2126 -1.6220
 8513SOL     OW37171   3.222   0.842  17.503 -0.6570 -0.6199 -0.3736
 8513SOL    HW137172   3.176   0.880  17.578  1.1564  1.3248 -0.2194
 8513SOL    HW237173   3.312   0.847  17.536 -1.5126  1.6552  1.6225
 8514SOL     OW37174   3.198   0.531   9.154  0.2366  0.5234 -0.2143
 8514SOL    HW137175   3.220   0.444   9.120  2.7632  1.8917 -2.0559
 8514SOL    HW237176   3.103   0.526   9.149  0.2696 -2.4152  1.6376
 8515SOL     OW37177   4.525   2.324   5.586  0.3369 -0.3538 -0.5964
 8515SOL    HW137178   4.444   2.274   5.583 -0.8252  1.4370  1.1669
 8515SOL    HW237179   4.512   2.380   5.510  0.3158  0.1196 -0.2449
 8516SOL     OW37180   1.125   3.276   6.026  0.2065  0.1092  0.3234
 8516SOL    HW137181   1.214   3.310   6.033 -0.2269  1.1739  0.6689
 8516SOL    HW237182   1.107   3.301   5.935  1.0143  1.3030  0.4857
 8517SOL     OW37183   1.229   0.208   6.526 -0.1410  0.2202 -0.5279
 8517SOL    HW137184   1.322   0.191   6.540 -0.7498 -1.6730  1.1449
 8517SOL    HW237185   1.193   0.128   6.565  0.4834  1.0810  1.7838
 8518SOL     OW37186   2.454   1.579   7.400  0.0413 -0.1891 -0.1764
 8518SOL    HW137187   2.526   1.518   7.383 -1.1085 -1.3212 -0.9645
 8518SOL    HW237188   2.394   1.566   7.327  0.1475 -0.5866 -0.1923
 8519SOL     OW37189   3.707   1.082   3.794  0.3088 -0.2438 -0.4792
 8519SOL    HW137190   3.701   1.070   3.700  0.2663  2.8140 -0.8803
 8519SOL    HW237191   3.668   1.169   3.808 -0.0869 -0.2895 -1.2894
 8520SOL     OW37192   1.642   2.448   2.765 -0.1956  0.2672  0.4353
 8520SOL    HW137193   1.557   2.459   2.723  0.1817 -0.5413 -0.5626
 8520SOL    HW237194   1.628   2.371   2.819  0.7337 -0.3102 -0.1265
 8521SOL     OW37195   4.609   0.832   8.874 -0.5766  0.2984 -0.2139
 8521SOL    HW137196   4.548   0.869   8.938  1.2119 -0.7378  2.1135
 8521SOL    HW237197   4.634   0.909   8.824  0.4767 -1.0430 -1.7654
 8522SOL     OW37198   2.727   0.099   4.704 -0.5792  0.2414 -0.4876
 8522SOL    HW137199   2.657   0.093   4.640 -0.7196  1.6574 -0.4710
 8522SOL    HW237200   2.671   0.097   4.782  0.6982 -2.0334  0.3731
 8523SOL     OW37201   2.575   2.837   7.002 -0.2238 -0.0717 -0.3089
 8523SOL    HW137202   2.660   2.877   6.983 -1.2040  2.3445  0.3816
 8523SOL    HW237203   2.514   2.904   6.972 -0.9617 -1.4587 -1.8847
 8524SOL     OW37204   3.320   3.956   3.213 -0.3610  0.3953 -0.0830
 8524SOL    HW137205   3.241   3.980   3.261 -0.2056 -0.6736  0.6973
 8524SOL    HW237206   3.289   3.953   3.122 -0.0597 -2.7226 -0.0870
 8525SOL     OW37207   4.236   0.132  12.673  0.3752 -0.0330 -0.2817
 8525SOL    HW137208   4.296   0.204  12.652 -0.0011  0.7504  1.3271
 8525SOL    HW237209   4.210   0.160  12.761  2.0376  0.0223  0.1992
 8526SOL     OW37210   0.407   2.704   6.810  0.3629 -0.2418 -0.0696
 8526SOL    HW137211   0.362   2.765   6.868 -3.3904 -2.2227 -0.9037
 8526SOL    HW237212   0.470   2.762   6.766  0.5741 -1.0510 -0.8534
 8527SOL     OW37213   2.490   3.278   0.195 -0.4653 -0.6848 -0.6159
 8527SOL    HW137214   2.498   3.347   0.260 -2.5031  0.7723 -1.9306
 8527SOL    HW237215   2.400   3.278   0.162 -1.1907  1.2232  1.4287
 8528SOL     OW37216   3.896   3.062   6.612 -0.2511 -0.2850 -0.2642
 8528SOL    HW137217   3.934   2.974   6.613  2.2375  0.7634 -0.9461
 8528SOL    HW237218   3.854   3.063   6.526  1.2895  1.5906 -0.9928
 8529SOL     OW37219   2.219   4.302   2.367  0.0200  0.2630  0.5520
 8529SOL    HW137220   2.186   4.214   2.353  0.2491  0.1844  0.5013
 8529SOL    HW237221   2.227   4.295   2.462 -0.8577  0.8193  0.6637
 8530SOL     OW37222   4.358   0.399  12.653 -0.2963 -0.4062  0.5001
 8530SOL    HW137223   4.450   0.406  12.626 -0.7209 -0.5123 -1.0031
 8530SOL    HW237224   4.366   0.426  12.744 -2.3997  0.9075  0.2770
 8531SOL     OW37225   3.419   0.191   2.058  0.4839 -0.4760 -0.6408
 8531SOL    HW137226   3.375   0.210   1.976 -2.4085  1.1224  1.2710
 8531SOL    HW237227   3.361   0.248   2.109  0.0899 -0.9538 -0.5475
 8532SOL     OW37228   3.737   1.780  13.202 -0.5905  0.2891 -0.1999
 8532SOL    HW137229   3.786   1.787  13.120 -0.2994  0.9878  0.0331
 8532SOL    HW237230   3.677   1.706  13.192 -0.4050 -0.3778  3.8146
 8533SOL     OW37231   2.508   3.573   6.551 -0.4408  0.2862 -0.1373
 8533SOL    HW137232   2.534   3.547   6.640  0.4590  0.7655 -0.2589
 8533SOL    HW237233   2.550   3.659   6.551 -0.3286  0.2260  3.6455
 8534SOL     OW37234   4.325   3.330   1.079  0.5446 -0.2301  0.3021
 8534SOL    HW137235   4.252   3.344   1.019  0.2652  1.0800  0.9492
 8534SOL    HW237236   4.388   3.398   1.054 -2.0990  1.0281 -2.8806
 8535SOL     OW37237   3.054   1.606  13.359  0.3521 -0.1669  0.3025
 8535SOL    HW137238   3.001   1.543  13.309 -3.0758  3.0290 -0.1150
 8535SOL    HW237239   2.982   1.639  13.413  1.6890  1.7279  0.8699
 8536SOL     OW37240   3.111   3.748   4.189 -0.1335  0.3359  0.3096
 8536SOL    HW137241   3.111   3.662   4.146 -2.6128 -0.7821  2.5171
 8536SOL    HW237242   3.163   3.807   4.134  1.3539 -0.2218  1.1047
 8537SOL     OW37243   1.664   1.861   3.283  1.0292  0.1645  0.1706
 8537SOL    HW137244   1.631   1.783   3.239  1.8870 -0.3458  0.4266
 8537SOL    HW237245   1.662   1.836   3.376  1.5153  0.5301  0.2797
 8538SOL     OW37246   3.997   1.160  14.632  0.0877 -0.1864 -0.7478
 8538SOL    HW137247   4.029   1.072  14.652 -0.8398  0.0215  1.5992
 8538SOL    HW237248   3.948   1.185  14.711 -1.4391 -0.5500 -1.5755
 8539SOL     OW37249   2.626   0.047   8.926 -0.2448 -0.2827  0.2256
 8539SOL    HW137250   2.576   0.126   8.947  1.2807  0.5482  0.7371
 8539SOL    HW237251   2.716   0.072   8.947 -0.3980 -2.4079  3.4769
 8540SOL     OW37252   1.961   3.328   7.771  0.4802 -0.5502 -0.8896
 8540SOL    HW137253   1.918   3.326   7.685 -1.6656 -3.1371  0.2801
 8540SOL    HW237254   1.949   3.421   7.793 -0.7201 -0.7287 -0.8409
 8541SOL     OW37255   0.566   3.197   6.612  0.1405 -0.3807 -0.3431
 8541SOL    HW137256   0.479   3.182   6.574 -0.0183  0.7904 -0.4265
 8541SOL    HW237257   0.617   3.209   6.532 -1.1638 -0.8055 -1.2544
 8542SOL     OW37258   0.394   3.227   4.178 -0.3009  0.5991 -0.2221
 8542SOL    HW137259   0.308   3.185   4.174 -0.2515  0.1744  2.6692
 8542SOL    HW237260   0.385   3.273   4.262  0.0133 -1.2618  0.8319
 8543SOL     OW37261   2.451   3.133  14.678 -0.5121  0.4528  0.0873
 8543SOL    HW137262   2.366   3.093  14.697  0.6827 -1.6707  1.0144
 8543SOL    HW237263   2.465   3.107  14.586  1.8014  1.6059  0.1248
 8544SOL     OW37264   4.257   1.582   1.717  0.0720  0.1273  0.1808
 8544SOL    HW137265   4.327   1.561   1.655 -0.5200 -0.3888 -0.3156
 8544SOL    HW237266   4.287   1.550   1.802 -1.7676  2.3574  1.6808
 8545SOL     OW37267   3.081   0.377   8.516 -0.3048 -0.5193 -0.3250
 8545SOL    HW137268   3.034   0.400   8.435 -0.6528 -1.6425 -0.4397
 8545SOL    HW237269   3.143   0.310   8.486  1.4690  0.9265  0.1544
 8546SOL     OW37270   1.988   0.394   3.614  0.8455 -0.0716  0.6319
 8546SOL    HW137271   2.017   0.344   3.538 -1.8148 -1.4679  0.5514
 8546SOL    HW237272   2.020   0.480   3.589 -1.0922 -0.0283 -1.6816
 8547SOL     OW37273   1.061   2.890   0.041 -0.0685  0.3902 -0.1782
 8547SOL    HW137274   1.072   2.950   0.115  3.0554 -0.5692  0.1420
 8547SOL    HW237275   1.088   2.809   0.084  2.0114  0.8598 -0.6026
 8548SOL     OW37276   2.900   4.382   2.773 -0.7756  0.7253  0.7078
 8548SOL    HW137277   2.926   4.307   2.720 -1.5688  0.0879  1.2073
 8548SOL    HW237278   2.814   4.387   2.733 -2.1815  1.1593  3.7478
 8549SOL     OW37279   2.445   3.920   6.412  0.1512  0.0604  0.1529
 8549SOL    HW137280   2.510   3.872   6.464  0.6687 -0.9111 -1.3979
 8549SOL    HW237281   2.479   3.932   6.323  2.4364  4.0338  1.5689
 8550SOL     OW37282   4.186   1.294   3.490 -0.0788 -0.2639  0.2748
 8550SOL    HW137283   4.223   1.264   3.408  1.1565 -1.1307  1.1504
 8550SOL    HW237284   4.153   1.382   3.474  3.8146  0.8875 -1.3972
 8551SOL     OW37285   1.755   4.255   1.688 -0.3905 -0.6602 -0.2177
 8551SOL    HW137286   1.789   4.166   1.686  1.1982 -0.0361 -0.7247
 8551SOL    HW237287   1.712   4.256   1.773 -1.4703  0.3648 -0.7672
 8552SOL     OW37288   2.380   3.902  13.674 -0.4690  0.0456 -0.1833
 8552SOL    HW137289   2.471   3.920  13.699 -1.1791  1.4621  1.4446
 8552SOL    HW237290   2.388   3.869  13.585  0.2691 -0.6303  0.1249
 8553SOL     OW37291   1.481   3.092  17.442 -0.8340 -0.3698 -0.7938
 8553SOL    HW137292   1.555   3.031  17.442 -0.5149  0.0113  0.3499
 8553SOL    HW237293   1.418   3.036  17.488 -3.0567  1.9277 -1.0648
 8554SOL     OW37294   4.144   0.630   3.336  0.3500  0.2137 -0.3189
 8554SOL    HW137295   4.081   0.693   3.301 -3.1896 -3.3614 -0.4746
 8554SOL    HW237296   4.225   0.653   3.291  0.8640 -0.0459  0.4639
 8555SOL     OW37297   4.473   0.112   3.570  0.5940 -0.1495  0.2501
 8555SOL    HW137298   4.441   0.198   3.598 -0.9685 -0.8484  0.6064
 8555SOL    HW237299   4.536   0.135   3.502 -0.0334 -0.7387 -0.5337
 8556SOL     OW37300   2.944   0.663   7.856 -0.0628  0.2378  0.2505
 8556SOL    HW137301   2.945   0.739   7.915  0.5603  0.5365 -0.1458
 8556SOL    HW237302   2.974   0.690   7.769  0.6111 -0.9560  0.1266
 8557SOL     OW37303   1.169   0.646  11.110  0.0297  0.3550 -0.1706
 8557SOL    HW137304   1.217   0.610  11.035  0.1550  1.3877 -0.5908
 8557SOL    HW237305   1.102   0.578  11.114 -0.8691  1.1793 -1.0340
 8558SOL     OW37306   0.604   2.871   4.043 -0.7013  0.0788 -0.6177
 8558SOL    HW137307   0.654   2.938   3.996 -1.0385  0.5659 -0.2895
 8558SOL    HW237308   0.654   2.794   4.017  1.2509  1.0077  0.4067
 8559SOL     OW37309   4.337   3.609   7.543  0.3307  0.8949  0.6570
 8559SOL    HW137310   4.414   3.574   7.498 -0.3914  0.6055 -0.3536
 8559SOL    HW237311   4.329   3.689   7.490 -1.3427 -0.5726 -1.2739
 8560SOL     OW37312   4.052   2.837   2.331  0.0072 -0.4604  0.0387
 8560SOL    HW137313   3.986   2.869   2.270 -1.5466 -2.3511  0.7604
 8560SOL    HW237314   4.109   2.914   2.336 -0.2355 -0.2181 -0.9229
 8561SOL     OW37315   2.720   4.032   8.634  0.1875 -0.7267  0.3555
 8561SOL    HW137316   2.731   3.964   8.568 -0.3049  1.0370 -1.5505
 8561SOL    HW237317   2.733   3.981   8.714 -0.8163 -2.0751 -0.3580
 8562SOL     OW37318   4.360   1.650   4.422 -0.4924 -0.8029  0.2164
 8562SOL    HW137319   4.365   1.589   4.349 -1.6149  1.1162 -1.4525
 8562SOL    HW237320   4.295   1.715   4.395 -2.1585 -2.5011  0.1443
 8563SOL     OW37321   4.356   4.133   3.407 -0.6733 -0.8541  0.2812
 8563SOL    HW137322   4.339   4.186   3.484 -0.2209 -0.0111 -0.2008
 8563SOL    HW237323   4.427   4.182   3.366 -2.4203  0.5449 -1.0461
 8564SOL     OW37324   1.234   0.556  15.772 -0.1082  0.7190 -0.0929
 8564SOL    HW137325   1.151   0.601  15.753 -1.8309 -2.7656 -0.9463
 8564SOL    HW237326   1.203   0.483  15.827 -1.7978 -0.6892 -2.9234
 8565SOL     OW37327   0.180   4.002   4.068  0.0919  0.7829  0.1487
 8565SOL    HW137328   0.245   3.932   4.068  1.2776  1.8820  3.6490
 8565SOL    HW237329   0.185   4.041   3.981  0.2174  0.5454  0.0507
 8566SOL     OW37330   0.406   2.356   1.080  0.0757 -0.0229 -0.1432
 8566SOL    HW137331   0.441   2.340   0.993 -0.8120  1.6262 -0.8172
 8566SOL    HW237332   0.471   2.319   1.140 -0.2072 -0.9450 -0.4058
 8567SOL     OW37333   4.449   4.177   7.323  0.2196  0.8267  0.4214
 8567SOL    HW137334   4.407   4.247   7.273  1.2664 -0.5471 -2.3728
 8567SOL    HW237335   4.383   4.139   7.382 -0.3446 -0.3029 -0.9414
 8568SOL     OW37336   2.184   4.118  17.542  0.4125  0.1988 -0.2937
 8568SOL    HW137337   2.133   4.063  17.601 -1.4850 -0.1091 -2.2022
 8568SOL    HW237338   2.132   4.199  17.534 -1.4309 -1.0332 -0.8211
 8569SOL     OW37339   2.511   3.084  14.410  0.0876  0.4313 -0.3651
 8569SOL    HW137340   2.552   3.014  14.359  4.0857  3.1951 -0.8883
 8569SOL    HW237341   2.476   3.146  14.346 -1.2862 -0.0942 -0.1308
 8570SOL     OW37342   3.127   0.506   8.819  0.2782  0.3705  0.2473
 8570SOL    HW137343   3.042   0.505   8.863  1.0002 -1.8725  1.5836
 8570SOL    HW237344   3.103   0.439   8.754  0.0154  0.4915  0.2182
 8571SOL     OW37345   4.714   1.277   3.858 -0.3965 -0.0489 -0.1092
 8571SOL    HW137346   4.638   1.220   3.844 -0.2834 -0.0603 -0.6690
 8571SOL    HW237347   4.727   1.309   3.769 -1.2731 -1.1195 -0.6320
 8572SOL     OW37348   0.240   2.229   3.376  0.5414 -0.0618  0.1634
 8572SOL    HW137349   0.218   2.308   3.327  0.7462  1.1973  2.1039
 8572SOL    HW237350   0.233   2.270   3.462 -0.0998  2.4617 -1.0805
 8573SOL     OW37351   2.850   4.230   1.924  0.1786  0.6586 -0.1472
 8573SOL    HW137352   2.846   4.176   2.003 -3.3587 -1.1531 -1.5489
 8573SOL    HW237353   2.758   4.251   1.909  0.1767  0.0511 -1.0040
 8574SOL     OW37354   1.073   2.207   0.025 -0.1729  0.1563  0.6302
 8574SOL    HW137355   1.092   2.222  17.669 -0.2877 -3.2230  0.0358
 8574SOL    HW237356   1.040   2.117   0.025  1.0752 -0.2936 -1.3803
 8575SOL     OW37357   3.843   1.379   9.254  0.1002 -0.3341 -0.4414
 8575SOL    HW137358   3.928   1.383   9.298 -0.8119  0.1773  1.2676
 8575SOL    HW237359   3.863   1.315   9.186 -0.5289 -2.4301  1.3613
 8576SOL     OW37360   1.903   1.384   5.395 -0.0546  0.5978 -0.3708
 8576SOL    HW137361   1.962   1.356   5.325 -1.0069  1.3261 -1.4756
 8576SOL    HW237362   1.869   1.457   5.343  2.3752  1.1113 -1.2143
 8577SOL     OW37363   1.446   1.212  16.125 -0.1229 -0.1067 -0.1106
 8577SOL    HW137364   1.360   1.199  16.164 -0.3698  0.7878 -0.3433
 8577SOL    HW237365   1.507   1.226  16.197 -1.5911 -2.2097  1.5146
 8578SOL     OW37366   0.005   1.638   8.023 -0.1270  0.4448  0.3434
 8578SOL    HW137367   0.032   1.681   7.942 -0.0447  0.2329  0.2592
 8578SOL    HW237368   0.045   1.690   8.093  0.7341  0.6975 -0.3416
 8579SOL     OW37369   0.121   3.577   7.221  0.6716 -0.3198  0.3151
 8579SOL    HW137370   0.122   3.668   7.253 -2.8716  0.3343 -1.4563
 8579SOL    HW237371   0.203   3.569   7.171  1.1599 -3.1549  1.5752
 8580SOL     OW37372   4.426   2.154   7.217  0.3961  0.0061  0.3591
 8580SOL    HW137373   4.378   2.214   7.159  0.9768  0.2474  0.1277
 8580SOL    HW237374   4.369   2.159   7.293  0.4118  1.0542  0.2969
 8581SOL     OW37375   1.347   0.798  16.690 -0.0444  0.2071  0.0832
 8581SOL    HW137376   1.288   0.725  16.673 -0.6738  1.5358 -3.3397
 8581SOL    HW237377   1.380   0.769  16.775  2.3704 -0.1330 -0.9674
 8582SOL     OW37378   0.645   1.527   2.738 -0.7190  0.1111 -0.6562
 8582SOL    HW137379   0.725   1.562   2.776 -2.0898  0.7494  1.6658
 8582SOL    HW237380   0.589   1.515   2.814  0.2408 -3.1026 -0.4696
 8583SOL     OW37381   2.859   4.362   6.146  0.3838 -0.3167  0.3582
 8583SOL    HW137382   2.950   4.336   6.137 -0.0203 -1.5061 -0.2736
 8583SOL    HW237383   2.867   4.449   6.184  0.9080 -0.2718  0.1364
 8584SOL     OW37384   2.217   4.376   0.010  0.1549  0.2316  0.4808
 8584SOL    HW137385   2.307   4.393   0.037  0.6953 -0.9417 -0.5514
 8584SOL    HW237386   2.171   4.388   0.093 -0.3955  2.5590 -0.1616
 8585SOL     OW37387   3.703   1.421   8.559  0.1556  0.1137  0.3355
 8585SOL    HW137388   3.687   1.371   8.479  0.9788 -0.9368  0.8177
 8585SOL    HW237389   3.796   1.438   8.550 -0.1885  0.5925 -2.3840
 8586SOL     OW37390   4.451   3.012   0.779  0.3555  0.2607  0.2766
 8586SOL    HW137391   4.518   2.945   0.795  0.1845 -0.2062 -0.9746
 8586SOL    HW237392   4.439   3.019   0.685  1.7323  0.8575  0.1373
 8587SOL     OW37393   1.134   3.918  16.203 -0.5118  0.4641 -0.5087
 8587SOL    HW137394   1.203   3.854  16.183  1.2602  1.9430  0.8198
 8587SOL    HW237395   1.127   3.974  16.126 -1.3449 -0.1140 -0.8472
 8588SOL     OW37396   1.738   0.733   6.727  0.6848 -0.1835  0.0412
 8588SOL    HW137397   1.716   0.826   6.724 -0.4003 -0.4389 -0.2195
 8588SOL    HW237398   1.830   0.746   6.705  0.1948  0.5969 -1.5518
 8589SOL     OW37399   3.780   1.079   9.800 -0.2691 -0.6699  0.5039
 8589SOL    HW137400   3.818   1.138   9.865  1.6616 -0.4367 -0.8377
 8589SOL    HW237401   3.785   1.005   9.860 -1.0341 -0.3089  1.0196
 8590SOL     OW37402   1.280   4.583  15.282 -0.1313 -0.4724 -0.0674
 8590SOL    HW137403   1.292   4.672  15.315 -0.4607 -0.2651 -0.5118
 8590SOL    HW237404   1.213   4.599  15.216  0.4592 -1.8277 -0.9906
 8591SOL     OW37405   4.417   2.065  17.408  0.2591 -0.0363  0.3381
 8591SOL    HW137406   4.465   2.139  17.371  0.7762 -0.5798 -0.0760
 8591SOL    HW237407   4.497   2.017  17.429  1.3006  2.0246  1.0211
 8592SOL     OW37408   3.865   0.753   8.143 -0.2313  0.0608 -0.1796
 8592SOL    HW137409   3.897   0.696   8.073 -1.2568 -1.0117  0.2286
 8592SOL    HW237410   3.942   0.764   8.199 -0.9059  1.6434  0.4029
 8593SOL     OW37411   3.854   4.460  15.207  0.8942  0.4478 -0.1062
 8593SOL    HW137412   3.770   4.488  15.170  1.2694  1.0640 -0.4926
 8593SOL    HW237413   3.824   4.433  15.294 -1.9995  1.3088 -0.8099
 8594SOL     OW37414   0.447   0.179   6.405  0.5241 -0.7667 -0.3373
 8594SOL    HW137415   0.457   0.127   6.325  1.5796  1.9198 -1.9660
 8594SOL    HW237416   0.357   0.161   6.431  1.0684 -2.0635  0.6333
 8595SOL     OW37417   2.392   1.966   7.965 -0.5079  0.0207 -0.1447
 8595SOL    HW137418   2.331   2.005   7.902 -0.4839 -0.0060 -0.1836
 8595SOL    HW237419   2.392   2.029   8.038  2.3823 -1.7371  1.3644
 8596SOL     OW37420   2.421   1.208  17.474  0.4720 -1.0689  0.1154
 8596SOL    HW137421   2.396   1.301  17.479  1.5192 -0.6905 -1.7021
 8596SOL    HW237422   2.389   1.185  17.561 -3.9462 -2.5647 -1.9209
 8597SOL     OW37423   1.134   0.616   6.594  0.5483 -0.2083 -0.8931
 8597SOL    HW137424   1.149   0.707   6.616  0.6262 -0.5387  0.4177
 8597SOL    HW237425   1.120   0.583   6.683 -0.9715  1.5759 -0.4722
 8598SOL     OW37426   3.532   1.819   1.132  0.4425  0.3811  0.4689
 8598SOL    HW137427   3.611   1.868   1.153  0.4943  0.6217 -0.2677
 8598SOL    HW237428   3.543   1.797   1.039 -0.5267  0.7794  0.2586
 8599SOL     OW37429   3.396   4.302   7.631  0.5607  0.0286 -0.0533
 8599SOL    HW137430   3.471   4.361   7.627  0.8807 -0.3135  1.0344
 8599SOL    HW237431   3.429   4.234   7.689 -1.8078  0.5832  1.9901
 8600SOL     OW37432   0.710   2.339   0.869  0.8490  0.0230 -0.2602
 8600SOL    HW137433   0.798   2.329   0.834  0.2838 -0.4210 -1.5811
 8600SOL    HW237434   0.728   2.409   0.931  0.0956  0.7244 -0.8293
 8601SOL     OW37435   2.976   3.155   8.400  0.2913 -0.1940 -0.0007
 8601SOL    HW137436   2.936   3.241   8.407 -0.7356 -0.7814  1.3677
 8601SOL    HW237437   3.038   3.166   8.328 -0.3501  1.0308 -0.3555
 8602SOL     OW37438   1.708   4.462   2.901  0.1305 -0.3771 -0.5148
 8602SOL    HW137439   1.697   4.555   2.923 -3.8597 -1.8337  3.6365
 8602SOL    HW237440   1.677   4.475   2.812  3.3009  1.5189 -1.3526
 8603SOL     OW37441   3.961   1.196   7.835  0.2115  0.0737  0.5027
 8603SOL    HW137442   3.954   1.289   7.817  0.1521  0.0954  0.6372
 8603SOL    HW237443   3.902   1.155   7.772  2.3141 -0.2639 -1.2393
 8604SOL     OW37444   2.185   3.396  16.436  0.2821  0.0215 -0.2326
 8604SOL    HW137445   2.268   3.424  16.397  0.8604 -0.0207  0.9641
 8604SOL    HW237446   2.157   3.483  16.466 -2.1573 -1.2021  1.0406
 8605SOL     OW37447   3.187   3.385   3.119 -0.0253 -0.4084 -0.3563
 8605SOL    HW137448   3.210   3.357   3.031  1.3977  0.0031 -0.1141
 8605SOL    HW237449   3.091   3.384   3.114 -0.2280 -0.4930  3.6390
 8606SOL     OW37450   1.207   3.781  13.917 -0.1613 -0.0072 -0.1667
 8606SOL    HW137451   1.237   3.710  13.974  2.4874  1.9625  0.8934
 8606SOL    HW237452   1.114   3.762  13.908  0.4409 -1.8087 -2.7616
 8607SOL     OW37453   2.214   0.074  17.110  0.0585 -0.4935  0.2352
 8607SOL    HW137454   2.250   4.721  17.091 -0.3323 -0.5330 -0.3198
 8607SOL    HW237455   2.123   0.048  17.102 -0.8279  3.3566 -2.1479
 8608SOL     OW37456   3.382   3.471   7.416  0.3543  0.6726 -0.0938
 8608SOL    HW137457   3.458   3.457   7.359  0.5266  1.2765 -0.0122
 8608SOL    HW237458   3.363   3.560   7.388 -0.0217  0.8085  0.5833
 8609SOL     OW37459   3.233   0.196   7.870 -0.1851  0.2098 -0.4588
 8609SOL    HW137460   3.313   0.242   7.844 -0.8668  1.3156 -0.6272
 8609SOL    HW237461   3.190   0.258   7.930  0.8369  1.2042 -0.7556
 8610SOL     OW37462   4.027   4.073   4.581 -0.8980 -0.9596  0.1451
 8610SOL    HW137463   4.000   4.100   4.669 -1.2204  0.4242 -0.3808
 8610SOL    HW237464   4.110   4.120   4.581 -1.9768  0.9405 -1.6735
 8611SOL     OW37465   3.122   0.151   5.764 -0.2619  0.3693  0.7337
 8611SOL    HW137466   3.075   0.122   5.687 -0.3195  1.5873  0.3101
 8611SOL    HW237467   3.057   0.213   5.796  1.0127  2.5034 -0.8650
 8612SOL     OW37468   1.639   1.589   4.424  0.0001  0.2161 -0.1416
 8612SOL    HW137469   1.677   1.675   4.408 -1.8170  0.8182 -1.2648
 8612SOL    HW237470   1.651   1.552   4.337  2.3561  0.0688  0.2490
 8613SOL     OW37471   4.389   2.994  15.806  0.3492 -0.3623 -0.3049
 8613SOL    HW137472   4.477   3.018  15.836 -0.6238 -0.2456  2.3934
 8613SOL    HW237473   4.341   3.075  15.823  2.4483  1.2892 -2.1668
 8614SOL     OW37474   3.666   0.043   8.022  0.0531  0.5892 -0.5242
 8614SOL    HW137475   3.707   0.129   8.026 -0.8565  1.0548 -1.2502
 8614SOL    HW237476   3.716   4.731   8.090 -3.0402 -0.5542  0.9994
 8615SOL     OW37477   1.993   0.860  16.393 -0.1534 -0.2527 -0.4610
 8615SOL    HW137478   2.033   0.836  16.309  1.7363  3.4381 -0.6342
 8615SOL    HW237479   2.035   0.809  16.463 -0.1261  1.1983  0.5870
 8616SOL     OW37480   1.195   3.190  15.824 -0.0902  0.3521 -0.1368
 8616SOL    HW137481   1.141   3.259  15.863 -0.9539 -0.4411  0.0866
 8616SOL    HW237482   1.279   3.234  15.812  0.6021 -0.5957  1.2666
 8617SOL     OW37483   0.269   2.863   0.781 -0.0863 -0.1759 -0.9162
 8617SOL    HW137484   0.263   2.768   0.775  1.0060 -0.4239  1.9205
 8617SOL    HW237485   0.207   2.897   0.717  0.1458 -0.8218 -1.4802
 8618SOL     OW37486   3.148   0.944   7.728  0.0053  0.0325 -0.3391
 8618SOL    HW137487   3.130   0.962   7.820  1.0850  6.4120 -1.3828
 8618SOL    HW237488   3.057   0.943   7.700 -0.1185  1.4348  0.0564
 8619SOL     OW37489   2.056   2.300   7.669  0.2187 -0.2233 -0.1012
 8619SOL    HW137490   1.978   2.300   7.614  0.9358  0.7144 -1.1034
 8619SOL    HW237491   2.125   2.278   7.607  0.0321 -0.7045 -0.1454
 8620SOL     OW37492   2.686   3.244   1.084 -0.0662  0.1425 -0.1897
 8620SOL    HW137493   2.669   3.166   1.136 -4.0769  0.4946 -1.0295
 8620SOL    HW237494   2.674   3.314   1.148 -3.6525  1.2012 -2.0810
 8621SOL     OW37495   1.888   3.383   5.954 -0.0662 -0.2625  0.0000
 8621SOL    HW137496   1.904   3.395   6.048  0.6782  1.4333 -0.3332
 8621SOL    HW237497   1.891   3.291   5.930 -0.3643 -0.9600  2.6913
 8622SOL     OW37498   3.791   3.608  16.990  0.9521 -0.1771 -0.0551
 8622SOL    HW137499   3.847   3.574  16.920  0.7698  2.3001 -1.3970
 8622SOL    HW237500   3.718   3.652  16.946  0.9089 -0.4921 -0.2992
 8623SOL     OW37501   1.149   0.232  11.041 -0.1003  0.5685 -0.5937
 8623SOL    HW137502   1.105   0.157  11.082  0.2740  0.7117  0.0693
 8623SOL    HW237503   1.120   0.297  11.105  0.3132  0.8599 -0.7035
 8624SOL     OW37504   1.969   1.239   7.112  0.1011 -0.4471  0.6959
 8624SOL    HW137505   1.877   1.263   7.106  0.8002  2.3674  1.1082
 8624SOL    HW237506   1.999   1.330   7.115 -0.6518 -0.1906  0.2743
 8625SOL     OW37507   0.680   0.102   7.719 -0.3380 -0.2255  0.3066
 8625SOL    HW137508   0.687   0.185   7.672  0.7504 -0.3113  0.3371
 8625SOL    HW237509   0.755   0.100   7.778  0.6015  1.2188 -0.8379
 8626SOL     OW37510   0.213   1.607   5.327  0.1534 -0.0653  0.0488
 8626SOL    HW137511   0.220   1.645   5.240 -0.1891 -0.3130 -0.0873
 8626SOL    HW237512   0.299   1.624   5.365 -0.8361 -1.2949  2.8488
 8627SOL     OW37513   2.881   1.028  10.997 -0.1498 -0.0565  0.1726
 8627SOL    HW137514   2.974   1.039  10.975 -0.5207  2.0874 -0.3000
 8627SOL    HW237515   2.873   1.081  11.076 -1.1465  3.8990 -2.6087
 8628SOL     OW37516   0.733   0.004   3.168  0.2568 -0.5059 -0.0732
 8628SOL    HW137517   0.796   4.674   3.198  0.9553  0.0683 -0.3196
 8628SOL    HW237518   0.748   0.075   3.230 -0.8168 -1.2410  1.0346
 8629SOL     OW37519   3.177   0.530  11.322 -0.3480 -0.1987  0.2561
 8629SOL    HW137520   3.204   0.609  11.368 -0.1203 -0.2826  0.2659
 8629SOL    HW237521   3.250   0.532  11.260 -0.1757 -0.8052  0.4309
 8630SOL     OW37522   2.570   3.626   2.160  0.2201 -0.1238  0.5104
 8630SOL    HW137523   2.504   3.559   2.139 -0.1545  0.3246  0.2537
 8630SOL    HW237524   2.511   3.701   2.158 -0.7139 -0.8874 -0.4772
 8631SOL     OW37525   3.726   0.791   4.707  0.0093  0.3875  0.0280
 8631SOL    HW137526   3.680   0.708   4.720  1.3435 -0.1139  1.5946
 8631SOL    HW237527   3.767   0.781   4.621  0.1799 -0.3422  0.1927
 8632SOL     OW37528   3.504   2.965   8.853  0.3083 -0.4881  0.1901
 8632SOL    HW137529   3.533   2.873   8.847  1.5644 -0.1346  0.8213
 8632SOL    HW237530   3.426   2.964   8.908 -0.5053 -1.0260 -0.9678
 8633SOL     OW37531   4.175   3.814   2.577  0.5845  0.3617  0.1588
 8633SOL    HW137532   4.213   3.743   2.628  1.1855  1.1762  0.8573
 8633SOL    HW237533   4.174   3.879   2.648 -0.9381  0.0376  0.4398
 8634SOL     OW37534   3.534   2.026   6.320 -0.1793  0.3854  0.4621
 8634SOL    HW137535   3.448   2.014   6.279 -0.0936  1.1070  0.0768
 8634SOL    HW237536   3.594   2.012   6.246 -1.5097 -2.8382 -0.0152
 8635SOL     OW37537   4.331   1.176   8.861 -0.0628  0.1563  0.0867
 8635SOL    HW137538   4.392   1.211   8.926 -2.7071  1.1173  2.0288
 8635SOL    HW237539   4.380   1.199   8.782  0.5927  0.6228  0.6304
 8636SOL     OW37540   3.508   3.911   6.166  0.4746  0.0375  0.0144
 8636SOL    HW137541   3.442   3.932   6.100  0.3706  0.6954  0.3287
 8636SOL    HW237542   3.563   3.848   6.119 -1.0328 -1.1423 -0.1976
 8637SOL     OW37543   0.922   3.620   0.422  0.3036 -0.2511  0.5361
 8637SOL    HW137544   0.895   3.699   0.469 -1.0473 -0.0889 -0.5002
 8637SOL    HW237545   0.833   3.596   0.395  1.6957 -2.3070 -2.2288
 8638SOL     OW37546   0.360   3.644   1.001 -0.1344  0.2169 -0.4846
 8638SOL    HW137547   0.336   3.560   0.962  0.7594 -1.0330  1.6333
 8638SOL    HW237548   0.426   3.676   0.939  1.1636  0.0536  0.8000
 8639SOL     OW37549   0.811   1.727   1.698 -0.1538 -0.6588  0.0485
 8639SOL    HW137550   0.757   1.795   1.657  0.0441  0.4473  1.5928
 8639SOL    HW237551   0.743   1.697   1.759  0.3065 -2.1795 -0.2003
 8640SOL     OW37552   3.362   1.205   3.734 -0.3945 -0.3930  0.2698
 8640SOL    HW137553   3.363   1.111   3.716  0.6917  0.1781 -2.4962
 8640SOL    HW237554   3.272   1.225   3.710  0.1963  0.2693 -1.3928
 8641SOL     OW37555   1.218   1.043   5.891 -0.4478 -0.3290  0.1624
 8641SOL    HW137556   1.205   1.130   5.853  0.2886 -0.2717  0.0466
 8641SOL    HW237557   1.177   0.989   5.823 -2.9512  2.8687 -0.8748
 8642SOL     OW37558   4.375   0.570   2.943 -0.4738  0.2664 -0.4673
 8642SOL    HW137559   4.282   0.592   2.944 -0.4601  0.3176 -0.2738
 8642SOL    HW237560   4.361   0.481   2.911  1.6795 -0.3307  0.2808
 8643SOL     OW37561   3.307   2.323   4.798  0.2539  0.4034  0.0169
 8643SOL    HW137562   3.232   2.349   4.851 -0.0542  2.0764 -1.2387
 8643SOL    HW237563   3.291   2.229   4.790  0.3921  0.4110 -0.3953
 8644SOL     OW37564   4.561   3.367   5.788  0.0929  0.3257  0.2192
 8644SOL    HW137565   4.620   3.417   5.845  0.0407  0.5438  0.0812
 8644SOL    HW237566   4.533   3.439   5.732  0.4975 -0.7151 -1.3285
 8645SOL     OW37567   2.776   4.071   7.986 -0.0316  0.4553 -0.0627
 8645SOL    HW137568   2.690   4.113   7.991  0.0728  0.7073 -0.3535
 8645SOL    HW237569   2.823   4.083   8.069  0.6377 -1.0411 -0.2250
 8646SOL     OW37570   1.595   4.012   6.657  0.2984  0.2555  0.1366
 8646SOL    HW137571   1.543   4.052   6.727 -1.8119 -0.8601 -0.7783
 8646SOL    HW237572   1.540   3.939   6.626  0.0924  0.4891 -0.0478
 8647SOL     OW37573   1.575   1.851   4.598 -0.2622  0.5330  0.2809
 8647SOL    HW137574   1.662   1.884   4.619  0.8549 -1.8651 -0.5316
 8647SOL    HW237575   1.548   1.854   4.690  0.7132  1.1612  0.5577
 8648SOL     OW37576   0.619   4.585   2.279 -0.1303  0.2606  0.7751
 8648SOL    HW137577   0.579   4.638   2.348 -0.9704  0.8771 -0.1712
 8648SOL    HW237578   0.665   4.521   2.332 -1.3864 -0.6513  0.7484
 8649SOL     OW37579   0.643   4.637   0.492 -0.3389 -0.1287 -0.0129
 8649SOL    HW137580   0.668   4.688   0.414  2.1052 -0.4548  0.5560
 8649SOL    HW237581   0.599   4.711   0.533 -0.5504 -0.9562  1.2659
 8650SOL     OW37582   0.802   0.626   3.668  0.0266 -0.4697  0.2768
 8650SOL    HW137583   0.846   0.593   3.746  0.7377  1.2110  0.5850
 8650SOL    HW237584   0.825   0.719   3.667 -0.5223 -0.3367 -1.1355
 8651SOL     OW37585   0.146   2.955   9.629 -0.2765 -0.6734 -0.1774
 8651SOL    HW137586   0.118   3.016   9.697  1.6543 -1.6224  1.4652
 8651SOL    HW237587   0.066   2.907   9.611  0.4070 -2.3389  1.2912
 8652SOL     OW37588   1.762   0.340  10.196  0.1915  0.4899 -0.5856
 8652SOL    HW137589   1.739   0.423  10.238  1.2546 -0.2626  1.5395
 8652SOL    HW237590   1.689   0.335  10.134  0.3944  1.8185 -0.9229
 8653SOL     OW37591   1.419   3.269   1.373 -0.4850  0.2041  0.5099
 8653SOL    HW137592   1.510   3.241   1.364 -0.8735 -0.3097 -1.8644
 8653SOL    HW237593   1.372   3.197   1.417  0.8581  0.7813  2.8805
 8654SOL     OW37594   3.437   4.170  15.345 -0.1169 -0.0019  0.3317
 8654SOL    HW137595   3.401   4.161  15.433  2.2373 -0.5209  1.2304
 8654SOL    HW237596   3.423   4.262  15.323 -0.9285 -0.1898  0.0286
 8655SOL     OW37597   2.013   1.774   8.452 -0.3137  0.1171 -0.4083
 8655SOL    HW137598   2.078   1.709   8.480 -2.8103 -2.5907 -0.8635
 8655SOL    HW237599   1.932   1.759   8.500 -0.2391 -1.0132 -0.6201
 8656SOL     OW37600   1.061   1.195   7.837 -0.3241 -0.5186  0.0906
 8656SOL    HW137601   1.111   1.132   7.785 -1.3966 -1.8490  0.6728
 8656SOL    HW237602   1.104   1.214   7.920 -0.6648  0.7375 -0.0280
 8657SOL     OW37603   2.950   0.653   6.637 -0.0893 -0.0100  0.2836
 8657SOL    HW137604   3.012   0.715   6.596  2.0001 -0.9001  2.1184
 8657SOL    HW237605   2.868   0.655   6.588  0.5523  3.1303 -0.7099
 8658SOL     OW37606   3.011   0.646   3.252  0.2882 -0.3415  0.0267
 8658SOL    HW137607   3.072   0.661   3.325 -0.0751 -1.8113  0.6342
 8658SOL    HW237608   2.970   0.562   3.272 -1.2425  0.0010 -1.6834
 8659SOL     OW37609   2.303   3.900   3.350 -0.8542 -0.0476  0.0148
 8659SOL    HW137610   2.388   3.868   3.380 -0.2336  1.5753  0.0111
 8659SOL    HW237611   2.279   3.955   3.425  0.5922 -1.1427  1.2558
 8660SOL     OW37612   1.168   3.224   9.412  0.4191  0.5663  0.2504
 8660SOL    HW137613   1.105   3.289   9.442  0.4005 -0.2643  2.0198
 8660SOL    HW237614   1.203   3.187   9.493 -1.3460 -1.8051 -0.0910
 8661SOL     OW37615   3.113   4.706   4.011 -0.3526  0.4501  0.2036
 8661SOL    HW137616   3.108   0.049   4.067  0.2611  0.9539 -0.4323
 8661SOL    HW237617   3.069   4.647   4.072  1.0963 -0.8677 -0.0251
 8662SOL     OW37618   0.638   2.716  11.881  0.0947  0.5819 -0.1007
 8662SOL    HW137619   0.597   2.796  11.912 -0.1167  0.0090  1.1239
 8662SOL    HW237620   0.563   2.662  11.853 -0.3911  1.1842  0.0467
 8663SOL     OW37621   3.098   2.076   2.117  0.3564 -1.1761 -0.4121
 8663SOL    HW137622   3.178   2.066   2.169 -1.1605 -1.4275  1.8770
 8663SOL    HW237623   3.038   2.085   2.191  1.7361 -2.7062  0.8896
 8664SOL     OW37624   3.895   4.659   6.534  0.3220 -0.0883 -0.5755
 8664SOL    HW137625   3.888   4.605   6.455  0.5618  0.9300 -1.3052
 8664SOL    HW237626   3.944   4.731   6.495 -0.6144  1.1443  0.5239
 8665SOL     OW37627   0.433   1.512   7.039  0.4553  0.1542  1.1789
 8665SOL    HW137628   0.474   1.542   6.957  0.8646 -0.4596  1.1599
 8665SOL    HW237629   0.345   1.484   7.017  1.9080 -1.6413 -2.3967
 8666SOL     OW37630   2.428   0.573  17.665 -0.0026 -0.0508 -0.1688
 8666SOL    HW137631   2.349   0.612  17.704 -0.6703 -2.7929  1.1969
 8666SOL    HW237632   2.399   0.515  17.595 -0.0978  0.0786 -0.2388
 8667SOL     OW37633   4.465   3.124   5.859  0.1548  0.2202 -0.1648
 8667SOL    HW137634   4.503   3.211   5.865  0.1623  0.1891  0.2934
 8667SOL    HW237635   4.402   3.147   5.791  0.2342 -1.9613 -0.9800
 8668SOL     OW37636   0.539   2.202   2.505  0.1274  0.2517  0.1731
 8668SOL    HW137637   0.623   2.160   2.522  1.0527  2.1693  0.3557
 8668SOL    HW237638   0.549   2.258   2.427 -1.7240  0.1437 -0.1468
 8669SOL     OW37639   0.182   3.095  17.711 -0.0666 -0.2965  0.5043
 8669SOL    HW137640   0.115   3.030  17.692  1.2406 -1.6188  0.3780
 8669SOL    HW237641   0.230   3.104  17.628 -2.2397  0.2437 -0.6796
 8670SOL     OW37642   0.375   0.470   5.916 -0.1097 -0.1672  0.3362
 8670SOL    HW137643   0.314   0.482   5.844  1.4679 -1.4910 -1.2242
 8670SOL    HW237644   0.434   0.545   5.910  1.2894 -1.3250 -0.6289
 8671SOL     OW37645   3.866   0.395   7.315 -0.0377 -0.0186 -0.3209
 8671SOL    HW137646   3.959   0.378   7.331 -0.2342  0.9616  1.8430
 8671SOL    HW237647   3.850   0.473   7.368 -0.3974  0.2740 -0.8590
 8672SOL     OW37648   4.160   0.561   4.017  0.5299  0.2924 -0.5217
 8672SOL    HW137649   4.119   0.605   4.091  2.1958  1.4507 -0.2977
 8672SOL    HW237650   4.204   0.494   4.069  0.3068 -0.5610 -1.4268
 8673SOL     OW37651   1.269   4.353   3.334 -0.4091  0.5683  0.0138
 8673SOL    HW137652   1.236   4.264   3.332  1.7013 -0.2100 -0.4108
 8673SOL    HW237653   1.334   4.360   3.263  2.3041  1.7433  2.5998
 8674SOL     OW37654   4.071   2.537   5.344  0.3448  0.5351 -0.1142
 8674SOL    HW137655   4.139   2.556   5.410  1.9727 -0.5453 -1.4748
 8674SOL    HW237656   3.986   2.569   5.374  0.5421  0.9793 -0.0422
 8675SOL     OW37657   3.196   2.072   3.695 -0.1442  0.5000 -0.2979
 8675SOL    HW137658   3.212   2.118   3.612 -0.6644 -0.0385 -0.6999
 8675SOL    HW237659   3.169   1.987   3.660  1.3424  0.0465 -0.3371
 8676SOL     OW37660   2.068   3.668   4.962 -0.6127 -0.2109 -0.3645
 8676SOL    HW137661   2.147   3.613   4.958 -2.4822 -2.8308 -0.8990
 8676SOL    HW237662   2.026   3.636   4.882  0.6867  0.6215 -1.3888
 8677SOL     OW37663   1.931   0.169  12.244  0.1931  0.0730 -0.2331
 8677SOL    HW137664   1.896   0.233  12.306  0.9556 -1.0034  1.2797
 8677SOL    HW237665   1.856   0.109  12.235 -0.4544  0.5232  2.0926
 8678SOL     OW37666   2.195   0.788   0.784  0.7080  0.4935  0.3998
 8678SOL    HW137667   2.134   0.817   0.717  0.9100  0.1953  0.0842
 8678SOL    HW237668   2.189   0.692   0.780 -1.2435  0.5421  2.2170
 8679SOL     OW37669   0.044   4.610   4.079 -0.4476  0.3250  0.0520
 8679SOL    HW137670   0.075   4.696   4.109  1.4884  0.0578 -1.1993
 8679SOL    HW237671   4.695   4.643   4.044  0.1169  1.1446 -0.5159
 8680SOL     OW37672   0.686   2.700  16.269  0.4928  0.5877  0.1946
 8680SOL    HW137673   0.689   2.672  16.178 -0.0573 -1.8677  0.9076
 8680SOL    HW237674   0.781   2.706  16.284  0.7590 -0.3896 -1.1246
 8681SOL     OW37675   1.712   1.475   0.158 -0.3148 -0.5202 -0.3137
 8681SOL    HW137676   1.620   1.491   0.180 -0.7693 -1.4526 -1.5588
 8681SOL    HW237677   1.742   1.566   0.160  1.5540 -1.1725  1.0195
 8682SOL     OW37678   2.107   1.955   3.298  0.2182  0.0904  0.0123
 8682SOL    HW137679   2.082   1.863   3.292 -0.1375  0.1990 -0.1579
 8682SOL    HW237680   2.202   1.948   3.287  0.2910 -1.7515  1.7016
 8683SOL     OW37681   4.074   0.091   6.443  0.2269  0.1902  0.2427
 8683SOL    HW137682   4.159   0.082   6.487  0.6640 -0.4515 -0.7373
 8683SOL    HW237683   4.102   0.111   6.354 -2.3789 -0.8545 -0.8093
 8684SOL     OW37684   2.215   0.296  11.916 -0.3883 -0.5159  0.3109
 8684SOL    HW137685   2.157   0.311  11.841  1.2716 -1.3769 -1.1471
 8684SOL    HW237686   2.231   0.202  11.909 -2.2986 -0.8953  1.1282
 8685SOL     OW37687   4.687   3.893  10.557  0.2424  0.6988  0.4965
 8685SOL    HW137688   4.639   3.810  10.560  1.3520  0.0853  1.0675
 8685SOL    HW237689   4.624   3.954  10.595 -1.0239 -0.4109  0.1792
 8686SOL     OW37690   3.009   4.154   2.624 -0.1131  0.4371 -0.1595
 8686SOL    HW137691   3.015   4.070   2.669  1.5524  1.4515  1.5263
 8686SOL    HW237692   2.951   4.141   2.549 -0.4591 -1.4106  0.4373
 8687SOL     OW37693   0.483   1.357   5.039 -0.8093  0.6343  0.1902
 8687SOL    HW137694   0.475   1.277   5.091  0.9882  0.2805 -0.0952
 8687SOL    HW237695   0.526   1.323   4.961 -0.5282 -2.0867  1.5347
 8688SOL     OW37696   0.200   4.272   6.169 -0.8057  0.1374  0.0792
 8688SOL    HW137697   0.236   4.333   6.104 -1.4161  1.4922  1.0198
 8688SOL    HW237698   0.252   4.289   6.248  0.5304 -1.0655 -0.5355
 8689SOL     OW37699   3.177   4.018   0.695 -0.2753  0.1172  0.3899
 8689SOL    HW137700   3.196   3.942   0.749 -1.7112 -0.0905  0.6003
 8689SOL    HW237701   3.264   4.025   0.654  0.1384  0.5166  1.3411
 8690SOL     OW37702   2.091   0.282   2.315 -0.5103  0.1470 -0.0203
 8690SOL    HW137703   2.006   0.320   2.294 -0.8525  0.1574  1.3577
 8690SOL    HW237704   2.064   0.197   2.350 -0.9587 -0.5408 -2.0929
 8691SOL     OW37705   1.337   0.433   6.657  0.1636  0.0978  0.0339
 8691SOL    HW137706   1.291   0.508   6.621  0.0837 -0.2735 -0.6407
 8691SOL    HW237707   1.294   0.358   6.614  0.6646 -0.2659  0.1622
 8692SOL     OW37708   0.708   2.565   9.657 -0.5204 -0.5491 -0.3297
 8692SOL    HW137709   0.613   2.575   9.653 -0.6079 -0.8110  0.8639
 8692SOL    HW237710   0.725   2.555   9.564  1.9402  0.1229  0.0380
 8693SOL     OW37711   2.223   1.954   8.759  0.0118 -0.6538  0.3646
 8693SOL    HW137712   2.304   1.933   8.713  0.8545  1.9720  0.6859
 8693SOL    HW237713   2.213   1.883   8.822  0.1337 -0.6500  0.3893
 8694SOL     OW37714   0.637   3.138  14.276 -0.3512  0.7197  0.6795
 8694SOL    HW137715   0.636   3.109  14.368  2.1411  0.5161  0.6554
 8694SOL    HW237716   0.649   3.233  14.283 -1.6868  0.9337 -0.0704
 8695SOL     OW37717   4.145   4.364  12.550  0.2496  0.5776 -0.8530
 8695SOL    HW137718   4.051   4.370  12.531 -0.2557  2.7320  2.2641
 8695SOL    HW237719   4.175   4.445  12.509  0.7502  2.1578  2.6261
 8696SOL     OW37720   1.813   1.132   3.546  0.5685  0.1392 -0.4145
 8696SOL    HW137721   1.875   1.111   3.616  1.2520 -0.8695 -1.3175
 8696SOL    HW237722   1.833   1.063   3.482  2.3170  1.4989 -1.3109
 8697SOL     OW37723   2.347   4.610  16.056 -0.1492  0.0784 -0.2479
 8697SOL    HW137724   2.418   4.673  16.069  1.0950 -1.6503  1.3565
 8697SOL    HW237725   2.398   4.529  16.057  0.6929  0.6267  0.9818
 8698SOL     OW37726   3.748   4.170   8.455 -0.9942 -0.2762  0.0928
 8698SOL    HW137727   3.725   4.184   8.547 -2.4909 -1.1415 -0.1521
 8698SOL    HW237728   3.808   4.243   8.441 -0.2597 -0.8059  0.4893
 8699SOL     OW37729   3.467   3.050   8.300  0.3158  0.4183  0.0498
 8699SOL    HW137730   3.548   2.999   8.303  1.4021  2.0873 -1.1312
 8699SOL    HW237731   3.498   3.136   8.272 -0.2299  0.0175 -1.7582
 8700SOL     OW37732   4.363   2.039   5.019  0.2384  0.2718  0.2506
 8700SOL    HW137733   4.367   2.104   4.949 -1.1990  1.0006  0.8514
 8700SOL    HW237734   4.398   1.965   4.970 -1.6171 -0.9042  0.7333
 8701SOL     OW37735   0.696   0.534   8.634  0.0793 -0.0937  0.3251
 8701SOL    HW137736   0.685   0.572   8.547 -1.1595  2.1141  1.4547
 8701SOL    HW237737   0.627   0.567   8.691 -2.7715 -2.5231 -1.6970
 8702SOL     OW37738   0.207   3.347   3.779 -0.1878  0.2891 -0.1292
 8702SOL    HW137739   0.136   3.362   3.842  1.0717 -0.5485  1.4848
 8702SOL    HW237740   0.283   3.353   3.838 -0.0307 -0.5566 -0.2459
 8703SOL     OW37741   1.107   3.804   2.026 -0.2479  0.3605 -0.0946
 8703SOL    HW137742   1.112   3.743   1.952 -1.8013  1.3273 -0.9711
 8703SOL    HW237743   1.099   3.729   2.086 -0.4600 -0.3905 -1.0586
 8704SOL     OW37744   3.106   2.198   3.094 -0.9774  0.1834  0.1817
 8704SOL    HW137745   3.085   2.159   3.179  3.2136  1.0986  1.6388
 8704SOL    HW237746   3.181   2.140   3.084  0.9364  2.3190  2.1718
 8705SOL     OW37747   2.032   0.463   5.221  0.3492  0.0819 -0.3110
 8705SOL    HW137748   1.962   0.465   5.155  0.9097  0.1080 -0.8985
 8705SOL    HW237749   1.997   0.391   5.272  1.3979  0.2642  0.6460
 8706SOL     OW37750   3.075   4.704   9.923 -0.3089  0.2708  0.1290
 8706SOL    HW137751   3.042   0.007  10.004 -1.4843  1.8076 -1.0428
 8706SOL    HW237752   3.124   0.044   9.888  0.7768 -0.2077  0.6563
 8707SOL     OW37753   0.249   1.074  10.764  0.2856 -0.4489 -0.6627
 8707SOL    HW137754   0.255   1.129  10.842 -2.6765 -0.0536 -0.7252
 8707SOL    HW237755   0.155   1.088  10.752  0.1909 -0.5569 -0.0723
 8708SOL     OW37756   4.641   2.568   9.202 -0.6249  0.3400  0.3743
 8708SOL    HW137757   4.653   2.655   9.163 -1.7991 -0.3166 -1.4495
 8708SOL    HW237758   4.658   2.595   9.292 -1.2706  1.0035  0.2960
 8709SOL     OW37759   2.671   0.256   0.672  0.2465  0.2254  0.3391
 8709SOL    HW137760   2.725   0.238   0.750  1.1857 -1.1258 -0.6062
 8709SOL    HW237761   2.588   0.272   0.717 -0.1070  2.2975 -1.0724
 8710SOL     OW37762   4.392   3.918   6.860  0.3555  0.6546 -0.0357
 8710SOL    HW137763   4.469   3.940   6.807  0.8961 -2.4226 -0.5716
 8710SOL    HW237764   4.376   3.998   6.910  0.6788  0.8424 -0.2352
 8711SOL     OW37765   2.998   3.780  15.083  0.2959 -0.4809  0.0628
 8711SOL    HW137766   3.033   3.772  14.994 -0.3808 -0.6641 -0.1886
 8711SOL    HW237767   2.914   3.826  15.071  1.7981  2.1962 -0.3485
 8712SOL     OW37768   1.514   2.049   5.149  0.1005 -0.2380  0.2168
 8712SOL    HW137769   1.439   2.097   5.182 -0.1785 -0.8954  0.5284
 8712SOL    HW237770   1.538   2.102   5.073  1.6095  1.2095  1.6892
 8713SOL     OW37771   1.147   1.081   5.140 -0.2678 -0.7282  0.2873
 8713SOL    HW137772   1.228   1.052   5.184 -0.5670 -1.2505  0.4929
 8713SOL    HW237773   1.171   1.168   5.107 -1.9170 -0.4412 -0.1369
 8714SOL     OW37774   3.050   4.109   3.975 -0.4575 -0.3630  0.1909
 8714SOL    HW137775   3.105   4.153   3.911 -0.0146  0.0121  0.8335
 8714SOL    HW237776   3.030   4.026   3.931 -1.6980 -1.1755  2.2691
 8715SOL     OW37777   2.864   2.460   4.892  0.5234 -0.2700  0.2183
 8715SOL    HW137778   2.854   2.476   4.986  1.4586  0.5472  0.1778
 8715SOL    HW237779   2.953   2.492   4.880  0.1537  0.4376 -0.6152
 8716SOL     OW37780   3.009   1.341  12.886  0.2323  0.1007 -0.2469
 8716SOL    HW137781   2.966   1.290  12.817 -0.1605 -0.2526  0.2636
 8716SOL    HW237782   2.977   1.429  12.866 -0.0255 -0.0883 -0.6557
 8717SOL     OW37783   4.206   3.577   8.665  0.0087 -0.2221  0.2690
 8717SOL    HW137784   4.176   3.533   8.745 -0.5837 -0.7850 -0.2593
 8717SOL    HW237785   4.125   3.615   8.632 -2.0099 -2.1280  3.1049
 8718SOL     OW37786   2.917   4.028   1.110 -0.4451  0.0014  0.6482
 8718SOL    HW137787   2.991   4.048   1.053 -0.4920  0.1469  0.6393
 8718SOL    HW237788   2.944   4.081   1.185  2.8306 -0.2304 -0.3852
 8719SOL     OW37789   2.166   3.342   8.932 -0.3262 -0.3972  0.3188
 8719SOL    HW137790   2.200   3.347   9.021 -0.2608  0.6090  0.2340
 8719SOL    HW237791   2.232   3.282   8.896  0.8223  0.7977  0.4515
 8720SOL     OW37792   3.799   3.058   6.032  0.6987  0.2168 -0.1993
 8720SOL    HW137793   3.886   3.018   6.042  1.0228  0.7934 -0.6883
 8720SOL    HW237794   3.777   3.081   6.122 -0.2526 -0.5619 -0.2430
 8721SOL     OW37795   1.394   2.076   7.701 -0.5160 -0.1283  0.1914
 8721SOL    HW137796   1.405   2.055   7.794 -0.5558  0.8070  0.4109
 8721SOL    HW237797   1.390   1.991   7.658 -0.6038 -0.1952  0.3318
 8722SOL     OW37798   2.258   2.511   9.176 -0.1349  0.4121 -1.2294
 8722SOL    HW137799   2.327   2.455   9.141  1.2136  1.3817 -0.1006
 8722SOL    HW237800   2.287   2.600   9.159  3.5471 -0.4392  0.7125
 8723SOL     OW37801   2.373   3.868   9.175 -0.7047  0.3497  0.2752
 8723SOL    HW137802   2.317   3.803   9.216  3.2996 -2.7770  0.8067
 8723SOL    HW237803   2.328   3.864   9.090 -0.5734  0.6061  0.1920
 8724SOL     OW37804   2.819   0.417   9.547 -0.2303  0.0872  0.4925
 8724SOL    HW137805   2.909   0.443   9.567 -0.0052  2.0221 -3.1778
 8724SOL    HW237806   2.825   0.332   9.592 -1.1223  0.1467  0.7180
 8725SOL     OW37807   1.481   3.279   2.868  0.0555 -0.0736  0.1854
 8725SOL    HW137808   1.487   3.202   2.925  0.9132 -0.5173 -0.4901
 8725SOL    HW237809   1.464   3.343   2.936 -1.4164 -1.0653  0.7528
 8726SOL     OW37810   1.555   1.840   7.629 -0.3080 -0.3633 -0.3225
 8726SOL    HW137811   1.466   1.812   7.606 -1.1373  1.5307  0.6783
 8726SOL    HW237812   1.609   1.799   7.561  0.4190  0.1880 -0.0753
 8727SOL     OW37813   4.321   0.786   2.530  0.0950 -0.5868  0.5063
 8727SOL    HW137814   4.408   0.825   2.542 -0.3496  0.4448  0.4214
 8727SOL    HW237815   4.290   0.853   2.469  0.4724 -2.4867 -1.7885
 8728SOL     OW37816   4.213   1.359   7.050 -0.5169  0.0103 -0.3116
 8728SOL    HW137817   4.172   1.275   7.028  1.5397 -0.9822 -0.3570
 8728SOL    HW237818   4.165   1.381   7.129 -0.6329  1.8904 -0.9004
 8729SOL     OW37819   1.411   3.309  17.300  0.0093  0.6301  0.7363
 8729SOL    HW137820   1.446   3.276  17.217 -1.4669 -0.6259  0.6024
 8729SOL    HW237821   1.442   3.231  17.347 -0.4707 -0.3016 -0.5031
 8730SOL     OW37822   3.447   0.840   2.011  0.3615  0.3852  0.6435
 8730SOL    HW137823   3.486   0.910   2.063  0.1077 -0.1835  1.5997
 8730SOL    HW237824   3.414   0.887   1.934 -1.0659 -0.5880  0.6621
 8731SOL     OW37825   0.802   0.687   1.857 -0.0804  0.0482  0.1964
 8731SOL    HW137826   0.715   0.692   1.819  0.2929 -0.1648 -0.6807
 8731SOL    HW237827   0.805   0.597   1.887  1.6719 -0.8286 -2.6452
 8732SOL     OW37828   0.964   2.429   2.723 -0.0165 -0.1619  0.1931
 8732SOL    HW137829   0.935   2.350   2.769 -0.5745  0.9195  1.6885
 8732SOL    HW237830   0.979   2.489   2.796 -0.9437 -0.3528  0.5406
 8733SOL     OW37831   1.336   0.475   5.295  0.1960  0.0080 -0.4097
 8733SOL    HW137832   1.349   0.389   5.337 -0.4223 -0.9927 -2.2607
 8733SOL    HW237833   1.242   0.467   5.315  0.8070 -3.8095  0.9750
 8734SOL     OW37834   0.054   0.732   9.313 -0.5145 -0.2341 -0.3160
 8734SOL    HW137835   0.114   0.805   9.302  0.1744 -0.5419  1.5595
 8734SOL    HW237836   0.039   0.717   9.219  0.5750 -0.8884 -0.3861
 8735SOL     OW37837   2.748   4.376  17.368 -0.5569  0.0245 -0.3595
 8735SOL    HW137838   2.784   4.409  17.286  0.1489  0.9862  0.3324
 8735SOL    HW237839   2.804   4.419  17.433 -1.5066  1.8907 -0.7523
 8736SOL     OW37840   0.487   4.188   0.566  0.3279 -0.0270 -0.2532
 8736SOL    HW137841   0.561   4.146   0.610  2.3571  2.3766 -1.4281
 8736SOL    HW237842   0.450   4.125   0.504  1.5061 -0.4547 -0.5090
 8737SOL     OW37843   3.576   1.097  14.338 -0.1195 -0.3490 -0.1824
 8737SOL    HW137844   3.550   1.012  14.373  1.4627 -1.4488 -1.6344
 8737SOL    HW237845   3.640   1.130  14.401  0.2716  2.3127 -1.9372
 8738SOL     OW37846   3.441   3.079   2.834 -0.1504  0.0376  0.3548
 8738SOL    HW137847   3.431   2.998   2.784 -2.0417  0.2092  0.4520
 8738SOL    HW237848   3.509   3.057   2.898  0.0036 -0.8051 -0.1060
 8739SOL     OW37849   1.301   2.316   9.251 -0.6596  0.0908 -0.0306
 8739SOL    HW137850   1.395   2.299   9.252 -0.7755 -0.5914 -0.4951
 8739SOL    HW237851   1.296   2.387   9.187 -0.3353  1.1470  1.1111
 8740SOL     OW37852   2.359   0.417   6.860 -0.2563 -0.3357  0.0420
 8740SOL    HW137853   2.417   0.473   6.808  1.4977 -2.1855  0.0095
 8740SOL    HW237854   2.325   0.475   6.929 -3.5727 -0.2668 -1.6425
 8741SOL     OW37855   0.401   1.124  12.188 -0.3202  0.1865 -0.1408
 8741SOL    HW137856   0.389   1.184  12.114 -0.4356  0.7563  0.3305
 8741SOL    HW237857   0.463   1.182  12.232  0.0666 -0.4244  0.1119
 8742SOL     OW37858   1.908   1.470   4.428 -0.2052  0.2898  0.0976
 8742SOL    HW137859   1.935   1.533   4.361 -0.1969 -2.0022 -2.0574
 8742SOL    HW237860   1.890   1.523   4.505 -0.8239 -1.1235  0.9269
 8743SOL     OW37861   3.529   3.712   3.122 -0.0770  0.2126  0.1219
 8743SOL    HW137862   3.581   3.646   3.168  1.6777  0.1296 -1.9970
 8743SOL    HW237863   3.456   3.715   3.184 -0.3249 -0.3911 -0.1450
 8744SOL     OW37864   3.522   2.597   6.729  0.0928 -0.2991 -0.1052
 8744SOL    HW137865   3.542   2.574   6.819  0.5073 -1.8486 -0.5942
 8744SOL    HW237866   3.453   2.663   6.738 -0.5281 -1.1628  1.3590
 8745SOL     OW37867   4.418   0.417   2.579 -0.1452  0.1220  0.0309
 8745SOL    HW137868   4.470   0.496   2.594 -0.5408  0.1099  1.5157
 8745SOL    HW237869   4.428   0.365   2.659  1.4934  0.7123  0.2156
 8746SOL     OW37870   2.080   2.333   0.922 -0.1084 -0.2016 -0.0934
 8746SOL    HW137871   2.085   2.406   0.984  1.4859  1.8957 -2.6870
 8746SOL    HW237872   2.158   2.286   0.951 -0.1627 -0.9663 -1.1681
 8747SOL     OW37873   3.502   4.459   3.689  0.2406 -1.0691  0.2929
 8747SOL    HW137874   3.574   4.464   3.751 -0.9889  2.6639  1.3705
 8747SOL    HW237875   3.541   4.414   3.614 -1.3063 -2.0115  0.0548
 8748SOL     OW37876   1.420   1.622   8.503  0.3955  0.3875 -0.2753
 8748SOL    HW137877   1.438   1.650   8.593  1.3198 -2.2112  0.3626
 8748SOL    HW237878   1.381   1.536   8.522  0.2465  0.3543 -0.7318
 8749SOL     OW37879   1.676   4.068   3.746  0.4984 -0.3686  0.5041
 8749SOL    HW137880   1.629   4.001   3.697  0.5095  2.2573 -3.0993
 8749SOL    HW237881   1.737   4.009   3.789 -1.7587 -1.6696  1.9204
 8750SOL     OW37882   3.707   0.620   8.544  0.2264 -0.1437 -0.9155
 8750SOL    HW137883   3.686   0.676   8.470  1.3975  0.0033 -1.1506
 8750SOL    HW237884   3.734   0.536   8.506  0.6265  0.1380 -1.2537
 8751SOL     OW37885   4.701   2.658   9.538 -0.1701 -0.3638  0.2421
 8751SOL    HW137886   0.052   2.619   9.555  0.5310  1.8071  1.7647
 8751SOL    HW237887   4.656   2.581   9.571  0.8528 -0.8102  0.5857
 8752SOL     OW37888   0.252   1.327   2.814  0.0954 -0.3942 -0.2229
 8752SOL    HW137889   0.208   1.259   2.763 -0.6755  0.3699 -0.5861
 8752SOL    HW237890   0.224   1.408   2.771 -0.0814  0.0530  0.7426
 8753SOL     OW37891   2.560   3.545   0.258  0.2809 -0.7681 -0.1568
 8753SOL    HW137892   2.548   3.639   0.271 -1.4769 -1.1361  0.8828
 8753SOL    HW237893   2.534   3.558   0.167  2.2157  1.8075 -0.3511
 8754SOL     OW37894   1.475   0.101   4.369  0.6853  0.0779 -0.3940
 8754SOL    HW137895   1.411   0.081   4.301  0.5308  0.8715 -0.4748
 8754SOL    HW237896   1.428   0.058   4.441  1.1822 -2.8718 -1.8210
 8755SOL     OW37897   0.176   1.786  12.265  0.3047  0.1597  0.5555
 8755SOL    HW137898   0.134   1.859  12.310 -1.1705 -0.5996  0.4208
 8755SOL    HW237899   0.200   1.723  12.333 -2.6541 -2.7723 -1.0937
 8756SOL     OW37900   1.145   1.694   4.694 -0.2589 -0.1719  0.4505
 8756SOL    HW137901   1.153   1.780   4.653 -2.4785  0.5429  1.5427
 8756SOL    HW237902   1.239   1.695   4.715  0.3984  2.6218 -2.5583
 8757SOL     OW37903   3.685   1.390   5.181 -0.4421  0.5170 -0.4662
 8757SOL    HW137904   3.732   1.327   5.125 -3.2625 -1.7160 -0.3085
 8757SOL    HW237905   3.725   1.369   5.265 -0.0665  0.0756 -0.7523
 8758SOL     OW37906   0.197   0.420   8.143  0.8356 -0.1208  0.3073
 8758SOL    HW137907   0.151   0.395   8.063 -0.8388  0.9086  0.9707
 8758SOL    HW237908   0.156   0.501   8.171  1.0185 -0.2316  0.8992
 8759SOL     OW37909   1.082   1.369   7.438 -0.7288  0.1455 -0.0364
 8759SOL    HW137910   0.998   1.401   7.404 -0.4602 -0.5677 -1.3583
 8759SOL    HW237911   1.052   1.327   7.519 -0.5181  0.1161  0.0256
 8760SOL     OW37912   1.534   1.864   2.688 -0.5159  0.4461 -0.1539
 8760SOL    HW137913   1.468   1.819   2.634  0.4633  1.1773 -1.9750
 8760SOL    HW237914   1.615   1.826   2.654 -1.3145 -0.1380 -1.4047
 8761SOL     OW37915   4.101   3.102   1.160  0.2123 -0.7810 -0.1322
 8761SOL    HW137916   4.139   3.177   1.114  1.5268 -1.2227  0.2570
 8761SOL    HW237917   4.091   3.062   1.074  0.9479  0.0654 -0.6173
 8762SOL     OW37918   1.864   2.364   4.916  0.2134  0.4067 -0.1150
 8762SOL    HW137919   1.835   2.392   4.829  2.5928  1.9530 -0.4257
 8762SOL    HW237920   1.957   2.375   4.899  0.4411 -0.7969  0.4176
 8763SOL     OW37921   4.276   4.383   7.814 -0.2801 -0.1489 -0.6968
 8763SOL    HW137922   4.304   4.318   7.879 -0.8221  0.4706  0.1654
 8763SOL    HW237923   4.182   4.368   7.810 -0.0924 -2.1188  1.9061
 8764SOL     OW37924   1.513   4.480   7.277 -0.1031 -0.8021 -0.0855
 8764SOL    HW137925   1.577   4.536   7.233 -0.6803 -0.0571  0.0263
 8764SOL    HW237926   1.564   4.452   7.353 -1.7094  0.5482  1.4838
 8765SOL     OW37927   2.155   4.593   1.962  0.1465  0.0709 -0.3631
 8765SOL    HW137928   2.064   4.619   1.945 -0.1410 -0.3616  0.5337
 8765SOL    HW237929   2.196   4.629   1.883  1.5343 -0.8036 -0.0426
 8766SOL     OW37930   2.521   0.237   0.445 -0.6144 -0.2626  0.2274
 8766SOL    HW137931   2.564   0.261   0.527 -0.8148 -0.4938  0.4028
 8766SOL    HW237932   2.552   0.312   0.395 -1.3938 -0.1889 -0.1478
 8767SOL     OW37933   3.401   2.343   8.217 -0.2504 -0.0693  0.1850
 8767SOL    HW137934   3.313   2.305   8.226  0.1715 -1.2607 -0.7743
 8767SOL    HW237935   3.381   2.410   8.152 -1.1434 -0.8043 -0.3019
 8768SOL     OW37936   1.209   0.166   2.730  0.0257  0.3308  0.3236
 8768SOL    HW137937   1.231   0.109   2.656 -0.8150  0.3908  0.0211
 8768SOL    HW237938   1.139   0.111   2.766 -0.1802 -1.6585 -3.0562
 8769SOL     OW37939   2.939   3.825   4.806 -0.0483 -0.0687  0.1265
 8769SOL    HW137940   2.914   3.768   4.879  0.2418  1.1928  1.2222
 8769SOL    HW237941   2.931   3.909   4.852 -0.0750  0.8075 -1.5021
 8770SOL     OW37942   0.891   0.387   7.268  0.9858 -0.1165 -0.7239
 8770SOL    HW137943   0.868   0.426   7.183 -0.5659  1.2540  0.3467
 8770SOL    HW237944   0.940   0.307   7.249  0.5971 -0.2639 -1.1238
 8771SOL     OW37945   0.788   2.364   3.896  0.0928  0.1136 -0.7440
 8771SOL    HW137946   0.801   2.298   3.828 -0.3967  2.0303 -2.6911
 8771SOL    HW237947   0.720   2.317   3.944  1.1875  0.5474  1.2241
 8772SOL     OW37948   1.037   0.068   9.020 -0.6295  0.3087 -0.4341
 8772SOL    HW137949   1.040   0.158   8.988 -2.0300  0.0247 -1.3888
 8772SOL    HW237950   1.039   0.017   8.939  0.7962  0.0352 -0.2252
 8773SOL     OW37951   2.656   3.935   3.046 -0.2121 -0.6421 -0.0856
 8773SOL    HW137952   2.750   3.952   3.032 -0.2480 -0.7697 -0.4976
 8773SOL    HW237953   2.627   4.017   3.085 -0.7610 -0.7631 -0.2400
 8774SOL     OW37954   3.609   1.901   2.417 -0.3840 -0.0336  0.1044
 8774SOL    HW137955   3.701   1.909   2.442 -0.5809 -1.5154  1.3117
 8774SOL    HW237956   3.578   1.990   2.430 -0.8885 -0.2316  0.2264
 8775SOL     OW37957   4.071   4.673   6.063 -0.3099 -0.1528 -0.6832
 8775SOL    HW137958   4.127   4.607   6.105  0.2489  0.7480 -0.0092
 8775SOL    HW237959   4.068   4.630   5.978 -1.0682 -0.6528 -0.3999
 8776SOL     OW37960   4.619   1.591   7.354  0.1800 -0.3506  0.0867
 8776SOL    HW137961   4.549   1.651   7.328  0.2268 -0.1091  0.5195
 8776SOL    HW237962   4.603   1.575   7.447 -1.2043 -1.3715 -0.3310
 8777SOL     OW37963   1.927   0.217  13.326 -0.4522  1.1740  0.2857
 8777SOL    HW137964   1.836   0.190  13.341 -0.1170 -0.4698 -0.5910
 8777SOL    HW237965   1.929   0.192  13.234  0.2087  2.3903 -0.0212
 8778SOL     OW37966   1.423   0.963  10.066  0.2336  0.0666 -0.0767
 8778SOL    HW137967   1.411   0.980   9.972  1.5532  1.3934  0.0023
 8778SOL    HW237968   1.368   1.026  10.112 -0.6994 -3.1641  3.1924
 8779SOL     OW37969   4.284   3.524   5.010 -0.0852 -0.5190 -0.3792
 8779SOL    HW137970   4.278   3.429   5.003  1.0349 -0.5925 -0.3845
 8779SOL    HW237971   4.194   3.544   5.035 -0.1124 -1.1575  0.0369
 8780SOL     OW37972   0.401   1.381  15.677  0.0453 -0.1968  0.1075
 8780SOL    HW137973   0.462   1.357  15.746  2.1019  1.4753 -1.1226
 8780SOL    HW237974   0.451   1.342  15.606  0.1990  0.0932  0.0538
 8781SOL     OW37975   3.619   4.362  12.319  0.1341  0.1338  0.0721
 8781SOL    HW137976   3.565   4.354  12.398  1.0936 -1.3973  0.5634
 8781SOL    HW237977   3.609   4.274  12.283  1.9000 -0.2082  0.4504
 8782SOL     OW37978   4.325   3.607   5.270  0.2588 -0.0156 -0.2525
 8782SOL    HW137979   4.410   3.569   5.291  0.0236 -1.5697 -2.0654
 8782SOL    HW237980   4.318   3.568   5.183  0.1825  0.5123 -0.4820
 8783SOL     OW37981   2.303   1.994   7.421 -0.9085  0.1719  0.0327
 8783SOL    HW137982   2.318   1.979   7.328 -0.5138  0.2178  0.0857
 8783SOL    HW237983   2.245   2.070   7.422 -2.7162 -1.2529  2.7609
 8784SOL     OW37984   3.724   0.840   9.471  0.5100  0.1219  0.0717
 8784SOL    HW137985   3.762   0.808   9.552 -0.2236  1.4316  0.9239
 8784SOL    HW237986   3.651   0.783   9.448  0.4306 -0.0867  0.8589
 8785SOL     OW37987   3.035   1.239   7.504 -0.5019  0.1663  0.1510
 8785SOL    HW137988   2.982   1.218   7.581 -0.2950  2.5015  0.9243
 8785SOL    HW237989   3.042   1.332   7.524 -2.0807  0.6875 -1.7714
 8786SOL     OW37990   2.576   0.619   2.630 -0.4398 -0.1000 -0.1740
 8786SOL    HW137991   2.564   0.529   2.660 -1.0849  0.5006  1.3552
 8786SOL    HW237992   2.671   0.623   2.625 -0.3114  0.0482  2.5029
 8787SOL     OW37993   1.312   1.793   7.521 -0.7154  0.2444 -0.8280
 8787SOL    HW137994   1.262   1.849   7.462  0.8166  1.2992 -1.1413
 8787SOL    HW237995   1.262   1.772   7.599  0.2939 -0.0314 -0.2487
 8788SOL     OW37996   4.344   1.704   4.695 -0.2480 -0.4986  0.3642
 8788SOL    HW137997   4.326   1.791   4.660  1.5076  0.3901  1.6197
 8788SOL    HW237998   4.381   1.655   4.623 -1.5182  2.0370 -2.0065
 8789SOL     OW37999   0.801   3.917   0.174  0.3923  0.4708 -0.2490
 8789SOL    HW138000   0.828   3.825   0.170  0.3623  0.4749 -0.5659
 8789SOL    HW238001   0.822   3.954   0.088  0.0506  0.1701 -0.4591
 8790SOL     OW38002   1.958   1.019   9.895  0.3027  0.0472 -0.7575
 8790SOL    HW138003   1.943   0.989   9.805 -0.0768  0.2120 -0.7520
 8790SOL    HW238004   1.876   1.003   9.942  1.7033  0.1405  1.6965
 8791SOL     OW38005   1.911   4.682   4.264  0.1666 -0.1532  0.4246
 8791SOL    HW138006   1.836   4.626   4.284 -1.4376  1.5592 -0.8401
 8791SOL    HW238007   1.869   0.025   4.227  1.1375 -1.4885 -3.4177
 8792SOL     OW38008   1.274   1.770   2.596 -0.1887  0.2986  0.5974
 8792SOL    HW138009   1.234   1.725   2.670 -1.6728  2.7525  1.2546
 8792SOL    HW238010   1.211   1.840   2.588  0.2162  0.7885  1.6507
 8793SOL     OW38011   2.760   2.668   2.090 -0.5574 -0.1428 -0.0700
 8793SOL    HW138012   2.788   2.712   2.171 -1.8401 -0.4751  0.5514
 8793SOL    HW238013   2.743   2.740   2.030 -0.1186  0.3348  0.3809
 8794SOL     OW38014   4.379   1.231  11.071  0.3056  0.2505 -0.1369
 8794SOL    HW138015   4.448   1.166  11.055  0.0268  0.1057 -0.7479
 8794SOL    HW238016   4.418   1.316  11.052 -1.2923  1.1232  0.5091
 8795SOL     OW38017   4.552   3.858  11.070 -0.1081  0.2565 -0.6168
 8795SOL    HW138018   4.517   3.936  11.026  1.4556  0.4514 -1.5317
 8795SOL    HW238019   4.615   3.830  11.004  1.2823 -0.5871  1.0726
 8796SOL     OW38020   0.899   1.046   9.084  0.3570  0.0066  0.1944
 8796SOL    HW138021   0.807   1.065   9.101 -0.0075 -0.4763 -1.2988
 8796SOL    HW238022   0.917   1.115   9.020 -2.1381 -0.2546 -0.7885
 8797SOL     OW38023   1.144   3.078   4.198  0.1241  0.1201 -0.2327
 8797SOL    HW138024   1.068   3.025   4.173  0.5299 -0.5734 -0.0025
 8797SOL    HW238025   1.152   3.125   4.115 -1.1749 -1.0348 -1.0200
 8798SOL     OW38026   1.914   3.110   7.113 -0.0377 -0.0281  0.3652
 8798SOL    HW138027   1.834   3.061   7.132 -0.4876  0.2422 -0.8571
 8798SOL    HW238028   1.894   3.196   7.152 -2.0559 -1.9938  3.6327
 8799SOL     OW38029   0.529   3.994   8.593 -0.1149  0.0792  0.9550
 8799SOL    HW138030   0.462   3.932   8.620  0.5275 -0.3301  1.6221
 8799SOL    HW238031   0.567   3.935   8.527 -0.2054  1.2722 -0.1546
 8800SOL     OW38032   0.683   1.428  10.083 -0.7889 -0.2655  0.0705
 8800SOL    HW138033   0.653   1.511  10.047 -0.4574 -0.1096  0.1581
 8800SOL    HW238034   0.773   1.439  10.053 -0.3470  0.7396  1.7988
 8801SOL     OW38035   3.083   4.373   4.458 -0.1862  0.5128  0.3110
 8801SOL    HW138036   3.029   4.305   4.418  3.0932 -1.0823 -1.3867
 8801SOL    HW238037   3.114   4.331   4.537 -0.7815  0.4975  0.5343
 8802SOL     OW38038   0.522   1.156  12.839 -0.0854  0.4204  0.0577
 8802SOL    HW138039   0.618   1.160  12.834 -0.0634 -0.6025 -0.3105
 8802SOL    HW238040   0.509   1.175  12.746 -3.4783  0.2612  0.5026
 8803SOL     OW38041   4.583   1.208   8.709  0.3276  0.2492 -0.3545
 8803SOL    HW138042   4.635   1.210   8.789  0.9124 -1.0110 -0.7035
 8803SOL    HW238043   4.567   1.301   8.695 -0.6986  0.2517  0.8069
 8804SOL     OW38044   2.992   2.712   8.220 -0.2807  0.0542 -0.1500
 8804SOL    HW138045   2.983   2.746   8.130 -1.6984  0.2489  0.0639
 8804SOL    HW238046   3.078   2.673   8.235 -0.5877 -0.5532  0.0278
 8805SOL     OW38047   2.478   2.139   3.022  0.4501  0.4234 -0.2847
 8805SOL    HW138048   2.482   2.049   2.990 -0.9332  0.0582  0.6115
 8805SOL    HW238049   2.389   2.166   2.997  0.2752 -0.5099 -0.6626
 8806SOL     OW38050   4.047   0.858   9.677 -0.1966 -0.2727  0.3936
 8806SOL    HW138051   4.093   0.779   9.650 -0.0640 -0.0175 -0.1369
 8806SOL    HW238052   3.966   0.807   9.683  0.5872 -1.7799 -1.8905
 8807SOL     OW38053   4.565   2.729   2.981 -0.7017 -0.8468  0.5994
 8807SOL    HW138054   4.650   2.710   3.022 -0.1222 -2.8752 -1.5123
 8807SOL    HW238055   4.585   2.759   2.892 -0.4995 -1.5160  0.4126
 8808SOL     OW38056   0.763   2.518   7.808 -0.3392 -0.1202 -0.4563
 8808SOL    HW138057   0.798   2.544   7.723  1.0771  0.6507  0.3553
 8808SOL    HW238058   0.719   2.600   7.834  1.5025  0.6370  0.3158
 8809SOL     OW38059   4.696   3.117   6.337  0.4139 -0.0324  0.1366
 8809SOL    HW138060   4.650   3.092   6.418 -1.1482  0.8590 -0.4553
 8809SOL    HW238061   0.050   3.136   6.368  0.9915  0.0560 -1.5668
 8810SOL     OW38062   3.522   1.879   6.749 -0.1554 -0.2697  0.2871
 8810SOL    HW138063   3.569   1.961   6.734 -0.5578 -0.6425 -3.1723
 8810SOL    HW238064   3.519   1.837   6.663  0.3920 -0.1805  0.2290
 8811SOL     OW38065   4.575   0.501  16.789 -0.1619  0.2361 -0.0160
 8811SOL    HW138066   4.545   0.546  16.710 -0.3800  0.2037  0.0467
 8811SOL    HW238067   4.548   0.567  16.852  0.6019  0.2254  0.3214
 8812SOL     OW38068   0.842   0.167  15.150 -0.0245  0.2069 -0.2145
 8812SOL    HW138069   0.803   0.249  15.119  2.5970  0.9915 -1.4054
 8812SOL    HW238070   0.922   0.166  15.098  0.0538  3.0223 -0.1429
 8813SOL     OW38071   0.006   4.467  16.437  0.0761 -0.3074  0.0693
 8813SOL    HW138072   4.705   4.383  16.408 -0.8920 -0.0367  0.4816
 8813SOL    HW238073   0.040   4.448  16.524 -1.8516  2.9596  1.5544
 8814SOL     OW38074   2.832   2.631  12.320  0.6591  0.1765  0.0300
 8814SOL    HW138075   2.889   2.700  12.286  1.5158 -0.6737 -0.2919
 8814SOL    HW238076   2.820   2.576  12.242 -1.0322  0.2539  0.2411
 8815SOL     OW38077   2.758   2.603   4.044  0.3125 -0.4216 -0.5944
 8815SOL    HW138078   2.688   2.653   4.002 -0.4213 -0.4760  0.5706
 8815SOL    HW238079   2.757   2.646   4.129  0.7515 -1.1537 -0.2176
 8816SOL     OW38080   0.588   3.834   8.011  0.6644  0.5713 -0.2997
 8816SOL    HW138081   0.516   3.772   8.023  1.1679 -0.2393 -1.4841
 8816SOL    HW238082   0.645   3.788   7.950 -0.3111 -0.6748 -0.2749
 8817SOL     OW38083   3.577   2.494   3.020  0.2699  0.5476 -0.2154
 8817SOL    HW138084   3.543   2.417   2.974 -0.8262  1.2599 -0.5854
 8817SOL    HW238085   3.491   2.531   3.038  0.8378  1.1484  1.2418
 8818SOL     OW38086   2.209   3.308   4.730 -0.1961 -0.3223 -0.2467
 8818SOL    HW138087   2.227   3.221   4.766 -2.9220 -0.7019  0.1635
 8818SOL    HW238088   2.270   3.314   4.656 -0.6224  1.0068 -0.4932
 8819SOL     OW38089   2.285   3.583   3.139 -0.1989 -0.2969 -0.0341
 8819SOL    HW138090   2.354   3.629   3.091  0.6273  0.4713  1.8853
 8819SOL    HW238091   2.237   3.653   3.183 -0.1669  0.7655 -1.6763
 8820SOL     OW38092   2.474   2.564   7.033  0.1214  0.5381 -0.2925
 8820SOL    HW138093   2.509   2.525   6.953 -2.2734  1.1739 -1.6357
 8820SOL    HW238094   2.501   2.655   7.026  0.6480  0.3144 -1.1038
 8821SOL     OW38095   0.914   4.224   5.378 -0.3808 -0.0946  0.0264
 8821SOL    HW138096   0.910   4.187   5.466  1.7951 -0.7958 -0.1703
 8821SOL    HW238097   1.009   4.214   5.372 -0.2393  2.0041 -1.1009
 8822SOL     OW38098   0.042   4.047   7.586  0.1950 -0.3151  0.2316
 8822SOL    HW138099   0.098   4.083   7.517 -1.3757  1.8993  0.1101
 8822SOL    HW238100   4.731   3.978   7.536 -0.0230 -1.2084  1.6615
 8823SOL     OW38101   1.606   3.626   9.848 -0.4096  0.0718  0.3240
 8823SOL    HW138102   1.550   3.703   9.859  3.5224  2.9570 -0.0153
 8823SOL    HW238103   1.690   3.667   9.867  1.8140 -4.2687 -0.1490
 8824SOL     OW38104   0.075   2.072   1.358  0.1693 -0.0109 -0.2482
 8824SOL    HW138105   0.113   2.097   1.442 -2.0590 -5.1148  2.2256
 8824SOL    HW238106   0.073   2.156   1.313 -0.0047  1.1982  2.0008
 8825SOL     OW38107   2.923   0.470   8.302 -0.3453 -0.5734  0.3473
 8825SOL    HW138108   2.922   0.401   8.235  1.1496 -2.3497  2.1850
 8825SOL    HW238109   2.829   0.486   8.308 -1.2620 -5.5853 -0.8181
 8826SOL     OW38110   2.056   2.417   2.019  0.3681 -0.6260 -0.1837
 8826SOL    HW138111   2.106   2.490   2.056 -0.8355 -0.6558  1.5263
 8826SOL    HW238112   1.991   2.396   2.086 -0.1691  3.2204  0.4956
 8827SOL     OW38113   0.662   2.474   8.181  0.1999  0.3561 -0.2923
 8827SOL    HW138114   0.695   2.526   8.255 -1.9843  1.0628  0.1838
 8827SOL    HW238115   0.569   2.497   8.187  0.1214 -0.2736  1.0882
 8828SOL     OW38116   3.941   2.798   6.550 -0.5075  0.4133  0.0960
 8828SOL    HW138117   4.034   2.782   6.531  0.3572  1.3813  3.5251
 8828SOL    HW238118   3.905   2.773   6.465  0.0467 -1.7988  0.5197
 8829SOL     OW38119   2.902   1.059   3.332  0.1902  0.6494 -0.0126
 8829SOL    HW138120   2.978   1.015   3.369  0.1563  0.2323 -0.4410
 8829SOL    HW238121   2.855   0.998   3.275  0.3716  1.7251 -1.2931
 8830SOL     OW38122   0.709   3.787   5.834  0.5233  0.3004  0.1964
 8830SOL    HW138123   0.727   3.881   5.826  0.9025  0.4350  2.5817
 8830SOL    HW238124   0.782   3.744   5.790  0.1996 -0.3716  0.3144
 8831SOL     OW38125   0.121   2.914  11.489  0.1014  0.3091 -0.0566
 8831SOL    HW138126   0.164   2.894  11.572  1.4308 -0.3416 -0.8990
 8831SOL    HW238127   0.193   2.888  11.432 -1.5721 -1.5607 -1.3285
 8832SOL     OW38128   2.593   1.351   2.851 -0.9976 -0.3683  0.4180
 8832SOL    HW138129   2.553   1.310   2.773 -2.4561 -1.5198  1.7571
 8832SOL    HW238130   2.684   1.365   2.825 -0.3211 -0.3334  2.7915
 8833SOL     OW38131   1.461   4.557  16.149 -0.3680 -0.0158  0.0942
 8833SOL    HW138132   1.413   4.636  16.124 -0.8003 -0.0204  0.8973
 8833SOL    HW238133   1.495   4.529  16.064  0.4586  0.2784  0.3336
 8834SOL     OW38134   1.141   2.996   6.104  0.2785  0.1518 -0.4973
 8834SOL    HW138135   1.115   3.087   6.090 -0.9463 -0.4272 -1.9607
 8834SOL    HW238136   1.234   3.003   6.080  1.0363 -0.6414  2.1755
 8835SOL     OW38137   0.154   4.672  14.654 -0.0872  0.0203 -0.4454
 8835SOL    HW138138   0.092   0.006  14.679  0.0587 -0.3406  0.9004
 8835SOL    HW238139   0.111   4.598  14.696 -0.2800  0.1907 -0.3376
 8836SOL     OW38140   0.597   4.687   9.183  0.5397  0.1729  0.1154
 8836SOL    HW138141   0.674   4.699   9.239  1.3022 -0.8344 -0.7212
 8836SOL    HW238142   0.554   4.616   9.230 -0.4917  0.4912 -0.3399
 8837SOL     OW38143   4.213   1.001  15.405 -0.1023  0.1289  0.2505
 8837SOL    HW138144   4.258   0.959  15.478 -0.9747  0.4213  0.9581
 8837SOL    HW238145   4.210   1.094  15.427 -0.1684  0.4596 -1.1601
 8838SOL     OW38146   0.975   4.434   8.757  0.3576 -0.0282 -0.5032
 8838SOL    HW138147   0.950   4.525   8.741 -1.1229 -0.1057  1.3883
 8838SOL    HW238148   0.946   4.391   8.676  1.1226 -0.1457 -0.7090
 8839SOL     OW38149   3.101   3.083   9.852  0.1863 -0.2614  0.4663
 8839SOL    HW138150   3.063   3.169   9.869  0.2334  0.0920 -1.2073
 8839SOL    HW238151   3.146   3.059   9.933 -1.7888  0.1710  1.7137
 8840SOL     OW38152   1.198   1.724  14.296 -0.2844  0.2331 -0.8883
 8840SOL    HW138153   1.175   1.662  14.365 -1.1748  0.2666 -1.1614
 8840SOL    HW238154   1.180   1.802  14.350 -1.7774 -0.4966 -0.3394
 8841SOL     OW38155   0.291   1.401   4.690  0.0816 -0.4218  1.1030
 8841SOL    HW138156   0.226   1.388   4.759  1.0975 -0.0842  2.1085
 8841SOL    HW238157   0.366   1.431   4.740 -0.5409  1.4405  0.9025
 8842SOL     OW38158   1.365   0.292   6.899  0.4584 -0.0674 -0.9240
 8842SOL    HW138159   1.408   0.365   6.942 -0.6028 -0.3802  0.6653
 8842SOL    HW238160   1.339   0.325   6.813  0.5073  0.4140 -0.7508
 8843SOL     OW38161   0.947   0.112   3.531  0.1271 -0.4672 -0.6711
 8843SOL    HW138162   0.949   0.037   3.590 -2.4245 -0.6672 -0.8111
 8843SOL    HW238163   0.979   0.182   3.587  0.2532 -0.8941 -0.2125
 8844SOL     OW38164   1.692   3.254   6.871  0.1642 -0.3313  0.4416
 8844SOL    HW138165   1.614   3.308   6.877  0.2623 -0.3849  2.3176
 8844SOL    HW238166   1.746   3.319   6.916  0.4184  1.0365 -1.8724
 8845SOL     OW38167   1.632   4.228  16.313  0.4584  0.1839 -0.1563
 8845SOL    HW138168   1.677   4.230  16.398  3.2777  3.0666 -1.6998
 8845SOL    HW238169   1.544   4.209  16.344  0.3716  0.6279 -0.1315
 8846SOL     OW38170   4.390   1.000  11.329  0.0979 -0.1452  0.3935
 8846SOL    HW138171   4.351   1.065  11.271 -0.2994 -0.0858  0.7299
 8846SOL    HW238172   4.314   0.962  11.372  1.5230 -1.8325  1.4701
 8847SOL     OW38173   0.764   0.287   8.942  0.0828 -0.5087 -0.4157
 8847SOL    HW138174   0.823   0.283   9.017 -0.4355  0.4008  0.0456
 8847SOL    HW238175   0.805   0.244   8.867  2.8157  0.5345  0.4762
 8848SOL     OW38176   3.945   2.567  12.139  0.2278 -0.6585  0.1066
 8848SOL    HW138177   4.021   2.516  12.165  0.5750  0.5302  1.4048
 8848SOL    HW238178   3.965   2.660  12.148 -2.0357 -0.1478 -0.1139
 8849SOL     OW38179   1.435   3.292  12.576  0.2845 -0.1235  0.2132
 8849SOL    HW138180   1.528   3.301  12.595  0.4294 -0.2539 -0.4347
 8849SOL    HW238181   1.434   3.265  12.484 -0.4901  0.3415  0.0830
 8850SOL     OW38182   3.118   2.609   5.417  0.1686  0.8882 -0.0340
 8850SOL    HW138183   3.173   2.568   5.484  0.9689  1.3667 -0.3970
 8850SOL    HW238184   3.033   2.635   5.453 -0.6256 -1.8236  0.0667
 8851SOL     OW38185   2.601   1.126   6.101 -0.4794  0.4585  0.6519
 8851SOL    HW138186   2.541   1.125   6.176 -0.7392 -1.5591  0.4203
 8851SOL    HW238187   2.673   1.182   6.130 -0.2040 -0.7805  2.3561
 8852SOL     OW38188   3.404   3.180  12.240 -0.0438 -0.1954 -0.0499
 8852SOL    HW138189   3.342   3.246  12.210 -0.5885  0.0412  1.5753
 8852SOL    HW238190   3.447   3.233  12.307 -2.2938  0.8413  0.5857
 8853SOL     OW38191   4.153   2.861   5.564 -0.5343 -0.7139 -0.3018
 8853SOL    HW138192   4.183   2.780   5.605  0.7716 -0.4583 -0.7654
 8853SOL    HW238193   4.240   2.893   5.544 -0.9875 -0.2171 -1.4510
 8854SOL     OW38194   1.988   2.899   5.463 -0.2323 -0.2803 -0.2546
 8854SOL    HW138195   1.921   2.832   5.466 -0.6093  0.0752 -0.7939
 8854SOL    HW238196   1.942   2.974   5.502  0.1686  0.1192 -0.5463
 8855SOL     OW38197   1.471   1.418   3.766 -0.1775 -0.3761  0.1968
 8855SOL    HW138198   1.563   1.395   3.754 -0.1329  0.4004 -0.9997
 8855SOL    HW238199   1.441   1.432   3.676  0.7538  0.4845  0.0221
 8856SOL     OW38200   4.309   3.941   2.816 -0.5755 -0.0324  0.4407
 8856SOL    HW138201   4.383   3.884   2.794 -1.1556 -1.1850  1.4804
 8856SOL    HW238202   4.280   3.890   2.891  1.5791 -2.6305 -0.5016
 8857SOL     OW38203   3.560   2.075   3.559  0.1328  0.1370  0.1469
 8857SOL    HW138204   3.626   2.048   3.495 -2.0521 -1.7352 -1.3152
 8857SOL    HW238205   3.575   2.170   3.553  3.1397 -0.2942  0.4797
 8858SOL     OW38206   2.567   3.566   3.572  0.2559 -0.1777 -0.3454
 8858SOL    HW138207   2.637   3.500   3.579  1.0518  0.6545 -0.4281
 8858SOL    HW238208   2.499   3.517   3.526 -0.1582 -1.0468  1.1789
 8859SOL     OW38209   1.034   0.221  11.909 -0.6749 -0.1526  0.1100
 8859SOL    HW138210   0.956   0.212  11.854  0.5581 -0.3984 -1.6084
 8859SOL    HW238211   1.017   0.143  11.962 -1.8124  0.7029  1.0198
 8860SOL     OW38212   1.383   4.273   2.379 -0.4927  0.2297 -0.0243
 8860SOL    HW138213   1.434   4.218   2.319  0.3640  0.2075  0.7261
 8860SOL    HW238214   1.302   4.224   2.385  0.7196 -1.8866 -0.9612
 8861SOL     OW38215   0.386   0.931   7.653  0.3561  0.0293 -0.0370
 8861SOL    HW138216   0.472   0.891   7.668  0.4755 -0.0192 -0.8421
 8861SOL    HW238217   0.383   1.011   7.705  0.2135 -0.5161  0.7958
 8862SOL     OW38218   2.573   2.406   0.013 -0.1903 -0.4747  0.1008
 8862SOL    HW138219   2.527   2.464   0.074  2.7963  2.7646 -0.6992
 8862SOL    HW238220   2.653   2.388   0.061  1.1790 -0.0299 -1.9940
 8863SOL     OW38221   1.776   4.026  15.713  0.6369 -0.4705  0.3137
 8863SOL    HW138222   1.812   4.091  15.773 -0.2377 -1.1063  1.5148
 8863SOL    HW238223   1.783   4.053  15.621  0.6907  0.1190  0.4935
 8864SOL     OW38224   0.784   1.654   0.489  0.4200  0.2638 -0.1701
 8864SOL    HW138225   0.854   1.613   0.437  0.3573 -0.0452 -0.0108
 8864SOL    HW238226   0.828   1.719   0.544 -1.0485  0.2945  0.9552
 8865SOL     OW38227   2.678   4.322   6.943  0.2783  0.2790  0.6177
 8865SOL    HW138228   2.644   4.403   6.904 -0.4065 -0.4965 -0.3894
 8865SOL    HW238229   2.632   4.328   7.027 -0.5590 -1.5112  0.2903
 8866SOL     OW38230   4.275   2.787   6.016 -0.1564  0.3819  0.2797
 8866SOL    HW138231   4.277   2.692   6.030  1.5836  0.2557 -0.8383
 8866SOL    HW238232   4.369   2.803   6.022 -0.3419  1.1696  1.0183
 8867SOL     OW38233   0.376   3.973   0.437  0.1671 -0.3022  0.4810
 8867SOL    HW138234   0.298   3.924   0.464  2.0935 -4.0431 -0.8589
 8867SOL    HW238235   0.402   3.930   0.356  0.9354 -1.5897  1.4180
 8868SOL     OW38236   0.258   2.053  15.172 -0.0762 -0.0364  0.6411
 8868SOL    HW138237   0.235   2.136  15.130  1.1098  0.1326  0.3309
 8868SOL    HW238238   0.336   2.070  15.224  0.1608  0.8192  0.0138
 8869SOL     OW38239   1.749   0.718  14.726 -0.2593 -0.3690  0.2476
 8869SOL    HW138240   1.760   0.627  14.751  0.0373 -0.1072  1.0567
 8869SOL    HW238241   1.839   0.738  14.701 -0.6102 -0.2524 -0.9435
 8870SOL     OW38242   2.815   3.332   5.174 -1.0076  0.0897  0.8018
 8870SOL    HW138243   2.808   3.427   5.162 -1.3686 -0.1878 -1.1344
 8870SOL    HW238244   2.721   3.315   5.170 -1.5034  2.9702 -0.0883
 8871SOL     OW38245   0.902   0.043  16.215  0.2142 -0.1882 -0.3407
 8871SOL    HW138246   0.841   0.116  16.229  1.2349  0.8258 -1.1546
 8871SOL    HW238247   0.846   4.706  16.244 -0.3961  0.0269 -0.9760
 8872SOL     OW38248   1.695   1.581   7.071  0.5713 -0.5149  0.4118
 8872SOL    HW138249   1.623   1.623   7.118  0.8072  0.2517  0.0997
 8872SOL    HW238250   1.772   1.631   7.099  1.1022  0.0801 -2.0671
 8873SOL     OW38251   0.811   3.023   4.319  0.2680  0.1630 -0.0712
 8873SOL    HW138252   0.874   2.994   4.254 -1.4723 -2.8870 -0.3913
 8873SOL    HW238253   0.772   2.945   4.357  1.1574 -0.5421 -0.6200
 8874SOL     OW38254   1.920   0.489   8.387  0.0556 -0.1377  0.2153
 8874SOL    HW138255   1.988   0.467   8.450 -0.1366 -2.9465 -0.5831
 8874SOL    HW238256   1.964   0.538   8.317  0.1467  2.6742  2.2299
 8875SOL     OW38257   4.302   4.321  15.444  0.6490  0.4572  0.2323
 8875SOL    HW138258   4.339   4.409  15.434  1.7672  0.0795  1.0606
 8875SOL    HW238259   4.370   4.279  15.392 -0.4357 -0.4579 -0.4307
 8876SOL     OW38260   3.311   3.096   5.239 -0.1992  0.1909 -0.0878
 8876SOL    HW138261   3.223   3.062   5.224 -0.5860  0.8736  0.6050
 8876SOL    HW238262   3.300   3.140   5.323 -2.3255 -0.8183  0.1787
 8877SOL     OW38263   2.031   2.916  11.927  0.4318 -0.9990 -0.7859
 8877SOL    HW138264   2.078   2.998  11.908  2.0248 -2.5092 -3.3367
 8877SOL    HW238265   1.945   2.939  11.893  0.2407  0.8248  0.9083
 8878SOL     OW38266   4.027   0.999   0.624 -0.2003 -0.3791  0.4810
 8878SOL    HW138267   3.961   0.930   0.632 -1.0751  0.6168  1.9582
 8878SOL    HW238268   3.966   1.073   0.622  0.4283  0.1105 -0.3736
 8879SOL     OW38269   0.299   2.101   4.458 -0.7789 -0.4833  0.6669
 8879SOL    HW138270   0.270   2.020   4.417  0.2743 -1.1069  1.1880
 8879SOL    HW238271   0.393   2.089   4.465 -0.8243 -1.3907 -0.3835
 8880SOL     OW38272   4.634   2.498   6.351  0.6957  0.1553 -0.0949
 8880SOL    HW138273   4.728   2.479   6.345  1.0428  2.2101 -0.9625
 8880SOL    HW238274   4.597   2.467   6.269 -0.6715 -1.8171  1.2588
 8881SOL     OW38275   3.241   2.106  10.819 -0.2662  0.7218  0.5505
 8881SOL    HW138276   3.214   2.174  10.881 -0.7399  0.8353  0.2277
 8881SOL    HW238277   3.330   2.136  10.802 -0.3682  1.7125  1.7688
 8882SOL     OW38278   4.475   4.126  10.999 -0.2083 -0.1867  0.2798
 8882SOL    HW138279   4.424   4.178  11.061 -0.8520  1.2402 -1.4863
 8882SOL    HW238280   4.565   4.157  11.009 -0.9969  1.8635  0.9434
 8883SOL     OW38281   2.653   3.102  12.397 -0.2874  0.0413  0.6151
 8883SOL    HW138282   2.665   3.050  12.317  1.0198  1.9962 -0.4675
 8883SOL    HW238283   2.746   3.091  12.416 -0.7223 -1.1903  1.9796
 8884SOL     OW38284   1.747   2.542  12.994 -0.2824  0.0308 -0.3613
 8884SOL    HW138285   1.743   2.479  13.066 -1.1298 -0.3316 -0.7207
 8884SOL    HW238286   1.760   2.488  12.917 -0.3433 -0.6533  0.1102
 8885SOL     OW38287   3.369   2.452   7.861 -0.2930 -0.0170 -0.4658
 8885SOL    HW138288   3.463   2.441   7.844 -0.4318 -0.8664 -0.6823
 8885SOL    HW238289   3.341   2.366   7.831  0.6659 -0.5716  0.2181
 8886SOL     OW38290   1.391   2.270   6.848  0.5395 -0.0123  0.4200
 8886SOL    HW138291   1.351   2.345   6.805  0.8754 -0.1279 -0.0947
 8886SOL    HW238292   1.311   2.233   6.887 -0.3447  1.1785 -0.2797
 8887SOL     OW38293   3.087   1.523   3.454  0.3832 -0.2721  0.2928
 8887SOL    HW138294   3.047   1.523   3.541 -3.8183  1.2664 -1.6132
 8887SOL    HW238295   3.172   1.560   3.477  0.6410 -0.6991  0.0162
 8888SOL     OW38296   3.362   2.451   6.541 -0.4041  0.2834  0.3701
 8888SOL    HW138297   3.421   2.395   6.491 -1.9855 -1.7059  0.7466
 8888SOL    HW238298   3.421   2.513   6.584  0.4966 -0.0041 -0.4554
 8889SOL     OW38299   1.466   1.163   5.495  0.1381 -0.1020 -0.1317
 8889SOL    HW138300   1.493   1.130   5.581 -1.0339 -2.4699 -0.6627
 8889SOL    HW238301   1.390   1.216   5.518  0.3116  0.0093  0.1878
 8890SOL     OW38302   4.341   3.265   2.271  0.6383 -0.0326  0.3146
 8890SOL    HW138303   4.324   3.319   2.348  0.4261  0.9980 -0.4445
 8890SOL    HW238304   4.348   3.323   2.195  0.3627  0.1462  0.4252
 8891SOL     OW38305   2.308   4.445  16.586  0.3552  0.2952 -0.3473
 8891SOL    HW138306   2.218   4.443  16.619  0.6574 -1.2899  0.3580
 8891SOL    HW238307   2.356   4.491  16.655 -0.8528 -2.0030  2.0388
 8892SOL     OW38308   2.610   4.249   6.097 -0.0066 -0.4241  0.1389
 8892SOL    HW138309   2.692   4.278   6.137 -1.5181  1.3713  1.9579
 8892SOL    HW238310   2.555   4.323   6.122 -0.8222 -0.0160 -2.8451
 8893SOL     OW38311   4.081   2.841   1.568 -0.0431  0.1272  0.0170
 8893SOL    HW138312   3.993   2.838   1.607  0.8316  0.8515  2.0369
 8893SOL    HW238313   4.100   2.751   1.542 -1.2650  0.2169 -1.1910
 8894SOL     OW38314   3.431   1.165   2.395 -0.0855 -0.0998 -0.5379
 8894SOL    HW138315   3.339   1.165   2.424  0.5663  1.9725  1.5411
 8894SOL    HW238316   3.451   1.249   2.436 -3.4844 -0.5930  2.0837
 8895SOL     OW38317   0.141   0.592   2.532  0.3315  0.1126  0.0656
 8895SOL    HW138318   0.185   0.653   2.592  1.7838 -1.5327  0.6917
 8895SOL    HW238319   0.049   0.616   2.538 -0.3758 -3.4684  4.1166
 8896SOL     OW38320   0.239   4.276   5.629 -0.0278  0.4886 -0.0652
 8896SOL    HW138321   0.334   4.285   5.616  0.2170 -0.6622  1.0135
 8896SOL    HW238322   0.205   4.299   5.543 -0.1986 -3.3651 -1.0316
 8897SOL     OW38323   3.696   1.909   5.443 -0.1201 -0.0118 -0.2773
 8897SOL    HW138324   3.605   1.912   5.474  0.5844 -0.4183  1.8519
 8897SOL    HW238325   3.701   1.995   5.402 -1.1861 -0.2977 -1.0094
 8898SOL     OW38326   0.778   2.184  16.825  0.4551  0.7950  0.0166
 8898SOL    HW138327   0.730   2.116  16.871 -0.6667  1.4704 -0.1610
 8898SOL    HW238328   0.798   2.145  16.740 -2.0554  2.3384 -1.2904
 8899SOL     OW38329   0.951   1.489   3.391  0.1071 -0.1163  0.6188
 8899SOL    HW138330   0.866   1.446   3.380  1.1425 -1.8426 -0.6378
 8899SOL    HW238331   0.983   1.456   3.474  1.9333  0.4228  0.1273
 8900SOL     OW38332   1.405   1.326  16.735 -0.2222  0.2485 -0.1465
 8900SOL    HW138333   1.354   1.246  16.726  1.0717 -0.8241  2.0977
 8900SOL    HW238334   1.382   1.357  16.823  1.5194  2.5133 -0.4856
 8901SOL     OW38335   0.614   3.897   3.707 -0.3756 -0.3331 -0.4755
 8901SOL    HW138336   0.537   3.842   3.689 -1.1582  1.0048 -1.2238
 8901SOL    HW238337   0.583   3.943   3.784 -1.6420 -0.0645 -1.1415
 8902SOL     OW38338   3.057   0.269   0.574  0.0867  0.6268 -0.0412
 8902SOL    HW138339   3.136   0.275   0.628 -0.0938 -1.1502  0.4362
 8902SOL    HW238340   3.091   0.265   0.485 -0.1648 -0.1013 -0.1107
 8903SOL     OW38341   1.480   0.992   7.321  0.2742 -0.0243  0.2312
 8903SOL    HW138342   1.491   0.910   7.272  0.7188  0.9151 -1.2376
 8903SOL    HW238343   1.503   1.051   7.249  0.7738  1.5206  1.6461
 8904SOL     OW38344   2.085   0.789   8.016  0.2560 -0.0947 -0.0638
 8904SOL    HW138345   2.100   0.834   8.099  1.2192  0.9312 -0.7995
 8904SOL    HW238346   2.086   0.695   8.029  0.5249 -0.4014 -2.2027
 8905SOL     OW38347   2.826   0.144   2.750 -0.4920 -0.3075  0.2449
 8905SOL    HW138348   2.761   0.146   2.680  0.3778 -3.4705 -0.6698
 8905SOL    HW238349   2.799   0.070   2.805 -0.5856 -1.0662 -0.8150
 8906SOL     OW38350   3.230   3.912   7.847 -0.2624 -0.2683  0.1577
 8906SOL    HW138351   3.261   3.839   7.794  0.3901 -0.1581  0.3916
 8906SOL    HW238352   3.141   3.885   7.872 -0.0443 -1.8416 -0.7835
 8907SOL     OW38353   3.966   2.663   6.016 -0.1304  0.0340 -0.4413
 8907SOL    HW138354   4.060   2.646   6.002 -0.0162  0.0696  0.2403
 8907SOL    HW238355   3.953   2.727   5.946 -0.1629  0.2883 -0.2037
 8908SOL     OW38356   3.080   2.231   5.441 -0.6489  0.0813  0.6165
 8908SOL    HW138357   3.002   2.277   5.472 -0.6253  0.3653  0.2648
 8908SOL    HW238358   3.130   2.241   5.522  1.9712  0.0212 -0.9675
 8909SOL     OW38359   2.665   3.419  12.142 -0.4133 -0.0171 -0.2657
 8909SOL    HW138360   2.738   3.367  12.176 -0.4552  0.3336  0.3710
 8909SOL    HW238361   2.617   3.416  12.226 -3.9968  1.3475 -2.2590
 8910SOL     OW38362   2.414   2.815  13.476 -0.3321  0.0838 -0.2056
 8910SOL    HW138363   2.501   2.852  13.463 -1.0116  1.4955 -0.7101
 8910SOL    HW238364   2.400   2.748  13.408  0.1404 -1.7909  1.5353
 8911SOL     OW38365   0.383   3.630   3.059  1.0188 -0.5127  0.2117
 8911SOL    HW138366   0.367   3.705   3.117  0.0531 -0.2424 -0.4177
 8911SOL    HW238367   0.311   3.638   2.997 -0.5651 -2.9155  1.7206
 8912SOL     OW38368   1.001   0.678   9.710 -0.4044  0.1413 -0.3911
 8912SOL    HW138369   0.944   0.722   9.646 -1.6035 -0.3012  0.3753
 8912SOL    HW238370   1.054   0.746   9.752  2.4318 -1.4040 -1.4824
 8913SOL     OW38371   2.202   3.083   7.987 -0.8035 -0.5450  0.7260
 8913SOL    HW138372   2.159   3.073   7.903  1.9473  2.9654 -1.1061
 8913SOL    HW238373   2.156   3.165   8.007  0.2535  0.1857  0.1244
 8914SOL     OW38374   3.095   2.816   5.141  0.2585 -0.3174  0.2901
 8914SOL    HW138375   3.058   2.889   5.190 -1.5376 -0.7972 -0.3646
 8914SOL    HW238376   3.129   2.768   5.216  0.1112 -0.7647  0.0701
 8915SOL     OW38377   4.506   1.327   8.982  0.3234  0.3979 -0.5043
 8915SOL    HW138378   4.509   1.366   9.069  1.4673  1.0672 -0.8470
 8915SOL    HW238379   4.599   1.306   8.975 -0.0058 -0.6056 -1.7166
 8916SOL     OW38380   2.193   4.653   9.831 -0.2006  0.6974 -0.0417
 8916SOL    HW138381   2.185   4.610   9.916  1.1182  0.5517  0.0135
 8916SOL    HW238382   2.115   4.708   9.833 -1.7453 -1.3039 -4.3864
 8917SOL     OW38383   1.762   3.277   0.110 -0.0422 -0.5003  0.6324
 8917SOL    HW138384   1.714   3.232   0.179 -0.6356 -0.5786  0.1711
 8917SOL    HW238385   1.696   3.265   0.041  0.4224  1.6781 -0.1978
 8918SOL     OW38386   4.407   1.646   5.937  0.0995  0.4678 -0.3115
 8918SOL    HW138387   4.477   1.703   5.906 -0.6270  1.3517 -0.3163
 8918SOL    HW238388   4.332   1.681   5.889  0.9021  1.0422 -1.1535
 8919SOL     OW38389   0.677   3.526   7.606 -0.5181  0.1310  0.2601
 8919SOL    HW138390   0.703   3.537   7.514  0.6262 -1.2226  0.4205
 8919SOL    HW238391   0.739   3.466   7.647 -1.7601 -0.0818  1.8248
 8920SOL     OW38392   2.495   0.293   5.772  0.0149  0.5601  0.9590
 8920SOL    HW138393   2.477   0.377   5.815 -0.9021  1.6311 -1.5444
 8920SOL    HW238394   2.470   0.241   5.849  0.5583 -0.3644  0.5191
 8921SOL     OW38395   0.515   2.964  15.858 -0.2294  0.6648 -0.1356
 8921SOL    HW138396   0.459   2.930  15.928  0.4357  1.1293  0.6235
 8921SOL    HW238397   0.602   2.931  15.880  0.0306 -0.4086 -2.8804
 8922SOL     OW38398   0.106   3.199   9.388  0.2056  0.1006  0.4355
 8922SOL    HW138399   0.019   3.239   9.394  0.6235  0.9910  0.5365
 8922SOL    HW238400   0.077   3.116   9.424 -2.4525  0.5677 -0.6511
 8923SOL     OW38401   0.818   1.937  14.679  0.4656  0.6902  0.4551
 8923SOL    HW138402   0.809   2.019  14.630  0.0749  0.6861  0.5174
 8923SOL    HW238403   0.742   1.934  14.737  0.1098 -0.2262 -0.0556
 8924SOL     OW38404   3.108   4.733   4.579 -0.3855 -0.5924 -0.4257
 8924SOL    HW138405   3.085   4.725   4.672  0.3189  1.3739 -0.0929
 8924SOL    HW238406   3.124   4.641   4.558  3.9340  0.2570 -0.8167
 8925SOL     OW38407   1.558   2.086   5.593  0.2537 -0.9996 -0.1125
 8925SOL    HW138408   1.626   2.151   5.576 -2.8996  2.9670  2.3801
 8925SOL    HW238409   1.490   2.154   5.598 -1.3791 -2.6442 -0.0003
 8926SOL     OW38410   0.474   4.684   3.961  0.2214  0.3900 -0.0467
 8926SOL    HW138411   0.428   0.027   3.930  2.4613  1.0186 -1.7868
 8926SOL    HW238412   0.518   4.661   3.879 -2.5575 -0.6350 -1.2627
 8927SOL     OW38413   3.898   0.329   8.790 -0.1669  0.2872 -0.4311
 8927SOL    HW138414   3.888   0.369   8.876 -1.1112  0.1382 -0.4695
 8927SOL    HW238415   3.869   0.404   8.736 -0.0763 -0.0650 -0.9671
 8928SOL     OW38416   4.525   0.809   7.069 -0.1480  0.0123 -0.1867
 8928SOL    HW138417   4.457   0.865   7.032 -1.9548 -2.8870 -1.2231
 8928SOL    HW238418   4.505   0.830   7.160  1.7437  0.5879  0.0942
 8929SOL     OW38419   3.091   3.679  13.691 -0.2739 -0.7006  0.4419
 8929SOL    HW138420   3.132   3.649  13.772  2.6968  1.6762 -0.1919
 8929SOL    HW238421   3.068   3.768  13.715 -2.4353 -1.6719  1.9475
 8930SOL     OW38422   0.726   2.402  12.088  0.3584  0.1075 -0.2731
 8930SOL    HW138423   0.736   2.487  12.132  2.0396 -0.3841  0.3034
 8930SOL    HW238424   0.757   2.343  12.157  0.3570 -0.7425 -1.0016
 8931SOL     OW38425   4.364   3.708  12.686  0.6285  0.8093 -0.1172
 8931SOL    HW138426   4.436   3.766  12.661  0.9838  0.2052 -0.4901
 8931SOL    HW238427   4.328   3.758  12.759 -0.8261  0.5746 -0.6747
 8932SOL     OW38428   3.161   2.836   4.880 -0.3545  0.1250 -0.1553
 8932SOL    HW138429   3.239   2.892   4.875  0.7286 -1.3889 -0.3040
 8932SOL    HW238430   3.148   2.821   4.974 -1.4443 -0.5589 -0.4141
 8933SOL     OW38431   4.360   3.560   8.281 -0.4282 -0.2658 -0.1601
 8933SOL    HW138432   4.333   3.621   8.350 -0.1525  0.3068 -0.5559
 8933SOL    HW238433   4.333   3.618   8.209  1.3548  0.3941 -0.2862
 8934SOL     OW38434   0.806   3.202   2.812  0.2064  0.1148 -0.0885
 8934SOL    HW138435   0.899   3.218   2.829 -0.3007  0.4528  2.3600
 8934SOL    HW238436   0.795   3.114   2.847  0.4153  0.2464  0.3052
 8935SOL     OW38437   3.628   1.811  11.352 -0.9651 -0.3639  0.2611
 8935SOL    HW138438   3.612   1.852  11.267 -2.1935 -0.5095  0.4209
 8935SOL    HW238439   3.681   1.875  11.399 -2.0371 -0.9161  2.2371
 8936SOL     OW38440   2.249   3.305   5.700 -0.5244  0.2757  0.2786
 8936SOL    HW138441   2.237   3.350   5.617  0.9813  0.8294  0.3522
 8936SOL    HW238442   2.306   3.366   5.746  0.1117  2.2438 -3.1867
 8937SOL     OW38443   1.008   4.621   3.255 -0.3089 -0.5027  0.1650
 8937SOL    HW138444   1.008   4.561   3.180  1.0231 -1.6977  1.1315
 8937SOL    HW238445   0.993   4.561   3.328  2.8290 -1.8258 -0.2889
 8938SOL     OW38446   2.803   3.244  17.216 -0.1603 -0.1887  0.4447
 8938SOL    HW138447   2.819   3.306  17.144 -0.6282 -2.4978 -1.6557
 8938SOL    HW238448   2.708   3.233  17.213 -0.1814  0.3366 -0.7519
 8939SOL     OW38449   3.548   2.639   9.472 -0.2188 -0.2199  0.3304
 8939SOL    HW138450   3.569   2.682   9.388 -0.3642  0.0182  0.4149
 8939SOL    HW238451   3.625   2.583   9.466 -0.3003 -0.2988 -0.0133
 8940SOL     OW38452   4.319   1.119  10.249 -0.0067  0.0573 -0.0132
 8940SOL    HW138453   4.350   1.030  10.268  1.0827  0.1242 -1.4725
 8940SOL    HW238454   4.358   1.161  10.326  1.1582 -1.8146  0.4128
 8941SOL     OW38455   1.044   1.338  11.776 -0.7252  0.3049 -0.0451
 8941SOL    HW138456   1.033   1.358  11.683  0.6078  2.0079  0.1710
 8941SOL    HW238457   1.119   1.279  11.776  0.4435  1.7909  0.1904
 8942SOL     OW38458   3.276   0.677   6.351 -0.6705  0.1732  0.0537
 8942SOL    HW138459   3.265   0.583   6.365 -0.6833 -0.0520 -1.4618
 8942SOL    HW238460   3.343   0.685   6.283  0.3161 -0.5599  0.9358
 8943SOL     OW38461   0.399   1.147   5.557  0.2970 -0.1700 -0.3917
 8943SOL    HW138462   0.439   1.079   5.503 -1.6457 -2.2219  0.7927
 8943SOL    HW238463   0.455   1.219   5.527 -2.8071  2.3928  0.0091
 8944SOL     OW38464   4.586   0.294   0.545 -0.0058  0.1273  0.0048
 8944SOL    HW138465   4.648   0.236   0.590 -0.0132 -0.2319 -0.4455
 8944SOL    HW238466   4.505   0.243   0.546  0.9003 -1.3529 -1.9950
 8945SOL     OW38467   2.510   2.918   2.871  0.1348  0.4804 -0.0972
 8945SOL    HW138468   2.481   2.996   2.823 -1.1018  1.8137  2.7878
 8945SOL    HW238469   2.584   2.888   2.819 -1.8231 -1.0972 -1.9603
 8946SOL     OW38470   1.203   1.422   1.763 -0.3872 -0.3729  0.0592
 8946SOL    HW138471   1.260   1.497   1.781  3.2273 -2.2443 -3.5098
 8946SOL    HW238472   1.123   1.469   1.742 -0.8653 -0.8907  0.7078
 8947SOL     OW38473   2.635   4.677  10.132 -1.1985  0.0517 -0.2732
 8947SOL    HW138474   2.547   4.714  10.118 -0.8765  0.6279 -0.7653
 8947SOL    HW238475   2.641   4.718  10.219  0.4964 -0.9017  0.0557
 8948SOL     OW38476   3.735   1.436   4.079 -0.2677 -0.4828  0.2718
 8948SOL    HW138477   3.697   1.367   4.135 -0.9293  0.4043  0.9220
 8948SOL    HW238478   3.710   1.402   3.993  0.3159  3.0312 -1.2778
 8949SOL     OW38479   2.983   3.609   3.663  0.1996 -0.1347 -0.6881
 8949SOL    HW138480   3.067   3.564   3.669 -0.3882 -1.3623 -1.6683
 8949SOL    HW238481   2.954   3.573   3.579 -0.2288 -0.9389 -0.1952
 8950SOL     OW38482   0.221   1.678   2.257 -0.1261  0.5885  0.0756
 8950SOL    HW138483   0.171   1.600   2.231 -1.3452  1.1026  0.8664
 8950SOL    HW238484   0.214   1.670   2.352  3.8677  1.3273  0.3982
 8951SOL     OW38485   0.150   2.852   2.071 -0.7184 -0.5279 -0.4775
 8951SOL    HW138486   0.201   2.859   1.990 -0.2068 -0.6932 -0.1687
 8951SOL    HW238487   0.182   2.927   2.121 -0.7988 -1.3082  0.7502
 8952SOL     OW38488   0.214   3.959   3.474 -0.9795  0.2378 -0.0234
 8952SOL    HW138489   0.245   4.040   3.515 -0.4241  0.1339 -0.2458
 8952SOL    HW238490   0.259   3.897   3.531 -1.2605  0.3732  0.3482
 8953SOL     OW38491   3.897   3.979   1.551 -0.4877 -0.0895 -0.4651
 8953SOL    HW138492   3.891   3.922   1.628  0.2788  0.0344 -0.3147
 8953SOL    HW238493   3.803   3.992   1.538 -0.6793 -0.4751  0.5399
 8954SOL     OW38494   2.961   1.445   5.974 -0.4683 -0.2900  0.4506
 8954SOL    HW138495   3.037   1.447   6.032 -1.0705  1.8678  1.1764
 8954SOL    HW238496   2.997   1.416   5.891 -0.6397 -3.7223  1.5545
 8955SOL     OW38497   1.215   0.119   5.000  0.1374  0.0868  0.1852
 8955SOL    HW138498   1.172   0.034   5.001 -2.2347  1.2848  0.7454
 8955SOL    HW238499   1.157   0.163   5.062 -0.1411  0.8763 -0.6443
 8956SOL     OW38500   1.548   0.205   5.857 -0.2663 -0.7614  0.0944
 8956SOL    HW138501   1.528   0.298   5.872  1.0195 -0.3384 -0.8709
 8956SOL    HW238502   1.633   0.204   5.813  0.9251 -2.0270  2.3727
 8957SOL     OW38503   3.476   3.026   7.663 -0.2503  0.8905  0.0921
 8957SOL    HW138504   3.548   2.966   7.643 -3.3423 -1.5040 -3.7233
 8957SOL    HW238505   3.467   2.998   7.755  2.8027 -0.6752 -0.0775
 8958SOL     OW38506   2.967   4.627   6.286 -0.0165  0.4275 -0.3171
 8958SOL    HW138507   3.020   4.637   6.206  0.9704 -0.1712  0.2654
 8958SOL    HW238508   3.040   4.601   6.341  2.4161  1.0051 -3.2592
 8959SOL     OW38509   2.121   1.731   6.167  0.2187 -0.2546  0.3205
 8959SOL    HW138510   2.187   1.662   6.179 -1.1103 -1.7202 -0.7776
 8959SOL    HW238511   2.129   1.754   6.075  3.0188 -3.2843 -0.2058
 8960SOL     OW38512   4.604   3.178   5.596 -0.1573 -0.1669 -0.1032
 8960SOL    HW138513   4.558   3.097   5.622  0.4482 -0.7082 -0.7251
 8960SOL    HW238514   4.589   3.231   5.674 -0.3220 -1.0480  0.4709
 8961SOL     OW38515   2.475   1.745   2.422  0.1464  0.0134 -0.0643
 8961SOL    HW138516   2.479   1.670   2.363  0.8121  0.5716 -0.7309
 8961SOL    HW238517   2.387   1.741   2.460  0.9605  1.8427  2.0570
 8962SOL     OW38518   0.205   2.609   2.202  0.2191  0.7845  0.2915
 8962SOL    HW138519   0.172   2.694   2.175 -0.6741 -0.0362 -1.1799
 8962SOL    HW238520   0.200   2.558   2.121  0.0058  1.0992  0.1082
 8963SOL     OW38521   1.048   2.629   4.640 -0.4406  0.2403  0.0201
 8963SOL    HW138522   1.024   2.555   4.585 -0.7290  0.9958 -0.8662
 8963SOL    HW238523   1.102   2.685   4.583 -1.4322  0.7122 -0.4551
 8964SOL     OW38524   1.297   1.660   6.489  0.6450 -0.2207  0.2097
 8964SOL    HW138525   1.275   1.642   6.580 -0.0706 -2.9273 -0.4855
 8964SOL    HW238526   1.217   1.694   6.449  0.5665 -0.1823  0.3963
 8965SOL     OW38527   1.170   4.180   6.195 -0.2579 -0.0118 -0.2593
 8965SOL    HW138528   1.154   4.242   6.266 -1.3161  0.0321 -0.5309
 8965SOL    HW238529   1.213   4.240   6.134  1.0305  0.3940  1.0398
 8966SOL     OW38530   3.970   2.637   4.170 -0.2951  0.1444  0.0801
 8966SOL    HW138531   3.930   2.552   4.184  1.5240 -0.6607  0.4348
 8966SOL    HW238532   4.060   2.607   4.154  0.3572  1.9611  0.3129
 8967SOL     OW38533   1.114   2.496   2.307 -0.1238  0.3118  0.4212
 8967SOL    HW138534   1.175   2.434   2.267 -1.2265 -0.3400 -0.2448
 8967SOL    HW238535   1.071   2.525   2.227 -1.4229  0.9065  1.3245
 8968SOL     OW38536   1.072   4.016   1.271  0.5782  0.2037 -0.4194
 8968SOL    HW138537   1.023   4.066   1.206 -0.0277  1.0727  0.7021
 8968SOL    HW238538   1.151   4.070   1.272  0.7138  0.0080 -0.7329
 8969SOL     OW38539   1.510   0.440   3.730 -0.9683  0.3094 -0.4615
 8969SOL    HW138540   1.520   0.403   3.817  0.6155  0.2764 -0.6495
 8969SOL    HW238541   1.584   0.394   3.690  0.9629  3.8458 -0.9507
 8970SOL     OW38542   0.675   0.009   0.249 -0.9817 -0.0693 -0.2946
 8970SOL    HW138543   0.593   0.057   0.234 -0.2754  1.6493  1.2361
 8970SOL    HW238544   0.702   4.721   0.160  0.4120 -0.2390  0.1712
 8971SOL     OW38545   1.688   2.525   5.152  0.3857 -0.6150 -0.1147
 8971SOL    HW138546   1.653   2.554   5.237 -0.5773 -0.9847 -0.3864
 8971SOL    HW238547   1.616   2.470   5.120 -1.2149  1.9029 -0.8695
 8972SOL     OW38548   1.307   2.400   7.333  0.0870 -0.1582  0.6721
 8972SOL    HW138549   1.397   2.382   7.307 -0.0046  0.1761  0.1233
 8972SOL    HW238550   1.311   2.494   7.347  0.0488 -0.0225 -0.2258
 8973SOL     OW38551   3.417   4.249   6.112 -0.4780 -0.2909  0.1569
 8973SOL    HW138552   3.414   4.159   6.080 -1.1964 -0.3374  0.3649
 8973SOL    HW238553   3.483   4.270   6.046  1.4102 -0.6066  1.9321
 8974SOL     OW38554   4.690   2.206   2.186 -0.7921  0.7282  0.2791
 8974SOL    HW138555   0.018   2.209   2.258 -0.7916  1.9801  0.2303
 8974SOL    HW238556   4.614   2.221   2.242 -1.7369  1.2983 -1.1509
 8975SOL     OW38557   1.774   0.878   9.214 -0.6207  0.2167  0.0715
 8975SOL    HW138558   1.737   0.804   9.261  0.6112 -0.9160 -0.7367
 8975SOL    HW238559   1.790   0.932   9.292 -3.7852 -0.0738  0.9211
 8976SOL     OW38560   1.264   3.089   9.624 -0.0774  0.4541  0.0730
 8976SOL    HW138561   1.358   3.088   9.607 -0.0265  0.7994  0.3354
 8976SOL    HW238562   1.246   3.008   9.576 -0.0389 -0.0983  0.9697
 8977SOL     OW38563   1.306   1.606   7.015  0.4477  0.0970 -0.5054
 8977SOL    HW138564   1.317   1.638   7.104 -2.2464  2.1126 -0.8809
 8977SOL    HW238565   1.277   1.689   6.976  1.8509  1.3631  1.1435
 8978SOL     OW38566   4.651   3.403   4.394 -0.0004  0.1674 -0.8213
 8978SOL    HW138567   4.561   3.420   4.423  0.3543 -1.5540  1.3498
 8978SOL    HW238568   4.651   3.422   4.301  0.0979  1.8368 -0.4739
 8979SOL     OW38569   1.876   3.788   2.678 -0.2888 -0.3458  0.2864
 8979SOL    HW138570   1.926   3.776   2.758 -0.9311 -0.9824  0.5943
 8979SOL    HW238571   1.812   3.857   2.699 -0.9749 -0.7180 -0.5855
 8980SOL     OW38572   1.543   4.628   6.462  0.9251  0.0522  0.5680
 8980SOL    HW138573   1.629   4.595   6.434 -0.1593 -0.1960 -2.4822
 8980SOL    HW238574   1.494   4.555   6.500 -0.2672  0.3326 -0.4103
 8981SOL     OW38575   4.129   2.730   4.387 -0.0923 -0.4901  0.4434
 8981SOL    HW138576   4.137   2.674   4.465  0.0442  0.4344  1.0884
 8981SOL    HW238577   4.056   2.689   4.341  0.2650  0.6555 -1.1494
 8982SOL     OW38578   2.655   0.447  11.821  0.3117  0.4226 -0.3288
 8982SOL    HW138579   2.733   0.405  11.784  1.0047  1.7104 -0.3208
 8982SOL    HW238580   2.607   0.458  11.739  0.9567  0.5625 -0.6844
 8983SOL     OW38581   2.094   2.101   4.948  0.1557 -0.1395  0.0722
 8983SOL    HW138582   2.083   2.101   4.853  0.8266 -1.7659 -0.0080
 8983SOL    HW238583   2.004   2.078   4.972 -0.2505  0.3054 -1.0450
 8984SOL     OW38584   3.519   3.386   6.092 -0.4111  0.0228  0.3374
 8984SOL    HW138585   3.522   3.312   6.031 -0.6909  0.7910 -0.6125
 8984SOL    HW238586   3.524   3.346   6.179 -0.5125  0.5362  0.5800
 8985SOL     OW38587   2.642   1.849   0.563 -0.3430  0.4224 -0.6005
 8985SOL    HW138588   2.598   1.788   0.504  0.5337 -0.9831  0.2032
 8985SOL    HW238589   2.565   1.898   0.593 -0.4758  0.2383 -0.6466
 8986SOL     OW38590   4.455   4.020  15.967 -0.6235  0.1441  0.7829
 8986SOL    HW138591   4.494   3.953  16.023  0.7642 -1.4315 -2.1057
 8986SOL    HW238592   4.390   3.976  15.913  0.7184 -1.4805  0.4857
 8987SOL     OW38593   0.572   4.395  13.609 -0.9136  0.4812  0.3590
 8987SOL    HW138594   0.535   4.428  13.691  1.2591  0.6964  1.2506
 8987SOL    HW238595   0.589   4.480  13.569 -0.2063  0.2859  0.2425
 8988SOL     OW38596   1.563   2.019   0.226  0.3655  0.0176  0.3180
 8988SOL    HW138597   1.525   2.080   0.288 -1.6450 -0.3483 -0.5604
 8988SOL    HW238598   1.534   2.060   0.145  1.1283 -0.4351 -0.1763
 8989SOL     OW38599   0.191   0.839  10.037 -0.5476  0.4907 -0.3015
 8989SOL    HW138600   0.101   0.810  10.024 -0.1412 -1.5400  1.4386
 8989SOL    HW238601   0.217   0.776  10.104  0.5687  2.6403  1.3031
 8990SOL     OW38602   0.747   4.124  14.650 -0.2465  0.2108 -0.3355
 8990SOL    HW138603   0.767   4.056  14.586  0.3477 -2.8559  3.0655
 8990SOL    HW238604   0.675   4.082  14.697  0.3709 -0.9463 -0.4213
 8991SOL     OW38605   0.239   4.184   2.507  0.9676 -0.4144 -0.0240
 8991SOL    HW138606   0.230   4.279   2.503 -1.8421 -0.6467  0.6849
 8991SOL    HW238607   0.150   4.159   2.483 -0.1167  2.4734  0.9649
 8992SOL     OW38608   3.716   3.213   8.934 -0.1157 -0.2337  0.2758
 8992SOL    HW138609   3.632   3.245   8.902  0.2952  0.8392  0.2882
 8992SOL    HW238610   3.726   3.142   8.870 -1.6896 -1.7231  1.6749
 8993SOL     OW38611   1.966   4.659   5.966 -0.7488 -0.2296 -0.3413
 8993SOL    HW138612   2.023   4.621   6.033 -1.4411 -0.9394 -0.1646
 8993SOL    HW238613   1.907   4.689   6.034 -1.7777 -1.2690 -0.7891
 8994SOL     OW38614   3.762   2.827   6.741 -0.0139 -0.2865  0.3025
 8994SOL    HW138615   3.787   2.738   6.767  0.0721 -0.3953 -0.1690
 8994SOL    HW238616   3.824   2.827   6.669 -2.3070 -0.6926 -1.6928
 8995SOL     OW38617   1.474   3.176   0.982  0.1468 -0.2463 -0.4398
 8995SOL    HW138618   1.472   3.133   1.067 -1.7109 -1.8488 -1.2916
 8995SOL    HW238619   1.565   3.206   0.983  0.2552 -0.6341  1.5066
 8996SOL     OW38620   0.409   4.552   3.241  0.2645 -0.4177  0.3880
 8996SOL    HW138621   0.373   4.595   3.163  1.0445  0.0653  0.2866
 8996SOL    HW238622   0.489   4.511   3.209  1.1090 -0.1173  2.1088
 8997SOL     OW38623   4.198   1.396   9.071 -0.1560  0.0175 -0.1603
 8997SOL    HW138624   4.257   1.339   9.020  3.1180  0.4275  3.1477
 8997SOL    HW238625   4.255   1.473   9.073 -0.4313  0.2251 -0.3531
 8998SOL     OW38626   1.682   4.059   3.021 -0.1137 -0.4875 -0.5898
 8998SOL    HW138627   1.650   4.075   3.110  0.2826 -2.3599 -0.0974
 8998SOL    HW238628   1.754   4.122   3.019 -0.1197 -0.4703 -0.2460
 8999SOL     OW38629   0.891   0.146   5.415 -0.2036  0.5086 -0.5887
 8999SOL    HW138630   0.898   0.184   5.503  0.4073 -1.7635  0.3447
 8999SOL    HW238631   0.843   0.064   5.422 -1.0210  1.2437  2.4492
 9000SOL     OW38632   0.349   4.567  11.426 -0.1067 -0.2323 -0.0079
 9000SOL    HW138633   0.310   4.492  11.379 -0.7674  0.5675 -0.7308
 9000SOL    HW238634   0.357   4.632  11.357  0.5720 -3.6009 -3.1374
 9001SOL     OW38635   3.157   0.971   3.449  0.0627  0.0274  0.4805
 9001SOL    HW138636   3.207   0.959   3.530 -1.8642 -1.2856  1.4614
 9001SOL    HW238637   3.220   1.022   3.397  1.6584 -3.2432 -0.7605
 9002SOL     OW38638   3.985   1.606   6.261 -0.0351  0.0442  0.0561
 9002SOL    HW138639   4.013   1.648   6.180 -3.4022  1.2333 -0.4729
 9002SOL    HW238640   4.002   1.512   6.251 -2.2353 -0.3528  0.1715
 9003SOL     OW38641   3.098   2.336   3.880 -0.1891  0.1898 -0.3475
 9003SOL    HW138642   3.087   2.431   3.882 -0.7346  0.1030  0.5602
 9003SOL    HW238643   3.037   2.310   3.811 -1.5469  1.7321  0.2836
 9004SOL     OW38644   0.918   4.169   7.958  0.3403  0.3109 -0.4066
 9004SOL    HW138645   0.845   4.142   8.013  1.1787  0.6192  0.8676
 9004SOL    HW238646   0.994   4.125   7.997  0.2523  1.0201  0.5716
 9005SOL     OW38647   2.335   3.968   4.716 -0.3138 -0.5868 -0.3819
 9005SOL    HW138648   2.335   3.891   4.658 -2.7752  0.4768 -1.8007
 9005SOL    HW238649   2.245   3.972   4.748 -0.8118  0.9594 -1.9573
 9006SOL     OW38650   2.274   4.698   2.638  0.0031 -0.5273  0.2687
 9006SOL    HW138651   2.286   0.032   2.705  0.9766 -0.2202 -0.2120
 9006SOL    HW238652   2.256   4.620   2.691  1.0096  0.3018  1.8502
 9007SOL     OW38653   4.324   2.305   6.405 -0.3852  0.0184 -0.2649
 9007SOL    HW138654   4.374   2.333   6.482  1.2275 -0.9252 -0.9573
 9007SOL    HW238655   4.330   2.209   6.401 -1.7574 -0.1100  1.1274
 9008SOL     OW38656   2.166   0.589   3.954 -0.4650  0.0492  0.8182
 9008SOL    HW138657   2.208   0.662   3.999 -1.3138  1.4010 -0.5735
 9008SOL    HW238658   2.096   0.636   3.908  0.5799 -0.3289 -1.1452
 9009SOL     OW38659   4.624   2.589  17.211 -0.2688 -0.0917 -0.8247
 9009SOL    HW138660   4.598   2.651  17.143  1.0129 -1.3704 -2.4536
 9009SOL    HW238661   4.548   2.546  17.249  0.3463 -1.4512 -1.1434
 9010SOL     OW38662   3.074   1.782   3.113  0.0065  0.1402 -0.1570
 9010SOL    HW138663   3.030   1.739   3.186 -1.0819 -2.2807 -2.2687
 9010SOL    HW238664   3.163   1.775   3.148 -0.5100  0.6307  1.2479
 9011SOL     OW38665   2.091   1.677   4.319  0.3361 -0.2022 -0.1539
 9011SOL    HW138666   2.177   1.648   4.350  0.4327 -1.7328 -1.8648
 9011SOL    HW238667   2.131   1.750   4.270  2.3717  0.3540  2.3139
 9012SOL     OW38668   2.389   3.688   5.428 -0.3489 -0.0555 -1.0142
 9012SOL    HW138669   2.377   3.659   5.338  0.3737 -1.2202 -0.7477
 9012SOL    HW238670   2.485   3.686   5.430 -0.2569  1.2553 -4.4410
 9013SOL     OW38671   1.964   1.705  17.322  0.2978  0.0187  0.2451
 9013SOL    HW138672   2.044   1.670  17.283 -0.5059  0.1102 -1.4905
 9013SOL    HW238673   1.976   1.689  17.416  2.5009 -3.8919 -0.6893
 9014SOL     OW38674   2.355   3.507   0.431  0.1842  0.0136 -0.0598
 9014SOL    HW138675   2.418   3.543   0.369 -0.9078  0.0737 -1.1399
 9014SOL    HW238676   2.407   3.460   0.496  0.7879  0.8701  0.0853
 9015SOL     OW38677   3.496   3.166   1.010 -0.0626 -0.0666  0.4313
 9015SOL    HW138678   3.535   3.147   1.095  1.6505  0.0669 -0.3241
 9015SOL    HW238679   3.528   3.254   0.991 -1.3778 -0.4583 -3.7071
 9016SOL     OW38680   0.383   1.595  12.807 -0.0542  0.2022 -0.7192
 9016SOL    HW138681   0.397   1.608  12.900  2.7948  0.8959 -1.2416
 9016SOL    HW238682   0.288   1.601  12.800 -0.2572 -0.7286  1.2423
 9017SOL     OW38683   2.158   0.055  13.632 -0.2839 -0.6838  0.0277
 9017SOL    HW138684   2.202   0.089  13.554  1.1985 -2.4746  0.1101
 9017SOL    HW238685   2.100   4.724  13.594 -0.5618 -0.7908  0.6516
 9018SOL     OW38686   1.287   2.682   4.111 -0.3228  0.1675 -1.0348
 9018SOL    HW138687   1.336   2.624   4.053 -0.8426  0.8626 -2.1674
 9018SOL    HW238688   1.340   2.761   4.097  0.1632 -0.2199 -1.3569
 9019SOL     OW38689   0.230   0.895   5.701 -0.4210  0.1985  0.0926
 9019SOL    HW138690   0.153   0.880   5.647  0.0086 -1.2489 -0.1311
 9019SOL    HW238691   0.289   0.891   5.626 -1.7076  0.5006 -0.9354
 9020SOL     OW38692   2.447   2.340   9.097  0.8088 -0.1582 -0.2120
 9020SOL    HW138693   2.539   2.365   9.108  0.3896  2.5891 -3.1021
 9020SOL    HW238694   2.456   2.261   9.044  1.0429 -0.0063 -0.3974
 9021SOL     OW38695   3.354   1.641  11.514  0.0153  0.1543 -0.3306
 9021SOL    HW138696   3.393   1.650  11.601 -0.4827  1.6017 -0.2477
 9021SOL    HW238697   3.411   1.697  11.462  1.8685 -2.1505 -0.7496
 9022SOL     OW38698   2.273   2.700   0.429  0.3246 -0.5982  0.0639
 9022SOL    HW138699   2.220   2.740   0.360 -2.1088 -2.3664  0.9040
 9022SOL    HW238700   2.247   2.608   0.423 -0.0868 -0.5508  1.0370
 9023SOL     OW38701   1.956   2.927  14.673 -0.3677 -0.2815 -0.1392
 9023SOL    HW138702   1.910   2.984  14.734 -0.4201 -2.0474  1.4726
 9023SOL    HW238703   1.882   2.875  14.643  1.6583 -2.4872 -1.3376
 9024SOL     OW38704   3.977   3.961   5.841  0.2345  0.1679  0.0498
 9024SOL    HW138705   3.887   3.994   5.841  1.0039  2.2390 -1.2853
 9024SOL    HW238706   3.957   3.899   5.771  1.9934  2.5094 -2.5416
 9025SOL     OW38707   1.623   1.085  11.831  0.0257  0.0648  0.1975
 9025SOL    HW138708   1.682   1.042  11.769  2.0542  0.8941  1.5823
 9025SOL    HW238709   1.600   1.164  11.782  2.4501  0.3534 -0.4659
 9026SOL     OW38710   4.079   0.059  10.608  0.2201  0.1590 -0.3354
 9026SOL    HW138711   4.025   4.715  10.617 -0.0849  0.2619 -1.2353
 9026SOL    HW238712   4.098   0.062  10.514  0.8990  1.1689 -0.1683
 9027SOL     OW38713   0.204   4.533   8.567  0.4800  0.2973 -0.5596
 9027SOL    HW138714   0.253   4.503   8.491  0.0735 -2.4074  0.2720
 9027SOL    HW238715   0.137   4.593   8.535  1.2546  2.3875  1.6922
 9028SOL     OW38716   0.546   1.829   0.515  0.3634 -0.1155 -0.4845
 9028SOL    HW138717   0.621   1.771   0.501  1.0274  0.5778  0.1734
 9028SOL    HW238718   0.583   1.879   0.588 -0.8125 -0.1324  0.1154
 9029SOL     OW38719   1.845   0.103  10.300 -0.3755  0.2938 -0.9314
 9029SOL    HW138720   1.864   0.195  10.321 -1.1023  0.2943 -0.2552
 9029SOL    HW238721   1.790   0.125  10.224 -0.8885  0.8248 -0.4083
 9030SOL     OW38722   0.621   2.426   2.331  0.4880 -0.5293 -0.1619
 9030SOL    HW138723   0.556   2.485   2.370  0.0123 -1.4077  0.3538
 9030SOL    HW238724   0.705   2.456   2.366 -0.5232  1.0035  0.9677
 9031SOL     OW38725   0.911   3.811   4.486 -0.0974 -0.0231  0.1506
 9031SOL    HW138726   0.923   3.852   4.572 -0.2678 -1.8499  1.0526
 9031SOL    HW238727   1.001   3.816   4.454  0.3104 -1.8838  1.0274
 9032SOL     OW38728   1.632   2.992   8.345 -0.0407  0.1861  0.2354
 9032SOL    HW138729   1.552   2.959   8.386  0.0102 -0.3442 -0.1002
 9032SOL    HW238730   1.690   2.917   8.338  0.5066  0.5515  0.7998
 9033SOL     OW38731   2.914   2.190   8.419 -0.6493  0.0179  0.3485
 9033SOL    HW138732   2.850   2.213   8.487 -1.1442  1.0212 -0.4572
 9033SOL    HW238733   2.989   2.161   8.471 -0.5436  0.2621  0.3323
 9034SOL     OW38734   0.241   1.812  17.361 -0.3172  0.7258 -0.6780
 9034SOL    HW138735   0.244   1.720  17.334  0.7475  1.5350 -3.2875
 9034SOL    HW238736   0.146   1.823  17.359 -0.7212 -2.3952  2.0119
 9035SOL     OW38737   4.551   0.561   9.676  0.6931 -0.0541 -0.0982
 9035SOL    HW138738   4.557   0.477   9.723  0.3899  0.1361  0.2781
 9035SOL    HW238739   4.627   0.544   9.621  1.0883 -2.0595  1.0635
 9036SOL     OW38740   1.240   4.077   9.543 -0.0807 -0.2770 -0.5573
 9036SOL    HW138741   1.236   4.032   9.459  0.5784  0.9324 -1.2350
 9036SOL    HW238742   1.297   4.025   9.599  0.7124 -0.6773 -1.7318
 9037SOL     OW38743   4.382   0.803  16.396  0.5680 -0.0969  0.1056
 9037SOL    HW138744   4.309   0.786  16.336 -0.3241 -1.7235  1.6465
 9037SOL    HW238745   4.379   0.898  16.408 -0.3198  0.0260 -1.1223
 9038SOL     OW38746   0.673   2.804   8.198  0.1704  0.0277  0.1905
 9038SOL    HW138747   0.677   2.799   8.103 -1.8831 -1.1052  0.1483
 9038SOL    HW238748   0.655   2.898   8.203  0.5127  0.0722  0.5725
 9039SOL     OW38749   0.238   3.581   4.811  0.7421 -0.2167  0.3845
 9039SOL    HW138750   0.170   3.518   4.832  1.4390 -1.3565 -0.7621
 9039SOL    HW238751   0.304   3.524   4.770  1.5458  0.4727  0.7111
 9040SOL     OW38752   4.400   1.773   8.423 -0.4300 -0.2979 -0.0602
 9040SOL    HW138753   4.361   1.854   8.455 -3.0374  0.2284 -4.5667
 9040SOL    HW238754   4.343   1.759   8.347  0.3493  1.1174 -0.9192
 9041SOL     OW38755   1.466   2.433   5.005 -0.5131  0.2455  0.2409
 9041SOL    HW138756   1.381   2.466   4.973  0.1075 -0.4513 -2.1555
 9041SOL    HW238757   1.445   2.342   4.984 -0.7238 -0.1491  2.2144
 9042SOL     OW38758   1.099   2.394  14.971 -0.0741  0.7295  0.0913
 9042SOL    HW138759   1.062   2.379  14.884  1.2717 -1.5009 -0.1023
 9042SOL    HW238760   1.075   2.316  15.021 -2.0012  0.5828 -1.0615
 9043SOL     OW38761   0.073   3.900   1.973 -0.1402 -0.0045  0.0118
 9043SOL    HW138762   0.132   3.827   1.991 -0.3769 -0.5874 -1.6028
 9043SOL    HW238763   0.124   3.938   1.902 -0.5296  1.7687  0.6675
 9044SOL     OW38764   2.818   1.285   6.137 -0.0183  0.1857 -0.3198
 9044SOL    HW138765   2.860   1.208   6.099  1.0698  0.4433  0.3663
 9044SOL    HW238766   2.851   1.353   6.077 -2.3360  1.1185 -0.5293
 9045SOL     OW38767   3.630   0.011   3.764 -0.3840 -0.1889 -0.3763
 9045SOL    HW138768   3.658   4.654   3.756 -2.0852 -0.7166 -0.3299
 9045SOL    HW238769   3.540   0.002   3.795  0.2937  0.3511  1.7452
 9046SOL     OW38770   0.720   1.648  17.209  0.3421 -0.0284 -0.4704
 9046SOL    HW138771   0.632   1.667  17.175  0.9587  0.7655 -1.6210
 9046SOL    HW238772   0.772   1.626  17.131  0.7510  0.5600 -0.3615
 9047SOL     OW38773   0.609   4.182   3.396 -0.4541  0.1805  0.1527
 9047SOL    HW138774   0.520   4.188   3.362  0.2574  0.5384 -1.6560
 9047SOL    HW238775   0.597   4.173   3.490 -0.0771 -0.2744  0.1541
 9048SOL     OW38776   4.158   2.734  12.398  0.6485 -0.2703 -0.6316
 9048SOL    HW138777   4.219   2.805  12.418  1.7965 -1.1491 -0.9545
 9048SOL    HW238778   4.076   2.766  12.434  0.7209 -0.5749 -0.2008
 9049SOL     OW38779   0.901   2.874  12.108 -0.1860 -0.2741  0.3875
 9049SOL    HW138780   0.981   2.831  12.078 -0.9173 -1.3870  0.0261
 9049SOL    HW238781   0.921   2.879  12.201  1.2198  0.1051  0.0669
 9050SOL     OW38782   0.289   2.763  13.495 -0.4084 -0.1368  0.1151
 9050SOL    HW138783   0.315   2.846  13.454  1.5824 -1.0535 -0.4750
 9050SOL    HW238784   0.288   2.785  13.588  1.7706  3.6721 -0.7277
 9051SOL     OW38785   2.864   1.089  15.446 -0.1702 -0.1726 -0.3344
 9051SOL    HW138786   2.787   1.095  15.390  0.3868 -0.5880 -1.1510
 9051SOL    HW238787   2.892   1.004  15.412  1.3783  0.8322 -1.5702
 9052SOL     OW38788   0.913   0.671  14.353 -0.1959 -0.2416 -0.2806
 9052SOL    HW138789   0.987   0.730  14.348 -1.0959  0.8618 -0.5466
 9052SOL    HW238790   0.939   0.601  14.294  1.0196 -0.7185  0.8324
 9053SOL     OW38791   0.473   0.285   8.986 -0.0849  0.0487  0.2743
 9053SOL    HW138792   0.568   0.286   8.976 -0.0485  1.0822  0.7265
 9053SOL    HW238793   0.454   0.192   8.973  0.8239  0.0279 -0.9809
 9054SOL     OW38794   4.438   3.486   1.689 -0.5072  0.0178 -0.1921
 9054SOL    HW138795   4.524   3.502   1.649 -1.1953  0.0358 -1.6563
 9054SOL    HW238796   4.449   3.395   1.719  1.9446  0.3938  0.0584
 9055SOL     OW38797   0.287   2.021   4.722 -0.4626  0.2176  0.4781
 9055SOL    HW138798   0.280   2.067   4.639  1.9456 -1.0653 -0.4309
 9055SOL    HW238799   0.348   2.082   4.764 -0.3536  1.3594 -1.3936
 9056SOL     OW38800   2.766   2.088   3.873 -0.2087 -0.7448  0.3294
 9056SOL    HW138801   2.697   2.042   3.920 -2.6264  2.1090 -0.4831
 9056SOL    HW238802   2.844   2.069   3.926  0.1506 -0.7417 -0.1952
 9057SOL     OW38803   2.073   2.512   0.474  0.1491  0.4582  0.0701
 9057SOL    HW138804   2.012   2.479   0.407  0.7262 -0.4121 -0.0324
 9057SOL    HW238805   2.032   2.595   0.497 -0.1844  0.2935  0.0843
 9058SOL     OW38806   2.038   0.109   4.987 -0.3239 -0.0103 -0.4895
 9058SOL    HW138807   2.047   0.078   5.077  3.1610  0.4128 -0.7164
 9058SOL    HW238808   2.126   0.128   4.956  0.7209 -1.4122  1.6778
 9059SOL     OW38809   0.468   4.139   5.207  0.3746 -0.1179  0.6765
 9059SOL    HW138810   0.464   4.231   5.232 -2.1104 -0.4613  1.5411
 9059SOL    HW238811   0.563   4.138   5.192  0.2400  0.9387 -0.1959
 9060SOL     OW38812   1.496   3.448   6.697  0.2533 -0.2145  0.5943
 9060SOL    HW138813   1.403   3.445   6.675  0.4908 -1.2136 -0.2813
 9060SOL    HW238814   1.514   3.363   6.657  1.2538 -0.1815  0.9897
 9061SOL     OW38815   0.469   0.327   2.824 -0.2997 -0.9981  0.0723
 9061SOL    HW138816   0.498   0.238   2.804 -0.7326 -0.7170 -1.7964
 9061SOL    HW238817   0.408   0.298   2.892 -0.0461 -0.7536  0.3994
 9062SOL     OW38818   2.361   0.168   2.294  0.8150 -0.4814 -0.3357
 9062SOL    HW138819   2.405   0.250   2.316  0.5035 -0.1399 -0.9672
 9062SOL    HW238820   2.269   0.194   2.298  0.6317 -0.8443 -2.2660
 9063SOL     OW38821   1.711   4.011  11.333  0.5004 -0.5522  0.4667
 9063SOL    HW138822   1.683   3.980  11.247 -0.6072 -0.1119  0.6612
 9063SOL    HW238823   1.784   3.958  11.365  1.9905  0.2724 -1.5720
 9064SOL     OW38824   1.125   2.745  12.011  0.3469  0.1645 -0.0915
 9064SOL    HW138825   1.213   2.729  12.044 -0.4772 -1.0368  1.5109
 9064SOL    HW238826   1.097   2.657  11.987 -1.9588  0.1056  2.6805
 9065SOL     OW38827   0.803   1.267   5.643  0.4907  0.2980  0.5154
 9065SOL    HW138828   0.733   1.244   5.703  2.2087 -1.6000  1.7730
 9065SOL    HW238829   0.761   1.324   5.578 -0.9318 -1.4422 -0.0736
 9066SOL     OW38830   1.979   2.415   1.736 -0.1592 -0.1468 -0.4608
 9066SOL    HW138831   2.068   2.447   1.750  0.9605 -2.6569 -1.7188
 9066SOL    HW238832   2.008   2.363   1.660  0.0039 -0.2114 -0.3545
 9067SOL     OW38833   1.618   2.916   5.834 -0.3648  0.4580  0.0216
 9067SOL    HW138834   1.603   2.833   5.878  0.7105  0.3949  0.2709
 9067SOL    HW238835   1.678   2.966   5.889  0.7285  0.9635 -1.6287
 9068SOL     OW38836   0.584   3.262   3.769 -0.7536  0.7851 -0.3786
 9068SOL    HW138837   0.519   3.223   3.711  0.2125 -0.5753 -0.5319
 9068SOL    HW238838   0.529   3.319   3.823  1.8928  2.4772  0.5193
 9069SOL     OW38839   4.021   1.519   8.130 -0.5465 -0.0819 -0.1992
 9069SOL    HW138840   3.935   1.560   8.127 -0.3836  0.3945  1.8572
 9069SOL    HW238841   4.004   1.437   8.176  0.3182  0.3631  0.9223
 9070SOL     OW38842   3.316   2.337   3.468 -0.3744  0.2516  0.2345
 9070SOL    HW138843   3.376   2.411   3.457 -1.6184  1.3718  0.9654
 9070SOL    HW238844   3.232   2.370   3.500 -0.1770  2.4223 -1.5047
 9071SOL     OW38845   4.617   3.235   3.816 -0.3489  0.1052 -0.6026
 9071SOL    HW138846   4.591   3.322   3.787 -1.0211  1.2290  3.3366
 9071SOL    HW238847   4.665   3.254   3.897  0.2930 -0.9590 -0.7227
 9072SOL     OW38848   0.912   2.543   8.464 -0.2412  0.4354  0.2822
 9072SOL    HW138849   1.001   2.514   8.443 -0.3215 -0.8593  1.7341
 9072SOL    HW238850   0.922   2.630   8.503  0.6611  0.0140  0.9600
 9073SOL     OW38851   4.008   2.006   9.030  0.0305 -0.1633 -0.0190
 9073SOL    HW138852   3.923   1.966   9.008 -1.2638  2.2831  0.6003
 9073SOL    HW238853   4.014   1.983   9.122  2.8295 -0.9754 -0.4022
 9074SOL     OW38854   0.623   1.529   5.279 -0.2338  0.1970  0.1203
 9074SOL    HW138855   0.606   1.467   5.208 -1.6982  2.7282 -1.7330
 9074SOL    HW238856   0.699   1.569   5.238 -1.0340  2.0810  0.4603
 9075SOL     OW38857   2.438   1.614   3.414  0.7425 -0.6979  0.3270
 9075SOL    HW138858   2.494   1.668   3.471  1.9189 -0.2227 -1.2913
 9075SOL    HW238859   2.373   1.590   3.480  0.8235  0.0001  0.6606
 9076SOL     OW38860   2.300   3.905   2.558  0.5147 -0.1292  0.5984
 9076SOL    HW138861   2.232   3.962   2.522 -0.2756 -1.5384 -0.1469
 9076SOL    HW238862   2.327   3.860   2.478 -0.7294 -2.0740  1.2857
 9077SOL     OW38863   4.639   4.282   2.132  0.1311 -0.2013 -0.0537
 9077SOL    HW138864   4.569   4.217   2.127  1.0635 -1.2740  0.8727
 9077SOL    HW238865   4.587   4.347   2.085  1.7903 -0.1176 -1.7909
 9078SOL     OW38866   1.582   2.478   4.160  0.3150 -0.2749  0.2372
 9078SOL    HW138867   1.497   2.460   4.118  0.6212 -0.8374 -0.1447
 9078SOL    HW238868   1.551   2.520   4.239 -0.3503 -1.6730  0.7223
 9079SOL     OW38869   2.438   2.891   7.267  0.5889 -0.1092 -0.2162
 9079SOL    HW138870   2.478   2.943   7.337  1.4412 -2.1601  0.8164
 9079SOL    HW238871   2.518   2.865   7.222  0.5650  1.8458 -1.3487
 9080SOL     OW38872   3.318   0.487   9.917 -0.0248  0.1002 -0.2100
 9080SOL    HW138873   3.374   0.564   9.919 -0.0333  0.1107 -0.3561
 9080SOL    HW238874   3.237   0.531   9.891 -0.9407 -0.4636  1.7196
 9081SOL     OW38875   0.744   0.300  10.260 -0.1942  0.3193  0.1134
 9081SOL    HW138876   0.686   0.224  10.253  1.1472 -0.7347  0.4738
 9081SOL    HW238877   0.724   0.327  10.350  0.7394  0.1831  0.3611
 9082SOL     OW38878   3.286   0.789  11.979 -0.0375  0.8731 -0.8432
 9082SOL    HW138879   3.356   0.847  12.008 -0.0773  1.5312 -2.1000
 9082SOL    HW238880   3.276   0.817  11.888 -0.4777 -2.3543 -1.8227
 9083SOL     OW38881   1.339   3.663   2.292  0.4052 -0.0607 -0.2422
 9083SOL    HW138882   1.362   3.594   2.354 -1.5713 -0.1480  0.3815
 9083SOL    HW238883   1.347   3.746   2.338 -1.0371 -0.4422  0.6649
 9084SOL     OW38884   0.018   0.644   8.126  0.3997  0.0806  0.2150
 9084SOL    HW138885   4.719   0.692   8.050 -1.4647 -0.5101  0.6538
 9084SOL    HW238886   0.021   0.717   8.189  0.8153  0.4270 -0.2108
 9085SOL     OW38887   0.553   2.878   5.388  0.0086  0.6405  0.2549
 9085SOL    HW138888   0.489   2.911   5.451  0.1001 -0.2220  0.8103
 9085SOL    HW238889   0.492   2.856   5.319  1.1793 -1.4176 -0.1336
 9086SOL     OW38890   0.775   0.171   3.843 -0.1885 -0.6739 -0.2143
 9086SOL    HW138891   0.815   0.146   3.926  0.6700  1.2932 -0.0159
 9086SOL    HW238892   0.849   0.163   3.783 -2.3124  0.2456 -2.9803
 9087SOL     OW38893   2.897   0.710   5.399 -0.4186  0.2589 -0.4064
 9087SOL    HW138894   2.936   0.624   5.413 -0.6916  0.1920 -0.0631
 9087SOL    HW238895   2.804   0.697   5.412  0.2300  0.0061  4.1461
 9088SOL     OW38896   2.213   1.254   6.057 -0.4258  0.1491  0.0146
 9088SOL    HW138897   2.260   1.180   6.017 -1.6440 -0.6228  0.0280
 9088SOL    HW238898   2.266   1.273   6.135  0.8275  0.9838 -1.0286
 9089SOL     OW38899   2.091   4.052   7.012  0.4039  0.1934  0.9151
 9089SOL    HW138900   2.128   4.138   7.035  1.8417 -0.3603  0.6567
 9089SOL    HW238901   1.997   4.070   7.009  0.8732  2.4121 -0.9492
 9090SOL     OW38902   2.730   4.361   3.702  0.0824 -0.1039  0.2579
 9090SOL    HW138903   2.711   4.315   3.783 -0.5081 -1.5196 -0.6907
 9090SOL    HW238904   2.816   4.402   3.706  0.4381 -0.7324 -1.0703
 9091SOL     OW38905   2.543   1.171   7.191  0.8202  0.3712  0.1169
 9091SOL    HW138906   2.536   1.131   7.104  0.1456 -0.3455  0.5025
 9091SOL    HW238907   2.603   1.111   7.234 -0.9018 -0.7907  0.8808
 9092SOL     OW38908   4.300   1.964   6.915 -0.1361 -0.3091  0.1187
 9092SOL    HW138909   4.251   1.884   6.932  0.9835 -0.3133  3.3342
 9092SOL    HW238910   4.348   1.940   6.835 -2.5301 -1.7041 -0.8928
 9093SOL     OW38911   3.346   3.048  15.932  0.6900 -0.0653  0.1841
 9093SOL    HW138912   3.277   3.086  15.986  0.0564  1.1910 -1.5126
 9093SOL    HW238913   3.342   3.101  15.852  0.0231 -1.8524 -0.9669
 9094SOL     OW38914   3.287   2.681   7.763 -0.5802 -0.0717  0.2211
 9094SOL    HW138915   3.373   2.687   7.720  0.8017  0.0874  2.9828
 9094SOL    HW238916   3.262   2.592   7.740  0.4866 -0.0968 -0.8301
 9095SOL     OW38917   3.456   0.441   2.741 -0.0428 -0.0290  0.2717
 9095SOL    HW138918   3.502   0.512   2.696  0.3847  0.3702  1.3141
 9095SOL    HW238919   3.524   0.374   2.738  0.0093  0.0915 -1.0660
 9096SOL     OW38920   2.313   1.031   1.394  0.5253  0.2734 -0.4293
 9096SOL    HW138921   2.237   1.083   1.419 -0.7085 -1.7375  0.0079
 9096SOL    HW238922   2.295   0.954   1.449 -0.2144  1.8818  1.5627
 9097SOL     OW38923   1.314   1.633   3.099  0.0032 -0.1548 -0.3149
 9097SOL    HW138924   1.259   1.559   3.124 -1.8390  1.6483  0.9812
 9097SOL    HW238925   1.328   1.611   3.007 -0.9603  0.6078 -0.6525
 9098SOL     OW38926   3.563   4.061   3.160 -0.5961  0.2247 -0.4110
 9098SOL    HW138927   3.503   4.136   3.150 -0.1882  0.6401  0.2843
 9098SOL    HW238928   3.496   4.008   3.203  0.3470  0.8981  1.8552
 9099SOL     OW38929   3.789   4.005   7.774 -0.3440 -0.3122 -0.4880
 9099SOL    HW138930   3.812   3.921   7.813  0.0058 -0.4915 -1.0930
 9099SOL    HW238931   3.733   4.050   7.838 -2.4055 -0.2962 -2.3305
 9100SOL     OW38932   2.709   0.024   0.471 -0.7354  0.1783  0.2212
 9100SOL    HW138933   2.645   0.090   0.499  0.7762  1.0193  1.6757
 9100SOL    HW238934   2.656   4.679   0.464 -1.2293  0.6162 -1.1032
 9101SOL     OW38935   2.197   3.486   3.485  0.2967  0.0164  0.1024
 9101SOL    HW138936   2.277   3.461   3.439  0.3512 -2.0717  1.3548
 9101SOL    HW238937   2.215   3.463   3.576 -0.5273 -1.6513 -0.1551
 9102SOL     OW38938   0.864   4.364  16.086  0.3043 -0.2356 -0.4549
 9102SOL    HW138939   0.783   4.328  16.051 -0.2280 -1.4939  2.0401
 9102SOL    HW238940   0.824   4.423  16.149  1.3716  0.6405 -0.5880
 9103SOL     OW38941   2.313   4.357   9.570  0.0816 -0.0493 -0.3032
 9103SOL    HW138942   2.328   4.356   9.476 -1.1723  1.3130 -0.5103
 9103SOL    HW238943   2.372   4.420   9.611 -1.2191  0.2807  1.0852
 9104SOL     OW38944   4.283   4.706   8.146 -0.2128 -0.4272  0.7479
 9104SOL    HW138945   4.331   4.675   8.069  0.8017 -0.1671  1.2731
 9104SOL    HW238946   4.320   0.057   8.167 -0.3840 -0.0730 -0.4069
 9105SOL     OW38947   1.351   2.714   2.726  0.2540 -0.8419  0.0478
 9105SOL    HW138948   1.374   2.627   2.694  1.1250 -0.5746 -0.0362
 9105SOL    HW238949   1.411   2.764   2.670 -1.4384  1.5964  0.4101
 9106SOL     OW38950   1.259   0.503  15.052 -0.5978 -0.2348  0.0376
 9106SOL    HW138951   1.320   0.533  14.985 -0.2778 -0.6390  0.1454
 9106SOL    HW238952   1.274   0.409  15.064  0.2091  0.0591  1.3006
 9107SOL     OW38953   3.141   0.624   9.754 -0.0505 -0.3353 -0.6063
 9107SOL    HW138954   3.097   0.683   9.815  0.1284 -0.7284 -0.0963
 9107SOL    HW238955   3.153   0.686   9.682 -0.6352 -1.8631 -2.0448
 9108SOL     OW38956   4.456   2.586   4.434  0.5733  0.1372  0.4947
 9108SOL    HW138957   4.435   2.659   4.491 -0.7895  0.0671  0.1026
 9108SOL    HW238958   4.519   2.627   4.375 -0.3453 -0.3427 -0.8331
 9109SOL     OW38959   0.492   4.206  10.900 -0.2718  0.4659  0.2637
 9109SOL    HW138960   0.505   4.289  10.946  1.2962  0.0721  0.5053
 9109SOL    HW238961   0.411   4.165  10.929 -0.6154 -0.4069 -1.9048
 9110SOL     OW38962   2.411   1.957   8.349  0.5060  0.0134 -0.0615
 9110SOL    HW138963   2.327   1.937   8.308 -0.2165 -0.3288  1.6022
 9110SOL    HW238964   2.433   2.042   8.310 -2.2642  1.1210  0.8264
 9111SOL     OW38965   3.898   0.224   4.619 -0.2555  0.2934  0.7375
 9111SOL    HW138966   3.839   0.227   4.695 -0.7948 -2.1167  0.4222
 9111SOL    HW238967   3.923   0.132   4.611  0.2040  0.6419 -1.9089
 9112SOL     OW38968   2.648   2.483   2.796 -0.1762 -0.1694 -0.4888
 9112SOL    HW138969   2.617   2.520   2.714  0.8209 -0.4615 -0.9935
 9112SOL    HW238970   2.723   2.538   2.818 -0.4056  0.4298 -1.2169
 9113SOL     OW38971   4.097   1.015   3.429 -0.1219 -0.0733  0.3864
 9113SOL    HW138972   4.071   1.046   3.342 -2.6702 -0.6264  0.9578
 9113SOL    HW238973   4.087   1.092   3.485 -0.4067 -0.5062  0.9266
 9114SOL     OW38974   2.213   1.843  12.952 -0.0819  0.0982  0.1892
 9114SOL    HW138975   2.229   1.875  12.863  0.4274  0.8006  0.5329
 9114SOL    HW238976   2.132   1.889  12.969  0.6953  1.1013  1.1710
 9115SOL     OW38977   4.033   3.811   7.210 -0.6375  0.4718 -0.2813
 9115SOL    HW138978   4.072   3.773   7.131  0.6067  1.9941 -0.4046
 9115SOL    HW238979   4.045   3.905   7.200  1.9354  0.2606  0.8545
 9116SOL     OW38980   3.601   3.588   6.963 -0.4698 -0.2843 -0.3895
 9116SOL    HW138981   3.644   3.504   6.977  0.3454 -0.0224 -1.2840
 9116SOL    HW238982   3.510   3.559   6.954 -0.5019 -0.5817  0.9956
 9117SOL     OW38983   4.643   2.274   8.004  0.6886  0.2975  0.1930
 9117SOL    HW138984   4.703   2.200   8.014  0.0047 -0.2839 -0.0800
 9117SOL    HW238985   4.698   2.351   7.989  2.0493 -0.7332 -0.0842
 9118SOL     OW38986   1.723   3.608   1.358  0.1469 -0.1824  0.2677
 9118SOL    HW138987   1.719   3.554   1.279  0.6664 -0.2245  0.2721
 9118SOL    HW238988   1.629   3.610   1.377  0.6019  0.1351  2.4841
 9119SOL     OW38989   1.224   4.657   6.063  0.2428  0.0562 -0.1470
 9119SOL    HW138990   1.259   4.700   6.140 -1.1140  1.3787 -0.2805
 9119SOL    HW238991   1.254   4.568   6.084 -1.4344 -1.0685 -2.5480
 9120SOL     OW38992   1.489   0.585   1.284 -0.2042  0.0618 -0.0591
 9120SOL    HW138993   1.456   0.664   1.241  1.5918  1.0048  0.3189
 9120SOL    HW238994   1.523   0.629   1.362 -0.2999  2.1858 -1.2317
 9121SOL     OW38995   2.587   2.240   7.047 -0.1850  0.3755 -0.4845
 9121SOL    HW138996   2.622   2.246   7.136  0.3103  3.5652 -0.9138
 9121SOL    HW238997   2.507   2.188   7.051  0.4514 -0.4971  1.0311
 9122SOL     OW38998   0.397   2.320   1.675 -0.2200  0.1477 -0.1073
 9122SOL    HW138999   0.477   2.336   1.726 -0.2718 -1.0792  0.3685
 9122SOL    HW239000   0.345   2.303   1.754  0.7155 -1.0672  0.2606
 9123SOL     OW39001   4.459   0.325  16.439 -0.6106  0.1228 -0.0618
 9123SOL    HW139002   4.543   0.352  16.476 -0.1227 -0.4595 -0.7360
 9123SOL    HW239003   4.412   0.406  16.417  0.6827  0.3841 -1.8836
 9124SOL     OW39004   4.076   4.574  13.451  0.4457 -0.0268 -0.1131
 9124SOL    HW139005   4.049   4.596  13.540  3.2946  0.6124  0.5870
 9124SOL    HW239006   4.058   4.657  13.407  1.5086  0.3816  0.2136
 9125SOL     OW39007   1.746   3.287   1.857 -0.0239 -0.0606 -0.1592
 9125SOL    HW139008   1.709   3.229   1.923  0.3962 -0.8347 -0.6021
 9125SOL    HW239009   1.676   3.269   1.794  0.2669 -0.5373 -0.3443
 9126SOL     OW39010   0.328   3.302   5.027  0.6251  0.0321  0.1772
 9126SOL    HW139011   0.252   3.286   4.971  0.5047  1.9336 -0.2288
 9126SOL    HW239012   0.376   3.372   4.982  0.9710 -0.4332 -0.1682
 9127SOL     OW39013   1.514   3.811   6.156 -0.3280 -0.7005  0.0340
 9127SOL    HW139014   1.601   3.804   6.196  0.7038 -2.0978 -2.4592
 9127SOL    HW239015   1.524   3.902   6.127  0.4772 -0.4274  1.1762
 9128SOL     OW39016   4.049   4.012   4.074  0.1644 -0.3405 -0.4142
 9128SOL    HW139017   4.038   4.104   4.051 -0.1864 -0.1499  0.5033
 9128SOL    HW239018   3.969   3.995   4.124  0.9948 -0.4288  0.9074
 9129SOL     OW39019   0.663   3.827   1.030 -0.0046 -0.5288  0.5281
 9129SOL    HW139020   0.574   3.852   1.055  0.1291 -0.4228  0.9002
 9129SOL    HW239021   0.646   3.788   0.944 -0.2073  0.4180  0.1393
 9130SOL     OW39022   1.408   2.996   8.777 -0.3447  0.6170 -0.6718
 9130SOL    HW139023   1.335   2.987   8.838 -0.3089  0.8794 -0.5875
 9130SOL    HW239024   1.470   3.036   8.838 -0.2448  0.5632 -0.7388
 9131SOL     OW39025   2.627   4.394   7.811 -0.7042 -0.3957  0.2490
 9131SOL    HW139026   2.703   4.453   7.818 -1.7773  0.8556  1.3113
 9131SOL    HW239027   2.566   4.468   7.808  1.2057  1.1664 -0.0215
 9132SOL     OW39028   3.111   4.681   8.877 -0.3636 -0.7618 -0.3327
 9132SOL    HW139029   3.194   4.644   8.909 -0.1517  0.3143  0.3368
 9132SOL    HW239030   3.101   4.661   8.784 -1.7832  0.0899 -0.3582
 9133SOL     OW39031   1.747   2.742   6.768  0.3257 -0.2694  0.5255
 9133SOL    HW139032   1.745   2.751   6.673 -0.7374 -1.4050  0.4390
 9133SOL    HW239033   1.732   2.832   6.797  0.2680 -0.3803  0.8531
 9134SOL     OW39034   4.614   1.287   0.734  0.1317  0.1307  0.5684
 9134SOL    HW139035   4.597   1.200   0.770  3.6009 -1.1516 -0.8406
 9134SOL    HW239036   4.572   1.348   0.795 -2.5424  0.3271 -1.4726
 9135SOL     OW39037   4.318   0.721  13.019 -0.2926  0.5771 -0.4132
 9135SOL    HW139038   4.342   0.802  13.065  1.2792  0.1376 -0.4389
 9135SOL    HW239039   4.259   0.750  12.950 -1.2595  1.5919  0.8426
 9136SOL     OW39040   0.118   1.341   8.573  0.5545  1.1123 -0.1892
 9136SOL    HW139041   0.047   1.392   8.612  1.4411  2.6868 -0.6155
 9136SOL    HW239042   0.155   1.408   8.515 -0.8596  1.9804 -0.0804
 9137SOL     OW39043   2.890   4.482  17.560 -0.3946  0.2659 -0.0707
 9137SOL    HW139044   2.905   4.504  17.652  1.3857 -0.1942 -0.2471
 9137SOL    HW239045   2.963   4.525  17.515  0.0028  0.1355  0.4473
 9138SOL     OW39046   2.818   4.530   9.051  0.7261  0.7068 -0.0898
 9138SOL    HW139047   2.742   4.567   9.097 -0.3634 -1.4369 -0.1741
 9138SOL    HW239048   2.884   4.586   9.092  2.6338  0.0223 -2.2380
 9139SOL     OW39049   3.491   2.084  10.552  0.1969 -0.9247  0.8686
 9139SOL    HW139050   3.568   2.060  10.499  1.5386 -2.5320  3.5510
 9139SOL    HW239051   3.435   2.007  10.546  1.2206 -1.8932  3.4789
 9140SOL     OW39052   0.222   0.306  17.505 -0.2926  0.0852 -0.0027
 9140SOL    HW139053   0.148   0.292  17.563  0.5961  2.7744  1.7812
 9140SOL    HW239054   0.269   0.373  17.554 -1.9082  2.1100 -1.2187
 9141SOL     OW39055   2.234   0.486   2.851  0.3955 -0.1769 -0.1355
 9141SOL    HW139056   2.308   0.544   2.827 -0.9236  1.4656 -0.2487
 9141SOL    HW239057   2.153   0.531   2.828  1.5335  1.4253 -1.0903
 9142SOL     OW39058   0.307   0.244   2.316  0.1810  0.9543  0.3370
 9142SOL    HW139059   0.348   0.263   2.400  1.8134 -0.9046 -0.0748
 9142SOL    HW239060   0.215   0.261   2.340 -0.3317 -1.9871  0.3853
 9143SOL     OW39061   3.189   0.268   7.435  0.3613 -0.1996  0.1627
 9143SOL    HW139062   3.119   0.301   7.492 -0.8393 -1.7508 -0.3964
 9143SOL    HW239063   3.173   0.335   7.369  0.5019 -0.5296 -0.2056
 9144SOL     OW39064   2.364   1.242   5.327  0.6763  0.1587  1.3333
 9144SOL    HW139065   2.401   1.291   5.401  1.5592  1.4801 -0.0086
 9144SOL    HW239066   2.399   1.159   5.360 -0.4058 -0.6553  0.3995
 9145SOL     OW39067   3.138   0.972   5.040 -0.0318  0.2432  0.0464
 9145SOL    HW139068   3.183   0.928   4.968 -3.2339  0.3971 -2.0440
 9145SOL    HW239069   3.054   1.008   5.011 -1.2760 -2.3571  0.3926
 9146SOL     OW39070   3.894   0.767   3.286  0.5530  0.3814 -0.1605
 9146SOL    HW139071   3.807   0.732   3.302 -0.0666  3.6918  3.6821
 9146SOL    HW239072   3.913   0.825   3.360  1.0214  0.6856 -0.5144
 9147SOL     OW39073   1.821   0.963   4.202  0.6872 -0.5808  0.0567
 9147SOL    HW139074   1.847   1.032   4.263 -1.2725  0.6584 -0.5338
 9147SOL    HW239075   1.906   0.928   4.176  1.1394  0.3807  0.2507
 9148SOL     OW39076   4.310   1.390   8.060  0.1899  0.0854  0.2592
 9148SOL    HW139077   4.257   1.453   8.109 -1.1447 -0.2542 -0.7440
 9148SOL    HW239078   4.268   1.305   8.073  0.1358  0.3703  1.9268
 9149SOL     OW39079   4.425   3.669  15.819  0.4691 -0.3301  0.7112
 9149SOL    HW139080   4.443   3.727  15.745  0.2075  1.3292  1.9444
 9149SOL    HW239081   4.341   3.641  15.784  0.7248  2.1823 -1.9820
 9150SOL     OW39082   1.375   2.247   3.512 -0.0356  0.3549 -0.6226
 9150SOL    HW139083   1.444   2.238   3.447  0.2303  1.1366 -0.4512
 9150SOL    HW239084   1.431   2.239   3.589 -1.0412  0.4555  0.1290
 9151SOL     OW39085   1.661   4.591   8.388 -0.2668 -0.5670 -1.0954
 9151SOL    HW139086   1.630   4.508   8.424  1.6868 -0.7874  0.0771
 9151SOL    HW239087   1.574   4.631   8.378  0.6514  1.2487 -1.8157
 9152SOL     OW39088   3.480   3.283   3.057 -0.2318 -0.0178  0.4492
 9152SOL    HW139089   3.405   3.295   2.999  1.1775  2.2368 -0.9324
 9152SOL    HW239090   3.547   3.248   2.998  1.1070  1.4422  1.1216
 9153SOL     OW39091   0.375   0.011   6.030 -0.5441  0.2278 -0.3999
 9153SOL    HW139092   0.336   0.097   6.046  0.2113  0.8805 -2.0320
 9153SOL    HW239093   0.415   4.729   6.115  2.0181 -0.6491 -1.7636
 9154SOL     OW39094   0.793   3.650   4.750  0.1726 -0.3952 -0.1015
 9154SOL    HW139095   0.746   3.613   4.825  0.8500 -0.8344  0.1031
 9154SOL    HW239096   0.886   3.649   4.772  0.0291  3.9645  0.7770
 9155SOL     OW39097   0.143   1.297   0.756  0.1320 -0.0707  0.0714
 9155SOL    HW139098   0.052   1.277   0.739 -0.1210  0.6959  0.5022
 9155SOL    HW239099   0.172   1.244   0.682  1.3812  0.8395 -0.0917
 9156SOL     OW39100   0.842   2.323   5.858 -0.1857 -0.3986  0.8067
 9156SOL    HW139101   0.926   2.279   5.854  0.0911  0.2295 -0.3185
 9156SOL    HW239102   0.823   2.332   5.765  0.4447  1.9850  0.8927
 9157SOL     OW39103   1.328   3.534   8.570  0.1426  0.0090 -0.2881
 9157SOL    HW139104   1.348   3.609   8.514 -0.3458  0.8179  0.6121
 9157SOL    HW239105   1.247   3.574   8.602 -0.0915  0.7328 -1.8139
 9158SOL     OW39106   3.474   1.724  12.286 -0.5287  0.2076  0.5810
 9158SOL    HW139107   3.395   1.714  12.340  0.4456  1.2708  2.2013
 9158SOL    HW239108   3.470   1.637  12.246 -0.6551  0.9880 -1.1043
 9159SOL     OW39109   2.408   1.221   2.986 -0.0700  0.0878  0.3655
 9159SOL    HW139110   2.461   1.287   2.941 -1.4329  0.9888  0.0938
 9159SOL    HW239111   2.478   1.161   3.013 -0.4866 -0.3061  0.5582
 9160SOL     OW39112   4.671   3.227  14.658 -0.1714  0.0083  0.0052
 9160SOL    HW139113   4.650   3.203  14.568 -0.8783 -1.2650  0.5204
 9160SOL    HW239114   4.612   3.168  14.704  0.1016  0.5920  1.0997
 9161SOL     OW39115   1.054   4.498   7.783 -0.2737 -0.1466  0.2212
 9161SOL    HW139116   0.966   4.525   7.758 -0.5283 -1.3626 -0.1818
 9161SOL    HW239117   1.035   4.470   7.873  0.1942 -0.1804  0.3095
 9162SOL     OW39118   0.635   0.098  12.209  0.2588  0.5987 -0.1465
 9162SOL    HW139119   0.633   0.002  12.205  1.7534  0.5162  1.4120
 9162SOL    HW239120   0.659   0.112  12.117 -1.6474  0.8341 -0.6127
 9163SOL     OW39121   4.509   3.659   3.947 -0.2826  0.3827 -0.6791
 9163SOL    HW139122   4.483   3.696   3.863 -2.4045 -2.4855 -1.2529
 9163SOL    HW239123   4.458   3.730   3.988 -3.0599 -2.2304  0.4048
 9164SOL     OW39124   0.331   0.167  10.177  0.2480 -0.0432 -0.8535
 9164SOL    HW139125   0.257   0.112  10.201  0.2167  0.5094  0.2902
 9164SOL    HW239126   0.350   0.136  10.089 -0.8714 -2.8453 -0.0965
 9165SOL     OW39127   4.625   2.298   4.875 -0.4450  0.3528 -0.0618
 9165SOL    HW139128   4.700   2.241   4.891 -0.6962  0.8902  2.9120
 9165SOL    HW239129   4.610   2.330   4.963  2.3595  0.6589  0.3247
 9166SOL     OW39130   1.860   4.581  10.050 -0.2248  0.3588  0.0527
 9166SOL    HW139131   1.824   4.497  10.023 -1.0029  0.8148 -0.3068
 9166SOL    HW239132   1.815   4.589  10.134  1.7386 -0.1280  1.1492
 9167SOL     OW39133   2.007   0.635   4.579  0.1150  0.0135 -0.0419
 9167SOL    HW139134   1.917   0.668   4.584  0.5568  1.2111  0.0133
 9167SOL    HW239135   2.035   0.632   4.487  0.4116 -0.0307  0.0511
 9168SOL     OW39136   2.652   4.189   3.484 -0.2181  0.0293  0.6342
 9168SOL    HW139137   2.702   4.231   3.553  1.4376 -0.4783 -0.2664
 9168SOL    HW239138   2.680   4.098   3.489 -1.9035 -0.5453 -0.2783
 9169SOL     OW39139   1.242   1.658   2.140  0.1627 -0.2232  0.3832
 9169SOL    HW139140   1.300   1.644   2.215  0.7009 -0.1827 -0.0305
 9169SOL    HW239141   1.166   1.608   2.170 -1.3640  1.5820 -0.4465
 9170SOL     OW39142   4.186   0.983   2.412 -0.0840 -0.4328  0.0488
 9170SOL    HW139143   4.221   1.066   2.444  1.2242 -0.6636 -0.7988
 9170SOL    HW239144   4.099   1.015   2.387 -1.0822 -1.9166  1.5638
 9171SOL     OW39145   3.034   0.043   4.981  0.3012 -1.3354  0.1080
 9171SOL    HW139146   2.999   4.730   4.905  1.8807 -1.4061 -0.5825
 9171SOL    HW239147   2.953   0.062   5.028  0.6702 -1.2838  0.7236
 9172SOL     OW39148   1.813   1.893   1.678 -0.2972  0.4762 -0.0443
 9172SOL    HW139149   1.874   1.933   1.617 -0.6397  0.2727 -0.5204
 9172SOL    HW239150   1.831   1.935   1.763 -0.4043  0.4222  0.0055
 9173SOL     OW39151   3.627   3.619   3.651  0.3706  0.0083  0.1943
 9173SOL    HW139152   3.601   3.701   3.610 -0.8565  0.5081  1.9767
 9173SOL    HW239153   3.587   3.638   3.736  0.8833 -1.1232  0.6949
 9174SOL     OW39154   1.218   1.167   4.505 -0.4798  0.0413 -0.0451
 9174SOL    HW139155   1.205   1.261   4.516 -1.2470 -0.1965  1.1309
 9174SOL    HW239156   1.287   1.143   4.567 -0.6009  0.3773  0.2203
 9175SOL     OW39157   2.362   0.076   2.917  0.2592 -0.6257 -0.0644
 9175SOL    HW139158   2.444   0.109   2.953 -0.8847 -1.2285  3.1315
 9175SOL    HW239159   2.375   4.721   2.950 -2.0177 -0.0613  2.2641
 9176SOL     OW39160   3.477   0.397   2.389 -0.6630  0.4131 -0.6833
 9176SOL    HW139161   3.488   0.431   2.300 -2.6384  1.0920 -0.6749
 9176SOL    HW239162   3.554   0.438   2.428 -0.9974  0.4997 -0.1120
 9177SOL     OW39163   1.262   3.021   2.176 -0.0668 -0.3399  0.2512
 9177SOL    HW139164   1.341   3.011   2.122 -0.0615  0.9660  0.0147
 9177SOL    HW239165   1.273   3.112   2.205 -0.6135 -1.3738  3.6791
 9178SOL     OW39166   1.291   3.199   5.123 -0.0653 -0.2005  0.8395
 9178SOL    HW139167   1.200   3.170   5.129  0.4970 -2.2581 -0.3076
 9178SOL    HW239168   1.277   3.289   5.151  3.2592  0.2045  1.2225
 9179SOL     OW39169   0.696   3.309   6.391 -0.0030  0.5728  0.2536
 9179SOL    HW139170   0.784   3.312   6.354 -0.9434 -1.0177 -2.0954
 9179SOL    HW239171   0.662   3.397   6.372  2.7614  1.5466 -0.1917
 9180SOL     OW39172   4.472   4.539   2.020 -0.0031  0.5751 -0.1019
 9180SOL    HW139173   4.437   4.542   1.931  1.0661 -3.5282 -0.6638
 9180SOL    HW239174   4.512   4.624   2.037  1.0366  0.5401 -2.3455
 9181SOL     OW39175   0.955   1.348   1.236  0.2318 -0.0233 -0.2058
 9181SOL    HW139176   1.018   1.300   1.290 -0.5091 -2.0421 -1.1373
 9181SOL    HW239177   0.906   1.398   1.300  2.4234 -0.2187  1.6198
 9182SOL     OW39178   3.008   2.070   4.002  0.2304 -0.1622 -0.0109
 9182SOL    HW139179   3.014   2.106   4.090  1.3381 -3.5428  1.2705
 9182SOL    HW239180   3.066   2.134   3.961  1.3463 -0.1701  1.5829
 9183SOL     OW39181   3.456   4.387  12.545  0.2998  0.2098  0.3395
 9183SOL    HW139182   3.410   4.303  12.548  0.7767 -0.0419  0.5473
 9183SOL    HW239183   3.421   4.428  12.625 -1.9863  1.5033 -1.3165
 9184SOL     OW39184   3.072   0.239  13.753  0.6019  0.0704 -0.1024
 9184SOL    HW139185   3.067   0.148  13.783 -1.0314  0.4214  0.7182
 9184SOL    HW239186   2.982   0.263  13.728  1.1620 -0.6365 -2.8033
 9185SOL     OW39187   2.217   3.172   8.549 -0.2850 -0.2860  0.3445
 9185SOL    HW139188   2.125   3.190   8.530 -0.4230 -1.9049 -0.6177
 9185SOL    HW239189   2.259   3.189   8.465  1.6029 -0.3409  1.2815
 9186SOL     OW39190   0.293   1.727   3.802  0.0751  0.5767 -0.2243
 9186SOL    HW139191   0.322   1.636   3.792 -2.3747 -0.1395 -1.0180
 9186SOL    HW239192   0.373   1.777   3.814  0.8440 -0.0877 -2.5264
 9187SOL     OW39193   0.166   3.367  13.090  0.3164 -0.1026  0.2420
 9187SOL    HW139194   0.109   3.443  13.078 -0.3217 -0.1849  2.7670
 9187SOL    HW239195   0.233   3.399  13.029 -0.1555  2.8505  1.2513
 9188SOL     OW39196   4.604   1.374  10.794 -0.0413 -0.0392 -0.3147
 9188SOL    HW139197   4.534   1.419  10.748 -0.6378  0.4458  1.0762
 9188SOL    HW239198   4.585   1.401  10.884 -0.1652 -0.3790 -0.2397
 9189SOL     OW39199   3.279   2.356   9.617 -0.5740 -0.1247 -0.3191
 9189SOL    HW139200   3.299   2.420   9.549  2.3777 -2.3217 -1.5445
 9189SOL    HW239201   3.184   2.361   9.616 -0.4585  2.0460  0.0075
 9190SOL     OW39202   2.484   0.451   8.462 -0.2370 -0.3099  0.3410
 9190SOL    HW139203   2.539   0.452   8.541 -0.8820  2.7920  0.7517
 9190SOL    HW239204   2.414   0.502   8.502  1.8369  1.2505  1.9800
 9191SOL     OW39205   3.171   0.790   6.566 -0.6112  0.7550 -0.1024
 9191SOL    HW139206   3.231   0.757   6.632 -0.0020  0.6114 -0.7372
 9191SOL    HW239207   3.210   0.745   6.492 -0.1293 -1.6744  1.6125
 9192SOL     OW39208   0.952   3.370   1.588  0.0939 -0.0612 -0.1414
 9192SOL    HW139209   0.965   3.432   1.516 -1.3544 -0.6734 -0.9274
 9192SOL    HW239210   0.909   3.299   1.540  0.3252  0.2849 -0.8604
 9193SOL     OW39211   2.075   2.340   5.462 -0.8633 -0.0524 -0.9310
 9193SOL    HW139212   2.051   2.390   5.540 -0.3208  1.0394 -1.4681
 9193SOL    HW239213   2.013   2.378   5.400 -0.8626  1.2942 -0.0995
 9194SOL     OW39214   1.032   0.002   9.557  0.1511 -0.1441 -0.3749
 9194SOL    HW139215   1.006   0.090   9.532  3.9564  0.8728 -0.8601
 9194SOL    HW239216   0.971   4.679   9.510 -0.2070 -0.9648  1.0996
 9195SOL     OW39217   4.124   0.586   2.831  0.0914 -0.2959 -0.0994
 9195SOL    HW139218   4.138   0.599   2.738  0.9719 -0.4407  0.0162
 9195SOL    HW239219   4.096   0.495   2.827  1.6678 -0.8715  1.9989
 9196SOL     OW39220   4.465   3.358   4.694  0.1033 -0.6013  0.2441
 9196SOL    HW139221   4.513   3.288   4.649  2.4613  0.9217  0.3816
 9196SOL    HW239222   4.395   3.305   4.731 -0.2108  0.9015  1.7759
 9197SOL     OW39223   1.087   1.770   0.830 -0.2201 -0.4380  0.4333
 9197SOL    HW139224   1.138   1.783   0.751  0.3889  0.8623  1.0399
 9197SOL    HW239225   1.152   1.806   0.891  1.2364  0.2630 -1.5687
 9198SOL     OW39226   4.327   1.674   6.709 -0.0465  0.3120  0.0819
 9198SOL    HW139227   4.256   1.694   6.770 -0.0756  2.1237 -0.5538
 9198SOL    HW239228   4.283   1.632   6.635  0.8649  2.3663 -1.6170
 9199SOL     OW39229   2.959   3.983   1.722  0.3364 -0.0925  0.0605
 9199SOL    HW139230   3.041   3.953   1.683  0.2145  2.1763 -1.9409
 9199SOL    HW239231   3.000   4.058   1.765  1.9862  0.5626 -2.6531
 9200SOL     OW39232   0.321   2.602   3.662 -0.3867  0.8652 -0.2039
 9200SOL    HW139233   0.288   2.682   3.620  1.6631  1.6377 -0.3834
 9200SOL    HW239234   0.265   2.539   3.618  0.4812 -0.2884  0.3365
 9201SOL     OW39235   2.419   1.498  13.277  0.1280  0.2213  0.3214
 9201SOL    HW139236   2.424   1.566  13.210 -2.6228  0.0989  0.0067
 9201SOL    HW239237   2.353   1.440  13.238 -0.5962  0.1074  1.7247
 9202SOL     OW39238   0.166   4.430   2.432  0.2629  0.0025  0.0852
 9202SOL    HW139239   0.073   4.452   2.425  0.5029  1.0859  0.1921
 9202SOL    HW239240   0.190   4.412   2.341  0.8852  0.9440  0.0549
 9203SOL     OW39241   3.548   4.494   9.355  0.2968 -0.0480  0.2369
 9203SOL    HW139242   3.486   4.441   9.404  0.5921 -0.8839 -0.2862
 9203SOL    HW239243   3.589   4.553   9.418 -1.7841 -1.1441  2.6157
 9204SOL     OW39244   0.397   1.213   6.791 -0.1620  0.0717 -0.2087
 9204SOL    HW139245   0.358   1.289   6.748  2.8187  1.0358 -1.2242
 9204SOL    HW239246   0.428   1.167   6.713  0.0442  0.0596 -0.1198
 9205SOL     OW39247   3.816   4.450   6.978 -0.3541  0.6004 -0.0584
 9205SOL    HW139248   3.775   4.367   7.002 -1.0493  0.7320 -0.7828
 9205SOL    HW239249   3.747   4.516   6.969 -1.3428 -0.7448 -2.4361
 9206SOL     OW39250   2.070   1.291   7.623  0.0451 -0.4606  0.3884
 9206SOL    HW139251   2.160   1.309   7.594 -0.0848 -0.1781  0.1513
 9206SOL    HW239252   2.027   1.261   7.543  0.5451  3.1355 -1.2328
 9207SOL     OW39253   0.394   0.516   4.765  0.0899  0.0815  0.0207
 9207SOL    HW139254   0.355   0.539   4.681  0.0116  1.0487  0.3159
 9207SOL    HW239255   0.451   0.591   4.781 -0.2677  1.0877 -3.6470
 9208SOL     OW39256   3.627   3.856   2.712 -0.8113 -0.2291 -0.1605
 9208SOL    HW139257   3.548   3.889   2.670 -1.2748 -0.4164  0.5791
 9208SOL    HW239258   3.602   3.884   2.799 -0.9454  0.3970 -0.3993
 9209SOL     OW39259   3.137   4.129   4.231  0.4233  0.1807  0.3450
 9209SOL    HW139260   3.116   4.144   4.139  1.1273 -2.6806 -0.3068
 9209SOL    HW239261   3.053   4.163   4.262  1.5906  0.6470  2.9249
 9210SOL     OW39262   0.050   2.160   6.815  0.2583 -0.2786 -0.0266
 9210SOL    HW139263   4.710   2.112   6.779 -0.6813  2.0167 -1.1933
 9210SOL    HW239264   0.111   2.140   6.744  1.5177 -1.1244  1.2920
 9211SOL     OW39265   4.204   2.261   7.370 -0.1778  0.0548  0.1551
 9211SOL    HW139266   4.149   2.262   7.292 -2.2227 -0.6123  1.5849
 9211SOL    HW239267   4.139   2.280   7.438  1.1023 -2.4383  2.0999
 9212SOL     OW39268   2.021   3.877  17.368  0.1858 -0.1223  0.3851
 9212SOL    HW139269   1.996   3.921  17.287 -0.7819  0.1766  0.8586
 9212SOL    HW239270   2.003   3.791  17.329 -0.1396 -0.7004  1.8240
 9213SOL     OW39271   3.924   4.474   3.721 -0.1513 -0.3021 -0.3749
 9213SOL    HW139272   3.952   4.462   3.630  1.0089  1.6709 -0.2831
 9213SOL    HW239273   3.975   4.551   3.748  0.1183 -0.7619  0.4201
 9214SOL     OW39274   3.441   3.023   9.193  0.3718  0.0170  0.4346
 9214SOL    HW139275   3.375   2.997   9.129  0.9083 -0.8191  0.2136
 9214SOL    HW239276   3.391   3.092   9.236  0.8922  0.2611  0.6411
 9215SOL     OW39277   2.507   1.374  10.719 -0.0525  0.3290 -0.1230
 9215SOL    HW139278   2.551   1.453  10.749 -1.2326  0.3563  1.5081
 9215SOL    HW239279   2.565   1.304  10.749 -1.0455 -0.7040 -0.5806
 9216SOL     OW39280   2.453   2.220  12.275 -0.2411 -0.0672 -0.3473
 9216SOL    HW139281   2.492   2.291  12.222  0.9387  0.8582  1.7518
 9216SOL    HW239282   2.361   2.244  12.266 -0.3072 -0.6952 -1.3952
 9217SOL     OW39283   2.399   0.360   6.356 -0.1537 -0.2702  0.7745
 9217SOL    HW139284   2.325   0.352   6.417 -0.6192  1.3313  0.4295
 9217SOL    HW239285   2.349   0.321   6.284 -1.2020  1.1049  0.7486
 9218SOL     OW39286   3.813   2.860   4.573  0.1265  0.0532 -0.2672
 9218SOL    HW139287   3.825   2.789   4.636 -1.3842 -0.0553 -0.1007
 9218SOL    HW239288   3.750   2.916   4.619  0.1452 -1.7930  2.0072
 9219SOL     OW39289   3.050   0.394   7.617 -0.2339 -0.1354  0.3362
 9219SOL    HW139290   3.002   0.474   7.596 -0.1813 -0.7575 -2.2643
 9219SOL    HW239291   3.122   0.435   7.664  0.4100 -2.8033  1.6648
 9220SOL     OW39292   0.488   1.864  17.431 -0.5802  0.8228 -0.2656
 9220SOL    HW139293   0.396   1.880  17.411 -0.9987 -0.7755  0.3758
 9220SOL    HW239294   0.480   1.769  17.431 -1.3556  0.8890 -1.8804
 9221SOL     OW39295   4.043   0.097  13.325 -0.6501 -0.3009 -0.2208
 9221SOL    HW139296   3.973   0.142  13.371 -0.1785 -1.0390  1.2099
 9221SOL    HW239297   4.041   0.137  13.238 -1.0058 -1.0638 -0.5688
 9222SOL     OW39298   3.273   1.401   3.041  0.0978 -0.3151 -0.1092
 9222SOL    HW139299   3.354   1.360   3.071  0.3500 -0.1166 -0.5280
 9222SOL    HW239300   3.231   1.396   3.127  0.2360  0.4413  0.0046
 9223SOL     OW39301   3.724   4.138  10.609  0.5230 -0.1393  0.2491
 9223SOL    HW139302   3.802   4.114  10.560 -0.5211 -0.2078 -1.3886
 9223SOL    HW239303   3.705   4.229  10.587  1.2950 -0.3304 -1.1819
 9224SOL     OW39304   0.082   0.912   8.298  0.9702  0.9555 -0.3364
 9224SOL    HW139305   0.142   0.968   8.247  1.7308  0.6993  0.2687
 9224SOL    HW239306   0.058   0.971   8.369  0.9783 -0.0048  0.4692
 9225SOL     OW39307   3.912   2.656   9.209  0.3208 -0.2987 -0.3178
 9225SOL    HW139308   3.845   2.696   9.153  2.6769  1.4718 -1.8566
 9225SOL    HW239309   3.957   2.740   9.214 -1.6157  0.7653 -0.7956
 9226SOL     OW39310   3.017   3.871   8.278 -0.2623  0.7403 -0.5637
 9226SOL    HW139311   3.033   3.797   8.220 -0.3183 -0.5887  1.1259
 9226SOL    HW239312   3.064   3.846   8.358 -2.1697  0.9049  0.6248
 9227SOL     OW39313   1.123   0.446   5.892  0.3361  0.0326  0.1377
 9227SOL    HW139314   1.084   0.379   5.948 -0.0718  0.5528  0.4813
 9227SOL    HW239315   1.197   0.470   5.947 -0.2822  0.1337  0.9219
 9228SOL     OW39316   0.313   0.921   6.584  0.3151  0.2812  0.4273
 9228SOL    HW139317   0.317   0.942   6.491  0.3194 -3.1493 -0.3486
 9228SOL    HW239318   0.217   0.920   6.595  0.1719 -1.4230 -0.9257
 9229SOL     OW39319   4.417   1.038  13.393 -0.1688  0.3497 -0.2849
 9229SOL    HW139320   4.468   1.061  13.316  1.9104 -0.5872  0.8197
 9229SOL    HW239321   4.342   1.091  13.369 -1.7588 -2.2547 -1.1251
 9230SOL     OW39322   2.650   0.832   3.434  0.1747  0.0737 -0.1531
 9230SOL    HW139323   2.631   0.759   3.494 -2.2447  0.5407 -0.3668
 9230SOL    HW239324   2.573   0.888   3.444  0.3981  0.3448  0.0902
 9231SOL     OW39325   0.866   3.632  15.549  0.3054  0.0251  0.0810
 9231SOL    HW139326   0.862   3.601  15.459  3.6696 -0.9424  0.2488
 9231SOL    HW239327   0.783   3.611  15.592  1.5196  1.1502  3.0040
 9232SOL     OW39328   4.365   2.892  17.078  0.4630 -0.6610  0.1540
 9232SOL    HW139329   4.375   2.823  17.013  0.4330 -2.2567  1.8484
 9232SOL    HW239330   4.329   2.963  17.025  0.1391 -2.4054 -1.9225
 9233SOL     OW39331   3.164   0.349   6.918  0.4131 -1.3586 -0.6040
 9233SOL    HW139332   3.118   0.344   6.834 -2.5766 -1.2359  1.0147
 9233SOL    HW239333   3.253   0.340   6.884  0.7893 -2.4463  0.6713
 9234SOL     OW39334   2.978   0.786  11.078 -0.2907  0.9058  0.4688
 9234SOL    HW139335   2.912   0.843  11.039 -0.4333  1.6937  1.8510
 9234SOL    HW239336   3.059   0.799  11.029  0.3409 -1.5647  0.8847
 9235SOL     OW39337   1.968   4.300   8.289 -0.6627 -0.0027  0.2534
 9235SOL    HW139338   1.954   4.223   8.344 -1.6529  0.3497  0.4927
 9235SOL    HW239339   2.062   4.292   8.272 -0.7909 -0.8032 -0.0737
 9236SOL     OW39340   2.030   2.914   2.306 -0.3487 -0.1221 -0.0802
 9236SOL    HW139341   1.972   2.955   2.242 -0.7720 -0.4888  0.0691
 9236SOL    HW239342   2.000   2.967   2.380  1.8423 -1.0524  1.4722
 9237SOL     OW39343   1.682   1.245   2.319 -0.1478 -0.7247 -0.5653
 9237SOL    HW139344   1.636   1.166   2.293  0.4774 -0.4570 -2.5226
 9237SOL    HW239345   1.722   1.278   2.239  0.7019 -0.6575 -0.1136
 9238SOL     OW39346   0.958   1.505   9.971 -0.2369  0.0793 -0.2100
 9238SOL    HW139347   0.987   1.596   9.980  1.3126 -0.2954 -1.4105
 9238SOL    HW239348   1.010   1.456  10.035  1.8608  1.5092 -0.8157
 9239SOL     OW39349   4.715   1.296   3.595 -0.1909 -0.3536 -0.0263
 9239SOL    HW139350   4.690   1.286   3.503 -0.0400 -3.6672  0.2990
 9239SOL    HW239351   4.674   1.379   3.619 -0.5237 -0.2648 -0.9253
 9240SOL     OW39352   4.548   0.506  14.363  0.5228 -0.1550 -0.2052
 9240SOL    HW139353   4.478   0.468  14.416  0.9149 -0.0686  0.3825
 9240SOL    HW239354   4.500   0.578  14.323 -0.1364  0.7253  2.1782
 9241SOL     OW39355   1.114   4.200   2.340  0.0416 -0.8837 -0.0841
 9241SOL    HW139356   1.074   4.282   2.312 -0.6625 -0.6908  1.4559
 9241SOL    HW239357   1.079   4.144   2.271  1.0372  0.7766 -1.9352
 9242SOL     OW39358   1.258   2.741  13.219  0.5586  0.4999  1.2702
 9242SOL    HW139359   1.306   2.818  13.248  0.8651  0.5679  0.5807
 9242SOL    HW239360   1.317   2.696  13.159  0.0953  2.9491 -0.9864
 9243SOL     OW39361   3.187   1.899   5.461  0.3212 -0.5922 -0.2407
 9243SOL    HW139362   3.230   1.816   5.440  2.5457  0.5545 -0.1988
 9243SOL    HW239363   3.172   1.879   5.554  0.8423 -0.2007 -0.0694
 9244SOL     OW39364   1.044   3.624   5.891 -0.0108 -0.2519 -0.3898
 9244SOL    HW139365   1.123   3.626   5.837 -1.0635  0.4591 -1.8985
 9244SOL    HW239366   0.972   3.592   5.836 -1.2918  1.2272  0.4204
 9245SOL     OW39367   4.442   0.940   9.526  0.0458 -0.6133 -0.8962
 9245SOL    HW139368   4.445   0.995   9.448 -2.9749  2.0400  0.8643
 9245SOL    HW239369   4.408   1.006   9.586 -0.7133  0.9513 -3.0353
 9246SOL     OW39370   2.131   1.802  16.443  0.6895 -0.8676  0.2388
 9246SOL    HW139371   2.043   1.765  16.455  1.0308 -2.2435 -1.5869
 9246SOL    HW239372   2.111   1.856  16.366  1.1399  1.2808  1.6245
 9247SOL     OW39373   2.030   0.356  10.179 -0.0149  0.0268  0.0175
 9247SOL    HW139374   1.935   0.352  10.179  0.0406 -1.1865 -0.6734
 9247SOL    HW239375   2.051   0.347  10.272 -0.9296  1.2850  0.3369
 9248SOL     OW39376   4.431   4.480   0.851  0.4201  0.1768  0.2061
 9248SOL    HW139377   4.341   4.499   0.823  0.7417  0.7768 -0.4052
 9248SOL    HW239378   4.440   4.393   0.813 -1.0984 -0.5820  1.5548
 9249SOL     OW39379   0.746   2.875   7.636  0.0508  0.5210 -0.2155
 9249SOL    HW139380   0.660   2.834   7.649 -0.1760  0.7996 -0.8708
 9249SOL    HW239381   0.717   2.960   7.604 -1.0959  0.1833 -0.0759
 9250SOL     OW39382   1.844   2.643   4.212 -0.2047  0.0756  0.0369
 9250SOL    HW139383   1.895   2.565   4.234 -0.7126 -1.0781 -2.7740
 9250SOL    HW239384   1.766   2.603   4.172 -0.1841 -0.7259  0.8011
 9251SOL     OW39385   3.859   3.310   5.832 -0.3878 -0.2867 -0.9612
 9251SOL    HW139386   3.815   3.241   5.882  1.5958 -0.0432  1.1307
 9251SOL    HW239387   3.923   3.332   5.900 -0.3309 -2.3568 -0.3602
 9252SOL     OW39388   1.020   1.843   5.568  0.8547 -0.0251 -0.4179
 9252SOL    HW139389   0.957   1.773   5.584  0.1780 -0.2585 -4.1502
 9252SOL    HW239390   1.022   1.841   5.473  2.6191 -0.9990 -0.3582
 9253SOL     OW39391   0.679   3.457   5.247 -0.1148  0.6495  0.3956
 9253SOL    HW139392   0.672   3.372   5.291  0.6340 -0.0430 -0.8294
 9253SOL    HW239393   0.608   3.501   5.294 -1.6840 -0.8617 -0.5652
 9254SOL     OW39394   4.421   1.312   3.696 -0.2111  0.1374  0.6828
 9254SOL    HW139395   4.366   1.332   3.620 -0.4466  1.1801  1.1353
 9254SOL    HW239396   4.461   1.395   3.719  0.0999  0.5018 -1.1894
 9255SOL     OW39397   0.450   0.016   8.957  0.2321 -0.0459 -0.1098
 9255SOL    HW139398   0.496   0.002   9.039  0.6546  0.5424 -0.2441
 9255SOL    HW239399   0.397   4.671   8.947 -0.4275  0.2451  1.0540
 9256SOL     OW39400   3.774   0.221   3.367  0.1552  0.4044 -0.2256
 9256SOL    HW139401   3.751   0.158   3.436 -0.4128  0.2212 -0.5808
 9256SOL    HW239402   3.739   0.297   3.413 -0.1482 -0.0922  0.3588
 9257SOL     OW39403   1.562   2.498   8.905  0.2672  0.2212 -0.0759
 9257SOL    HW139404   1.543   2.591   8.917  0.5610  0.1169  1.2994
 9257SOL    HW239405   1.657   2.504   8.896  0.3871 -2.7194 -0.7820
 9258SOL     OW39406   1.395   4.606   8.516 -0.2198  0.0495  0.2594
 9258SOL    HW139407   1.468   4.616   8.576 -0.5427  1.7451  0.3876
 9258SOL    HW239408   1.367   4.515   8.525 -2.7915  0.5314 -2.6829
 9259SOL     OW39409   3.406   0.431  11.201 -0.1417 -0.0258  0.0755
 9259SOL    HW139410   3.438   0.454  11.288 -0.3031 -0.9406  0.3712
 9259SOL    HW239411   3.479   0.387  11.158  0.1098  0.3367  0.1284
 9260SOL     OW39412   4.181   1.842   4.330 -0.2313  0.1233 -0.5767
 9260SOL    HW139413   4.093   1.875   4.311 -0.0538  0.8727 -0.1214
 9260SOL    HW239414   4.204   1.899   4.404  1.0330 -0.8778 -0.2051
 9261SOL     OW39415   2.697   4.576   7.396 -0.0830 -0.0379  0.4369
 9261SOL    HW139416   2.764   4.605   7.458  1.0676 -1.9285  0.0767
 9261SOL    HW239417   2.618   4.562   7.448 -0.3992 -0.2242 -0.0912
 9262SOL     OW39418   0.036   0.347  12.202 -0.2014  0.5157  0.6399
 9262SOL    HW139419   0.042   0.269  12.257  0.6969  1.5572  2.0190
 9262SOL    HW239420   4.680   0.377  12.210 -0.5474 -0.3332 -0.0247
 9263SOL     OW39421   2.706   4.515   4.978  0.1442 -0.2384  0.4269
 9263SOL    HW139422   2.669   4.600   5.000  2.1083  1.4899 -2.9733
 9263SOL    HW239423   2.642   4.472   4.921  1.5376 -1.5428 -0.1693
 9264SOL     OW39424   4.666   2.714  15.077  0.4073  0.1279  0.3221
 9264SOL    HW139425   4.661   2.775  15.150 -0.3056 -2.6601  2.6138
 9264SOL    HW239426   4.644   2.630  15.118 -3.8536  1.2726  0.4166
 9265SOL     OW39427   1.677   0.438   9.778 -0.0169 -0.4713  0.5370
 9265SOL    HW139428   1.726   0.491   9.716  0.8361  0.0151  1.6159
 9265SOL    HW239429   1.702   0.351   9.747  2.1952  0.5615 -0.5728
 9266SOL     OW39430   3.564   1.657  16.906  0.0686  0.5497 -0.2464
 9266SOL    HW139431   3.627   1.631  16.839  0.7538  0.6428  0.3525
 9266SOL    HW239432   3.536   1.738  16.864  0.9249  0.6158 -0.6894
 9267SOL     OW39433   0.040   0.257   3.029  0.0196 -0.5453 -0.6254
 9267SOL    HW139434   0.061   0.283   3.119  1.0879  2.4042 -1.7134
 9267SOL    HW239435   0.124   0.225   2.996 -0.1081 -1.4876 -0.0349
 9268SOL     OW39436   3.262   0.821   0.844  0.3036 -0.8692  0.1811
 9268SOL    HW139437   3.233   0.783   0.927 -0.2578 -0.2053  0.2793
 9268SOL    HW239438   3.177   0.829   0.802  0.2660  0.0412  0.4361
 9269SOL     OW39439   3.904   3.394  14.697 -0.1150  0.3752 -0.3481
 9269SOL    HW139440   3.916   3.480  14.737  1.4845  0.4129 -0.9192
 9269SOL    HW239441   3.994   3.365  14.683 -0.2130 -0.0307 -0.1263
 9270SOL     OW39442   4.591   3.968  14.590 -0.1776 -0.2850  0.4632
 9270SOL    HW139443   4.607   3.890  14.537 -0.5593  0.5723 -0.8927
 9270SOL    HW239444   4.504   3.995  14.559  0.3323  0.5469 -0.2285
 9271SOL     OW39445   1.977   1.756  13.127 -0.4934 -0.3352  0.8505
 9271SOL    HW139446   1.899   1.715  13.165 -0.3910  0.1521  1.5889
 9271SOL    HW239447   2.016   1.781  13.210  0.4686  0.9664  0.0219
 9272SOL     OW39448   0.056   2.502   1.659 -0.0878 -0.1094 -0.6706
 9272SOL    HW139449   0.143   2.529   1.630  0.5173 -2.1471 -0.7966
 9272SOL    HW239450   0.006   2.577   1.629  1.9173  1.4187 -0.2020
 9273SOL     OW39451   2.323   4.251   4.460 -0.0888 -0.1214 -0.0055
 9273SOL    HW139452   2.380   4.319   4.425 -0.6170  0.1246 -0.3795
 9273SOL    HW239453   2.346   4.175   4.406 -1.6066  1.0963 -2.3353
 9274SOL     OW39454   4.028   0.808   1.061  0.4996 -0.3667  0.0788
 9274SOL    HW139455   3.991   0.865   1.128 -2.6988 -4.1063  1.4941
 9274SOL    HW239456   3.978   0.828   0.982  0.5559  1.3171  0.4749
 9275SOL     OW39457   0.825   0.905   8.646 -0.1456  0.3960 -0.6364
 9275SOL    HW139458   0.737   0.872   8.631  0.3320 -0.8675 -0.6652
 9275SOL    HW239459   0.872   0.840   8.698  1.6689  1.6406 -0.6983
 9276SOL     OW39460   1.788   0.703   0.891 -0.3640  0.3320  0.3669
 9276SOL    HW139461   1.718   0.652   0.933 -0.5330  1.4224  1.4108
 9276SOL    HW239462   1.849   0.685   0.963 -1.1625 -1.4119  0.6153
 9277SOL     OW39463   2.209   4.175  10.715  0.0491  0.0278  0.4207
 9277SOL    HW139464   2.115   4.191  10.723  0.4733  1.7445  1.8942
 9277SOL    HW239465   2.229   4.157  10.623  1.4598 -0.9570  0.9287
 9278SOL     OW39466   0.512   1.007   8.037 -0.5092  0.3102 -0.2390
 9278SOL    HW139467   0.576   1.060   8.085 -1.5241  1.5910 -0.2728
 9278SOL    HW239468   0.431   1.028   8.083  0.0341  0.7776  0.5077
 9279SOL     OW39469   1.097   3.406   9.183  0.2501  0.4867 -0.3540
 9279SOL    HW139470   1.140   3.330   9.222  0.9360  0.7064 -0.6748
 9279SOL    HW239471   1.023   3.361   9.142 -0.8238  4.2632 -2.5584
 9280SOL     OW39472   4.132   0.845   8.035  1.0026 -0.1458 -0.5774
 9280SOL    HW139473   4.125   0.823   8.128  0.0234  0.3831 -0.5251
 9280SOL    HW239474   4.099   0.769   7.987 -0.2105  0.4256 -0.6721
 9281SOL     OW39475   2.501   2.289   2.445  0.1825  0.1180 -0.4443
 9281SOL    HW139476   2.495   2.199   2.477  1.6229 -0.3724 -1.5153
 9281SOL    HW239477   2.412   2.302   2.414  0.1487 -0.5855 -0.6527
 9282SOL     OW39478   1.672   4.523   3.958 -0.3457 -0.0045  0.3324
 9282SOL    HW139479   1.759   4.495   3.929 -0.9015 -0.9874 -0.3893
 9282SOL    HW239480   1.681   4.487   4.046  0.4992  0.9793  0.6572
 9283SOL     OW39481   3.996   3.723   8.565 -0.3144 -0.0579  0.2689
 9283SOL    HW139482   3.912   3.752   8.530  1.2679  1.3878 -2.3142
 9283SOL    HW239483   3.982   3.630   8.548 -0.4352 -0.1406  0.8231
 9284SOL     OW39484   2.035   0.159   3.461  0.0354  0.1887 -0.8339
 9284SOL    HW139485   2.126   0.133   3.451  0.8541  2.9981 -0.5398
 9284SOL    HW239486   2.000   0.156   3.372 -3.8423 -1.4815  0.7242
 9285SOL     OW39487   3.404   2.864   2.093 -0.4127 -0.4872 -0.2550
 9285SOL    HW139488   3.416   2.898   2.182 -0.0407  1.8291 -1.1945
 9285SOL    HW239489   3.349   2.788   2.109 -1.6569 -0.0644 -2.6599
 9286SOL     OW39490   2.885   3.397   2.519  0.3407 -0.2166  0.2483
 9286SOL    HW139491   2.806   3.391   2.573 -1.0693 -2.5512 -2.0908
 9286SOL    HW239492   2.939   3.426   2.593  1.2012  1.8036 -1.1637
 9287SOL     OW39493   3.291   0.332   1.502 -0.6455 -0.2464  0.2647
 9287SOL    HW139494   3.302   0.399   1.434 -0.7610 -0.3498  0.1413
 9287SOL    HW239495   3.337   0.371   1.576 -1.3774 -0.9875  1.1143
 9288SOL     OW39496   0.417   0.460   7.003 -0.4059 -0.3831 -0.1938
 9288SOL    HW139497   0.424   0.512   7.082 -1.6794 -1.7919  0.8372
 9288SOL    HW239498   0.405   0.530   6.939 -0.3735 -1.1981 -1.1110
 9289SOL     OW39499   0.345   2.121   3.150 -0.3233 -0.3077  0.0293
 9289SOL    HW139500   0.400   2.189   3.111  1.3760 -0.3199  2.3802
 9289SOL    HW239501   0.309   2.156   3.231 -0.6781 -1.0456  0.1917
 9290SOL     OW39502   2.411   4.098  12.063 -0.1890  0.0076  0.3192
 9290SOL    HW139503   2.471   4.171  12.048  1.3670 -1.3863 -0.1436
 9290SOL    HW239504   2.375   4.109  12.151  0.6631 -2.0361  0.9042
 9291SOL     OW39505   3.631   4.106   5.442  0.0808 -0.1262  0.9386
 9291SOL    HW139506   3.705   4.164   5.464 -1.2607  0.8987  2.7699
 9291SOL    HW239507   3.574   4.145   5.377 -0.4808 -1.0499  0.8733
 9292SOL     OW39508   4.710   0.824   3.598 -0.1981  0.0675 -0.2874
 9292SOL    HW139509   4.622   0.790   3.584  0.5947 -1.5806 -1.2638
 9292SOL    HW239510   0.014   0.773   3.670 -2.1878  0.9134  1.3594
 9293SOL     OW39511   3.976   3.814   3.530  0.3494  0.3500 -0.4357
 9293SOL    HW139512   3.985   3.833   3.623  0.6503 -1.8201 -0.0434
 9293SOL    HW239513   3.941   3.726   3.522 -0.5893  0.7679 -1.0056
 9294SOL     OW39514   2.341   0.397   7.503  0.1609 -0.4102  0.1198
 9294SOL    HW139515   2.391   0.460   7.451  1.5187 -0.6961  1.0809
 9294SOL    HW239516   2.350   0.446   7.584  1.2282 -0.7622  0.2074
 9295SOL     OW39517   0.799   1.736   3.228  0.2707  0.3063  0.1269
 9295SOL    HW139518   0.718   1.786   3.222  0.1024  0.1810  1.4868
 9295SOL    HW239519   0.802   1.692   3.313 -0.5090  0.5028  0.2530
 9296SOL     OW39520   2.255   3.997  14.286 -0.4768 -0.5190 -0.3605
 9296SOL    HW139521   2.269   3.906  14.260  3.5568 -0.0352  0.0446
 9296SOL    HW239522   2.283   4.039  14.205 -0.6349 -0.8901 -0.6054
 9297SOL     OW39523   3.660   1.773   2.672  0.3275 -0.1588 -0.0315
 9297SOL    HW139524   3.745   1.729   2.663  1.0704  1.1208  0.7289
 9297SOL    HW239525   3.658   1.823   2.590  1.5120  0.1281  0.1142
 9298SOL     OW39526   4.718   2.305  17.083 -0.5838  0.3629  0.1933
 9298SOL    HW139527   0.051   2.340  17.025 -0.9187  2.3153  1.0085
 9298SOL    HW239528   0.040   2.307  17.160  0.8435  0.4180 -0.8620
 9299SOL     OW39529   3.875   0.560   5.795  0.1485  0.3442  0.0384
 9299SOL    HW139530   3.863   0.639   5.743 -0.9086 -0.7267 -1.3489
 9299SOL    HW239531   3.965   0.540   5.770  0.8038  1.5234  1.5254
 9300SOL     OW39532   0.250   4.380  11.283 -0.2886 -0.8498  0.1167
 9300SOL    HW139533   0.178   4.316  11.284 -1.2310  0.1992 -1.4988
 9300SOL    HW239534   0.320   4.325  11.246  0.3388  0.5469 -0.7524
 9301SOL     OW39535   2.285   4.078   8.367  0.1367  0.4336 -0.4552
 9301SOL    HW139536   2.276   4.162   8.323  0.4613 -0.9584 -3.1792
 9301SOL    HW239537   2.378   4.061   8.356 -0.3514 -1.8200 -1.0700
 9302SOL     OW39538   4.269   0.853   8.819  0.3019  0.5484 -0.5597
 9302SOL    HW139539   4.224   0.816   8.743 -1.8049  1.4039  0.2909
 9302SOL    HW239540   4.210   0.922   8.848 -0.0807 -0.0239  0.0235
 9303SOL     OW39541   2.998   2.570   3.911 -0.0183 -0.2184  0.3209
 9303SOL    HW139542   3.044   2.593   3.992  0.8637  0.0951 -0.2725
 9303SOL    HW239543   2.908   2.588   3.939 -0.2467 -0.0329 -0.5511
 9304SOL     OW39544   1.554   2.669   0.248 -0.0813  0.3692  0.1846
 9304SOL    HW139545   1.517   2.598   0.196 -0.2015  0.4315  0.1853
 9304SOL    HW239546   1.584   2.727   0.179 -0.5983 -1.2563 -1.4122
 9305SOL     OW39547   3.227   0.033   5.258 -0.0569  0.4225  0.4452
 9305SOL    HW139548   3.148   4.712   5.263  1.5123 -1.5977  3.1321
 9305SOL    HW239549   3.262   0.023   5.346  2.1130 -2.0683 -0.7014
 9306SOL     OW39550   4.025   3.076   3.997  0.0558 -0.4974  0.2159
 9306SOL    HW139551   4.011   3.065   3.903 -3.0447  0.8885  0.5131
 9306SOL    HW239552   4.100   3.135   4.001 -0.1685 -0.4080  3.1976
 9307SOL     OW39553   4.728   2.712   8.736  0.4455  0.0070 -0.1831
 9307SOL    HW139554   4.714   2.622   8.764 -1.9635  0.0237 -1.3612
 9307SOL    HW239555   4.650   2.759   8.766  1.9238  3.1504 -1.2951
 9308SOL     OW39556   4.398   4.633   7.045 -0.0495 -0.2008 -1.2866
 9308SOL    HW139557   4.366   4.709   7.093 -0.6878 -0.6677 -0.9799
 9308SOL    HW239558   4.370   4.658   6.957 -0.3289 -1.0481 -1.4382
 9309SOL     OW39559   1.632   2.372  16.093 -0.6978 -0.4584 -0.3318
 9309SOL    HW139560   1.614   2.308  16.025  2.0762  0.8166 -2.2548
 9309SOL    HW239561   1.553   2.427  16.094 -1.1576 -1.1177 -0.4171
 9310SOL     OW39562   3.457   3.761  11.070  0.2189 -0.1280  0.9139
 9310SOL    HW139563   3.443   3.691  11.006  0.4724 -1.1891  2.0019
 9310SOL    HW239564   3.409   3.716  11.140 -2.2848  0.4760 -0.4036
 9311SOL     OW39565   0.998   1.202   5.370  0.0228  0.4201  0.3666
 9311SOL    HW139566   1.051   1.153   5.308  1.1402  1.6893  0.3203
 9311SOL    HW239567   1.043   1.286   5.376  0.1075  0.2583  2.0597
 9312SOL     OW39568   0.136   2.184   2.999 -0.9345  0.2900  0.0764
 9312SOL    HW139569   0.198   2.132   3.050 -1.0283  0.7680  0.6745
 9312SOL    HW239570   0.190   2.250   2.956 -1.3685 -0.3458 -1.4545
 9313SOL     OW39571   4.407   0.693   3.627  0.2409  0.2074  0.5292
 9313SOL    HW139572   4.368   0.758   3.569  1.6677 -0.9168 -1.6980
 9313SOL    HW239573   4.350   0.705   3.703  3.6731  1.2166  2.9259
 9314SOL     OW39574   2.252   2.641   2.096  0.1076 -0.5909  0.0547
 9314SOL    HW139575   2.336   2.606   2.126  0.5465 -1.3350 -2.0425
 9314SOL    HW239576   2.201   2.661   2.175  1.7806  1.5118  0.6113
 9315SOL     OW39577   3.371   4.693   5.495  0.6385 -0.2118  0.2388
 9315SOL    HW139578   3.328   4.693   5.581  2.5847 -3.2540  1.1862
 9315SOL    HW239579   3.425   4.618   5.518  1.1458  0.1159  0.1368
 9316SOL     OW39580   2.257   1.366  10.623  0.1929 -0.0017  0.0389
 9316SOL    HW139581   2.337   1.390  10.670 -0.0734  2.5716 -0.8103
 9316SOL    HW239582   2.264   1.424  10.547  2.4277  1.5480  1.4302
 9317SOL     OW39583   0.216   3.673   8.334 -0.6930  0.3878 -0.2375
 9317SOL    HW139584   0.140   3.616   8.318 -1.0258  0.7060  0.2018
 9317SOL    HW239585   0.202   3.727   8.257 -1.6809  0.3556 -0.0891
 9318SOL     OW39586   2.047   2.746   3.200  0.1154 -0.2024 -0.4442
 9318SOL    HW139587   2.074   2.706   3.118 -1.7807 -1.0860 -0.6393
 9318SOL    HW239588   2.041   2.663   3.247 -0.9089  0.6440  0.9625
 9319SOL     OW39589   0.994   2.893   2.273  0.5294  0.3506  0.4230
 9319SOL    HW139590   1.077   2.882   2.226 -0.5702 -0.4881 -1.3130
 9319SOL    HW239591   1.010   2.983   2.301  1.3411 -0.3672  2.3057
 9320SOL     OW39592   4.145   2.610   0.204 -0.2375 -0.2731 -0.0880
 9320SOL    HW139593   4.098   2.550   0.261 -0.6049 -0.6920 -0.8383
 9320SOL    HW239594   4.188   2.563   0.132 -0.5734 -0.5171 -0.1275
 9321SOL     OW39595   1.778   2.121  15.796  0.4235 -0.7678 -0.0224
 9321SOL    HW139596   1.767   2.040  15.745 -0.2934 -0.9333  0.3980
 9321SOL    HW239597   1.762   2.183  15.725  0.1394  0.5469  1.2006
 9322SOL     OW39598   4.090   0.486  16.122  0.0833 -0.1334  0.6755
 9322SOL    HW139599   4.065   0.450  16.207  3.6754  3.1746  3.0817
 9322SOL    HW239600   4.013   0.478  16.066  0.0144  2.1513  0.4444
 9323SOL     OW39601   4.630   2.757   5.452  0.2687 -0.2865  0.5714
 9323SOL    HW139602   4.716   2.746   5.491  0.5691 -0.1199 -0.0453
 9323SOL    HW239603   4.647   2.700   5.377 -0.2491 -0.2586  0.4287
 9324SOL     OW39604   1.770   3.845  16.513  0.1572  0.4726 -0.2101
 9324SOL    HW139605   1.738   3.758  16.490 -1.6948  1.2977 -0.7584
 9324SOL    HW239606   1.844   3.824  16.570 -1.4639 -1.4236  1.1989
 9325SOL     OW39607   1.498   2.797   0.965  0.1761 -0.0517  0.0046
 9325SOL    HW139608   1.445   2.720   0.987  1.3011 -0.4042  1.4745
 9325SOL    HW239609   1.444   2.847   0.903 -0.0470 -2.1001 -1.4688
 9326SOL     OW39610   2.831   1.445   3.296 -0.8699 -0.2789 -0.1523
 9326SOL    HW139611   2.882   1.491   3.363 -0.6934 -0.0912 -0.4184
 9326SOL    HW239612   2.847   1.505   3.223  1.8571 -1.5287 -0.5684
 9327SOL     OW39613   2.851   3.901   9.389 -0.1178 -0.7397  0.4632
 9327SOL    HW139614   2.945   3.901   9.408 -0.1026 -0.0397  0.3706
 9327SOL    HW239615   2.841   3.989   9.425 -2.5516 -1.3741  1.2946
 9328SOL     OW39616   2.764   3.213   4.244  0.4930 -0.0097  0.1535
 9328SOL    HW139617   2.808   3.283   4.196  2.3024 -1.6190 -0.5506
 9328SOL    HW239618   2.830   3.143   4.246 -1.1029 -1.5387 -0.2972
 9329SOL     OW39619   4.672   3.679   7.955  0.3493  0.6258 -0.5441
 9329SOL    HW139620   4.611   3.606   7.969 -1.2151  1.8974 -0.7832
 9329SOL    HW239621   4.620   3.753   7.985 -0.5516  0.1868 -1.0495
 9330SOL     OW39622   1.033   0.102  16.545  0.0269 -1.1008 -0.4638
 9330SOL    HW139623   0.937   0.105  16.553  0.0980 -1.3716  0.5455
 9330SOL    HW239624   1.046   0.029  16.485  0.5678 -0.4450 -1.1382
 9331SOL     OW39625   1.202   2.490   6.256 -0.0476 -0.0735  0.5123
 9331SOL    HW139626   1.200   2.578   6.220 -0.6260 -0.1360  0.3923
 9331SOL    HW239627   1.107   2.479   6.268  0.0932 -1.1576  0.6612
 9332SOL     OW39628   2.530   3.757   7.036  0.2457 -0.1300  0.0882
 9332SOL    HW139629   2.479   3.831   7.005 -0.9608 -0.0976  2.1315
 9332SOL    HW239630   2.621   3.784   7.047  0.1489  0.3843 -0.3775
 9333SOL     OW39631   2.123   3.151  10.513 -0.1479 -0.1607  0.3236
 9333SOL    HW139632   2.036   3.158  10.475  0.7620  1.3332 -1.5112
 9333SOL    HW239633   2.104   3.101  10.593  0.6295  0.3498  0.8371
 9334SOL     OW39634   2.424   3.519   8.680 -0.7378 -0.4576 -0.2578
 9334SOL    HW139635   2.402   3.539   8.771  0.0908  0.9598 -0.3758
 9334SOL    HW239636   2.502   3.464   8.692 -0.4571  0.0168  0.1083
 9335SOL     OW39637   1.549   0.651   7.468  0.1849 -0.5046 -0.1603
 9335SOL    HW139638   1.567   0.574   7.521 -2.4229  0.4873  2.2085
 9335SOL    HW239639   1.558   0.720   7.534 -0.5773  1.1815 -1.7955
 9336SOL     OW39640   0.657   1.660   7.932 -0.1706  0.8069 -0.2320
 9336SOL    HW139641   0.668   1.587   7.993  1.3238 -0.1392 -1.6144
 9336SOL    HW239642   0.691   1.730   7.988  1.3977 -0.3565  0.2543
 9337SOL     OW39643   2.077   1.537  12.973 -0.2639 -0.2499  0.2555
 9337SOL    HW139644   2.056   1.621  13.015  1.4007  1.1289 -1.6691
 9337SOL    HW239645   2.128   1.558  12.895  0.1017 -2.1396 -0.0120
 9338SOL     OW39646   0.527   1.634   8.974  0.2665  0.2211  0.4784
 9338SOL    HW139647   0.485   1.663   9.055 -1.3546 -0.5260 -0.0888
 9338SOL    HW239648   0.591   1.570   9.004  1.9490  3.0170  2.8301
 9339SOL     OW39649   3.861   4.074   8.150 -0.2720  0.2775  0.3943
 9339SOL    HW139650   3.824   4.004   8.096 -1.8908  1.7249 -0.3473
 9339SOL    HW239651   3.812   4.054   8.230 -1.9840 -0.7615 -0.9133
 9340SOL     OW39652   0.159   1.043   7.511 -0.1062 -0.4618 -0.6285
 9340SOL    HW139653   0.225   1.008   7.571  0.8360  0.4022 -1.1544
 9340SOL    HW239654   0.218   1.027   7.437  0.7511  0.3583 -0.1258
 9341SOL     OW39655   2.403   3.816   1.754  0.0988  0.1467  0.5557
 9341SOL    HW139656   2.481   3.855   1.714 -0.6391 -0.2618 -1.2694
 9341SOL    HW239657   2.430   3.822   1.845  0.0934  1.8921  0.4490
 9342SOL     OW39658   0.562   0.177  14.459  0.2604  0.3804 -0.4547
 9342SOL    HW139659   0.495   0.186  14.528 -0.0127 -1.2356 -0.5020
 9342SOL    HW239660   0.600   0.263  14.474  0.1027  0.2767  0.5430
 9343SOL     OW39661   0.678   2.499   5.357 -0.2409 -0.2862  0.4542
 9343SOL    HW139662   0.615   2.490   5.286 -1.1978 -2.6991  1.6239
 9343SOL    HW239663   0.713   2.585   5.331  3.5841 -2.1340 -0.5601
 9344SOL     OW39664   2.307   0.183   4.417 -0.0298  0.2633  0.2308
 9344SOL    HW139665   2.255   0.133   4.479 -1.0451 -0.0570 -0.8913
 9344SOL    HW239666   2.249   0.251   4.382 -1.0073 -1.6139 -1.7411
 9345SOL     OW39667   0.139   3.181   7.985 -0.2344 -0.3114  0.5635
 9345SOL    HW139668   0.051   3.217   7.978 -0.4921 -0.9308  0.6901
 9345SOL    HW239669   0.185   3.223   7.912 -0.7910 -1.0952 -0.2289
 9346SOL     OW39670   3.513   0.825   1.710 -0.1765  0.0292  0.3441
 9346SOL    HW139671   3.483   0.777   1.632  0.8905 -0.9735  0.5626
 9346SOL    HW239672   3.521   0.753   1.772  0.6081 -1.6124 -1.6681
 9347SOL     OW39673   1.141   2.165  15.639  0.2222 -0.4041 -0.6538
 9347SOL    HW139674   1.228   2.202  15.626 -1.1739  3.0841 -0.1597
 9347SOL    HW239675   1.145   2.135  15.730  0.3061  0.5815 -0.3300
 9348SOL     OW39676   0.195   0.497   3.706  0.3404  0.2632  0.3358
 9348SOL    HW139677   0.234   0.491   3.619  0.1789  1.1488  0.2047
 9348SOL    HW239678   0.113   0.450   3.693  0.1143  1.1115 -1.2698
 9349SOL     OW39679   1.770   3.787  12.492  0.7005 -0.3096 -0.3191
 9349SOL    HW139680   1.803   3.740  12.416  0.0856 -1.4370  0.1163
 9349SOL    HW239681   1.810   3.872  12.473 -0.1006 -0.4589 -2.6547
 9350SOL     OW39682   0.084   3.716  16.949 -0.0913  0.0087  0.0653
 9350SOL    HW139683   0.130   3.798  16.967 -0.8080  0.8448 -1.8594
 9350SOL    HW239684   0.017   3.746  16.889  0.1192 -0.6600 -0.5065
 9351SOL     OW39685   2.039   1.896   2.697 -0.0610 -0.2188  0.3496
 9351SOL    HW139686   2.081   1.934   2.619  1.0027  0.9490  1.5039
 9351SOL    HW239687   1.988   1.973   2.721  1.7307  1.4000 -1.0695
 9352SOL     OW39688   3.416   4.518   2.520 -0.0864 -0.1793  0.2065
 9352SOL    HW139689   3.433   4.580   2.592 -1.9650  1.7953 -1.0404
 9352SOL    HW239690   3.506   4.487   2.508  0.4397  1.2356  0.4006
 9353SOL     OW39691   4.264   1.837   3.402 -0.8009  0.0014  0.8395
 9353SOL    HW139692   4.199   1.907   3.412 -0.9000  0.0787 -0.3186
 9353SOL    HW239693   4.330   1.862   3.466 -0.1146  1.1119 -0.2906
 9354SOL     OW39694   1.293   1.905   2.988 -0.1306 -0.0548  0.2377
 9354SOL    HW139695   1.279   1.815   3.017 -0.9579  0.6898  2.1379
 9354SOL    HW239696   1.320   1.882   2.899 -0.7948  0.0554  0.0097
 9355SOL     OW39697   0.973   4.235  14.761  0.2874 -0.1411 -0.2161
 9355SOL    HW139698   1.005   4.301  14.699 -0.2770  0.4509  0.1140
 9355SOL    HW239699   0.888   4.204  14.730 -0.6923  2.0776  0.2089
 9356SOL     OW39700   2.993   1.762   5.632 -0.4644  0.2888  0.2542
 9356SOL    HW139701   2.918   1.703   5.625  0.4854 -0.9109  0.2668
 9356SOL    HW239702   3.068   1.703   5.639 -1.6198 -1.0095  1.8560
 9357SOL     OW39703   2.600   2.774   6.657 -0.2844  0.0282 -0.0824
 9357SOL    HW139704   2.535   2.742   6.719 -0.0311 -0.0321  0.1518
 9357SOL    HW239705   2.609   2.864   6.688  0.2536  0.1165 -0.5018
 9358SOL     OW39706   1.218   1.523  17.734 -0.6542 -0.2278 -0.4744
 9358SOL    HW139707   1.207   1.503   0.090  0.9856  0.6653 -0.0888
 9358SOL    HW239708   1.156   1.468  17.686 -0.4680 -3.4800  3.0886
 9359SOL     OW39709   3.971   4.442   7.838  0.3407 -0.1538  0.0976
 9359SOL    HW139710   3.977   4.428   7.743 -2.9666 -0.1065 -0.1235
 9359SOL    HW239711   3.902   4.507   7.840  1.3529  0.9582 -0.8995
 9360SOL     OW39712   1.148   1.331   3.585  0.0181  0.1780 -0.6643
 9360SOL    HW139713   1.190   1.248   3.562 -1.9354 -1.1490  0.5136
 9360SOL    HW239714   1.220   1.388   3.560  1.1132 -0.8360  0.1878
 9361SOL     OW39715   3.923   2.737  11.861  0.1018 -0.1464  0.2332
 9361SOL    HW139716   3.982   2.811  11.877 -0.2812  0.3992 -0.8840
 9361SOL    HW239717   3.980   2.667  11.892 -1.0683 -1.5097 -0.7253
 9362SOL     OW39718   2.757   2.043  16.385  0.7296  0.6708  0.1570
 9362SOL    HW139719   2.825   2.099  16.348 -0.8924  1.9310 -0.9312
 9362SOL    HW239720   2.811   1.986  16.439  0.1195  1.3188  1.4568
 9363SOL     OW39721   1.643   0.341   2.921 -0.3032  0.8843 -0.0823
 9363SOL    HW139722   1.585   0.283   2.872 -1.1181  0.7740  1.0420
 9363SOL    HW239723   1.725   0.320   2.876 -0.2756 -0.1763  0.4809
 9364SOL     OW39724   1.740   3.157   0.380 -0.0880  0.5400  0.2177
 9364SOL    HW139725   1.688   3.119   0.451  0.7537 -0.8053  0.1168
 9364SOL    HW239726   1.773   3.237   0.422  1.5305  0.5663 -1.1050
 9365SOL     OW39727   2.332   1.730  17.382  0.1993 -0.6462  0.3966
 9365SOL    HW139728   2.313   1.814  17.341  0.9557 -0.5436  0.2540
 9365SOL    HW239729   2.334   1.757  17.474  2.0442 -1.4630  0.5991
 9366SOL     OW39730   3.971   2.923   7.759 -0.1465 -0.0212  0.1220
 9366SOL    HW139731   4.016   2.902   7.677 -0.8754 -1.1143 -0.0044
 9366SOL    HW239732   4.000   2.860   7.826 -1.0607  0.4039  0.9248
 9367SOL     OW39733   0.647   3.602   6.326 -0.4711 -0.7296  0.3267
 9367SOL    HW139734   0.712   3.670   6.308  1.8505 -2.7493  1.0193
 9367SOL    HW239735   0.605   3.596   6.240  1.6138 -1.8045 -0.6338
 9368SOL     OW39736   0.860   0.409  15.574 -0.2817 -0.2151  0.4092
 9368SOL    HW139737   0.869   0.369  15.661  0.7657 -1.9894 -0.5164
 9368SOL    HW239738   0.851   0.335  15.514  0.3693 -1.2524  1.5806
 9369SOL     OW39739   1.265   0.029   9.207  0.4134 -0.4194 -0.8111
 9369SOL    HW139740   1.179   0.028   9.165  0.8840  0.1179 -1.7962
 9369SOL    HW239741   1.322   0.066   9.139 -0.5961  0.5786 -1.1207
 9370SOL     OW39742   1.143   2.755   7.571  0.8431 -0.2629  0.2145
 9370SOL    HW139743   1.111   2.845   7.574  1.1352 -0.1182 -1.2598
 9370SOL    HW239744   1.136   2.729   7.663  1.1163 -2.6383 -0.4188
 9371SOL     OW39745   2.125   3.755   3.842 -0.4354 -0.1376  0.0155
 9371SOL    HW139746   2.187   3.691   3.807 -0.8479 -0.8126  0.5266
 9371SOL    HW239747   2.045   3.706   3.857  0.6546 -2.2674 -1.1525
 9372SOL     OW39748   0.726   3.347  16.084 -0.2054 -0.1928 -0.0666
 9372SOL    HW139749   0.722   3.413  16.015 -0.2679 -1.8609 -1.6503
 9372SOL    HW239750   0.637   3.314  16.083 -0.3555  0.1646  1.6767
 9373SOL     OW39751   4.038   1.454   4.133 -0.8726 -0.0467 -0.2646
 9373SOL    HW139752   4.086   1.412   4.061 -0.1421 -1.9114  1.3150
 9373SOL    HW239753   3.948   1.459   4.100 -0.1287  1.5356 -2.0893
 9374SOL     OW39754   3.051   0.939   5.388 -0.1122  0.2886 -0.1602
 9374SOL    HW139755   2.989   0.871   5.417  1.3121 -0.8628  0.1961
 9374SOL    HW239756   3.001   0.980   5.318  0.9653  1.4025 -0.2784
 9375SOL     OW39757   3.418   4.722  10.107  0.8669 -0.0213  1.0284
 9375SOL    HW139758   3.384   4.636  10.082 -0.0432 -0.2475  3.0468
 9375SOL    HW239759   3.508   4.698  10.127  1.6890  1.8341 -0.3524
 9376SOL     OW39760   1.541   2.821   5.203  0.7497 -0.0041  0.5775
 9376SOL    HW139761   1.541   2.901   5.150  3.4386 -1.0062 -0.9808
 9376SOL    HW239762   1.454   2.788   5.183  1.1331 -1.4826  1.3236
 9377SOL     OW39763   1.539   2.170  15.917  0.2582  0.4398 -0.3290
 9377SOL    HW139764   1.610   2.143  15.858  0.0506  0.9254 -0.8008
 9377SOL    HW239765   1.476   2.211  15.857  0.5554  1.7586  0.2721
 9378SOL     OW39766   2.360   0.615   9.560 -0.0412 -0.9920 -0.0091
 9378SOL    HW139767   2.325   0.698   9.527 -1.1223 -1.2211  0.5713
 9378SOL    HW239768   2.321   0.609   9.647  1.5911 -0.7211  0.7452
 9379SOL     OW39769   0.535   4.347   3.657  0.5178 -0.2406 -0.4073
 9379SOL    HW139770   0.591   4.399   3.599  1.6613 -0.5233  0.4516
 9379SOL    HW239771   0.590   4.361   3.734  2.2044  2.1495 -2.0224
 9380SOL     OW39772   3.680   1.044   6.446 -0.2837 -0.1451 -0.0805
 9380SOL    HW139773   3.629   1.034   6.365  0.0543  1.2875 -0.4677
 9380SOL    HW239774   3.764   1.007   6.419 -0.3914 -1.0078  0.7645
 9381SOL     OW39775   0.488   1.240   9.897  0.4287  0.2683 -0.2906
 9381SOL    HW139776   0.512   1.159   9.941 -0.3366 -0.2665 -0.8535
 9381SOL    HW239777   0.555   1.298   9.933 -0.5213 -0.0793  2.0250
 9382SOL     OW39778   0.369   1.682  13.402 -0.1326  0.0150  0.0546
 9382SOL    HW139779   0.386   1.610  13.464  0.5742  2.8632  3.1360
 9382SOL    HW239780   0.293   1.651  13.353  1.1386 -1.1511 -1.1922
 9383SOL     OW39781   1.840   0.194   7.802  0.5618 -0.1171 -0.1237
 9383SOL    HW139782   1.889   0.115   7.779  1.9367  1.5041 -2.7995
 9383SOL    HW239783   1.768   0.168   7.860  2.0160  0.9920  2.1941
 9384SOL     OW39784   1.021   0.892   6.096  0.2838  0.4194  0.5315
 9384SOL    HW139785   1.106   0.849   6.106  0.3566  0.5312  0.3886
 9384SOL    HW239786   1.007   0.901   6.002  0.1889 -1.3193  0.3739
 9385SOL     OW39787   2.101   2.596   6.332 -0.2154 -0.5622 -0.2570
 9385SOL    HW139788   2.155   2.590   6.411  0.2681 -0.4151 -0.5710
 9385SOL    HW239789   2.117   2.688   6.310 -2.3612 -0.3657 -1.0214
 9386SOL     OW39790   3.452   1.352  16.231 -0.2887  0.0585  0.0624
 9386SOL    HW139791   3.388   1.288  16.199 -2.6129  3.4384 -1.9854
 9386SOL    HW239792   3.425   1.428  16.181  0.2392 -0.8304 -1.5544
 9387SOL     OW39793   3.118   2.679   7.442  0.0067 -0.2011 -0.5206
 9387SOL    HW139794   3.105   2.743   7.512  1.4612  1.1896 -1.5249
 9387SOL    HW239795   3.031   2.673   7.404 -0.2781 -1.0298  0.2694
 9388SOL     OW39796   3.602   3.480   4.606  0.4606 -0.5039 -0.7620
 9388SOL    HW139797   3.511   3.506   4.618  0.1920 -1.4644 -0.7106
 9388SOL    HW239798   3.654   3.538   4.662 -1.8967  0.1070  0.7632
 9389SOL     OW39799   0.919   4.180   5.927  0.6529 -0.2563  0.0801
 9389SOL    HW139800   0.962   4.105   5.968  0.9343  0.3185  0.8411
 9389SOL    HW239801   0.980   4.253   5.932  1.6810 -1.1214  0.1980
 9390SOL     OW39802   1.878   3.310   6.371 -0.7313  0.4430  0.1572
 9390SOL    HW139803   1.856   3.348   6.456 -1.8357  2.0658 -0.8325
 9390SOL    HW239804   1.848   3.383   6.317  0.9358 -0.7105 -2.3309
 9391SOL     OW39805   1.127   1.992  16.838  0.1735 -0.6036  0.0789
 9391SOL    HW139806   1.102   1.920  16.780  2.5466 -0.2163 -1.4118
 9391SOL    HW239807   1.219   2.005  16.818  0.0997 -0.1296  0.0383
 9392SOL     OW39808   0.291   2.058   2.466 -0.5334  0.2884  0.3699
 9392SOL    HW139809   0.247   2.053   2.550 -1.1182 -3.5432 -0.1723
 9392SOL    HW239810   0.355   2.128   2.478 -0.0078 -0.2497  0.6798
 9393SOL     OW39811   0.019   1.131  12.014  0.2519  0.0878  0.0860
 9393SOL    HW139812   0.100   1.109  11.968  0.6695  1.4302  0.1735
 9393SOL    HW239813   4.682   1.117  11.951 -1.3377  2.6825  1.2882
 9394SOL     OW39814   1.796   1.985  14.750 -0.1987  0.2271  0.6495
 9394SOL    HW139815   1.823   2.077  14.745 -2.4998  0.9205  0.9915
 9394SOL    HW239816   1.849   1.952  14.823  0.5700 -0.2722 -0.1506
 9395SOL     OW39817   1.014   2.328   0.792 -0.2453 -0.3391  0.8354
 9395SOL    HW139818   0.992   2.346   0.701  0.1680 -1.1073  0.5855
 9395SOL    HW239819   1.074   2.399   0.814 -0.8996  0.6512 -0.5555
 9396SOL     OW39820   0.454   2.701   2.016  0.3755  0.7868  0.0883
 9396SOL    HW139821   0.380   2.717   1.958  0.4175 -1.8128 -0.6529
 9396SOL    HW239822   0.502   2.777   1.983  1.2401  0.0402 -0.3634
 9397SOL     OW39823   4.460   3.594   4.811 -0.4654 -0.6276 -0.3547
 9397SOL    HW139824   4.397   3.573   4.879  1.0345 -0.6728  1.0226
 9397SOL    HW239825   4.452   3.516   4.756  1.6682 -1.1199  0.0250
 9398SOL     OW39826   0.392   2.989   7.275 -0.0100 -0.2152 -0.2377
 9398SOL    HW139827   0.356   2.939   7.348 -0.8920 -1.1284 -1.2910
 9398SOL    HW239828   0.403   2.926   7.203  0.2474 -0.3607 -0.0713
 9399SOL     OW39829   4.726   4.427   6.288  0.7107 -0.1602 -0.4794
 9399SOL    HW139830   0.047   4.448   6.363 -1.3053 -0.5676  1.1159
 9399SOL    HW239831   4.653   4.488   6.300  1.2413  0.5064 -0.6405
 9400SOL     OW39832   3.155   0.703   4.586 -0.3425 -0.0693 -0.4159
 9400SOL    HW139833   3.219   0.636   4.560 -2.4649 -1.0419 -3.1591
 9400SOL    HW239834   3.075   0.652   4.575  0.3173 -0.3925 -3.6720
 9401SOL     OW39835   1.685   2.485   0.500 -0.0394 -0.3814 -0.4878
 9401SOL    HW139836   1.751   2.416   0.496  0.3498 -0.2214  3.8311
 9401SOL    HW239837   1.738   2.563   0.482  0.5236 -0.3879  1.1613
 9402SOL     OW39838   2.276   0.647  12.262  0.4875  0.1189  0.0528
 9402SOL    HW139839   2.240   0.558  12.255  0.3487  0.2530 -0.8767
 9402SOL    HW239840   2.215   0.691  12.321 -0.5957 -1.0332 -0.2146
 9403SOL     OW39841   0.625   2.768  17.044  0.3733  0.1606  0.2427
 9403SOL    HW139842   0.619   2.785  16.950 -1.2231 -0.4711  0.2411
 9403SOL    HW239843   0.624   2.672  17.047  0.4825  0.1488 -0.0882
 9404SOL     OW39844   2.950   0.057   3.292  0.4278  0.4592  0.0615
 9404SOL    HW139845   3.021   0.079   3.232  0.3856  1.9422  0.5395
 9404SOL    HW239846   2.900   4.719   3.255  2.4830 -0.7689 -0.3258
 9405SOL     OW39847   0.650   0.593   7.874 -0.1581 -0.1098 -0.4401
 9405SOL    HW139848   0.608   0.678   7.862 -0.6333 -0.3683 -0.6074
 9405SOL    HW239849   0.742   0.617   7.884 -0.2631  0.3512 -0.5628
 9406SOL     OW39850   4.363   2.041   6.649 -0.3338  0.3576  0.7167
 9406SOL    HW139851   4.362   2.028   6.554 -2.1084 -1.5154  1.0080
 9406SOL    HW239852   4.451   2.078   6.650  0.8875 -2.5587  0.8505
 9407SOL     OW39853   1.076   0.420   7.568 -0.0100  0.1544  0.2424
 9407SOL    HW139854   1.109   0.499   7.525 -1.8290 -0.3985 -2.1545
 9407SOL    HW239855   1.015   0.463   7.627 -1.6626 -3.3424  1.1226
 9408SOL     OW39856   3.866   0.101  16.445  0.3293  0.3699  0.7247
 9408SOL    HW139857   3.773   0.080  16.456  0.6390 -1.5942 -0.4170
 9408SOL    HW239858   3.874   0.189  16.480 -0.2016  0.6270  0.1924
 9409SOL     OW39859   0.003   0.673   9.051 -0.0646  0.5547  0.3216
 9409SOL    HW139860   4.718   0.732   8.978  0.7848  1.3996  0.7809
 9409SOL    HW239861   4.674   0.603   9.041  0.6083  0.2968 -2.2162
 9410SOL     OW39862   4.221   3.498   0.170 -0.4384 -0.2146 -0.0142
 9410SOL    HW139863   4.304   3.519   0.212  0.2984 -1.6886 -0.7059
 9410SOL    HW239864   4.226   3.402   0.170  1.6579 -0.0930 -0.3782
 9411SOL     OW39865   2.807   3.372   5.585  0.6390 -0.4043 -0.5203
 9411SOL    HW139866   2.852   3.310   5.641 -0.9329  0.1846  1.3972
 9411SOL    HW239867   2.723   3.330   5.568 -0.0856  1.3009 -1.2268
 9412SOL     OW39868   1.872   3.595   3.929  0.2872  0.4792 -0.1109
 9412SOL    HW139869   1.906   3.513   3.895  1.7650  0.7265  0.7902
 9412SOL    HW239870   1.805   3.562   3.989  0.1501 -2.3225 -1.7885
 9413SOL     OW39871   3.777   2.260  11.297 -0.8833 -0.3155 -0.9075
 9413SOL    HW139872   3.773   2.187  11.359 -0.9886  0.4895  0.0285
 9413SOL    HW239873   3.855   2.241  11.245 -0.7920  1.8088 -1.5448
 9414SOL     OW39874   1.864   0.386   8.678  0.2959 -0.4761 -0.3653
 9414SOL    HW139875   1.803   0.350   8.742  1.1408 -0.5556  0.3954
 9414SOL    HW239876   1.946   0.337   8.682  0.3214 -0.5156 -1.2616
 9415SOL     OW39877   0.972   3.508   8.835 -0.3897  0.3820 -0.2482
 9415SOL    HW139878   1.065   3.497   8.853 -0.4868 -0.3310 -0.1669
 9415SOL    HW239879   0.978   3.578   8.771  1.5286  2.6940  2.4251
 9416SOL     OW39880   1.317   3.077   9.239 -0.8294 -0.5458  0.5599
 9416SOL    HW139881   1.393   3.136   9.235 -1.3909  0.2290  1.1957
 9416SOL    HW239882   1.265   3.127   9.303  2.1738 -0.0015  2.5854
 9417SOL     OW39883   0.242   2.444  17.005 -0.2325  0.1383  0.1325
 9417SOL    HW139884   0.265   2.498  17.080  0.1496 -0.8545  0.7354
 9417SOL    HW239885   0.251   2.513  16.940  0.3231 -0.8988 -0.8952
 9418SOL     OW39886   2.815   2.925   6.955  0.6811 -0.2359 -0.0040
 9418SOL    HW139887   2.818   3.010   6.910  1.6020 -1.6664 -2.6106
 9418SOL    HW239888   2.873   2.951   7.027  0.9975 -1.0160  0.0154
 9419SOL     OW39889   1.967   4.152   9.823 -0.0645 -0.1513 -0.6277
 9419SOL    HW139890   2.027   4.224   9.803 -1.5462  1.2521  0.0205
 9419SOL    HW239891   2.028   4.087   9.859 -0.0209 -0.5661 -1.4593
 9420SOL     OW39892   4.200   4.327   6.977  0.3356 -0.4765 -0.3041
 9420SOL    HW139893   4.254   4.314   6.899  0.7729 -0.7458  0.0418
 9420SOL    HW239894   4.114   4.331   6.934  0.6158  0.0526 -0.8203
 9421SOL     OW39895   0.794   1.291   3.096 -0.2254  0.0645 -0.2973
 9421SOL    HW139896   0.734   1.308   3.169  0.1298  1.9752 -0.4557
 9421SOL    HW239897   0.727   1.259   3.036 -0.6512 -2.2109  1.3956
 9422SOL     OW39898   0.835   4.167  13.285  0.0801 -0.4637  0.5441
 9422SOL    HW139899   0.852   4.111  13.361 -2.8676  0.8567  2.1952
 9422SOL    HW239900   0.747   4.201  13.305 -1.0370 -3.0803  0.0186
 9423SOL     OW39901   0.395   0.706   8.059  0.2221  1.0502  0.3076
 9423SOL    HW139902   0.339   0.739   7.989  1.1403 -0.0595 -0.9487
 9423SOL    HW239903   0.333   0.655   8.112 -1.1982  3.2173  0.7062
 9424SOL     OW39904   4.396   0.260   1.082  0.6578  0.0529  0.1474
 9424SOL    HW139905   4.476   0.258   1.030  0.2535 -2.7730 -0.3502
 9424SOL    HW239906   4.360   0.173   1.064  0.1006  0.9940 -3.3439
 9425SOL     OW39907   0.963   0.890   4.716 -0.0960  0.0652 -0.2291
 9425SOL    HW139908   0.943   0.878   4.809 -2.5408  2.9562 -0.3958
 9425SOL    HW239909   0.877   0.860   4.686 -1.6918  2.0832  2.3433
 9426SOL     OW39910   2.358   2.170   6.391 -0.9129 -0.1860  0.4614
 9426SOL    HW139911   2.306   2.090   6.398 -2.7847  0.7954 -2.3299
 9426SOL    HW239912   2.294   2.241   6.401  0.5307  1.1597  0.2999
 9427SOL     OW39913   4.054   2.318   1.861  0.8966 -0.7224  0.3549
 9427SOL    HW139914   3.983   2.254   1.850 -0.5640  0.5743  2.2934
 9427SOL    HW239915   4.102   2.311   1.779 -0.0090  1.7215 -0.3751
 9428SOL     OW39916   4.063   0.873  13.195 -0.5657  1.0224  0.3252
 9428SOL    HW139917   4.011   0.810  13.145  1.1460  0.2983 -0.5507
 9428SOL    HW239918   3.992   0.892  13.256  1.2201 -1.1012  3.0939
 9429SOL     OW39919   1.812   1.737   2.966 -0.1117 -0.4150 -0.1064
 9429SOL    HW139920   1.802   1.830   2.983  1.9160  0.2565 -2.5887
 9429SOL    HW239921   1.740   1.699   3.016 -1.0683  0.0406 -1.1461
 9430SOL     OW39922   0.478   1.322   9.457 -0.6776 -0.1468 -0.1210
 9430SOL    HW139923   0.443   1.245   9.502  0.8181 -0.0237  1.2881
 9430SOL    HW239924   0.496   1.385   9.527 -0.8221 -0.2348 -0.0046
 9431SOL     OW39925   1.479   4.379   6.563  0.0043 -0.1539  0.1183
 9431SOL    HW139926   1.566   4.394   6.600  0.3364  2.8165 -1.8271
 9431SOL    HW239927   1.429   4.349   6.639  2.6222  0.0320  1.9056
 9432SOL     OW39928   2.140   4.261  17.220 -0.3283  0.0589  0.0881
 9432SOL    HW139929   2.183   4.261  17.305  0.1965  1.1994 -0.1753
 9432SOL    HW239930   2.122   4.355  17.213  1.1122  0.2966 -0.4509
 9433SOL     OW39931   3.779   0.420   5.198 -0.4292  0.6701 -0.2005
 9433SOL    HW139932   3.697   0.370   5.199 -1.1130  1.7821 -0.6972
 9433SOL    HW239933   3.762   0.473   5.276 -2.1553  0.3251 -0.3361
 9434SOL     OW39934   0.457   3.815   8.380 -0.2374  0.3350  0.2457
 9434SOL    HW139935   0.377   3.763   8.374 -0.2411  0.3373  0.2761
 9434SOL    HW239936   0.434   3.885   8.318 -0.9547 -1.9959 -2.1261
 9435SOL     OW39937   0.750   1.751   8.392 -0.0301 -0.1394  0.7945
 9435SOL    HW139938   0.740   1.819   8.459 -1.7629  1.0886 -0.7137
 9435SOL    HW239939   0.660   1.720   8.392  0.0775 -0.4550 -0.1242
 9436SOL     OW39940   0.105   0.747   7.197 -0.5946 -0.4036  0.4492
 9436SOL    HW139941   0.073   0.837   7.197  0.8706  0.1081  1.8180
 9436SOL    HW239942   0.146   0.739   7.111  1.7914  0.0919  1.5408
 9437SOL     OW39943   1.741   2.135   6.025 -0.5928  0.1188  0.4469
 9437SOL    HW139944   1.720   2.106   6.114  1.3146 -0.8955  0.5522
 9437SOL    HW239945   1.704   2.067   5.968 -0.6846  0.0737  0.5596
 9438SOL     OW39946   2.709   4.158  11.849  0.0625 -0.6403  0.5706
 9438SOL    HW139947   2.734   4.137  11.940  1.3170 -0.2145  0.3349
 9438SOL    HW239948   2.628   4.200  11.878 -0.4423 -0.7505 -0.7171
 9439SOL     OW39949   1.093   0.091   3.117  0.3607 -1.0579 -0.0711
 9439SOL    HW139950   1.067   0.018   3.173 -1.4628  1.2123  2.0279
 9439SOL    HW239951   1.170   0.124   3.164 -0.0038 -1.5242  0.8481
 9440SOL     OW39952   0.644   0.826   9.660  0.0853 -0.4065  0.7937
 9440SOL    HW139953   0.554   0.828   9.629  0.0581 -0.5021  0.8687
 9440SOL    HW239954   0.629   0.766   9.733 -1.1594 -1.2337 -0.1486
 9441SOL     OW39955   1.411   0.813   3.383 -0.1726 -0.8377  0.0469
 9441SOL    HW139956   1.378   0.730   3.349 -2.1719  0.4637 -1.1384
 9441SOL    HW239957   1.456   0.779   3.461  2.9193  0.2458 -1.2779
 9442SOL     OW39958   2.528   1.402  13.705 -0.7685 -0.1853  0.4798
 9442SOL    HW139959   2.574   1.382  13.624  1.7582  0.7822  1.6601
 9442SOL    HW239960   2.462   1.465  13.676  0.5990  0.8542 -0.4017
 9443SOL     OW39961   4.047   2.905   1.894 -0.7018 -0.3477 -0.7623
 9443SOL    HW139962   4.126   2.933   1.848 -0.1348 -1.3434 -0.3819
 9443SOL    HW239963   4.033   2.811   1.884 -0.3695 -0.5036  0.2152
 9444SOL     OW39964   4.193   3.118   1.401  0.1235  0.8847  0.4109
 9444SOL    HW139965   4.168   3.094   1.311  1.8651  1.6477 -0.2860
 9444SOL    HW239966   4.157   3.041   1.445 -0.8951  1.6664  0.9338
 9445SOL     OW39967   1.862   2.111   0.665  0.2263  0.1391  0.1093
 9445SOL    HW139968   1.871   2.200   0.701 -0.7480  0.0616  0.5456
 9445SOL    HW239969   1.766   2.108   0.663  0.2729  0.1384 -1.9410
 9446SOL     OW39970   0.541   4.083   3.916  0.3311 -0.0885 -0.0403
 9446SOL    HW139971   0.477   4.153   3.925 -0.1117 -0.6614  1.3005
 9446SOL    HW239972   0.614   4.120   3.967  1.4595 -1.1746 -0.8675
 9447SOL     OW39973   4.231   3.487   2.414  0.4931  0.5937  0.0278
 9447SOL    HW139974   4.258   3.565   2.365 -1.4742  0.8016 -0.7294
 9447SOL    HW239975   4.256   3.520   2.500  1.5187  0.4062 -0.2041
 9448SOL     OW39976   0.494   2.436  15.768  0.1526 -0.5266 -0.0277
 9448SOL    HW139977   0.437   2.476  15.702  1.5876  1.1140 -0.2894
 9448SOL    HW239978   0.461   2.346  15.771  1.4623 -1.0614 -1.7695
 9449SOL     OW39979   3.067   0.785  16.506 -0.1785 -0.1026  0.3160
 9449SOL    HW139980   3.083   0.877  16.529 -1.0093  0.3753 -1.0489
 9449SOL    HW239981   3.099   0.781  16.417  0.6236  0.3139  0.5928
 9450SOL     OW39982   3.161   3.561  16.560 -0.6047  0.7195 -0.3850
 9450SOL    HW139983   3.125   3.473  16.567  0.5845  0.3987  1.8078
 9450SOL    HW239984   3.253   3.554  16.533 -0.5152 -0.4416  0.2568
 9451SOL     OW39985   3.273   2.572   2.540 -0.3999 -0.2544 -0.1564
 9451SOL    HW139986   3.247   2.543   2.453 -2.0768  0.8279 -0.0176
 9451SOL    HW239987   3.343   2.635   2.527 -0.6148  0.1154  0.4414
 9452SOL     OW39988   1.254   4.360   7.653  0.6470  0.3687  0.3540
 9452SOL    HW139989   1.180   4.392   7.704 -1.6385 -0.8045 -2.2369
 9452SOL    HW239990   1.213   4.302   7.588  0.6958 -1.4157  1.9334
 9453SOL     OW39991   0.569   1.124  17.162 -0.1756  0.3325  1.2228
 9453SOL    HW139992   0.583   1.040  17.117 -0.9229  0.8888 -0.0332
 9453SOL    HW239993   0.534   1.164  17.083 -0.4901 -0.0088  1.1903
 9454SOL     OW39994   4.226   2.413   0.031  0.8086 -0.2326 -0.0879
 9454SOL    HW139995   4.170   2.352   0.080  1.4113  0.1458  1.0751
 9454SOL    HW239996   4.171   2.410  17.689 -0.5169 -1.7531  0.8839
 9455SOL     OW39997   4.560   4.431   6.875  0.5952 -0.1334 -0.0796
 9455SOL    HW139998   4.654   4.435   6.893  0.7601  1.5716 -1.3246
 9455SOL    HW239999   4.511   4.422   6.956  0.5274  0.2577 -0.0818
 9456SOL     OW40000   3.461   4.054   5.649  0.8631  0.1483  0.6016
 9456SOL    HW140001   3.523   4.126   5.638 -0.1509  0.9682  0.1655
 9456SOL    HW240002   3.431   4.058   5.558  0.8814 -1.8838  0.5119
 9457SOL     OW40003   2.087   1.555   0.078 -0.6747 -0.0301 -0.1039
 9457SOL    HW140004   2.041   1.625   0.123 -0.2626 -0.1381  0.4932
 9457SOL    HW240005   2.176   1.568   0.110 -1.0746  3.7069 -0.5878
 9458SOL     OW40006   4.087   0.632  14.439 -0.3558 -0.4901  0.1060
 9458SOL    HW140007   4.154   0.597  14.381  1.8516 -0.6575  2.7425
 9458SOL    HW240008   4.118   0.722  14.445  0.7934 -1.0242  2.1084
 9459SOL     OW40009   2.745   1.594   4.908  0.1443 -0.0417 -0.3519
 9459SOL    HW140010   2.700   1.510   4.901 -1.7247  0.8261  1.0845
 9459SOL    HW240011   2.817   1.583   4.847  0.4157  0.9749 -0.2225
 9460SOL     OW40012   4.484   1.702   6.212 -0.0551  0.0845 -0.1481
 9460SOL    HW140013   4.438   1.697   6.128  0.3794  0.7096 -0.4299
 9460SOL    HW240014   4.528   1.617   6.213  0.2788  0.2727  1.0958
 9461SOL     OW40015   0.934   2.286   2.073 -0.0455 -0.1213 -0.4792
 9461SOL    HW140016   1.026   2.261   2.084  0.0990  0.9729  0.8405
 9461SOL    HW240017   0.905   2.268   2.163  2.7542 -1.7884  0.1174
 9462SOL     OW40018   2.083   2.543   8.967  0.8094 -0.4201  1.0559
 9462SOL    HW140019   2.143   2.513   9.035 -0.1482  2.5679  3.2536
 9462SOL    HW240020   2.144   2.592   8.912  0.1312  1.4495  1.9457
 9463SOL     OW40021   2.417   4.290   3.384 -0.1040  0.1347 -0.2407
 9463SOL    HW140022   2.370   4.325   3.461 -0.1430 -0.7647  0.1432
 9463SOL    HW240023   2.502   4.261   3.418 -1.4860 -1.9524  1.4683
 9464SOL     OW40024   0.540   0.527   9.688  0.2841 -0.6103  0.3137
 9464SOL    HW140025   0.537   0.441   9.730  0.0492 -0.5547  0.4095
 9464SOL    HW240026   0.605   0.569   9.745 -0.0321 -0.6851  0.7208
 9465SOL     OW40027   4.095   0.119   5.261  0.2721 -0.2574 -0.7511
 9465SOL    HW140028   4.143   0.202   5.265 -0.7227  0.2806 -0.0812
 9465SOL    HW240029   4.103   0.094   5.169 -0.8102  0.5359 -1.0602
 9466SOL     OW40030   3.197   1.184   4.409 -0.1246 -0.5021  0.4575
 9466SOL    HW140031   3.122   1.229   4.447 -2.0555 -1.0105 -2.8072
 9466SOL    HW240032   3.256   1.246   4.451  0.2334  0.2195 -1.1001
 9467SOL     OW40033   3.316   0.613   3.708  0.0015  0.3282  0.2175
 9467SOL    HW140034   3.324   0.611   3.803 -2.2421 -1.4511  0.3521
 9467SOL    HW240035   3.405   0.586   3.682  0.9581  1.0920  2.7443
 9468SOL     OW40036   1.769   1.407   8.089  0.0977 -0.4000 -0.1261
 9468SOL    HW140037   1.682   1.388   8.125 -0.2134 -0.1744 -0.7665
 9468SOL    HW240038   1.751   1.378   8.000 -3.6328  3.1384 -0.5510
 9469SOL     OW40039   0.428   0.599  12.507 -0.1383 -0.0469 -0.3022
 9469SOL    HW140040   0.370   0.641  12.443  1.6641  1.1124 -1.1905
 9469SOL    HW240041   0.480   0.540  12.453 -0.7670 -0.1103 -0.8430
 9470SOL     OW40042   1.563   3.731   3.997 -0.2686 -0.1503  0.5150
 9470SOL    HW140043   1.572   3.693   4.085  1.9209  4.0186  2.1114
 9470SOL    HW240044   1.474   3.765   4.012 -0.2918 -0.4531  1.0761
 9471SOL     OW40045   4.708   3.537   1.657  0.1018  0.5231 -0.2067
 9471SOL    HW140046   0.010   3.469   1.600  1.7389  0.1227  1.3192
 9471SOL    HW240047   0.037   3.539   1.729  0.9661 -0.2482 -0.9432
 9472SOL     OW40048   2.865   1.346   2.930 -0.0922  0.0226  0.3022
 9472SOL    HW140049   2.953   1.374   2.906  0.2535 -0.4262  1.0835
 9472SOL    HW240050   2.843   1.270   2.876  0.9121  1.0153 -1.5047
 9473SOL     OW40051   1.540   1.267   8.189  0.1791  0.6516 -0.0273
 9473SOL    HW140052   1.509   1.334   8.251  1.6760 -0.1558  1.5898
 9473SOL    HW240053   1.551   1.186   8.238  0.4461  0.3115 -0.6547
 9474SOL     OW40054   1.157   3.866   5.132 -0.6456  0.5388 -0.2254
 9474SOL    HW140055   1.224   3.925   5.097  0.0455 -0.7115 -0.9893
 9474SOL    HW240056   1.083   3.926   5.124 -1.6599 -0.9101 -1.5619
 9475SOL     OW40057   0.334   2.392   2.602  0.1839 -0.0179  0.1169
 9475SOL    HW140058   0.350   2.477   2.560 -2.9906  0.9409  0.8452
 9475SOL    HW240059   0.426   2.369   2.614 -1.2950 -5.8752  0.2952
 9476SOL     OW40060   0.345   1.903   7.442  0.2506 -0.0028  0.0472
 9476SOL    HW140061   0.373   1.828   7.494  1.1066 -0.6909 -1.4012
 9476SOL    HW240062   0.264   1.866   7.407  0.8458 -0.3859 -0.9204
 9477SOL     OW40063   3.663   0.894   2.356  0.0018 -0.5470  0.2920
 9477SOL    HW140064   3.606   0.922   2.285 -1.4916 -2.2699  0.8127
 9477SOL    HW240065   3.661   0.974   2.409  0.1614 -0.6847  0.5089
 9478SOL     OW40066   4.072   1.920  13.958 -0.1642  0.7998  0.0024
 9478SOL    HW140067   4.095   1.841  14.008 -0.9177 -0.5035 -1.7137
 9478SOL    HW240068   4.072   1.995  14.018  1.6038  1.6827 -1.0728
 9479SOL     OW40069   3.221   0.054   9.651  0.1177 -0.0980 -0.5913
 9479SOL    HW140070   3.260   4.710   9.613 -0.5380  0.3753 -2.2235
 9479SOL    HW240071   3.275   0.069   9.729  0.0450 -0.4288 -0.4795
 9480SOL     OW40072   1.665   1.701   6.167 -0.0526  0.8336  0.0056
 9480SOL    HW140073   1.677   1.784   6.213  0.3009  0.5736  0.3744
 9480SOL    HW240074   1.618   1.654   6.236  0.2441  0.3721 -0.1087
 9481SOL     OW40075   3.460   2.383   6.202  0.3994 -0.0182  0.4314
 9481SOL    HW140076   3.458   2.461   6.259  0.2144 -1.1399  1.9514
 9481SOL    HW240077   3.547   2.398   6.164 -0.7929 -0.5237 -2.4566
 9482SOL     OW40078   3.287   2.648  14.530 -0.1260  0.0440 -0.1324
 9482SOL    HW140079   3.205   2.603  14.512  0.0548  0.1301 -1.1717
 9482SOL    HW240080   3.268   2.680  14.618 -0.1744 -0.2410 -0.0410
 9483SOL     OW40081   4.522   3.129   3.375 -0.0099 -0.7333  0.0111
 9483SOL    HW140082   4.597   3.075   3.400  0.1675 -0.4083  0.1707
 9483SOL    HW240083   4.525   3.115   3.280 -0.7220  0.0002 -0.1162
 9484SOL     OW40084   3.347   1.906   3.395 -0.1415 -0.6018 -0.3597
 9484SOL    HW140085   3.286   1.878   3.464 -0.2877  1.5402  0.3659
 9484SOL    HW240086   3.409   1.946   3.456 -2.5770 -0.0185  1.7618
 9485SOL     OW40087   2.748   4.401   8.195 -0.1639  0.5247  1.0673
 9485SOL    HW140088   2.782   4.316   8.221  1.6666  1.7520  2.7260
 9485SOL    HW240089   2.710   4.426   8.279 -0.0542 -2.5748  2.0429
 9486SOL     OW40090   1.989   3.170   3.140 -0.0427  0.0332  0.2612
 9486SOL    HW140091   1.936   3.111   3.193  0.3470  0.1220  0.7499
 9486SOL    HW240092   1.998   3.249   3.193  2.9287  0.5951 -1.0617
 9487SOL     OW40093   1.406   0.124   7.304 -0.0897 -0.8799  0.2837
 9487SOL    HW140094   1.348   0.054   7.333 -0.1232 -1.1940 -0.5499
 9487SOL    HW240095   1.343   0.190   7.273  0.3597 -0.4456  0.2864
 9488SOL     OW40096   1.029   2.670   0.237 -0.6551 -0.1789  0.2278
 9488SOL    HW140097   1.072   2.636   0.315 -2.7265  0.9160  1.8271
 9488SOL    HW240098   0.956   2.716   0.277  0.5891  1.0319  1.1288
 9489SOL     OW40099   0.716   1.234  10.268  0.4288  0.6678  0.2465
 9489SOL    HW140100   0.628   1.208  10.243  0.7925 -1.0476  0.7951
 9489SOL    HW240101   0.728   1.296  10.196  3.5878 -2.0451 -1.5365
 9490SOL     OW40102   3.474   4.118  10.310 -0.5455  0.4510  0.5486
 9490SOL    HW140103   3.550   4.176  10.317 -0.2339  0.0913  0.1521
 9490SOL    HW240104   3.503   4.046  10.365 -2.9114 -0.7961  0.1507
 9491SOL     OW40105   2.543   2.012   2.423 -0.0493 -0.1541  0.0384
 9491SOL    HW140106   2.606   2.006   2.495 -0.8366  0.6979  0.8035
 9491SOL    HW240107   2.498   1.928   2.419 -0.3116  0.0182 -0.6078
 9492SOL     OW40108   0.130   2.981  16.127  0.1850  0.1496 -0.2171
 9492SOL    HW140109   0.159   3.037  16.200 -0.3827  0.4371 -0.2166
 9492SOL    HW240110   0.040   2.958  16.150 -0.3004  0.6780 -1.6067
 9493SOL     OW40111   4.676   3.894   2.219 -0.5208 -0.1283  0.0160
 9493SOL    HW140112   0.020   3.879   2.272  0.7292  1.6080 -1.2930
 9493SOL    HW240113   4.707   3.900   2.128 -2.7178  1.7089 -0.6316
 9494SOL     OW40114   4.716   2.530   2.315  0.1462 -0.4445 -0.1050
 9494SOL    HW140115   0.070   2.560   2.295  0.2822 -0.9967 -0.3389
 9494SOL    HW240116   4.716   2.436   2.297 -2.0217 -0.3274 -0.7619
 9495SOL     OW40117   1.030   2.101   3.979 -0.8258 -0.5145  0.2893
 9495SOL    HW140118   1.095   2.049   4.026 -0.6370  0.5144  1.1573
 9495SOL    HW240119   0.962   2.096   4.046 -1.5234  1.6648 -0.2700
 9496SOL     OW40120   3.482   0.005   5.952 -0.3550  0.4993 -0.1044
 9496SOL    HW140121   3.567   0.035   5.919  1.0218  0.9287  3.8236
 9496SOL    HW240122   3.484   0.049   6.037 -0.2810  1.7037 -0.7333
 9497SOL     OW40123   3.681   0.015   8.858  0.0400  0.1276  0.1595
 9497SOL    HW140124   3.587   0.021   8.875 -0.5521 -1.2022 -2.5021
 9497SOL    HW240125   3.704   0.095   8.811  2.1856  0.2923  1.4669
 9498SOL     OW40126   2.902   3.524  13.539 -0.2932  1.0191  0.3099
 9498SOL    HW140127   2.946   3.568  13.612  1.4061  2.1517 -1.3909
 9498SOL    HW240128   2.906   3.587  13.467 -1.7944 -1.2556 -1.7371
 9499SOL     OW40129   1.313   3.694   9.204 -0.0891 -0.5573  0.4968
 9499SOL    HW140130   1.246   3.627   9.216 -0.8482  0.1955  0.4691
 9499SOL    HW240131   1.308   3.707   9.109  1.0055  0.1930  0.5467
 9500SOL     OW40132   0.058   3.433   6.146 -0.4060  0.4655  0.1250
 9500SOL    HW140133   4.722   3.368   6.150 -1.2049  1.4313  1.6290
 9500SOL    HW240134   0.017   3.512   6.109 -1.0033  0.2260  0.2658
 9501SOL     OW40135   4.291   3.136   4.624 -0.0648  0.1287 -0.2968
 9501SOL    HW140136   4.378   3.127   4.586  0.1120 -2.4229  0.7006
 9501SOL    HW240137   4.245   3.064   4.580  2.0360 -1.3858 -0.0297
 9502SOL     OW40138   2.323   1.736   4.041  0.4442 -0.2096  0.2454
 9502SOL    HW140139   2.261   1.725   3.968  0.3233  1.9571  0.0202
 9502SOL    HW240140   2.292   1.823   4.066 -1.0208 -1.5664  3.1677
 9503SOL     OW40141   1.155   3.496   3.807 -0.0476 -0.6525  0.1935
 9503SOL    HW140142   1.085   3.541   3.760 -2.1059 -3.6396  0.3796
 9503SOL    HW240143   1.160   3.560   3.878 -0.8268 -1.8376  1.3242
 9504SOL     OW40144   4.636   1.267   3.312  0.0808  0.0028  0.7696
 9504SOL    HW140145   4.580   1.340   3.288 -1.1241 -0.6413  1.5945
 9504SOL    HW240146   4.707   1.268   3.247  1.7497  0.9926  2.6245
 9505SOL     OW40147   3.915   2.640   7.831 -0.5125 -0.5613  0.4053
 9505SOL    HW140148   3.999   2.611   7.866 -1.5588 -2.3392  1.4081
 9505SOL    HW240149   3.908   2.589   7.750 -2.4730  2.0828 -1.0760
 9506SOL     OW40150   1.634   3.314   5.289  0.2296  0.6929 -0.4896
 9506SOL    HW140151   1.668   3.303   5.378  1.1416  1.2704 -0.7595
 9506SOL    HW240152   1.606   3.406   5.288  0.3701  0.7601  1.5122
 9507SOL     OW40153   0.296   4.044  11.035  0.3133 -0.5506  0.6273
 9507SOL    HW140154   0.329   4.087  11.114 -3.6678  2.9838  0.3340
 9507SOL    HW240155   0.252   3.967  11.072 -0.0967  0.7819  2.8696
 9508SOL     OW40156   1.279   2.055   9.178 -0.4214 -1.0648 -0.1229
 9508SOL    HW140157   1.316   2.125   9.232 -1.9256 -1.4623  1.4290
 9508SOL    HW240158   1.355   2.006   9.149  1.5124  2.4307 -0.9664
 9509SOL     OW40159   0.912   2.761   6.997  0.2275 -0.1850  0.0963
 9509SOL    HW140160   0.833   2.809   6.970 -0.9042 -0.5329  2.7458
 9509SOL    HW240161   0.927   2.794   7.086 -0.8072  0.5344  0.0040
 9510SOL     OW40162   3.303   2.121   6.185 -0.1715  0.0887  0.3469
 9510SOL    HW140163   3.323   2.215   6.176  2.6794 -0.5304  0.1372
 9510SOL    HW240164   3.218   2.107   6.145 -0.8493 -1.3330  2.3084
 9511SOL     OW40165   1.975   2.568  12.560  0.3271 -0.0704 -0.1507
 9511SOL    HW140166   1.991   2.483  12.601  1.8982  2.1585  3.8343
 9511SOL    HW240167   1.967   2.541  12.468  1.0096  0.6527 -0.4237
 9512SOL     OW40168   0.969   4.610   2.464  0.6851  0.8473 -0.4059
 9512SOL    HW140169   0.902   4.562   2.512  1.8033  2.0608  2.3523
 9512SOL    HW240170   0.971   4.575   2.375  3.0627  0.5649 -0.2526
 9513SOL     OW40171   0.641   0.131   4.581 -0.3352  0.4179 -0.4624
 9513SOL    HW140172   0.706   0.195   4.610  1.8995 -2.8916  1.7823
 9513SOL    HW240173   0.643   0.065   4.650 -0.0022  0.3864 -0.5036
 9514SOL     OW40174   0.369   0.319  10.613 -0.1494 -0.0305  0.8236
 9514SOL    HW140175   0.346   0.402  10.654  0.0867  0.2260  0.4320
 9514SOL    HW240176   0.360   0.263  10.691  2.1826  1.9062  2.4690
 9515SOL     OW40177   0.309   4.212   3.577  0.1293  0.2507 -0.2386
 9515SOL    HW140178   0.350   4.233   3.493  0.3223 -1.2204 -0.5088
 9515SOL    HW240179   0.355   4.268   3.639 -0.3566  1.8776 -1.3620
 9516SOL     OW40180   1.997   0.965   8.674 -0.4352 -0.5148 -0.1281
 9516SOL    HW140181   2.046   0.927   8.602 -1.1882 -0.6029 -0.5976
 9516SOL    HW240182   2.016   1.058   8.664  2.5693 -1.4001 -2.3499
 9517SOL     OW40183   4.380   2.031  15.075  0.2882 -0.2480 -0.1555
 9517SOL    HW140184   4.404   1.940  15.054  0.4843 -0.8750  2.7629
 9517SOL    HW240185   4.289   2.030  15.043  1.0397  1.2768 -2.3210
 9518SOL     OW40186   0.789   1.594   7.605  0.5464  0.5416  0.4303
 9518SOL    HW140187   0.843   1.668   7.633  2.2257 -0.6422  0.3256
 9518SOL    HW240188   0.818   1.584   7.514 -0.5507  3.1018 -0.2163
 9519SOL     OW40189   2.661   1.981   7.994  0.7509  0.2167  0.2114
 9519SOL    HW140190   2.675   2.067   8.035  2.2431  0.3101 -0.4756
 9519SOL    HW240191   2.566   1.976   8.005  0.4983  2.5940 -0.8881
 9520SOL     OW40192   0.125   1.963   5.779  0.2547 -0.0358 -0.3901
 9520SOL    HW140193   0.211   2.006   5.784  0.1520  0.4963 -3.0164
 9520SOL    HW240194   0.083   2.023   5.717 -1.0154  1.0408  1.5355
 9521SOL     OW40195   4.207   4.072   7.463 -0.1154 -0.3499 -0.3028
 9521SOL    HW140196   4.117   4.080   7.496  0.5667 -2.1318  1.9642
 9521SOL    HW240197   4.238   4.019   7.536  2.2654  2.1220  0.4833
 9522SOL     OW40198   4.143   3.942   8.022 -0.1866 -0.3016 -0.0336
 9522SOL    HW140199   4.189   3.869   8.064  2.2940  0.8894 -0.7232
 9522SOL    HW240200   4.053   3.921   8.048  0.3150 -0.2245  1.7910
 9523SOL     OW40201   1.304   1.400   6.017  0.5106 -0.3023 -0.1753
 9523SOL    HW140202   1.308   1.441   5.931  2.7675 -0.5842 -0.2031
 9523SOL    HW240203   1.305   1.483   6.065  1.0847 -1.1554  1.3013
 9524SOL     OW40204   0.602   2.466   6.799  0.0532 -0.1071  0.1614
 9524SOL    HW140205   0.622   2.424   6.882  0.4830  2.3231  1.2739
 9524SOL    HW240206   0.545   2.536   6.830  1.4323  0.8812  0.4438
 9525SOL     OW40207   2.998   3.329  11.168  0.4739 -0.0750  0.2002
 9525SOL    HW140208   2.935   3.274  11.123  0.4075 -0.3297  0.6019
 9525SOL    HW240209   3.080   3.294  11.133 -0.4401 -1.5853 -0.4141
 9526SOL     OW40210   0.695   0.870   4.582 -0.2326  0.2790  0.4284
 9526SOL    HW140211   0.640   0.889   4.507  0.1775  0.4885  0.1815
 9526SOL    HW240212   0.688   0.775   4.589  1.3953  0.2120  1.2741
 9527SOL     OW40213   0.638   3.534   2.001 -0.1331 -0.0317 -0.1538
 9527SOL    HW140214   0.659   3.596   2.071 -0.7187 -1.4723  1.2951
 9527SOL    HW240215   0.661   3.584   1.923 -0.3547 -1.3967 -1.1018
 9528SOL     OW40216   1.641   1.918   7.186 -0.1648 -0.1938  0.1082
 9528SOL    HW140217   1.571   1.975   7.218  1.4265  0.0326  3.0802
 9528SOL    HW240218   1.707   1.987   7.178 -0.0995 -0.2020  0.6273
 9529SOL     OW40219   2.399   3.780   8.219  0.4598 -0.3976  0.0192
 9529SOL    HW140220   2.454   3.807   8.293 -0.7664  0.6884  0.5286
 9529SOL    HW240221   2.465   3.783   8.149 -0.3921  1.5938 -0.6726
 9530SOL     OW40222   1.435   2.919   4.831 -0.1332  0.0091  0.0679
 9530SOL    HW140223   1.455   2.889   4.743  2.4384 -0.2696  0.7605
 9530SOL    HW240224   1.450   3.014   4.832 -1.2742  0.1738  2.4866
 9531SOL     OW40225   2.591   2.482   6.764 -0.2127 -0.2914  0.0507
 9531SOL    HW140226   2.673   2.440   6.790  0.9212 -0.1348 -3.2626
 9531SOL    HW240227   2.555   2.413   6.710  0.8753 -0.8062 -0.0289
 9532SOL     OW40228   2.657   2.309   7.640 -0.4223  0.1817  0.0173
 9532SOL    HW140229   2.612   2.272   7.716 -1.6184  2.5063  0.4456
 9532SOL    HW240230   2.616   2.395   7.650 -0.6917 -0.0465  0.8481
 9533SOL     OW40231   0.443   3.993  14.245  0.2498 -0.5113 -0.6893
 9533SOL    HW140232   0.531   4.029  14.230  0.6090 -0.4409  1.5841
 9533SOL    HW240233   0.453   3.907  14.205 -0.5371 -1.1489  0.5148
 9534SOL     OW40234   1.453   3.335   6.973  0.3286  0.3004  0.2300
 9534SOL    HW140235   1.378   3.304   6.922  0.2734  1.6989 -0.5185
 9534SOL    HW240236   1.453   3.265   7.039  0.6083 -2.0359 -2.2734
 9535SOL     OW40237   0.174   1.601   2.787 -0.3808  0.0663 -0.4607
 9535SOL    HW140238   0.100   1.600   2.847 -0.4282  2.2989 -0.4825
 9535SOL    HW240239   0.247   1.641   2.834  0.4396 -1.0640 -0.7680
 9536SOL     OW40240   0.676   4.532   6.007 -0.0588 -0.8405  0.0410
 9536SOL    HW140241   0.679   4.619   6.048 -0.4087 -0.7043 -0.2255
 9536SOL    HW240242   0.753   4.542   5.950 -0.5037 -3.5797 -1.0426
 9537SOL     OW40243   2.845   3.619   2.804 -0.1650 -0.2387  0.7071
 9537SOL    HW140244   2.894   3.573   2.737 -1.1336 -1.4454  0.8321
 9537SOL    HW240245   2.912   3.656   2.862 -0.0863 -0.0900  0.5211
 9538SOL     OW40246   1.187   3.124  16.493  0.3497  0.4133  0.0743
 9538SOL    HW140247   1.231   3.100  16.412 -1.4320  1.0875 -1.0948
 9538SOL    HW240248   1.191   3.219  16.491  0.2567  0.3697 -2.1930
 9539SOL     OW40249   3.116   2.942  10.721  0.1678 -0.1168  0.0685
 9539SOL    HW140250   3.151   3.019  10.767 -0.0772  1.0167 -1.6585
 9539SOL    HW240251   3.022   2.935  10.737  0.0785 -0.8353 -0.7691
 9540SOL     OW40252   1.823   2.153   6.613  0.8292  0.0118  0.1654
 9540SOL    HW140253   1.838   2.178   6.704  1.8040  1.1620 -0.3060
 9540SOL    HW240254   1.727   2.155   6.615  0.7777 -3.5228  1.3287
 9541SOL     OW40255   2.921   2.102   7.786 -0.4686  0.1863 -0.4974
 9541SOL    HW140256   2.927   2.191   7.822 -2.8059  0.1937 -0.1438
 9541SOL    HW240257   2.837   2.114   7.742 -0.6609 -1.9900 -0.7209
 9542SOL     OW40258   0.445   3.597   0.617 -0.0343 -0.1978 -0.1408
 9542SOL    HW140259   0.359   3.633   0.636  0.4530  0.2913  1.1686
 9542SOL    HW240260   0.427   3.523   0.561  1.5661 -2.5501  2.4352
 9543SOL     OW40261   4.717   2.736  16.643 -0.3001  0.2568 -0.1747
 9543SOL    HW140262   0.038   2.766  16.714 -0.3542  1.7934 -0.7840
 9543SOL    HW240263   0.021   2.654  16.612  1.5571  1.0123  0.1332
 9544SOL     OW40264   0.046   3.888   3.760  0.0433 -0.3891 -0.6414
 9544SOL    HW140265   4.705   3.921   3.809  1.0440  0.7321  0.1141
 9544SOL    HW240266   0.101   3.965   3.750  2.5716 -2.2147 -0.7070
 9545SOL     OW40267   1.235   2.336   2.845  0.1118  0.6970 -0.0134
 9545SOL    HW140268   1.211   2.425   2.870 -0.5465 -0.0836  2.1138
 9545SOL    HW240269   1.155   2.293   2.875 -0.3988  0.1707 -2.1130
 9546SOL     OW40270   1.639   0.182   7.473  0.5356  0.1747 -0.0246
 9546SOL    HW140271   1.562   0.178   7.416  0.4875 -0.7811  0.1052
 9546SOL    HW240272   1.604   0.142   7.553 -0.5396  0.7278 -0.2292
 9547SOL     OW40273   1.885   2.212   7.471  0.1829  1.2115  0.2530
 9547SOL    HW140274   1.791   2.223   7.480 -0.0456  0.2138 -0.7935
 9547SOL    HW240275   1.896   2.122   7.502  2.0317  0.9962 -1.0286
 9548SOL     OW40276   2.821   0.365  17.493 -0.0356 -0.9171  0.0290
 9548SOL    HW140277   2.748   0.304  17.495  1.5882 -2.9061 -0.9140
 9548SOL    HW240278   2.821   0.389  17.401  1.8384 -1.4147 -0.1126
 9549SOL     OW40279   1.289   4.537  12.505  0.2914  0.2595 -0.1748
 9549SOL    HW140280   1.340   4.531  12.585  2.1759 -0.4294 -1.4341
 9549SOL    HW240281   1.351   4.550  12.433  0.6251  0.5481  0.1687
 9550SOL     OW40282   2.546   0.991   4.483 -0.2032  0.2099  0.2234
 9550SOL    HW140283   2.631   0.957   4.511 -1.8271 -2.2905  2.0404
 9550SOL    HW240284   2.565   1.083   4.503  0.1111  0.3292 -0.6070
 9551SOL     OW40285   0.756   1.956   6.341 -0.7405 -0.2490  0.6254
 9551SOL    HW140286   0.700   1.879   6.353 -0.2630 -0.3983  1.9411
 9551SOL    HW240287   0.837   1.936   6.388 -1.3053 -0.8166  1.3663
 9552SOL     OW40288   4.538   2.267   8.647  0.3495 -0.0600  0.2757
 9552SOL    HW140289   4.511   2.323   8.575  4.1421  0.4976 -0.7140
 9552SOL    HW240290   4.459   2.217   8.668  1.0741 -0.4949  1.9384
 9553SOL     OW40291   4.680   4.337   4.545 -0.0248  0.1130  0.4011
 9553SOL    HW140292   4.622   4.408   4.518 -1.9220 -2.0027 -1.0105
 9553SOL    HW240293   4.665   4.272   4.477 -2.6142  1.3515 -0.2356
 9554SOL     OW40294   4.085   0.654   2.094  0.9025 -0.7854  0.0866
 9554SOL    HW140295   4.173   0.690   2.084 -0.0414  1.2776 -0.6661
 9554SOL    HW240296   4.116   0.565   2.111  0.2100 -1.1111 -0.3514
 9555SOL     OW40297   0.548   4.701   8.653  0.0852 -0.3419 -0.8499
 9555SOL    HW140298   0.498   0.025   8.596 -0.6869  1.3627  1.5403
 9555SOL    HW240299   0.496   4.695   8.734 -1.3506 -0.2422 -1.7596
 9556SOL     OW40300   2.884   1.367   3.775  0.3326 -0.5653 -0.4026
 9556SOL    HW140301   2.871   1.374   3.869 -0.6249 -0.1669 -0.5664
 9556SOL    HW240302   2.955   1.304   3.763  0.1146 -0.7989 -0.4606
 9557SOL     OW40303   0.367   3.261   2.778 -0.6576 -0.0926  0.3937
 9557SOL    HW140304   0.312   3.309   2.716  0.2128 -0.0824 -0.3748
 9557SOL    HW240305   0.431   3.328   2.803  0.4059  0.1622 -3.0643
 9558SOL     OW40306   1.956   1.000   5.338 -0.2786 -0.1652 -0.7664
 9558SOL    HW140307   1.989   1.046   5.260 -1.8031 -1.2578 -2.0484
 9558SOL    HW240308   2.011   0.921   5.342 -0.6940 -0.3025  2.3402
 9559SOL     OW40309   2.993   3.860   2.226  0.7382  0.3934  0.2714
 9559SOL    HW140310   2.927   3.854   2.158 -0.3175 -0.2303  1.3498
 9559SOL    HW240311   2.944   3.827   2.301  2.3504 -1.6116  0.4288
 9560SOL     OW40312   4.245   1.831   9.073  0.4401 -0.0311 -0.2657
 9560SOL    HW140313   4.297   1.856   8.996 -0.3837  1.9276 -0.1663
 9560SOL    HW240314   4.158   1.861   9.047  1.3221  0.6166 -2.5230
 9561SOL     OW40315   4.584   4.693   2.631  0.5694 -0.0304  0.6033
 9561SOL    HW140316   4.615   4.695   2.541  2.0489  0.1238  1.1004
 9561SOL    HW240317   4.642   0.025   2.670  2.5026 -2.8459  2.5027
 9562SOL     OW40318   0.584   2.715   2.696 -0.0384  0.1619  0.6037
 9562SOL    HW140319   0.656   2.773   2.675  0.3293 -0.2865  0.6211
 9562SOL    HW240320   0.590   2.721   2.791  0.7282  1.0510  0.4915
 9563SOL     OW40321   0.124   1.563   8.964 -0.4160 -0.3025  0.1621
 9563SOL    HW140322   0.183   1.577   9.038  0.6412 -0.3609 -0.6700
 9563SOL    HW240323   0.183   1.525   8.898  1.1117  0.0349  1.3269
 9564SOL     OW40324   2.373   3.052   6.397  0.5518 -0.6671 -0.3919
 9564SOL    HW140325   2.295   3.064   6.452  2.6751  1.4730  2.1312
 9564SOL    HW240326   2.415   3.135   6.421 -1.0067 -0.8818  3.0552
 9565SOL     OW40327   1.053   4.650  13.607  0.1793  0.3494  0.3049
 9565SOL    HW140328   0.970   4.645  13.561 -0.9331 -0.7550  2.4524
 9565SOL    HW240329   1.060   0.011  13.617  1.3068  0.5085 -1.9115
 9566SOL     OW40330   4.153   3.536   4.280 -0.7125  0.0998  0.0983
 9566SOL    HW140331   4.119   3.451   4.252  0.5267 -0.0724 -0.8224
 9566SOL    HW240332   4.076   3.592   4.292  0.6061  2.1130 -1.0342
 9567SOL     OW40333   0.189   0.987   3.175  0.0578  0.0048 -0.3074
 9567SOL    HW140334   0.158   1.077   3.168  1.0149  0.5742  2.6086
 9567SOL    HW240335   0.187   0.975   3.270  0.0368  1.0448 -0.1764
 9568SOL     OW40336   4.285   2.977   5.153  0.0228  0.1798 -0.3753
 9568SOL    HW140337   4.365   2.935   5.184 -0.1360  0.4312  0.3872
 9568SOL    HW240338   4.272   2.965   5.059 -1.7364 -3.4808  0.3414
 9569SOL     OW40339   3.789   2.938   9.077  0.1112 -0.0703 -0.2404
 9569SOL    HW140340   3.726   2.880   9.121  2.6377 -0.9014  2.2940
 9569SOL    HW240341   3.784   3.013   9.136 -2.2077 -1.7358  1.6667
 9570SOL     OW40342   2.984   3.883   2.704 -0.2802  0.0417  0.6515
 9570SOL    HW140343   3.074   3.853   2.693 -0.9164 -2.3472  1.9517
 9570SOL    HW240344   2.938   3.849   2.628 -0.6889  3.6108 -0.6824
 9571SOL     OW40345   4.327   0.742   9.055  0.4187  0.0817 -0.0905
 9571SOL    HW140346   4.414   0.703   9.049  0.2014  0.0452 -3.0286
 9571SOL    HW240347   4.321   0.793   8.975  1.7391  1.4149  0.6563
   4.73433   4.73433  17.73635
