Membrane in water
40347
    1TMC1    C1    1   3.121   2.950  11.499 -0.0737  0.3686 -0.6951
    1TMC1    C2    2   3.253   2.986  11.483 -1.0576 -0.6903  0.4926
    1TMC1    C3    3   3.283   3.103  11.422  0.4815  0.1602  0.0438
    1TMC1    C4    4   3.019   3.017  11.444 -0.2026  0.4686 -0.2163
    1TMC1    C5    5   3.049   3.136  11.384 -0.1953 -0.1431 -0.3315
    1TMC1    C6    6   3.177   3.181  11.373 -0.4728  0.2338  0.0648
    1TMC1     C    7   3.074   2.818  11.544 -0.0512  0.4028 -0.0701
    1TMC1     O    8   2.977   2.772  11.486 -0.1496 -0.2273 -0.3363
    1TMC1     H    9   3.338   2.924  11.508 -0.0730  0.4372 -0.0723
    1TMC1    H1   10   2.916   2.989  11.463  0.4687 -1.5411  0.4431
    1TMC1    H2   11   3.197   3.267  11.311  1.5607 -1.0199 -1.0135
    1TMC1    C7   12   2.957   3.238  11.349  0.0083  0.1230  0.5017
    1TMC1    C8   13   3.403   3.089  11.343  0.5846  0.0694  0.0184
    1TMC1    O1   14   2.993   3.356  11.343 -0.0693 -0.2891 -0.3239
    1TMC1    O2   15   3.443   2.975  11.320  0.2326  0.0620 -0.5528
    1TMC1    O3   16   2.836   3.183  11.331 -0.3579 -0.1369 -0.0584
    1TMC1    H3   17   2.831   3.086  11.317  1.2277 -0.0029 -1.6194
    1TMC1    O5   18   3.421   3.201  11.265  0.1255  0.1957  0.3323
    1TMC1    H5   19   3.375   3.285  11.287  0.9744  0.0596  2.5999
    2MPD2     C   20   3.163   2.346  11.751  0.5016  0.6669  0.0096
    2MPD2    C1   21   3.071   2.392  11.653  0.1527  0.2077 -0.5028
    2MPD2    C2   22   3.063   2.523  11.608  0.0164 -0.2373  0.1731
    2MPD2    C3   23   3.145   2.614  11.674 -0.1233  0.1685 -0.6646
    2MPD2    C4   24   3.234   2.570  11.771 -0.5469  0.2277  0.0618
    2MPD2    C5   25   3.236   2.441  11.809  0.2177  0.1418 -0.1258
    2MPD2     H   26   2.996   2.543  11.525  0.5280 -0.3314 -0.2654
    2MPD2    H1   27   3.307   2.635  11.818 -1.7535  1.5280  0.1370
    2MPD2    H2   28   3.171   2.248  11.796  1.2501  0.0268 -1.5497
    2MPD2    H3   29   3.302   2.406  11.887  0.7641  0.5946 -0.3829
    2MPD2     N   30   3.157   2.752  11.638  0.1917  0.2811 -0.8125
    2MPD2    H5   31   3.222   2.810  11.690  2.5571  0.0696 -3.4859
    2MPD2    N1   32   2.982   2.307  11.589 -0.4329 -0.0969  0.5604
    2MPD2    H7   33   2.913   2.350  11.529 -0.2145 -0.4741  0.0408
    3TMC1    C1   34   2.412   3.261  10.255  0.5859 -0.2163 -0.0106
    3TMC1    C2   35   2.386   3.374  10.184  0.1566  0.3153 -0.8960
    3TMC1    C3   36   2.472   3.401  10.082 -0.9976 -0.6378 -0.5193
    3TMC1    C4   37   2.522   3.184  10.242 -0.4702  0.3578 -0.4440
    3TMC1    C5   38   2.609   3.221  10.143  0.1994  0.0536  0.1007
    3TMC1    C6   39   2.589   3.330  10.064 -0.0447 -0.1369 -0.1934
    3TMC1     C   40   2.318   3.219  10.350 -0.6925  0.0307 -1.0303
    3TMC1     O   41   2.351   3.114  10.408 -0.1833 -0.0581  0.2401
    3TMC1     H   42   2.292   3.428  10.185  0.6000  1.0661  0.3438
    3TMC1    H1   43   2.556   3.104  10.306 -0.5802  0.0034 -0.8267
    3TMC1    H2   44   2.656   3.362   9.985  0.6395 -0.6773  0.1745
    3TMC1    C7   45   2.729   3.134  10.121  0.9091  0.9325  0.1130
    3TMC1    C8   46   2.431   3.505   9.996  0.1452  0.5751 -0.4529
    3TMC1    O1   47   2.829   3.172  10.064  0.3697 -0.3501  0.9753
    3TMC1    O2   48   2.327   3.569  10.011  0.0401  0.2402 -0.0109
    3TMC1    O3   49   2.709   3.007  10.164  0.5235 -0.2941  0.1601
    3TMC1    H3   50   2.616   2.988  10.188 -0.0238  1.8366 -0.2331
    3TMC1    O5   51   2.519   3.522   9.899 -0.4748  0.5329  0.5313
    3TMC1    H5   52   2.482   3.591   9.839 -1.6303 -0.0229  0.6113
    4MPD2     C   53   1.916   3.290  10.669  0.1587 -0.1677 -0.4750
    4MPD2    C1   54   1.949   3.413  10.615 -0.2232 -0.4653  0.2382
    4MPD2    C2   55   2.058   3.413  10.531 -0.5491  0.0556  0.2458
    4MPD2    C3   56   2.124   3.294  10.494  0.0412  0.1283  0.0117
    4MPD2    C4   57   2.097   3.174  10.546  0.1840 -1.0127 -0.2362
    4MPD2    C5   58   1.994   3.175  10.641 -0.0756  0.3599 -0.1207
    4MPD2     H   59   2.089   3.508  10.489 -0.7380  1.1514  2.5898
    4MPD2    H1   60   2.151   3.081  10.527 -1.0605 -1.5361 -1.2241
    4MPD2    H2   61   1.847   3.283  10.753  0.0033 -0.9773 -0.6710
    4MPD2    H3   62   1.978   3.083  10.697  0.4253 -0.2007 -0.9041
    4MPD2     N   63   2.229   3.318  10.401  0.1238 -0.5336  0.0656
    4MPD2    H5   64   2.249   3.412  10.367 -0.6919  0.2560  1.7835
    4MPD2    N1   65   1.875   3.529  10.641  0.1105 -0.3473 -0.3542
    4MPD2    H7   66   1.923   3.615  10.615 -0.1333  0.2033  1.0117
    5TCq1    O1   67   2.833   4.322  11.769 -0.1976  0.4611  0.5995
    5TCq1    C1   68   2.819   4.285  11.644 -0.1323 -0.3835  0.2824
    5TCq1    O2   69   2.903   4.221  11.581 -0.1410 -0.0420 -0.4854
    5TCq1    C2   70   2.717   4.355  11.575 -0.2364  0.1861 -0.4791
    5TCq1    C3   71   2.605   4.403  11.631 -0.2044 -0.4408  0.6189
    5TCq1    C4   72   2.534   4.494  11.559 -0.1232  0.5378  0.0523
    5TCq1    C5   73   2.570   4.533  11.429 -0.5633  0.6542 -0.1560
    5TCq1    C6   74   2.684   4.488  11.380 -0.6520 -0.2154  0.5673
    5TCq1    C7   75   2.760   4.400  11.449 -0.1204  0.3670  0.5519
    5TCq1    C8   76   2.731   4.523  11.248  0.7120  0.0277 -0.0556
    5TCq1    O4   77   2.802   4.443  11.190 -0.0907  0.1893  0.1839
    5TCq1    C9   78   2.409   4.545  11.618 -0.4038 -0.0870 -1.3351
    5TCq1    O5   79   2.368   4.652  11.561  0.6937  0.0865 -0.0482
    5TCq1    O6   80   2.372   4.501  11.726 -0.1865 -0.1905 -0.2368
    5TCq1    H1   81   2.776   4.397  11.795 -1.5588  0.1895 -1.5675
    5TCq1    H2   82   2.574   4.370  11.729 -1.0110 -0.3868  0.3770
    5TCq1    H3   83   2.503   4.605  11.384  0.8189  1.2493 -1.2694
    5TCq1    H4   84   2.851   4.361  11.407 -0.1343  0.4880  0.4081
    6MPD2     C   85   2.548   0.024  11.046 -1.3739 -0.4125  0.1546
    6MPD2    C1   86   2.649   4.671  11.064  0.6299  0.4259  0.2012
    6MPD2    C2   87   2.705   4.608  10.960 -0.1528 -0.1097  0.7359
    6MPD2    C3   88   2.667   4.635  10.829 -0.5832  0.3514  0.0894
    6MPD2    C4   89   2.573   4.735  10.806  0.3290  0.5586  0.3869
    6MPD2    C5   90   2.526   0.065  10.915  0.7970 -0.2346 -0.0788
    6MPD2     H   91   2.784   4.536  10.977 -1.7228 -1.7043  1.2990
    6MPD2    H1   92   2.527   0.021  10.710  1.1965 -0.5610 -0.3083
    6MPD2    H2   93   2.502   0.083  11.125 -1.5787 -0.1430 -0.1694
    6MPD2    H3   94   2.455   0.143  10.887 -0.6865 -1.2865  0.7413
    6MPD2     N   95   2.735   4.564  10.725  0.0779 -0.5737 -0.5508
    6MPD2    H5   96   2.823   4.526  10.759  0.1828 -0.3086 -0.5200
    6MPD2    N1   97   2.667   4.631  11.204 -0.0392  0.1780 -0.8279
    6MPD2    H7   98   2.603   4.665  11.274  1.4649 -0.3196  0.7708
    7TCq1    O1   99   3.875   3.947  12.884  0.1377 -0.1330 -0.0738
    7TCq1    C1  100   3.950   3.836  12.875 -0.0831 -0.3983 -0.4692
    7TCq1    O2  101   4.001   3.790  12.774  0.3330 -0.4812 -0.3792
    7TCq1    C2  102   3.995   3.807  13.001  0.1880 -0.7624 -0.1789
    7TCq1    C3  103   3.894   3.743  13.072  0.3544 -0.0247 -0.7293
    7TCq1    C4  104   3.921   3.634  13.150 -0.0174 -0.9584 -0.1314
    7TCq1    C5  105   4.054   3.597  13.172  1.2675 -0.8871 -0.7780
    7TCq1    C6  106   4.156   3.655  13.097  0.1703  0.7531  0.1214
    7TCq1    C7  107   4.122   3.755  13.005  0.3963  0.8476 -0.3780
    7TCq1    C8  108   4.289   3.622  13.145  0.4084 -0.3425  0.5274
    7TCq1    O4  109   4.291   3.515  13.204 -0.3953 -0.3843 -0.2746
    7TCq1    C9  110   3.814   3.566  13.221 -0.3390 -0.2244  0.1729
    7TCq1    O5  111   3.851   3.482  13.305 -0.0298 -0.4134 -0.7422
    7TCq1    O6  112   3.699   3.571  13.164 -0.1566  0.0978 -0.2211
    7TCq1    H1  113   3.874   3.993  12.970  3.0405 -2.3720  1.1441
    7TCq1    H2  114   3.789   3.771  13.060  0.2845 -0.6330 -1.5867
    7TCq1    H3  115   4.073   3.506  13.228  0.3729 -0.1402  0.7171
    7TCq1    H4  116   4.196   3.811  12.949 -0.6849  1.7155 -0.9286
    8MPD2     C  117   0.049   3.676  13.222  0.4538  0.4249 -1.0348
    8MPD2    C1  118   4.709   3.566  13.219  0.5205  0.1192  1.0580
    8MPD2    C2  119   4.573   3.571  13.190 -0.1619 -0.0898 -0.5232
    8MPD2    C3  120   4.518   3.702  13.172  0.1391 -0.2760 -0.4969
    8MPD2    C4  121   4.604   3.814  13.167 -0.1949  0.4275 -0.0121
    8MPD2    C5  122   4.737   3.799  13.189  0.8259  0.1918 -0.1438
    8MPD2     H  123   4.512   3.481  13.187  0.0948 -0.2495 -1.0277
    8MPD2    H1  124   4.566   3.914  13.147 -1.3294  0.7116  3.4928
    8MPD2    H2  125   0.155   3.665  13.243  0.0549  1.7666  1.7179
    8MPD2    H3  126   0.060   3.888  13.180  2.3111 -0.8568 -0.4918
    8MPD2     N  127   4.379   3.724  13.143 -0.7580 -0.1353  0.0333
    8MPD2    H5  128   4.338   3.813  13.118 -0.4690  0.6945  2.5061
    8MPD2    N1  129   0.031   3.442  13.257 -0.3406  0.0034  0.1121
    8MPD2    H7  130   0.127   3.447  13.289 -0.2122 -0.0025 -0.2720
    9TMC1    C1  131   3.133   3.730  11.094  0.7505  0.2606 -0.3535
    9TMC1    C2  132   3.196   3.625  11.153  0.2037 -0.2267  0.8493
    9TMC1    C3  133   3.332   3.619  11.135  0.0803 -0.4573 -0.3701
    9TMC1    C4  134   3.192   3.845  11.042  0.3391 -0.2421  0.2709
    9TMC1    C5  135   3.329   3.833  11.029 -0.1312  0.3381  0.0198
    9TMC1    C6  136   3.401   3.718  11.070  0.7821  0.5096  0.1159
    9TMC1     C  137   2.986   3.723  11.089  0.3830 -0.7420 -0.0413
    9TMC1     O  138   2.925   3.818  11.034  0.4095 -0.0283  0.1094
    9TMC1     H  139   3.145   3.538  11.191 -2.4356  1.6557  1.5822
    9TMC1    H1  140   3.131   3.932  11.021 -0.6769 -0.4340  2.4420
    9TMC1    H2  141   3.506   3.702  11.049  1.1949  2.9108  0.3088
    9TMC1    C7  142   3.420   3.944  11.046 -0.1836 -0.0044  0.7814
    9TMC1    C8  143   3.398   3.509  11.204 -0.6676 -0.5946 -0.1011
    9TMC1    O1  144   3.535   3.926  11.018  0.2645  0.4452 -0.8132
    9TMC1    O2  145   3.348   3.454  11.297 -0.0475  0.7762  0.4033
    9TMC1    O3  146   3.369   4.030  11.131  0.2196  0.0940  0.3026
    9TMC1    H3  147   3.278   4.021  11.166  0.3501  0.4609  0.7392
    9TMC1    O5  148   3.489   3.467  11.119  0.2494  0.0968 -0.1851
    9TMC1    H5  149   3.484   3.510  11.030 -1.4912 -0.3083 -0.2832
   10MPD2     C  150   2.699   3.645  11.049 -0.2081  0.1224 -0.0170
   10MPD2    C1  151   2.785   3.601  11.146 -0.3010  0.0657  0.3243
   10MPD2    C2  152   2.737   3.532  11.258  0.0305  0.8768 -0.2668
   10MPD2    C3  153   2.598   3.506  11.256  0.2623 -0.3657 -0.5755
   10MPD2    C4  154   2.515   3.551  11.155 -0.3168  1.0619 -0.1374
   10MPD2    C5  155   2.569   3.619  11.051 -0.4774 -0.1310 -0.2077
   10MPD2     H  156   2.807   3.498  11.333  1.4978  0.8565 -1.6478
   10MPD2    H1  157   2.407   3.548  11.153 -0.2703  0.5818 -2.3083
   10MPD2    H2  158   2.735   3.703  10.965 -0.4369 -1.4476 -1.2033
   10MPD2    H3  159   2.501   3.662  10.978 -0.8832  0.7332  0.6836
   10MPD2     N  160   2.535   3.423  11.357  0.0152 -0.3633 -0.0680
   10MPD2    H5  161   2.438   3.395  11.346  0.2839 -2.7027  3.4682
   10MPD2    N1  162   2.925   3.620  11.154  0.0974 -0.7194  0.0091
   10MPD2    H7  163   2.973   3.548  11.207  2.4453  0.4460 -0.5478
   11TCq1    O1  164   2.278   2.759  14.815 -0.1656  0.2862  0.2574
   11TCq1    C1  165   2.254   2.802  14.688  0.0998 -0.7247 -0.8878
   11TCq1    O2  166   2.152   2.854  14.649  0.3377 -0.2007  0.0848
   11TCq1    C2  167   2.318   2.700  14.611 -0.2980 -0.7918  0.1086
   11TCq1    C3  168   2.440   2.637  14.656 -0.5650  0.4108 -0.3462
   11TCq1    C4  169   2.498   2.549  14.570 -0.2053 -0.5511 -0.6364
   11TCq1    C5  170   2.443   2.528  14.444 -0.0911  0.2572 -0.1299
   11TCq1    C6  171   2.340   2.602  14.399 -0.0569  0.9455 -0.2573
   11TCq1    C7  172   2.276   2.694  14.480  0.6244  0.0898 -0.4162
   11TCq1    C8  173   2.318   2.593  14.253 -0.0801 -0.2533 -0.0634
   11TCq1    O4  174   2.243   2.672  14.196 -0.1046 -0.6964 -0.5365
   11TCq1    C9  175   2.633   2.499  14.601 -0.2958 -0.3235 -0.5364
   11TCq1    O5  176   2.673   2.409  14.525  0.5617 -0.3925 -0.5345
   11TCq1    O6  177   2.694   2.565  14.690 -0.2795 -0.4737 -0.2522
   11TCq1    H1  178   2.372   2.769  14.841 -0.2384  0.6860  0.3600
   11TCq1    H2  179   2.468   2.635  14.760  1.6622  0.3005 -0.9547
   11TCq1    H3  180   2.510   2.483  14.372 -0.4813 -1.0528  0.3303
   11TCq1    H4  181   2.209   2.768  14.439  0.4742 -0.8516 -1.8745
   12MPD2     C  182   2.275   2.479  13.965  0.2775 -0.2658  0.6501
   12MPD2    C1  183   2.359   2.426  14.067  0.4569 -0.0776 -0.2155
   12MPD2    C2  184   2.429   2.307  14.032  0.1694  0.5436  0.4336
   12MPD2    C3  185   2.410   2.248  13.909 -0.4642  0.4122  0.5257
   12MPD2    C4  186   2.328   2.305  13.816  0.4369  0.1505 -0.4312
   12MPD2    C5  187   2.266   2.427  13.836  0.2137 -0.4321 -0.4174
   12MPD2     H  188   2.482   2.250  14.108 -0.3280  0.5738  0.8077
   12MPD2    H1  189   2.315   2.252  13.722 -2.2397  0.0121  0.0068
   12MPD2    H2  190   2.219   2.570  13.984 -0.4542 -0.4971 -0.4330
   12MPD2    H3  191   2.204   2.468  13.757  1.1460 -0.9864 -1.4418
   12MPD2     N  192   2.475   2.130  13.870 -0.2791 -0.0515 -0.0934
   12MPD2    H5  193   2.460   2.107  13.773  1.2261 -1.2939 -0.0344
   12MPD2    N1  194   2.360   2.470  14.204  0.3589 -0.0788  0.5329
   12MPD2    H7  195   2.410   2.402  14.261  0.2321 -1.5994 -1.1400
   13TCq1    O1  196   2.538   2.842  10.413  0.8089 -0.2363 -0.7392
   13TCq1    C1  197   2.446   2.848  10.316  0.0914 -0.7202  0.1916
   13TCq1    O2  198   2.471   2.870  10.199 -0.0172 -0.8741 -0.2912
   13TCq1    C2  199   2.322   2.785  10.360 -0.1799  0.1739 -0.3140
   13TCq1    C3  200   2.282   2.675  10.291 -0.1923  0.5461  0.8708
   13TCq1    C4  201   2.194   2.585  10.346  0.8173  0.3434 -0.5628
   13TCq1    C5  202   2.157   2.602  10.476  0.5936 -0.6653  0.1051
   13TCq1    C6  203   2.209   2.708  10.554  0.4052  0.4574  0.1162
   13TCq1    C7  204   2.290   2.803  10.494 -0.4790  0.8101 -0.0184
   13TCq1    C8  205   2.145   2.742  10.670  0.3214 -0.6466 -0.1111
   13TCq1    O4  206   2.145   2.858  10.709 -0.1605  0.3177 -0.0925
   13TCq1    C9  207   2.134   2.480  10.267 -0.1125  0.1098  0.1382
   13TCq1    O5  208   2.063   2.396  10.326 -0.7800 -0.5440  0.3468
   13TCq1    O6  209   2.143   2.493  10.147  0.2827  0.1918 -0.4573
   13TCq1    H1  210   2.496   2.833  10.501  1.9459 -0.0919 -0.1704
   13TCq1    H2  211   2.322   2.658  10.191 -0.5155 -0.5166  0.9219
   13TCq1    H3  212   2.081   2.535  10.515  0.8276 -0.9539  0.0639
   13TCq1    H4  213   2.332   2.881  10.555  1.4554 -1.0640  1.0363
   14MPD2     C  214   1.991   2.503  10.895 -0.3646  0.1931  0.6326
   14MPD2    C1  215   2.023   2.629  10.853  0.1195 -0.2464  0.2133
   14MPD2    C2  216   1.956   2.736  10.910 -0.1222  0.2829  0.0089
   14MPD2    C3  217   1.863   2.713  11.016  0.6103  0.2599  0.4042
   14MPD2    C4  218   1.841   2.585  11.061 -0.2921 -0.2626 -0.2638
   14MPD2    C5  219   1.899   2.485  10.998 -0.3087 -0.0114  0.2459
   14MPD2     H  220   1.972   2.837  10.875  0.0556  0.1401 -0.3221
   14MPD2    H1  221   1.769   2.556  11.136  1.0489 -1.2578  0.6307
   14MPD2    H2  222   2.034   2.417  10.845  1.7309  1.5798  0.0436
   14MPD2    H3  223   1.876   2.383  11.028 -0.0912 -0.3150 -0.6131
   14MPD2     N  224   1.794   2.828  11.062  0.3541  0.0204 -0.0730
   14MPD2    H5  225   1.829   2.914  11.020  2.0713 -1.3511 -1.4893
   14MPD2    N1  226   2.109   2.631  10.742  0.0613 -0.6017 -0.0556
   14MPD2    H7  227   2.158   2.545  10.719 -2.2253 -1.7965 -0.4265
   15TCq1    O1  228   4.021   2.349   1.918  0.0234 -0.9054  0.3352
   15TCq1    C1  229   4.068   2.283   1.816 -0.3934 -0.3157 -0.3228
   15TCq1    O2  230   4.186   2.275   1.794 -0.2139  0.2811  0.4811
   15TCq1    C2  231   3.963   2.196   1.759 -0.1032  0.4171 -0.0168
   15TCq1    C3  232   3.834   2.226   1.773  0.1372  0.5994  0.7275
   15TCq1    C4  233   3.738   2.147   1.717  0.4909  0.1361  0.1117
   15TCq1    C5  234   3.783   2.039   1.643  0.0291  0.0977  0.6044
   15TCq1    C6  235   3.920   2.013   1.630  0.0622  0.5868 -0.3059
   15TCq1    C7  236   4.013   2.091   1.688 -0.0348  0.2042  0.1714
   15TCq1    C8  237   3.974   1.914   1.539 -0.5986 -0.4536  0.2859
   15TCq1    O4  238   4.096   1.913   1.537  0.1039  0.2397  0.0992
   15TCq1    C9  239   3.602   2.175   1.726  0.3238 -0.6522 -0.1765
   15TCq1    O5  240   3.521   2.086   1.697  0.5959  0.2988  0.5847
   15TCq1    O6  241   3.574   2.287   1.786 -0.4736  0.6355  0.5276
   15TCq1    H1  242   3.936   2.304   1.941 -1.1118  1.7685  1.4079
   15TCq1    H2  243   3.799   2.320   1.816  2.2206  1.5784  0.2611
   15TCq1    H3  244   3.709   1.981   1.589  1.0321  0.9304 -1.6537
   15TCq1    H4  245   4.119   2.072   1.679 -0.1989 -0.7303  0.2739
   16MPD2     C  246   3.795   1.698   1.288 -0.9327  0.4859  0.0923
   16MPD2    C1  247   3.902   1.742   1.365 -0.1300 -0.2020  0.4339
   16MPD2    C2  248   4.017   1.669   1.344  0.6533 -0.7729  0.3280
   16MPD2    C3  249   4.022   1.562   1.252 -1.1726 -0.7506 -0.1496
   16MPD2    C4  250   3.910   1.525   1.186  0.6155 -0.2278 -0.5106
   16MPD2    C5  251   3.791   1.592   1.204 -0.0318  0.3477 -0.0708
   16MPD2     H  252   4.110   1.687   1.396  1.3187 -2.0954 -0.3797
   16MPD2    H1  253   3.904   1.444   1.114  0.5881 -1.0328  0.3840
   16MPD2    H2  254   3.701   1.751   1.281 -0.8982  0.8627  2.3499
   16MPD2    H3  255   3.706   1.557   1.147 -1.0832 -0.1518  1.8308
   16MPD2     N  256   4.149   1.503   1.230 -0.0068 -0.3994 -0.3789
   16MPD2    H5  257   4.225   1.520   1.294 -1.2914  0.2460  0.9679
   16MPD2    N1  258   3.878   1.852   1.455 -0.4592 -0.3873  0.1845
   16MPD2    H7  259   3.785   1.891   1.453  0.3549  1.6866  2.1097
   17TMC1    C1  260   1.880   2.491  11.668 -1.2590  0.0311  0.8005
   17TMC1    C2  261   1.818   2.601  11.718  0.0472  0.1913  0.7584
   17TMC1    C3  262   1.846   2.650  11.846 -0.1706  0.1803  0.2411
   17TMC1    C4  263   1.970   2.416  11.736 -0.0458 -0.3968 -0.3905
   17TMC1    C5  264   1.995   2.467  11.858  0.0965  0.2032  0.2991
   17TMC1    C6  265   1.932   2.573  11.919  0.4057 -0.3351 -0.1037
   17TMC1     C  266   1.833   2.443  11.540 -0.1860 -0.3964 -0.5814
   17TMC1     O  267   1.725   2.485  11.496 -0.5300 -0.0622 -0.0905
   17TMC1     H  268   1.737   2.643  11.659  0.4457  0.7472  0.5999
   17TMC1    H1  269   2.007   2.321  11.698 -2.8298 -1.9545  0.8014
   17TMC1    H2  270   1.949   2.600  12.022  0.2438  1.5277 -0.5671
   17TMC1    C7  271   2.094   2.403  11.938  0.7642 -0.3191  0.1066
   17TMC1    C8  272   1.774   2.771  11.891  0.3135  0.0599 -0.3918
   17TMC1    O1  273   2.113   2.438  12.054 -0.4398 -0.4232 -0.2178
   17TMC1    O2  274   1.681   2.818  11.826  0.0411 -0.4699  0.0370
   17TMC1    O3  275   2.183   2.347  11.854 -0.3439 -0.2015 -0.2327
   17TMC1    H3  276   2.157   2.367  11.762 -2.1401  1.0313  0.5308
   17TMC1    O5  277   1.827   2.842  11.990  0.2221  0.1975 -0.5795
   17TMC1    H5  278   1.908   2.793  12.015 -1.6268 -0.4380  4.0880
   18MPD2     C  279   1.777   2.278  11.295 -0.6346  0.7553  0.1430
   18MPD2    C1  280   1.900   2.298  11.354  0.1178 -0.3273 -0.8019
   18MPD2    C2  281   2.012   2.237  11.295  0.6054 -0.5583 -0.1490
   18MPD2    C3  282   1.999   2.153  11.181  0.0619 -0.9946  0.4958
   18MPD2    C4  283   1.877   2.132  11.123  0.0928  0.1403  0.4874
   18MPD2    C5  284   1.772   2.194  11.186  0.1367  0.8186 -0.0344
   18MPD2     H  285   2.111   2.260  11.333  0.7994  2.0959 -2.2135
   18MPD2    H1  286   1.871   2.091  11.023  0.3167  1.2128  0.0350
   18MPD2    H2  287   1.688   2.320  11.341 -0.2464  2.0437 -0.2960
   18MPD2    H3  288   1.675   2.169  11.144  0.1689 -0.7722  0.8370
   18MPD2     N  289   2.114   2.090  11.123 -0.3073  0.3984  0.4704
   18MPD2    H5  290   2.110   2.040  11.035 -0.8721 -0.4561  0.9868
   18MPD2    N1  291   1.914   2.364  11.473 -0.2665 -0.5160  0.1405
   18MPD2    H7  292   2.007   2.349  11.513 -0.6373 -0.8597  0.8824
   19TMC2    C1  293   3.957   2.566  13.922 -0.1612 -0.6937 -0.1301
   19TMC2    C2  294   3.952   2.685  13.991  0.5798  0.2106 -0.0375
   19TMC2    C3  295   3.877   2.700  14.102 -0.1187 -0.6391  0.1337
   19TMC2    C4  296   3.892   2.463  13.984  0.8011  0.6368 -0.8365
   19TMC2    C5  297   3.813   2.480  14.092 -0.2634 -0.7308 -0.2701
   19TMC2    C6  298   3.802   2.603  14.153 -0.0386 -0.7205 -0.9291
   19TMC2     C  299   4.073   2.529  13.847  0.4553  0.2374  0.2909
   19TMC2     O  300   4.117   2.610  13.765 -0.4924 -0.1277  0.3791
   19TMC2     H  301   4.009   2.775  13.970 -2.4938  2.6240  1.9243
   19TMC2    H1  302   3.892   2.364  13.939  1.2682  0.1139  0.3193
   19TMC2    H2  303   3.778   2.609  14.258 -1.9716 -0.6053 -1.3737
   19TMC2    C7  304   3.727   2.370  14.123 -0.1798 -0.4413 -0.1962
   19TMC2    C8  305   3.936   2.783  14.204 -0.0131 -0.3475 -0.2636
   19TMC2    O1  306   3.770   2.264  14.082  0.2938  0.4182 -0.2118
   19TMC2    O2  307   4.016   2.731  14.275 -0.6779 -0.0613  0.3388
   19TMC2    O5  308   3.820   2.842  14.248 -0.3229  0.5101  1.0495
   19TMC2    H5  309   3.762   2.870  14.174 -2.9254 -1.2968  2.4344
   20MPD2     C  310   4.343   2.426  13.770 -0.1810 -0.5648 -0.4901
   20MPD2    C1  311   4.258   2.365  13.862  0.0864 -0.4475  0.4439
   20MPD2    C2  312   4.304   2.255  13.926 -0.4383 -0.4985  0.0284
   20MPD2    C3  313   4.439   2.211  13.910 -0.4228  0.3178  0.5090
   20MPD2    C4  314   4.521   2.272  13.814  0.0387 -0.3080 -0.0919
   20MPD2    C5  315   4.466   2.376  13.743 -0.3033  0.8868 -0.0515
   20MPD2     H  316   4.238   2.210  14.000  1.5851  0.1919  2.2817
   20MPD2    H1  317   4.622   2.238  13.791  0.6644  0.0301  2.1211
   20MPD2    H2  318   4.318   2.502  13.697 -0.3613  0.3728  0.5447
   20MPD2    H3  319   4.524   2.426  13.667  0.8466  2.3051  1.7544
   20MPD2     N  320   4.497   2.111  13.995  0.7212  0.0840 -0.5354
   20MPD2    H5  321   4.596   2.095  13.985  0.4656 -2.5373  1.2847
   20MPD2    N1  322   4.131   2.420  13.895 -0.2832 -0.4644  0.0149
   20MPD2    H7  323   4.083   2.372  13.971 -2.2772  0.2008 -0.8339
   21TMC2    C1  324   1.339   2.255  14.496  0.3138  0.4326  0.4224
   21TMC2    C2  325   1.351   2.139  14.568  0.5860  1.1447  0.7813
   21TMC2    C3  326   1.341   2.143  14.701  0.2887  0.2577 -0.4659
   21TMC2    C4  327   1.314   2.370  14.560 -0.1338  0.0844 -0.2304
   21TMC2    C5  328   1.313   2.372  14.697 -0.3722 -0.1417  0.5386
   21TMC2    C6  329   1.326   2.262  14.773 -0.0486  0.7003 -0.0811
   21TMC2     C  330   1.370   2.242  14.352 -0.1042  0.3843 -0.2049
   21TMC2     O  331   1.417   2.136  14.313 -0.8657  0.0556  0.4127
   21TMC2     H  332   1.399   2.050  14.530 -3.0376 -0.7785  0.6346
   21TMC2    H1  333   1.281   2.457  14.504 -2.2932  1.1548  2.7321
   21TMC2    H2  334   1.301   2.269  14.878  0.0831  0.6864 -0.0489
   21TMC2    C7  335   1.288   2.493  14.774 -0.5800  0.8622 -0.2178
   21TMC2    C8  336   1.359   2.017  14.771  0.0256  0.4077  0.6273
   21TMC2    O1  337   1.284   2.487  14.894  0.2102 -0.1968  0.2371
   21TMC2    O2  338   1.274   1.929  14.755  0.9184  0.2383 -0.2148
   21TMC2    O5  339   1.414   2.054  14.887 -1.0327 -0.4341 -0.0371
   21TMC2    H5  340   1.471   2.132  14.873 -0.1014 -0.8595  1.4374
   22MPD2     C  341   1.493   2.447  13.890 -0.5761  0.1301 -0.1269
   22MPD2    C1  342   1.552   2.342  13.958 -0.1610  0.1089 -0.0414
   22MPD2    C2  343   1.509   2.312  14.082  0.2900  0.1033 -0.0527
   22MPD2    C3  344   1.410   2.387  14.148 -0.1039 -0.2155 -0.0955
   22MPD2    C4  345   1.363   2.495  14.081 -0.1324  0.5501  0.3535
   22MPD2    C5  346   1.400   2.526  13.946 -0.7384  0.0993 -0.3999
   22MPD2     H  347   1.556   2.229  14.134  1.7132  1.0973  0.2439
   22MPD2    H1  348   1.290   2.556  14.133  0.1364  0.2052  1.1278
   22MPD2    H2  349   1.522   2.465  13.787  2.5829 -1.3174  0.5047
   22MPD2    H3  350   1.359   2.605  13.884 -1.1236  0.1184 -0.1212
   22MPD2     N  351   1.366   2.363  14.284  0.2844 -0.2920  0.0248
   22MPD2    H5  352   1.324   2.440  14.333  1.6927  1.1813 -1.0723
   22MPD2    N1  353   1.648   2.248  13.906  0.1758  0.2022  0.1758
   22MPD2    H7  354   1.675   2.164  13.957  0.9006 -0.5301 -1.3983
   23TMC2    C1  355   2.963   4.136  14.825  0.0004  0.0518  0.8854
   23TMC2    C2  356   2.990   4.218  14.726  0.2479 -0.5513  0.3580
   23TMC2    C3  357   2.892   4.252  14.634  0.5282 -0.1513  0.7848
   23TMC2    C4  358   2.835   4.080  14.846 -0.4391 -0.1918 -0.4060
   23TMC2    C5  359   2.735   4.115  14.754  0.0598  0.1190  0.5599
   23TMC2    C6  360   2.766   4.193  14.640  0.2103  0.0203  0.3437
   23TMC2     C  361   3.071   4.054  14.877 -0.0374 -0.1670 -0.3103
   23TMC2     O  362   3.053   3.977  14.967 -0.4494 -0.0235 -0.4744
   23TMC2     H  363   3.076   4.284  14.731  0.8107 -1.4819  2.8625
   23TMC2    H1  364   2.816   4.002  14.919 -2.0369 -1.3025 -2.0318
   23TMC2    H2  365   2.695   4.206  14.559 -1.1318  1.2240  1.7167
   23TMC2    C7  366   2.607   4.042  14.769  0.2848 -0.7582  0.4298
   23TMC2    C8  367   2.926   4.321  14.515 -0.6159  0.4582 -0.0103
   23TMC2    O1  368   2.582   4.001  14.880  0.3618 -0.4620  0.1103
   23TMC2    O2  369   3.040   4.306  14.473 -0.5746 -0.2673  0.5315
   23TMC2    O5  370   2.815   4.353  14.446  0.2384 -0.4885  0.1262
   23TMC2    H5  371   2.741   4.363  14.509 -0.0333  0.1326 -0.2879
   24MPD2     C  372   3.574   3.956  14.974  0.5061 -0.2740  0.2501
   24MPD2    C1  373   3.459   3.904  15.037  0.6227 -0.0745  0.7126
   24MPD2    C2  374   3.339   3.936  14.977  0.0546  0.3365  0.1081
   24MPD2    C3  375   3.319   4.022  14.866 -0.5976  0.2568 -0.6686
   24MPD2    C4  376   3.431   4.072  14.804 -0.2086 -0.0723 -0.3712
   24MPD2    C5  377   3.552   4.041  14.863 -0.3761 -0.3744  0.4954
   24MPD2     H  378   3.252   3.894  15.027 -0.7458  0.3949 -1.2327
   24MPD2    H1  379   3.426   4.148  14.727 -2.1884 -0.1369 -0.3044
   24MPD2    H2  380   3.667   3.945  15.028  0.3660 -2.6797  0.0113
   24MPD2    H3  381   3.639   4.088  14.819 -0.6108 -1.1098 -0.7818
   24MPD2     N  382   3.196   4.076  14.818 -0.2149 -0.5089  0.4261
   24MPD2    H5  383   3.200   4.138  14.738 -1.9399 -0.3314  0.4651
   24MPD2    N1  384   3.480   3.824  15.157  0.4044  0.2135  0.2249
   24MPD2    H7  385   3.575   3.808  15.190  0.4344 -0.4879 -0.2162
   25TMC2    C1  386   2.543   1.589  11.395  0.2948 -0.5341 -0.8999
   25TMC2    C2  387   2.645   1.618  11.479  0.0313 -0.2865  0.8553
   25TMC2    C3  388   2.621   1.595  11.613  0.3259  0.6768 -0.7043
   25TMC2    C4  389   2.419   1.556  11.438  0.3121  0.3240  0.2911
   25TMC2    C5  390   2.403   1.543  11.576 -0.2207 -0.0363 -0.6362
   25TMC2    C6  391   2.502   1.558  11.668  0.2639 -0.6818  0.2751
   25TMC2     C  392   2.588   1.552  11.262 -0.3827  0.2507  0.0030
   25TMC2     O  393   2.700   1.573  11.230  0.5765 -0.3208  0.4989
   25TMC2     H  394   2.742   1.650  11.442 -0.2512 -0.0230  0.3489
   25TMC2    H1  395   2.336   1.538  11.371  2.1844 -0.6239 -1.7670
   25TMC2    H2  396   2.496   1.544  11.775  1.3561  1.9838  0.6981
   25TMC2    C7  397   2.267   1.534  11.635  0.7700  0.4845  0.3570
   25TMC2    C8  398   2.736   1.602  11.700  0.0639 -0.2991 -1.1164
   25TMC2    O1  399   2.257   1.508  11.756  0.1178  0.4793 -0.1251
   25TMC2    O2  400   2.835   1.658  11.654  0.0745  0.1063  0.4990
   25TMC2    O5  401   2.738   1.500  11.787 -0.9982 -0.1786 -0.2512
   25TMC2    H5  402   2.667   1.434  11.772  0.6580 -1.6245 -1.7077
   26MPD2     C  403   2.561   1.208  10.876 -0.1088 -0.1365 -0.1916
   26MPD2    C1  404   2.454   1.193  10.956 -0.1171  0.5846  0.3328
   26MPD2    C2  405   2.442   1.285  11.063  0.1769  0.0297  0.0201
   26MPD2    C3  406   2.531   1.381  11.090  0.2016 -0.7425 -0.1658
   26MPD2    C4  407   2.639   1.393  11.001 -0.3218  0.8880  0.1827
   26MPD2    C5  408   2.659   1.296  10.901  0.0371  0.2284 -0.0850
   26MPD2     H  409   2.360   1.278  11.133 -0.0447  0.0251 -0.2367
   26MPD2    H1  410   2.709   1.476  11.007 -1.8431  2.2097 -0.4499
   26MPD2    H2  411   2.578   1.130  10.803 -1.1845 -1.6948  1.2185
   26MPD2    H3  412   2.740   1.313  10.831 -1.6390 -1.6731 -2.5030
   26MPD2     N  413   2.500   1.466  11.199 -0.0810 -0.0086 -0.4699
   26MPD2    H5  414   2.411   1.446  11.244  0.5125 -0.9505  0.3236
   26MPD2    N1  415   2.357   1.095  10.936 -0.3567 -0.4019 -0.5389
   26MPD2    H7  416   2.374   1.020  10.870  1.2690 -0.5852  0.0962
   27TMC2    C1  417   0.974   4.043  12.207  0.1744 -0.7374 -0.3418
   27TMC2    C2  418   1.014   4.173  12.175 -0.2769  0.0803  0.1481
   27TMC2    C3  419   1.125   4.214  12.251  0.3488  0.8300 -0.2228
   27TMC2    C4  420   1.029   3.969  12.304 -0.4895 -0.8870  0.2150
   27TMC2    C5  421   1.122   4.023  12.381  0.2740 -0.2980  0.1438
   27TMC2    C6  422   1.181   4.141  12.350  0.3970 -0.3718 -0.0958
   27TMC2     C  423   0.854   3.989  12.138  0.2300 -0.1208 -0.7535
   27TMC2     O  424   0.826   4.025  12.024  0.2275 -0.1910  0.2707
   27TMC2     H  425   0.962   4.224  12.096 -0.8736  0.0252  0.5058
   27TMC2    H1  426   0.991   3.869  12.324  1.3639 -0.9307  3.5347
   27TMC2    H2  427   1.248   4.192  12.418  1.0554 -0.6363 -0.5584
   27TMC2    C7  428   1.156   3.955  12.513 -0.2660  0.1010 -0.7240
   27TMC2    C8  429   1.169   4.345  12.246 -0.2383 -0.0463  0.0003
   27TMC2    O1  430   1.070   3.870  12.541  0.4065 -0.5292  0.4229
   27TMC2    O2  431   1.284   4.387  12.265  0.3516 -0.7652  0.0693
   27TMC2    O5  432   1.065   4.419  12.200  0.2703 -0.6082  0.4456
   27TMC2    H5  433   0.983   4.384  12.241 -0.2294  0.1567  0.0844
   28MPD2     C  434   0.495   3.627  12.100  0.2719 -0.3344  1.2321
   28MPD2    C1  435   0.501   3.666  12.235 -0.1471 -0.2062  0.5482
   28MPD2    C2  436   0.606   3.748  12.271 -0.3759 -0.0973  0.3634
   28MPD2    C3  437   0.689   3.809  12.176 -0.2772 -0.2224 -0.2222
   28MPD2    C4  438   0.677   3.775  12.038 -0.4808  0.5334 -0.3553
   28MPD2    C5  439   0.579   3.685  12.004  1.1737 -0.2394 -0.0238
   28MPD2     H  440   0.605   3.805  12.363  0.6432  0.2641  0.1423
   28MPD2    H1  441   0.750   3.808  11.964  0.2776 -1.1318 -0.3399
   28MPD2    H2  442   0.421   3.557  12.063  0.8033 -0.0518 -0.4065
   28MPD2    H3  443   0.564   3.648  11.903  0.3701  2.4235 -0.8881
   28MPD2     N  444   0.785   3.903  12.223 -0.5609  0.1665  0.0907
   28MPD2    H5  445   0.800   3.908  12.323 -1.9828  0.6623  0.2853
   28MPD2    N1  446   0.405   3.614  12.324  0.1322 -0.0656 -0.3760
   28MPD2    H7  447   0.344   3.543  12.287  2.4935 -3.1112  1.5409
   29TMC2    C1  448   0.125   1.040  14.477 -0.3369 -0.0189  0.2198
   29TMC2    C2  449   0.104   1.051  14.615  0.3196 -0.2384 -0.1779
   29TMC2    C3  450   0.068   1.174  14.654 -0.7785 -0.0559 -0.3297
   29TMC2    C4  451   0.106   1.142  14.384 -0.6268  0.4220 -0.3700
   29TMC2    C5  452   0.091   1.269  14.439  0.4696  0.4292 -0.1370
   29TMC2    C6  453   0.074   1.287  14.572 -0.1256  0.1862 -1.0805
   29TMC2     C  454   0.120   0.900  14.430  0.3017 -0.4031 -0.1842
   29TMC2     O  455   0.149   0.818  14.515  0.5373 -0.8214 -0.0036
   29TMC2     H  456   0.108   0.960  14.673  3.7885  0.1222  0.1247
   29TMC2    H1  457   0.114   1.129  14.276  1.6486  0.3360 -0.1735
   29TMC2    H2  458   0.048   1.388  14.603  1.6864 -0.3979  2.4616
   29TMC2    C7  459   0.118   1.380  14.349 -0.6785  0.3983  0.6106
   29TMC2    C8  460   0.037   1.196  14.793 -0.9082  0.1328 -0.3891
   29TMC2    O1  461   0.102   1.365  14.227  0.6423 -0.1203  0.1185
   29TMC2    O2  462   0.107   1.169  14.891 -0.9271  0.2073  0.5301
   29TMC2    O5  463   4.658   1.258  14.797 -0.6935  0.6334 -0.0995
   29TMC2    H5  464   4.618   1.258  14.707  1.3422 -0.9670 -1.0279
   30MPD2     C  465   4.674   0.553  14.111 -0.3780  0.1124  0.1922
   30MPD2    C1  466   0.026   0.537  14.215 -0.1038  0.3091 -0.1260
   30MPD2    C2  467   0.066   0.647  14.288  0.3212 -0.2571  0.0893
   30MPD2    C3  468   0.033   0.771  14.242  0.0125  0.2386  0.1474
   30MPD2    C4  469   4.681   0.790  14.139  0.2650  0.1696  0.1629
   30MPD2    C5  470   4.637   0.680  14.074  0.0085  0.4139  0.3175
   30MPD2     H  471   0.133   0.640  14.373  1.6646  2.1094 -0.7628
   30MPD2    H1  472   4.648   0.886  14.102 -0.7013 -1.1805 -2.5511
   30MPD2    H2  473   4.641   0.475  14.043 -0.4383  0.1632  0.1637
   30MPD2    H3  474   4.571   0.697  13.990  1.7316  0.4565 -1.0207
   30MPD2     N  475   0.058   0.891  14.307  0.0407 -0.5390 -0.3909
   30MPD2    H5  476   0.026   0.975  14.259 -0.6735 -0.5930 -0.0018
   30MPD2    N1  477   0.086   0.409  14.246  0.3110 -0.8409 -0.3489
   30MPD2    H7  478   0.154   0.399  14.321 -0.4957 -1.0225  0.3600
   31TMC2    C1  479   2.966   4.274  15.283 -0.2330 -0.0250  0.3453
   31TMC2    C2  480   2.851   4.333  15.310  0.8332  0.2202  0.2190
   31TMC2    C3  481   2.804   4.327  15.441 -0.3291  0.0577  0.5734
   31TMC2    C4  482   3.040   4.206  15.377 -0.0234  0.5443  0.3438
   31TMC2    C5  483   2.993   4.200  15.504  1.2666 -0.4927  0.2381
   31TMC2    C6  484   2.876   4.260  15.539  0.3750  0.4503 -0.2517
   31TMC2     C  485   3.019   4.311  15.154  0.2789 -0.4482  0.1834
   31TMC2     O  486   2.936   4.342  15.072 -0.1665  0.6858 -0.1355
   31TMC2     H  487   2.796   4.379  15.229  2.6485  0.1850 -1.0521
   31TMC2    H1  488   3.133   4.160  15.345  0.7417  1.9298  0.5907
   31TMC2    H2  489   2.830   4.234  15.633 -1.2717 -0.5707 -1.3339
   31TMC2    C7  490   3.038   4.088  15.595  0.2114  0.1795  0.3683
   31TMC2    C8  491   2.687   4.405  15.471 -0.4502 -0.1996  0.9512
   31TMC2    O1  492   3.002   4.085  15.710 -0.2709 -0.2764  0.3412
   31TMC2    O2  493   2.622   4.464  15.387  0.3857 -0.1500 -0.9467
   31TMC2    O5  494   2.682   4.435  15.603  0.1276 -0.0584  0.1285
   31TMC2    H5  495   2.733   4.378  15.665 -1.4784 -0.2818  1.2428
   32MPD2     C  496   3.388   4.463  14.844 -0.4631 -0.1155  0.4356
   32MPD2    C1  497   3.253   4.488  14.848  0.2263  0.2221  0.8612
   32MPD2    C2  498   3.169   4.424  14.935  0.4633  0.2782  0.5456
   32MPD2    C3  499   3.228   4.346  15.033  0.2619  0.4523 -0.4000
   32MPD2    C4  500   3.362   4.339  15.040 -0.2553  0.1259 -0.4994
   32MPD2    C5  501   3.441   4.385  14.937  0.0537 -0.3223  0.4461
   32MPD2     H  502   3.067   4.458  14.930 -0.3766 -1.9263  2.8295
   32MPD2    H1  503   3.408   4.284  15.121 -0.3035 -1.7786 -1.7689
   32MPD2    H2  504   3.453   4.512  14.773 -1.6093  1.2515  0.3148
   32MPD2    H3  505   3.545   4.356  14.937  0.4697  1.1638  2.1437
   32MPD2     N  506   3.156   4.306  15.151 -0.0456 -0.5320 -0.1191
   32MPD2    H5  507   3.207   4.290  15.237 -0.1405  1.1216  0.2447
   32MPD2    N1  508   3.207   4.587  14.754 -0.0367 -0.5923  0.0070
   32MPD2    H7  509   3.280   4.650  14.722 -1.1470  0.1103 -1.1751
   33TMC2    C1  510   2.516   2.439  10.154 -0.0825  0.0852  0.3243
   33TMC2    C2  511   2.414   2.391  10.087 -0.1845  0.3584  0.2384
   33TMC2    C3  512   2.382   2.441   9.964  0.6444 -0.4317 -0.0498
   33TMC2    C4  513   2.589   2.548  10.110 -0.0227 -0.0504  0.1978
   33TMC2    C5  514   2.553   2.593   9.980 -0.0765  0.1239  0.0096
   33TMC2    C6  515   2.460   2.538   9.906 -0.0706 -0.0884  0.2366
   33TMC2     C  516   2.536   2.373  10.285  0.6656 -0.7188  0.2302
   33TMC2     O  517   2.462   2.284  10.327  0.0501 -0.2565 -0.3918
   33TMC2     H  518   2.356   2.312  10.134  0.6560  0.2124  1.0257
   33TMC2    H1  519   2.667   2.590  10.172 -0.4569  0.4256  0.4137
   33TMC2    H2  520   2.438   2.579   9.809 -0.1740  1.9449  1.1113
   33TMC2    C7  521   2.626   2.710   9.925 -0.2819 -0.2270 -0.1798
   33TMC2    C8  522   2.297   2.360   9.875  0.4029  0.9206 -0.1365
   33TMC2    O1  523   2.697   2.766  10.005  0.0560 -0.0723 -0.2673
   33TMC2    O2  524   2.303   2.375   9.754 -0.7468 -0.4298 -0.4440
   33TMC2    O5  525   2.182   2.337   9.945  0.2103 -0.4623  0.4960
   33TMC2    H5  526   2.163   2.397  10.021 -1.5796 -0.2130 -0.1464
   34MPD2     C  527   2.764   2.411  10.752 -0.3129 -0.7361  0.0276
   34MPD2    C1  528   2.669   2.317  10.709 -0.3650 -0.0232 -0.2764
   34MPD2    C2  529   2.625   2.323  10.578 -0.1888 -0.0660 -0.3544
   34MPD2    C3  530   2.666   2.422  10.497  0.5731  0.2017 -0.1650
   34MPD2    C4  531   2.752   2.515  10.540 -0.2324 -0.0188  0.4293
   34MPD2    C5  532   2.802   2.511  10.667  0.0038  0.0319 -0.3867
   34MPD2     H  533   2.549   2.256  10.539  0.8710  0.0239 -2.5964
   34MPD2    H1  534   2.789   2.594  10.475  1.1806 -0.5062  0.6596
   34MPD2    H2  535   2.799   2.404  10.854  1.0062 -1.5812 -0.4957
   34MPD2    H3  536   2.879   2.575  10.708  1.5504 -1.6446 -0.6358
   34MPD2     N  537   2.632   2.436  10.360  1.0158 -0.7433  0.3261
   34MPD2    H5  538   2.690   2.505  10.315  0.2524 -0.0409  0.4173
   34MPD2    N1  539   2.614   2.237  10.807 -0.1054  0.3326 -0.5949
   34MPD2    H7  540   2.659   2.251  10.898 -2.7582 -0.5371  0.8403
   35TMC2    C1  541   3.138   3.658  11.544  0.3954  0.2276 -0.3599
   35TMC2    C2  542   3.012   3.717  11.552 -0.2977  0.1964 -0.0372
   35TMC2    C3  543   2.916   3.649  11.620  0.1813 -0.9358  0.5634
   35TMC2    C4  544   3.155   3.528  11.584 -0.6045 -0.7133  0.1928
   35TMC2    C5  545   3.051   3.464  11.633  0.4478  0.0471 -0.0635
   35TMC2    C6  546   2.933   3.519  11.659 -0.3768  0.4898 -0.6961
   35TMC2     C  547   3.242   3.726  11.470 -1.3310 -0.2053 -0.4154
   35TMC2     O  548   3.205   3.814  11.393 -0.5607 -0.7128  0.1272
   35TMC2     H  549   2.992   3.821  11.528 -2.5040 -0.2444 -0.1622
   35TMC2    H1  550   3.250   3.478  11.584 -0.5556 -0.6206  0.6365
   35TMC2    H2  551   2.859   3.461  11.713 -0.4032  2.4902  1.3780
   35TMC2    C7  552   3.089   3.343  11.716 -0.1448  0.4461 -0.3267
   35TMC2    C8  553   2.797   3.726  11.649 -0.2455  0.1155  0.7775
   35TMC2    O1  554   3.196   3.349  11.777  0.8545  0.0068  0.1822
   35TMC2    O2  555   2.788   3.842  11.670 -0.6064  0.3077  0.0236
   35TMC2    O5  556   2.691   3.650  11.614 -0.1812 -0.4027 -0.1287
   35TMC2    H5  557   2.704   3.556  11.590 -1.7787 -0.2795 -1.5143
   36MPD2     C  558   3.747   3.764  11.383 -0.2195 -0.0272  0.0053
   36MPD2    C1  559   3.729   3.685  11.497  0.2416 -0.8960 -0.2111
   36MPD2    C2  560   3.599   3.660  11.542 -0.0099 -0.0386 -0.1173
   36MPD2    C3  561   3.495   3.719  11.476  0.4858  0.1819  0.1691
   36MPD2    C4  562   3.512   3.812  11.377 -0.3016 -0.2766  0.2141
   36MPD2    C5  563   3.641   3.829  11.326  0.1700  0.1429  0.5201
   36MPD2     H  564   3.572   3.608  11.634 -1.6519  0.9839 -0.0259
   36MPD2    H1  565   3.425   3.858  11.331 -1.2467 -0.7373  1.5653
   36MPD2    H2  566   3.844   3.782  11.338 -0.2426 -1.1196 -0.4815
   36MPD2    H3  567   3.653   3.884  11.233 -3.0803 -1.4457 -0.8742
   36MPD2     N  568   3.364   3.684  11.517 -0.3517  0.3537 -0.3954
   36MPD2    H5  569   3.354   3.610  11.586  1.0983  0.4368 -0.0924
   36MPD2    N1  570   3.847   3.645  11.567 -0.3150 -0.1292 -0.1421
   36MPD2    H7  571   3.933   3.695  11.547 -0.2919 -0.4761 -0.9099
   37TMC2    C1  572   1.400   3.890  11.295  0.1890  0.3565 -0.3732
   37TMC2    C2  573   1.315   3.972  11.223 -0.8967 -1.4498 -0.6069
   37TMC2    C3  574   1.372   4.060  11.144 -0.1214  0.7357  0.0603
   37TMC2    C4  575   1.537   3.883  11.277  0.0254  0.1206 -0.1058
   37TMC2    C5  576   1.587   3.958  11.174 -0.2727  0.6410  0.9975
   37TMC2    C6  577   1.501   4.047  11.106  1.0777  0.4295 -0.4907
   37TMC2     C  578   1.350   3.809  11.400 -0.5311  0.1059 -0.7373
   37TMC2     O  579   1.245   3.749  11.383 -0.1018 -0.0949  0.0500
   37TMC2     H  580   1.212   3.986  11.252 -0.7222  0.2108 -0.8267
   37TMC2    H1  581   1.603   3.804  11.313 -0.8587 -1.1778 -1.3370
   37TMC2    H2  582   1.533   4.130  11.044  0.3444  0.7675 -0.4186
   37TMC2    C7  583   1.734   3.975  11.174  0.1325  0.8324 -0.9440
   37TMC2    C8  584   1.288   4.174  11.110  0.1070 -0.8650  0.4556
   37TMC2    O1  585   1.798   3.915  11.253 -0.6312 -0.9812 -0.3468
   37TMC2    O2  586   1.205   4.228  11.183 -0.1793  0.7597 -0.9996
   37TMC2    O5  587   1.298   4.191  10.975  0.2093  0.0014 -0.4037
   37TMC2    H5  588   1.355   4.121  10.935  0.0284 -0.4948  0.2054
   38MPD2     C  589   1.445   3.574  11.839  0.1499 -0.1637  0.0137
   38MPD2    C1  590   1.530   3.678  11.828 -0.7736 -0.0932  0.1204
   38MPD2    C2  591   1.526   3.753  11.714 -0.0891 -0.2523 -0.8273
   38MPD2    C3  592   1.435   3.739  11.614  0.1171 -0.2412 -0.1080
   38MPD2    C4  593   1.345   3.641  11.634  0.3282 -0.0282 -0.0549
   38MPD2    C5  594   1.351   3.554  11.740  0.1430 -0.0491  0.6929
   38MPD2     H  595   1.609   3.822  11.701  0.4345 -0.6888  0.2154
   38MPD2    H1  596   1.270   3.610  11.562  0.4701 -0.5108  0.0060
   38MPD2    H2  597   1.448   3.500  11.919 -2.2840 -2.2380 -1.8237
   38MPD2    H3  598   1.276   3.476  11.747  0.4448 -0.4527 -0.5512
   38MPD2     N  599   1.437   3.823  11.508  0.1451 -0.2963  1.0232
   38MPD2    H5  600   1.510   3.893  11.503 -0.2815  0.0406 -0.6999
   38MPD2    N1  601   1.629   3.705  11.924 -0.0448 -0.1920  0.9773
   38MPD2    H7  602   1.685   3.787  11.905 -0.6481 -0.5245 -2.2069
   39TMC2    C1  603   4.212   1.274   2.093 -0.2089 -0.4019 -0.5073
   39TMC2    C2  604   4.210   1.214   2.212  0.2999 -0.9995 -0.4145
   39TMC2    C3  605   4.206   1.291   2.330  0.2358 -0.4166  0.0150
   39TMC2    C4  606   4.215   1.412   2.077 -0.0726  0.0237  0.2082
   39TMC2    C5  607   4.211   1.483   2.193  0.1065  0.1214  0.1682
   39TMC2    C6  608   4.199   1.430   2.321  0.1164  0.6227  0.2444
   39TMC2     C  609   4.200   1.196   1.970 -0.0226 -0.1001 -0.8800
   39TMC2     O  610   4.152   1.258   1.876  0.3609 -0.2318  0.1216
   39TMC2     H  611   4.209   1.106   2.217 -0.0795 -0.9934 -0.3475
   39TMC2    H1  612   4.233   1.460   1.982  0.9418  0.0506  0.4159
   39TMC2    H2  613   4.186   1.493   2.409  0.7711  2.3310 -0.8869
   39TMC2    C7  614   4.213   1.627   2.189 -0.4676  0.7576 -0.7671
   39TMC2    C8  615   4.182   1.230   2.455  0.0468 -0.5131 -0.1764
   39TMC2    O1  616   4.140   1.682   2.268  0.1811  0.0564  0.6663
   39TMC2    O2  617   4.154   1.112   2.470  0.2684  0.1655 -0.0723
   39TMC2    O5  618   4.251   1.296   2.548 -0.4136 -0.1618  0.0111
   39TMC2    H5  619   4.313   1.359   2.506 -1.7596  0.3049 -1.2882
   40MPD2     C  620   4.262   0.827   1.925 -0.2959 -0.0172 -0.4095
   40MPD2    C1  621   4.230   0.957   1.880 -0.1585  0.1029  0.4316
   40MPD2    C2  622   4.189   0.977   1.747  0.9419 -0.1447 -0.0487
   40MPD2    C3  623   4.175   0.871   1.661  0.4838 -0.4628 -0.3944
   40MPD2    C4  624   4.194   0.747   1.711 -0.0736  0.8115 -0.0376
   40MPD2    C5  625   4.251   0.725   1.837  0.0928 -0.6261  0.3266
   40MPD2     H  626   4.172   1.078   1.712 -0.9627  0.4720  2.6371
   40MPD2    H1  627   4.191   0.658   1.650  1.5941  1.1764 -0.6589
   40MPD2    H2  628   4.307   0.807   2.022  0.8732 -2.3387 -1.4423
   40MPD2    H3  629   4.279   0.623   1.861  3.8158  0.0181 -1.1262
   40MPD2     N  630   4.134   0.887   1.525 -0.1309 -0.0011 -0.5260
   40MPD2    H5  631   4.112   0.805   1.470  0.6929 -0.3362 -0.3483
   40MPD2    N1  632   4.246   1.063   1.974  0.0142  0.5981 -0.2821
   40MPD2    H7  633   4.283   1.025   2.060  0.1981  0.3249 -0.4835
   41TMC2    C1  634   3.593   3.040  13.548  0.2970 -0.2819 -0.7653
   41TMC2    C2  635   3.557   2.958  13.651 -0.1863 -0.5329  0.3178
   41TMC2    C3  636   3.655   2.878  13.694 -0.0631  0.1662  0.0268
   41TMC2    C4  637   3.716   3.053  13.496  0.1370 -0.5351  0.3058
   41TMC2    C5  638   3.803   2.951  13.528  0.1196 -0.2456  0.1433
   41TMC2    C6  639   3.771   2.864  13.628 -0.7084  0.0351 -0.7081
   41TMC2     C  640   3.516   3.158  13.539 -0.7580  0.4668 -0.5277
   41TMC2     O  641   3.532   3.212  13.433  0.7088 -0.1230 -0.2871
   41TMC2     H  642   3.450   2.938  13.655 -0.5415  1.5457  1.1025
   41TMC2    H1  643   3.732   3.140  13.433  2.4284 -1.0775  0.1499
   41TMC2    H2  644   3.846   2.797  13.669 -1.1229 -0.3472 -0.5715
   41TMC2    C7  645   3.933   2.944  13.473  1.1271 -0.6198  0.1716
   41TMC2    C8  646   3.609   2.747  13.753  0.3771 -0.2351  0.1300
   41TMC2    O1  647   4.016   2.860  13.519 -0.2458 -0.2037 -0.0486
   41TMC2    O2  648   3.662   2.641  13.704 -0.1530  0.1764  0.5670
   41TMC2    O5  649   3.485   2.749  13.807  0.5395  0.3448 -1.0603
   41TMC2    H5  650   3.442   2.834  13.831  0.2207  0.0057 -0.4148
   42MPD2     C  651   3.410   3.421  13.625  0.5147 -0.4109 -0.6446
   42MPD2    C1  652   3.457   3.328  13.714  0.2463  0.3349  0.1853
   42MPD2    C2  653   3.460   3.362  13.850 -1.1320 -0.2826 -0.1861
   42MPD2    C3  654   3.410   3.485  13.888 -0.2792 -0.0365  0.0023
   42MPD2    C4  655   3.369   3.575  13.796 -0.7667  0.5302 -0.3802
   42MPD2    C5  656   3.372   3.544  13.665  0.4075  0.3863 -0.1427
   42MPD2     H  657   3.497   3.293  13.925 -1.5042 -1.5318 -1.1552
   42MPD2    H1  658   3.334   3.673  13.828 -1.3329  0.4526 -0.7606
   42MPD2    H2  659   3.413   3.405  13.518  0.4486 -3.4808 -0.1781
   42MPD2    H3  660   3.345   3.619  13.591 -0.0044  2.2472  1.9059
   42MPD2     N  661   3.418   3.528  14.025  0.0161 -0.1080  0.4457
   42MPD2    H5  662   3.371   3.614  14.052 -1.6060  0.0057 -2.6514
   42MPD2    N1  663   3.510   3.206  13.672 -0.6244 -0.7345 -0.4023
   42MPD2    H7  664   3.534   3.137  13.742  0.6293 -0.5582 -0.6516
   43TMC2    C1  665   4.675   1.799   0.693 -0.4754  0.9538  0.3580
   43TMC2    C2  666   4.550   1.831   0.646  0.2561 -0.5100 -0.1388
   43TMC2    C3  667   4.489   1.938   0.710 -0.0862  0.2269 -0.5970
   43TMC2    C4  668   0.001   1.860   0.800 -0.1774  0.1660  0.3181
   43TMC2    C5  669   4.673   1.956   0.861  0.2056 -0.1248 -0.5457
   43TMC2    C6  670   4.546   1.995   0.822  0.0709  0.8155 -0.0790
   43TMC2     C  671   0.038   1.739   0.594  0.6506  0.0599 -0.2101
   43TMC2     O  672   0.147   1.701   0.642  0.5458 -0.3682  0.1438
   43TMC2     H  673   4.502   1.764   0.576  0.8635  0.3734 -1.4025
   43TMC2    H1  674   0.100   1.829   0.831 -0.6384  1.1319  2.7483
   43TMC2    H2  675   4.486   2.071   0.870  2.2481  1.5443  1.4849
   43TMC2    C7  676   0.024   2.055   0.919 -0.6899  0.1494  1.0284
   43TMC2    C8  677   4.349   1.958   0.702 -0.0810  0.8128  0.1561
   43TMC2    O1  678   0.139   2.056   0.898  0.2023 -0.3741  0.4945
   43TMC2    O2  679   4.269   1.991   0.789 -0.1279  0.0017 -0.0665
   43TMC2    O5  680   4.323   1.918   0.575 -0.2186  0.1535 -0.3246
   43TMC2    H5  681   4.402   1.905   0.518 -0.0442  3.0619 -0.7037
   44MPD2     C  682   0.159   1.577   0.121 -0.3216 -0.7840  0.3943
   44MPD2    C1  683   0.222   1.546   0.240  0.5635 -0.2030 -0.5624
   44MPD2    C2  684   0.174   1.606   0.359  0.6504  0.2452 -0.0416
   44MPD2    C3  685   0.060   1.689   0.353 -0.5052  0.5531  0.0675
   44MPD2    C4  686   4.734   1.707   0.233  0.2148 -0.0312  0.1840
   44MPD2    C5  687   0.048   1.656   0.115 -0.3049 -0.5359  0.3281
   44MPD2     H  688   0.216   1.577   0.454  0.5621 -0.1473 -0.1205
   44MPD2    H1  689   4.632   1.741   0.236  0.2393  0.3929 -4.0048
   44MPD2    H2  690   0.189   1.542   0.022 -0.1025 -0.1757  0.2495
   44MPD2    H3  691   0.013   1.673   0.014  3.1820  1.3490 -0.5706
   44MPD2     N  692   4.727   1.744   0.462 -0.1266 -0.0038  0.6479
   44MPD2    H5  693   4.636   1.785   0.445  0.6736  0.8785 -1.4277
   44MPD2    N1  694   0.336   1.464   0.250  0.5792 -0.1306  0.1008
   44MPD2    H7  695   0.387   1.442   0.335  0.7304  0.8252  0.2512
   45TMC2    C1  696   0.821   4.452   9.421 -0.5650 -0.3238 -0.2115
   45TMC2    C2  697   0.754   4.559   9.367  0.1405  0.7229  1.0304
   45TMC2    C3  698   0.820   4.680   9.370 -0.6099  0.9132 -0.0811
   45TMC2    C4  699   0.951   4.472   9.467  0.7635 -0.3431 -0.1929
   45TMC2    C5  700   1.011   4.598   9.471 -0.0933  1.1579 -0.8771
   45TMC2    C6  701   0.943   4.706   9.426  0.4396 -0.5396 -0.2236
   45TMC2     C  702   0.770   4.318   9.442 -0.2081 -0.0218  0.4178
   45TMC2     O  703   0.856   4.230   9.449  0.2279  0.1242 -0.8161
   45TMC2     H  704   0.664   4.541   9.309  0.1372 -2.4334  2.0426
   45TMC2    H1  705   0.993   4.390   9.524 -1.2137 -1.7851 -0.8451
   45TMC2    H2  706   0.996   0.062   9.418  0.8992 -0.9292 -1.7234
   45TMC2    C7  707   1.139   4.619   9.528  0.2890 -0.5390  0.3153
   45TMC2    C8  708   0.759   0.058   9.302  0.3357  0.9790  1.0955
   45TMC2    O1  709   1.151   4.723   9.590  0.0950  0.3246 -0.0762
   45TMC2    O2  710   0.689   0.051   9.203  0.1161 -0.7569  0.2919
   45TMC2    O5  711   0.753   0.159   9.396 -0.5590 -0.3799  0.4166
   45TMC2    H5  712   0.765   0.127   9.488 -0.2142 -1.7478 -0.0887
   46MPD2     C  713   0.611   4.067   9.464  0.3670 -0.3743 -0.5075
   46MPD2    C1  714   0.560   4.199   9.471  0.1422  0.0735 -0.5701
   46MPD2    C2  715   0.422   4.215   9.500  0.0123 -0.4232  0.1166
   46MPD2    C3  716   0.347   4.102   9.526  0.4383  0.2446 -0.0357
   46MPD2    C4  717   0.402   3.978   9.529 -0.4828 -0.1465  0.0497
   46MPD2    C5  718   0.535   3.961   9.499  0.2039  0.3435  0.3612
   46MPD2     H  719   0.364   4.305   9.514  0.8184 -0.2574  2.3735
   46MPD2    H1  720   0.344   3.891   9.555 -0.9664  0.2814  0.3971
   46MPD2    H2  721   0.714   4.040   9.446 -0.4055 -2.5671 -1.5335
   46MPD2    H3  722   0.586   3.866   9.510  0.8556  0.7297  0.6990
   46MPD2     N  723   0.212   4.122   9.558 -0.0443  0.0790 -0.3807
   46MPD2    H5  724   0.189   4.219   9.576 -2.7765 -0.9746  1.8612
   46MPD2    N1  725   0.639   4.316   9.452  0.6467 -0.0643  0.5841
   46MPD2    H7  726   0.588   4.404   9.446 -2.1604 -1.7280 -0.0139
   47TMC2    C1  727   3.474   0.044   9.125 -0.4735 -0.2649 -0.0056
   47TMC2    C2  728   3.487   0.038   8.990 -0.3587 -0.3969 -0.5548
   47TMC2    C3  729   3.381   4.726   8.922  0.4495  0.1415  0.1014
   47TMC2    C4  730   3.360   4.736   9.185 -0.1549  0.1527 -0.6606
   47TMC2    C5  731   3.252   4.693   9.105 -0.3317 -0.1369  0.3340
   47TMC2    C6  732   3.258   4.701   8.973  0.1629 -0.4144 -0.1406
   47TMC2     C  733   3.597   0.014   9.194  0.5408  0.3624 -0.9969
   47TMC2     O  734   3.698   4.711   9.140  0.6353 -0.0509  0.8237
   47TMC2     H  735   3.578   0.068   8.939 -0.9155  0.7832 -0.8666
   47TMC2    H1  736   3.366   4.714   9.291 -2.6115 -1.3348 -0.8476
   47TMC2    H2  737   3.177   4.685   8.903 -0.4715  2.7009 -0.1311
   47TMC2    C7  738   3.131   4.645   9.166  0.3218  0.0687 -0.6170
   47TMC2    C8  739   3.413   4.700   8.788  0.0763  0.3045 -0.4105
   47TMC2    O1  740   3.096   4.676   9.279 -0.2174  0.0464  0.2477
   47TMC2    O2  741   3.506   0.025   8.739 -0.1472 -0.4653 -0.6644
   47TMC2    O5  742   3.335   4.617   8.721  0.6142 -0.2253 -0.0323
   47TMC2    H5  743   3.269   4.575   8.780  1.2260  0.0697  0.8449
   48MPD2     C  744   3.688   0.066   9.546  0.3168 -0.1594 -0.5466
   48MPD2    C1  745   3.677   4.737   9.425  0.2830  0.4242  0.4527
   48MPD2    C2  746   3.739   4.615   9.405 -0.0205  0.1437  0.3001
   48MPD2    C3  747   3.836   4.581   9.500 -0.3401 -0.3705 -0.4583
   48MPD2    C4  748   3.875   4.672   9.598 -0.0695  0.2593 -0.5806
   48MPD2    C5  749   3.798   0.044   9.631  0.3863 -0.1289 -0.3387
   48MPD2     H  750   3.717   4.543   9.327  1.2954 -0.7948  0.7985
   48MPD2    H1  751   3.957   4.647   9.664  1.2011 -0.3177 -2.3623
   48MPD2    H2  752   3.620   0.146   9.573 -0.8037 -0.8002 -1.4904
   48MPD2    H3  753   3.825   0.106   9.716 -0.9052  1.1342 -0.8294
   48MPD2     N  754   3.878   4.441   9.497  0.5652 -0.1999 -0.0926
   48MPD2    H5  755   3.838   4.387   9.420  1.2550 -0.1215 -0.5039
   48MPD2    N1  756   3.589   0.055   9.323 -0.2127 -0.2147 -0.3726
   48MPD2    H7  757   3.516   0.123   9.342  1.1752  0.3017  3.1168
   49TMC2    C1  758   1.742   1.431  10.545  0.2779 -0.9824 -0.3413
   49TMC2    C2  759   1.860   1.475  10.484 -0.0601 -0.0457  0.2960
   49TMC2    C3  760   1.914   1.378  10.398 -0.0250 -0.4682 -0.2731
   49TMC2    C4  761   1.672   1.321  10.502 -0.1806 -0.1432  0.1697
   49TMC2    C5  762   1.716   1.258  10.395  0.3714 -0.5100  0.1837
   49TMC2    C6  763   1.843   1.272  10.349  0.1049 -0.3446 -0.0778
   49TMC2     C  764   1.664   1.539  10.607  0.3991  0.0160  0.5104
   49TMC2     O  765   1.551   1.546  10.562 -0.0716 -0.5083  0.5433
   49TMC2     H  766   1.918   1.547  10.541  0.2755  1.6450 -2.2087
   49TMC2    H1  767   1.581   1.290  10.552 -0.9067  1.1179 -0.3612
   49TMC2    H2  768   1.884   1.209  10.271 -2.7151 -1.3228 -0.7538
   49TMC2    C7  769   1.638   1.153  10.331  0.2931  0.2358  0.2370
   49TMC2    C8  770   2.049   1.393  10.348 -0.1446  0.1693 -0.0120
   49TMC2    O1  771   1.546   1.113  10.401 -0.2268 -0.7207  0.6075
   49TMC2    O2  772   2.124   1.299  10.315 -0.1542  0.2600 -0.6736
   49TMC2    O5  773   2.087   1.519  10.364 -0.8797 -0.5220  0.5856
   49TMC2    H5  774   2.019   1.589  10.366  0.6021  0.9397 -0.7915
   50MPD2     C  775   1.520   1.745  10.792 -0.3849  0.2523  1.1648
   50MPD2    C1  776   1.640   1.679  10.821 -0.0335 -0.3625 -0.5433
   50MPD2    C2  777   1.702   1.718  10.939 -0.4715 -0.5683 -0.7050
   50MPD2    C3  778   1.630   1.787  11.041  0.7255  0.0565  0.3400
   50MPD2    C4  779   1.500   1.825  11.018  0.0436 -0.0618 -0.6133
   50MPD2    C5  780   1.440   1.806  10.889  0.3135  0.0791  0.4347
   50MPD2     H  781   1.801   1.676  10.953  0.1289  1.4717  1.2402
   50MPD2    H1  782   1.436   1.868  11.095 -1.9196 -1.2429 -1.5944
   50MPD2    H2  783   1.475   1.730  10.695  0.7411 -2.2146  1.0286
   50MPD2    H3  784   1.339   1.841  10.873  0.2149 -0.3850  0.0527
   50MPD2     N  785   1.678   1.816  11.171  0.3749 -0.3838  0.2810
   50MPD2    H5  786   1.622   1.875  11.232 -0.2749 -0.8219  0.1086
   50MPD2    N1  787   1.714   1.595  10.728  0.3762 -0.2676 -0.1359
   50MPD2    H7  788   1.801   1.558  10.765 -0.8697 -2.4542  0.5760
   51TMC2    C1  789   1.470   1.071   1.377 -0.4120 -0.0778 -0.3805
   51TMC2    C2  790   1.412   1.134   1.483  0.4474  0.0280 -0.2120
   51TMC2    C3  791   1.489   1.230   1.548  0.3381  0.1245  0.6106
   51TMC2    C4  792   1.605   1.093   1.344  0.0878  0.2855 -0.2718
   51TMC2    C5  793   1.676   1.180   1.420 -0.7854  0.5208  0.8472
   51TMC2    C6  794   1.616   1.251   1.520 -0.4809  0.3382  0.0453
   51TMC2     C  795   1.399   0.991   1.278  0.4467  0.1470 -0.0321
   51TMC2     O  796   1.455   0.978   1.171  0.3391 -0.0858 -0.0800
   51TMC2     H  797   1.304   1.138   1.492  0.5067  0.6153  0.2120
   51TMC2    H1  798   1.653   1.046   1.260  2.4364 -1.5177  2.0723
   51TMC2    H2  799   1.678   1.321   1.575 -0.6375  0.2754  0.3044
   51TMC2    C7  800   1.808   1.216   1.378  0.1847 -0.0068 -0.0454
   51TMC2    C8  801   1.419   1.326   1.627  0.1420  0.1946 -0.7831
   51TMC2    O1  802   1.902   1.202   1.457 -0.1866 -0.2407  0.1647
   51TMC2    O2  803   1.298   1.347   1.604 -0.0065  0.5541 -0.7177
   51TMC2    O5  804   1.502   1.373   1.722 -0.0026  0.0867  0.0155
   51TMC2    H5  805   1.589   1.331   1.741 -0.0044 -0.1083 -0.4091
   52MPD2     C  806   0.993   0.747   1.084 -0.2419  0.3659 -0.6049
   52MPD2    C1  807   1.104   0.800   1.027  0.1640 -0.6909  0.6000
   52MPD2    C2  808   1.196   0.873   1.099 -0.5468 -0.3412  0.6741
   52MPD2    C3  809   1.174   0.902   1.229  0.2488  0.5206 -0.4400
   52MPD2    C4  810   1.054   0.872   1.287 -0.5441 -0.0582  0.3709
   52MPD2    C5  811   0.967   0.795   1.215 -0.0768 -0.4512 -0.2609
   52MPD2     H  812   1.288   0.902   1.050  0.6806 -4.3458  0.6311
   52MPD2    H1  813   1.048   0.889   1.394  1.7290  1.4195  0.2502
   52MPD2    H2  814   0.915   0.692   1.033  0.8872  0.8775 -2.8782
   52MPD2    H3  815   0.874   0.769   1.264 -0.1965 -2.6415 -1.6234
   52MPD2     N  816   1.275   0.949   1.318  0.4249 -0.0895  0.0542
   52MPD2    H5  817   1.251   0.963   1.416  1.4804  2.7991 -0.1088
   52MPD2    N1  818   1.155   0.746   0.909  0.1053  0.1307  0.3501
   52MPD2    H7  819   1.250   0.771   0.880  0.9444 -1.4349  1.7680
   53TMC2    C1  820   2.471   3.940  11.211 -0.1988  1.0091  0.5669
   53TMC2    C2  821   2.610   3.936  11.190  0.4822  0.0528  0.2576
   53TMC2    C3  822   2.696   3.945  11.294  0.3299  0.0948  0.3868
   53TMC2    C4  823   2.428   3.964  11.342  0.5437 -0.3091  0.1163
   53TMC2    C5  824   2.518   3.964  11.447  0.2109 -0.3592  0.5511
   53TMC2    C6  825   2.652   3.954  11.421 -0.2083  0.5964 -0.6100
   53TMC2     C  826   2.392   3.971  11.098  0.8399 -0.8144 -0.3708
   53TMC2     O  827   2.437   3.987  10.985  0.0728  0.5026  0.2308
   53TMC2     H  828   2.642   3.945  11.087 -0.6611 -0.2480 -0.1191
   53TMC2    H1  829   2.324   3.959  11.373  0.4876  0.3795  0.0354
   53TMC2    H2  830   2.720   3.986  11.499  0.8269  1.0412 -1.6928
   53TMC2    C7  831   2.466   4.000  11.581 -0.3891  0.3300 -0.4503
   53TMC2    C8  832   2.833   3.998  11.270 -1.1738 -0.2112 -0.4482
   53TMC2    O1  833   2.346   4.025  11.587  0.1425 -0.8950 -0.0629
   53TMC2    O2  834   2.926   3.981  11.351 -0.2752 -0.1234  0.9251
   53TMC2    O5  835   2.844   4.089  11.171  0.2820 -0.2722 -0.5684
   53TMC2    H5  836   2.756   4.105  11.130  0.8843 -0.1774 -1.7908
   54MPD2     C  837   2.169   4.071  10.919  0.3621 -0.9242  0.4072
   54MPD2    C1  838   2.154   4.017  11.046 -0.1754  0.5576  0.2932
   54MPD2    C2  839   2.020   3.996  11.085 -0.2321  0.6387 -0.1392
   54MPD2    C3  840   1.912   4.052  11.014 -0.0518 -0.8501 -0.0548
   54MPD2    C4  841   1.933   4.109  10.887 -0.7667 -0.7714  0.9470
   54MPD2    C5  842   2.059   4.101  10.841 -0.4316 -0.1859  0.4122
   54MPD2     H  843   2.005   3.937  11.175  2.8820  0.0277 -0.0231
   54MPD2    H1  844   1.854   4.144  10.821  0.6958 -0.7988 -0.8144
   54MPD2    H2  845   2.266   4.091  10.875  0.0490  1.3904  0.7730
   54MPD2    H3  846   2.071   4.140  10.741 -0.0369  1.5327  1.1326
   54MPD2     N  847   1.779   4.039  11.064  0.2070  0.2075 -0.2212
   54MPD2    H5  848   1.722   4.107  11.014  0.5837  0.3057 -0.5208
   54MPD2    N1  849   2.259   3.974  11.131  0.0561  0.1899  0.3191
   54MPD2    H7  850   2.233   3.932  11.219  0.9340  0.4429  0.7024
   55TMC2    C1  851   3.007   1.381  17.410 -0.0245 -0.7526  0.2604
   55TMC2    C2  852   2.999   1.315  17.286 -0.2035 -0.0906  0.0646
   55TMC2    C3  853   2.967   1.182  17.284  0.5059 -0.2094 -0.5311
   55TMC2    C4  854   2.969   1.318  17.528 -0.5090  0.3773  0.1413
   55TMC2    C5  855   2.930   1.185  17.522 -0.2362 -0.0446 -0.4328
   55TMC2    C6  856   2.930   1.119  17.397  0.3755 -0.0473  0.5083
   55TMC2     C  857   3.039   1.525  17.418  0.0952 -0.5894  0.3877
   55TMC2     O  858   3.073   1.553  17.535  0.2297  0.0011 -0.1244
   55TMC2     H  859   3.055   1.350  17.200  0.3562 -3.6765 -1.0325
   55TMC2    H1  860   2.955   1.380  17.616 -0.1090  2.1607 -1.0376
   55TMC2    H2  861   2.900   1.015  17.396 -1.9779  0.6672 -2.2066
   55TMC2    C7  862   2.814   1.143  17.598 -0.2944 -0.1331  0.0534
   55TMC2    C8  863   2.938   1.112  17.160 -0.0723 -0.0623 -0.7574
   55TMC2    O1  864   2.727   1.087  17.531  0.2882  0.0781  0.0615
   55TMC2    O2  865   2.915   0.994  17.162 -0.0702  0.3804  0.1072
   55TMC2    O5  866   2.867   1.194  17.077 -0.1028 -0.4520  0.0256
   55TMC2    H5  867   2.860   1.288  17.103  2.1205  0.1515 -1.5048
   56MPD2     C  868   3.072   1.783  17.161  0.5524 -0.0092  0.5319
   56MPD2    C1  869   3.061   1.733  17.284  0.3638  0.0614 -0.2560
   56MPD2    C2  870   3.084   1.816  17.394  0.1572 -0.3561 -0.2320
   56MPD2    C3  871   3.102   1.955  17.371  0.8111  0.6832  0.4297
   56MPD2    C4  872   3.095   2.004  17.243  0.4340  0.1146 -0.0410
   56MPD2    C5  873   3.090   1.919  17.137  0.1329  0.0517  0.0981
   56MPD2     H  874   3.077   1.784  17.497 -0.1046 -2.1069 -0.7942
   56MPD2    H1  875   3.103   2.106  17.206  2.9467 -0.1441 -0.2517
   56MPD2    H2  876   3.047   1.721  17.075  1.2600  2.3290 -1.3899
   56MPD2    H3  877   3.091   1.959  17.036 -0.0919 -1.7635 -0.6168
   56MPD2     N  878   3.107   2.049  17.483 -0.8373 -0.0791  0.5486
   56MPD2    H5  879   3.106   2.010  17.577 -3.4990 -0.0102  0.5658
   56MPD2    N1  880   3.034   1.597  17.299  0.3536 -0.0163 -0.0015
   56MPD2    H7  881   3.019   1.541  17.215 -1.4020  2.2433 -1.1830
   57TMC2    C1  882   2.704   2.620  14.176 -0.0539  0.7736 -0.7087
   57TMC2    C2  883   2.768   2.540  14.265 -0.1439 -0.7699  0.3005
   57TMC2    C3  884   2.807   2.414  14.215 -0.4532 -0.2488  1.1566
   57TMC2    C4  885   2.692   2.591  14.046  0.6951 -0.0626  0.2785
   57TMC2    C5  886   2.741   2.470  13.996 -0.4054 -0.0091  0.4029
   57TMC2    C6  887   2.787   2.381  14.084  0.1500 -0.9129 -0.0114
   57TMC2     C  888   2.645   2.739  14.211  0.5896  0.1294  0.1421
   57TMC2     O  889   2.587   2.804  14.124  0.1137 -0.0913 -0.3976
   57TMC2     H  890   2.764   2.551  14.373 -2.6552  0.9831  0.0226
   57TMC2    H1  891   2.656   2.663  13.972 -2.3569 -0.5575  1.2532
   57TMC2    H2  892   2.830   2.289  14.048  0.1381  0.6703 -4.0062
   57TMC2    C7  893   2.695   2.446  13.860  0.6876 -0.0008 -0.2931
   57TMC2    C8  894   2.871   2.308  14.294 -0.3382  0.9332 -0.4553
   57TMC2    O1  895   2.597   2.510  13.826  0.0350 -0.0262  0.6435
   57TMC2    O2  896   2.922   2.214  14.234 -0.6985  0.5485  0.4625
   57TMC2    O5  897   2.909   2.372  14.407 -0.0291 -0.1050 -0.3671
   57TMC2    H5  898   2.836   2.388  14.470 -0.0220  0.7288 -0.5719
   58MPD2     C  899   2.421   3.067  14.541 -0.3071 -1.0479 -0.2748
   58MPD2    C1  900   2.392   3.035  14.410 -0.7135 -0.3683  0.2471
   58MPD2    C2  901   2.471   2.943  14.341 -0.6468 -0.2724  0.4427
   58MPD2    C3  902   2.582   2.879  14.403 -0.2536  0.6634  0.4264
   58MPD2    C4  903   2.600   2.902  14.539  0.2333 -0.4639  0.2519
   58MPD2    C5  904   2.521   2.994  14.597  0.1547 -0.5852 -0.0516
   58MPD2     H  905   2.454   2.913  14.238  0.3654 -0.6449  0.3764
   58MPD2    H1  906   2.678   2.851  14.594  1.4450  0.5447 -0.5456
   58MPD2    H2  907   2.353   3.131  14.596 -2.5617 -1.1140 -2.9420
   58MPD2    H3  908   2.549   3.009  14.701  0.9844 -0.2490 -0.3192
   58MPD2     N  909   2.664   2.782  14.339  0.0778  0.2452  0.3901
   58MPD2    H5  910   2.738   2.740  14.394  0.1198 -0.9782 -0.5702
   58MPD2    N1  911   2.292   3.088  14.331 -0.2946  0.2832 -0.9094
   58MPD2    H7  912   2.272   3.038  14.245 -1.3385  0.4414 -0.7565
   59TMC2    C1  913   0.038   3.028  12.612  0.5981  0.4136 -0.1225
   59TMC2    C2  914   0.134   3.038  12.517 -0.8033  0.1883  0.3141
   59TMC2    C3  915   0.090   3.019  12.390  0.1240 -0.1087 -0.4363
   59TMC2    C4  916   4.643   3.005  12.572  0.6273  0.0192  0.0213
   59TMC2    C5  917   4.605   2.976  12.441  0.0339 -0.4691  0.3733
   59TMC2    C6  918   4.705   2.976  12.349  0.4453 -0.1798  0.4035
   59TMC2     C  919   0.047   3.125  12.719 -0.4792 -0.1010 -0.0513
   59TMC2     O  920   4.707   3.223  12.729  0.0423  0.2283  0.2402
   59TMC2     H  921   0.237   3.066  12.534 -1.1509  0.5502  1.7521
   59TMC2    H1  922   4.563   3.030  12.641  1.0011 -0.3481  0.5935
   59TMC2    H2  923   4.698   2.943  12.246  0.6533 -0.1503  0.3793
   59TMC2    C7  924   4.468   2.964  12.389  0.1693  0.7785 -0.3455
   59TMC2    C8  925   0.188   2.996  12.289 -0.1447  0.7978 -0.1073
   59TMC2    O1  926   4.390   2.912  12.465 -0.5177  0.0010 -0.9974
   59TMC2    O2  927   0.296   2.947  12.311 -0.0287 -0.2474  0.2810
   59TMC2    O5  928   0.145   3.079  12.187 -0.4984  0.1968 -0.1057
   59TMC2    H5  929   0.061   3.123  12.213 -0.1347 -0.5817  2.3612
   60MPD2     C  930   0.185   3.314  12.896 -0.2283  0.1952  0.0436
   60MPD2    C1  931   0.224   3.185  12.890  0.0668  0.3673  0.0522
   60MPD2    C2  932   0.326   3.143  12.970 -0.4638  0.5743 -0.6786
   60MPD2    C3  933   0.384   3.221  13.065  0.0554  0.2519  0.1204
   60MPD2    C4  934   0.350   3.353  13.071  0.8574 -0.4594 -0.0859
   60MPD2    C5  935   0.251   3.402  12.985  0.3276 -0.6914  0.7570
   60MPD2     H  936   0.362   3.042  12.958 -0.9457  0.2581  0.5043
   60MPD2    H1  937   0.393   3.414  13.150 -0.3014  0.3879 -0.1170
   60MPD2    H2  938   0.097   3.351  12.846  0.7438  1.3339 -0.8313
   60MPD2    H3  939   0.219   3.506  12.994 -1.2063 -0.9912 -1.1340
   60MPD2     N  940   0.479   3.182  13.154  0.2247 -0.7948  0.3151
   60MPD2    H5  941   0.536   3.254  13.199  0.7472 -0.2608 -1.1910
   60MPD2    N1  942   0.161   3.100  12.795  0.1521  0.2223  0.0439
   60MPD2    H7  943   0.198   3.005  12.791  0.0080  0.2064 -1.0029
   61TMC2    C1  944   4.159   4.298  15.690  0.5630 -0.2025 -0.5733
   61TMC2    C2  945   4.204   4.280  15.818  0.2538 -0.6674 -0.1004
   61TMC2    C3  946   4.207   4.388  15.898  0.1032  0.0213  0.3417
   61TMC2    C4  947   4.113   4.413  15.643  0.5572 -0.3928  0.3551
   61TMC2    C5  948   4.102   4.514  15.727  0.8955 -0.2731 -0.3069
   61TMC2    C6  949   4.144   4.505  15.862  0.1097  0.3277  1.2321
   61TMC2     C  950   4.185   4.189  15.603  0.0432 -0.5630 -0.5183
   61TMC2     O  951   4.185   4.072  15.647 -0.3434 -0.3756 -0.5982
   61TMC2     H  952   4.241   4.189  15.865 -1.1177 -0.4705  1.3373
   61TMC2    H1  953   4.084   4.424  15.539  0.8789  0.7178  0.3865
   61TMC2    H2  954   4.149   4.595  15.923  1.4252  2.5423 -2.1536
   61TMC2    C7  955   4.040   4.635  15.675 -0.3924  0.1500 -0.5833
   61TMC2    C8  956   4.244   4.382  16.039 -0.1604 -0.0476  0.8659
   61TMC2    O1  957   4.017   4.627  15.557  0.1806  0.9545  0.3560
   61TMC2    O2  958   4.196   4.295  16.110 -0.7693 -0.3359  0.5546
   61TMC2    O5  959   4.302   4.494  16.080 -0.1313  0.1894 -0.1325
   61TMC2    H5  960   4.341   4.539  16.002  1.0654 -0.1685  0.2636
   62MPD2     C  961   4.267   4.007  15.375  0.4682  0.2167 -0.1058
   62MPD2    C1  962   4.249   4.143  15.362 -0.1673 -0.6263 -0.0647
   62MPD2    C2  963   4.262   4.207  15.239 -0.2140 -0.0184  0.8156
   62MPD2    C3  964   4.310   4.138  15.125 -0.6188 -0.3288 -0.3964
   62MPD2    C4  965   4.335   4.002  15.138  0.2448 -0.1912 -0.4269
   62MPD2    C5  966   4.316   3.943  15.263 -0.2348  0.0117  0.2661
   62MPD2     H  967   4.253   4.314  15.224 -2.6537 -0.4989 -1.2478
   62MPD2    H1  968   4.381   3.944  15.059 -2.2877 -1.8009 -0.7142
   62MPD2    H2  969   4.260   3.952  15.468 -0.2101  1.1042  0.3720
   62MPD2    H3  970   4.343   3.838  15.268 -0.4838 -0.1308 -1.3615
   62MPD2     N  971   4.330   4.201  15.000  0.4532  0.0170  0.6873
   62MPD2    H5  972   4.316   4.302  14.996 -0.9633 -0.1700  0.6102
   62MPD2    N1  973   4.211   4.226  15.473  0.0712  0.1672  0.4830
   62MPD2    H7  974   4.214   4.326  15.456  1.0509 -0.0123 -0.4153
   63TMC2    C1  975   3.772   4.644  10.189  0.5040 -0.2932  0.0215
   63TMC2    C2  976   3.837   4.634  10.311 -0.6858  0.0822  0.5249
   63TMC2    C3  977   3.939   4.724  10.327  0.2310  0.0233 -0.4526
   63TMC2    C4  978   3.800   4.733  10.090  0.2469 -0.4896  0.1785
   63TMC2    C5  979   3.894   0.081  10.112 -0.0546 -0.4425 -0.0536
   63TMC2    C6  980   3.969   0.088  10.229 -0.3808 -0.1873  0.0879
   63TMC2     C  981   3.669   4.551  10.155  0.3012  0.9982 -0.3758
   63TMC2     O  982   3.632   4.563  10.040 -0.0747  0.2097 -0.0896
   63TMC2     H  983   3.815   4.562  10.390  0.9040 -1.8972 -0.8234
   63TMC2    H1  984   3.761   4.726   9.989  1.6696 -0.1356 -0.3979
   63TMC2    H2  985   4.033   0.173  10.249 -1.7656  0.9279 -0.2382
   63TMC2    C7  986   3.907   0.188  10.016  0.2444  0.0160 -0.9322
   63TMC2    C8  987   4.015   4.715  10.450  0.7338 -0.3868 -0.5003
   63TMC2    O1  988   3.805   0.222   9.952  0.4429 -0.4470 -0.6692
   63TMC2    O2  989   3.998   4.629  10.538 -0.7047  0.7288  0.5188
   63TMC2    O5  990   4.125   0.055  10.445 -0.2616  0.7581 -0.4396
   63TMC2    H5  991   4.149   0.100  10.361 -2.4727  0.1880 -1.3496
   64MPD2     C  992   3.413   4.116  10.211  0.0341 -0.4785  0.1666
   64MPD2    C1  993   3.493   4.134  10.326 -0.4785  0.5547 -0.1857
   64MPD2    C2  994   3.564   4.251  10.334  0.2494 -0.2632  0.0077
   64MPD2    C3  995   3.564   4.344  10.231 -0.4295  0.1391 -0.1867
   64MPD2    C4  996   3.503   4.315  10.113 -0.1407 -0.1733  0.0662
   64MPD2    C5  997   3.419   4.204  10.111 -0.2024  0.0123 -0.1176
   64MPD2     H  998   3.623   4.281  10.420  1.7963  0.5480 -1.3534
   64MPD2    H1  999   3.504   4.386  10.032 -0.5054  0.3185  0.4922
   64MPD2    H2 1000   3.349   4.031  10.190  0.7904 -0.5761 -1.7466
   64MPD2    H3 1001   3.359   4.190  10.023  0.6391  1.5056 -0.9401
   64MPD2     N 1002   3.645   4.459  10.250 -0.0901 -0.0563  0.3998
   64MPD2    H5 1003   3.674   4.474  10.346 -0.0945  0.3556  0.3377
   64MPD2    N1 1004   3.521   4.035  10.424 -0.8063 -0.2544 -0.5401
   64MPD2    H7 1005   3.592   4.057  10.493  0.2798 -4.9113 -0.1553
   65TMC2    C1 1006   0.226   4.052  15.436 -0.0212  0.2119 -0.0003
   65TMC2    C2 1007   0.286   4.027  15.315  0.2241 -0.4708  0.6043
   65TMC2    C3 1008   0.363   4.123  15.256  0.4935  0.0586 -0.1198
   65TMC2    C4 1009   0.240   4.170  15.501  0.1816  0.8266 -0.5228
   65TMC2    C5 1010   0.322   4.271  15.442 -0.0715 -0.5778  0.2561
   65TMC2    C6 1011   0.383   4.249  15.320 -0.2817 -0.3106 -0.5344
   65TMC2     C 1012   0.143   3.951  15.500 -0.3635  0.3917  0.6040
   65TMC2     O 1013   0.130   3.967  15.621  0.1186  0.7047  0.1202
   65TMC2     H 1014   0.294   3.924  15.281  0.6854 -0.0979 -0.4026
   65TMC2    H1 1015   0.192   4.177  15.598 -1.0173 -1.4909 -0.9495
   65TMC2    H2 1016   0.448   4.327  15.283  2.7758 -2.9217 -0.7162
   65TMC2    C7 1017   0.284   4.407  15.464 -0.4583  0.4597  0.1072
   65TMC2    C8 1018   0.450   4.088  15.143 -0.7931  0.9289 -0.2993
   65TMC2    O1 1019   0.304   4.480  15.367  0.5941  0.4259 -0.2273
   65TMC2    O2 1020   0.454   3.979  15.089 -0.6837 -0.7352  0.8485
   65TMC2    O5 1021   0.491   4.199  15.078 -0.0683  0.1629  1.0888
   65TMC2    H5 1022   0.447   4.283  15.104 -1.1928 -0.1755  0.3377
   66MPD2     C 1023   0.087   3.687  15.595 -0.6689  1.0990 -0.0956
   66MPD2    C1 1024   0.062   3.720  15.469 -1.0914  0.0460  0.5476
   66MPD2    C2 1025   0.005   3.638  15.376  0.0357 -0.5236  0.2336
   66MPD2    C3 1026   4.695   3.519  15.413 -0.3531  0.1637 -0.4267
   66MPD2    C4 1027   4.707   3.484  15.549 -0.4972 -0.4924  0.2962
   66MPD2    C5 1028   0.021   3.574  15.637 -0.3254 -0.1888  0.0521
   66MPD2     H 1029   4.723   3.669  15.274 -0.3366 -0.3267  0.3663
   66MPD2    H1 1030   4.668   3.390  15.587  0.9811 -0.7046  1.2519
   66MPD2    H2 1031   0.142   3.740  15.671  0.6141  0.0017 -0.2525
   66MPD2    H3 1032   0.025   3.538  15.739  1.6551 -0.5156 -0.1427
   66MPD2     N 1033   4.627   3.429  15.327  0.1335  0.7001 -0.3085
   66MPD2    H5 1034   4.580   3.347  15.365 -1.3600  2.2595  1.2415
   66MPD2    N1 1035   0.097   3.847  15.424  0.8249  0.3989  0.3128
   66MPD2    H7 1036   0.098   3.865  15.324 -1.7745 -0.8839  0.0726
   67TMC2    C1 1037   0.664   3.063  14.239  0.4543 -0.9302 -0.1049
   67TMC2    C2 1038   0.591   3.175  14.216  0.0249 -0.4055  0.4796
   67TMC2    C3 1039   0.574   3.270  14.317 -0.1884  0.3748 -0.8263
   67TMC2    C4 1040   0.712   3.040  14.357  0.3091  0.3042 -0.0182
   67TMC2    C5 1041   0.687   3.126  14.460 -0.0586 -0.3585 -0.5199
   67TMC2    C6 1042   0.614   3.245  14.445  0.2384  0.3565 -1.0079
   67TMC2     C 1043   0.659   2.953  14.142 -0.1202  0.3595 -0.1361
   67TMC2     O 1044   0.762   2.889  14.134  0.1743  0.2008 -0.0216
   67TMC2     H 1045   0.571   3.193  14.111  0.7199  0.7827  0.5625
   67TMC2    H1 1046   0.773   2.953  14.378  2.2241  1.0845 -2.3958
   67TMC2    H2 1047   0.606   3.318  14.524 -1.5403  0.3047 -1.1482
   67TMC2    C7 1048   0.740   3.096  14.588  0.0544  0.8860  0.0368
   67TMC2    C8 1049   0.550   3.403  14.270 -0.0469  0.2914  0.0186
   67TMC2    O1 1050   0.842   3.029  14.587  0.3893  0.0537 -0.3026
   67TMC2    O2 1051   0.467   3.425  14.183  0.4588 -0.5979  0.0692
   67TMC2    O5 1052   0.672   3.428  14.238  0.6885 -0.4820 -0.2293
   67TMC2    H5 1053   0.727   3.447  14.318  1.0739 -0.7032 -0.4452
   68MPD2     C 1054   0.577   2.764  13.921  0.1025  0.4132 -0.1904
   68MPD2    C1 1055   0.493   2.859  13.981 -0.1941 -0.3491 -0.0590
   68MPD2    C2 1056   0.360   2.870  13.958 -0.7844 -0.3729 -0.0870
   68MPD2    C3 1057   0.297   2.786  13.864  0.2832 -1.1025  0.1225
   68MPD2    C4 1058   0.385   2.697  13.797  0.7004  0.3995 -0.0708
   68MPD2    C5 1059   0.520   2.691  13.823 -0.1484  0.5056  0.5529
   68MPD2     H 1060   0.313   2.952  14.010 -0.0304 -0.6227  1.0026
   68MPD2    H1 1061   0.343   2.626  13.727  0.1825  2.4865 -1.8984
   68MPD2    H2 1062   0.682   2.743  13.938  0.4288  0.9200 -1.6060
   68MPD2    H3 1063   0.579   2.610  13.780 -1.0578 -0.0116  0.2728
   68MPD2     N 1064   0.159   2.779  13.843 -0.1267 -0.4418 -0.0669
   68MPD2    H5 1065   0.123   2.729  13.762 -1.6242 -0.3273  0.5255
   68MPD2    N1 1066   0.536   2.946  14.085 -0.7344  0.8286  0.0501
   68MPD2    H7 1067   0.463   3.007  14.124  0.7135  0.6783  3.0254
   69TMC2    C1 1068   2.540   4.482  12.216  0.3977 -0.1730  0.2965
   69TMC2    C2 1069   2.408   4.491  12.187 -0.4444 -0.1564 -0.0340
   69TMC2    C3 1070   2.372   4.557  12.078  0.1003  0.6292 -0.2308
   69TMC2    C4 1071   2.635   4.551  12.146  0.0257  0.0619 -0.0680
   69TMC2    C5 1072   2.595   4.629  12.040 -0.3544  0.0208  0.0813
   69TMC2    C6 1073   2.459   4.629  11.999  0.2436  0.0795 -0.1737
   69TMC2     C 1074   2.582   4.416  12.335  0.5931  0.5273  0.3034
   69TMC2     O 1075   2.516   4.317  12.369  0.8735 -0.2902 -0.3713
   69TMC2     H 1076   2.333   4.447  12.252  1.0201  0.4230  2.0365
   69TMC2    H1 1077   2.737   4.516  12.161 -0.5775 -1.4405  0.5204
   69TMC2    H2 1078   2.422   4.689  11.917 -0.2990  2.2684  1.6564
   69TMC2    C7 1079   2.693   4.651  11.933  0.1834  0.6705 -0.4467
   69TMC2    C8 1080   2.231   4.557  12.051  0.2850  0.1245 -0.5537
   69TMC2    O1 1081   2.780   4.571  11.927  0.5492  0.1460 -0.2142
   69TMC2    O2 1082   2.150   4.551  12.139 -0.6151  0.3738  0.2126
   69TMC2    O5 1083   2.216   4.504  11.928 -0.4209 -0.5034  0.1219
   69TMC2    H5 1084   2.286   4.508  11.860 -0.3863 -0.8037  0.1423
   70MPD2     C 1085   2.863   4.531  12.542 -0.0231  0.2115 -0.7317
   70MPD2    C1 1086   2.766   4.445  12.511 -0.1320 -0.0143 -0.1787
   70MPD2    C2 1087   2.710   4.350  12.591  0.1774 -0.7471 -0.3856
   70MPD2    C3 1088   2.763   4.345  12.713 -0.3427 -0.1743 -0.3077
   70MPD2    C4 1089   2.872   4.421  12.745 -0.0758 -0.1410 -0.2129
   70MPD2    C5 1090   2.926   4.516  12.659 -0.2075  0.3662 -0.1370
   70MPD2     H 1091   2.631   4.283  12.559 -2.2591  1.3447  1.2865
   70MPD2    H1 1092   2.926   4.423  12.839 -2.4287  1.2753  1.1107
   70MPD2    H2 1093   2.874   4.613  12.472  0.0474 -1.0789 -2.2380
   70MPD2    H3 1094   3.012   4.580  12.676 -2.4706  2.4946  3.3701
   70MPD2     N 1095   2.722   4.249  12.804 -0.8133  0.3723  0.7762
   70MPD2    H5 1096   2.784   4.243  12.885 -0.6180 -0.8623  0.5430
   70MPD2    N1 1097   2.708   4.460  12.382 -0.2928 -0.0117 -0.0170
   70MPD2    H7 1098   2.752   4.535  12.331 -0.9203  1.6625  1.9048
   71TMC2    C1 1099   4.392   0.101   1.422 -0.4464  0.9344  0.0049
   71TMC2    C2 1100   4.520   0.075   1.464  0.3725  0.0936  0.6895
   71TMC2    C3 1101   4.545   0.083   1.594  0.2155  0.9735 -0.1412
   71TMC2    C4 1102   4.298   0.155   1.499 -0.3261  0.3318 -0.0725
   71TMC2    C5 1103   4.327   0.169   1.629  0.0648 -0.1776 -0.5152
   71TMC2    C6 1104   4.454   0.135   1.675 -0.1134 -0.4984 -0.3186
   71TMC2     C 1105   4.383   0.122   1.281  0.1384 -0.6380  0.9915
   71TMC2     O 1106   4.484   0.139   1.213  0.5551 -0.0666  0.0811
   71TMC2     H 1107   4.601   0.041   1.400 -0.7198 -0.8336 -0.1878
   71TMC2    H1 1108   4.196   0.180   1.471 -0.3441  0.3676  0.0247
   71TMC2    H2 1109   4.486   0.177   1.769  0.6897  1.0995 -1.3188
   71TMC2    C7 1110   4.237   0.243   1.724 -0.0780 -0.3152  0.5861
   71TMC2    C8 1111   4.683   0.060   1.641 -0.0748 -1.4019 -0.1610
   71TMC2    O1 1112   4.265   0.239   1.843 -0.3556  0.1521  0.4856
   71TMC2    O2 1113   0.047   0.057   1.573 -0.4979 -0.1869 -0.0580
   71TMC2    O5 1114   4.663   4.733   1.759 -0.0572  0.5085 -0.6078
   71TMC2    H5 1115   4.572   0.013   1.790  0.2929 -2.1282  2.0009
   72MPD2     C 1116   4.095   0.116   0.860  0.3738 -0.6951 -0.9930
   72MPD2    C1 1117   4.216   0.177   0.882 -0.1960 -0.1232 -0.2240
   72MPD2    C2 1118   4.267   0.172   1.016  0.3080 -0.3822 -0.0873
   72MPD2    C3 1119   4.200   0.100   1.117  0.8324  0.1068 -0.1463
   72MPD2    C4 1120   4.077   0.044   1.090  0.8097  0.2391  0.8334
   72MPD2    C5 1121   4.032   0.047   0.963  0.0414 -0.2590  0.2070
   72MPD2     H 1122   4.363   0.221   1.032  0.7060 -1.0080 -0.5225
   72MPD2    H1 1123   4.029   0.001   1.177 -1.3869 -0.4815 -0.7084
   72MPD2    H2 1124   4.053   0.124   0.761 -0.6381  0.0969 -0.5121
   72MPD2    H3 1125   3.937   0.001   0.937 -0.7441  1.1168  0.6897
   72MPD2     N 1126   4.248   0.090   1.249 -0.6179  0.2806 -0.0735
   72MPD2    H5 1127   4.185   0.057   1.321 -2.5034 -0.4679 -2.0609
   72MPD2    N1 1128   4.290   0.243   0.782  0.2258 -0.7411 -0.5115
   72MPD2    H7 1129   4.374   0.290   0.815 -0.1784 -0.2204 -0.2121
   73TMC2    C1 1130   3.935   1.867  14.002 -0.2573 -0.1080  0.9124
   73TMC2    C2 1131   3.906   1.950  14.104  0.4073  0.4106 -0.2756
   73TMC2    C3 1132   3.960   1.928  14.231 -0.2005 -0.4764  0.3849
   73TMC2    C4 1133   4.012   1.759  14.031  0.0607 -0.0426 -0.4103
   73TMC2    C5 1134   4.076   1.743  14.154  0.2598  0.2534 -0.4446
   73TMC2    C6 1135   4.053   1.825  14.259  0.0857 -0.4183  0.1326
   73TMC2     C 1136   3.963   1.913  13.871 -1.0430  0.1900 -0.6547
   73TMC2     O 1137   4.056   1.854  13.814  0.7282  0.3139  0.5239
   73TMC2     H 1138   3.833   2.028  14.086  0.1581  0.1369 -0.4310
   73TMC2    H1 1139   4.019   1.675  13.963  0.5411  0.1805 -0.6299
   73TMC2    H2 1140   4.105   1.822  14.353 -0.0403 -1.4191  0.1659
   73TMC2    C7 1141   4.214   1.706  14.120  0.4908  0.1124 -0.3110
   73TMC2    C8 1142   3.975   2.050  14.308 -0.0234  0.4118  0.6871
   73TMC2    O1 1143   4.284   1.653  14.207  0.0467  0.4387 -0.8803
   73TMC2    O2 1144   4.068   2.074  14.382 -0.3978 -0.0737  0.2753
   73TMC2    O5 1145   3.849   2.086  14.331  0.1329  0.0336 -0.0109
   73TMC2    H5 1146   3.783   2.050  14.268  0.2717 -0.5009  0.1510
   74MPD2     C 1147   3.997   2.290  13.551 -0.3924 -0.5920 -0.5839
   74MPD2    C1 1148   4.071   2.181  13.562  0.3098  0.3582  0.7872
   74MPD2    C2 1149   4.027   2.084  13.646 -0.0665 -0.1512 -0.0239
   74MPD2    C3 1150   3.919   2.107  13.721 -0.1115  0.8321  0.2361
   74MPD2    C4 1151   3.836   2.218  13.701  0.3049  0.4872  0.0708
   74MPD2    C5 1152   3.879   2.314  13.613  0.3134  0.2209  0.0610
   74MPD2     H 1153   4.090   1.995  13.651 -2.0322 -1.4889  0.7544
   74MPD2    H1 1154   3.745   2.223  13.759 -0.0548  0.5183 -0.4865
   74MPD2    H2 1155   4.032   2.368  13.484 -0.4014 -0.2595 -0.2056
   74MPD2    H3 1156   3.833   2.411  13.596 -2.9726 -1.0012  1.8942
   74MPD2     N 1157   3.887   2.024  13.835 -0.8563  0.2412  0.0748
   74MPD2    H5 1158   3.804   2.057  13.884 -0.2178 -0.5059  1.6597
   74MPD2    N1 1159   4.191   2.168  13.481 -0.1529  0.4525 -0.4634
   74MPD2    H7 1160   4.213   2.248  13.422 -1.8347  0.4802 -1.0592
   75TMC2    C1 1161   4.671   2.805  13.899  0.1126 -0.3425 -0.9943
   75TMC2    C2 1162   4.582   2.823  14.000 -0.0500  0.0271 -0.5025
   75TMC2    C3 1163   4.450   2.811  13.966  0.0553 -0.4741  0.1359
   75TMC2    C4 1164   4.626   2.790  13.769 -0.6759  0.1309 -0.3625
   75TMC2    C5 1165   4.486   2.787  13.746  1.1977 -0.6193  1.0135
   75TMC2    C6 1166   4.395   2.789  13.846  0.4056  0.7439  0.1410
   75TMC2     C 1167   0.066   2.830  13.935  0.6531  0.4577  0.5370
   75TMC2     O 1168   0.086   2.868  14.050  0.6160 -0.4627  0.4731
   75TMC2     H 1169   4.597   2.838  14.106  0.9170  1.2874 -0.8348
   75TMC2    H1 1170   4.695   2.805  13.687 -0.0949  1.3874  0.3539
   75TMC2    H2 1171   4.287   2.780  13.836  0.3559  1.6055 -0.0525
   75TMC2    C7 1172   4.444   2.778  13.612 -0.8711  0.3149 -0.3087
   75TMC2    C8 1173   4.351   2.833  14.068  0.3187  0.0420  0.3568
   75TMC2    O1 1174   4.328   2.820  13.593  0.4918  0.1177  0.2598
   75TMC2    O2 1175   4.385   2.822  14.187 -0.1578  0.2233 -0.2748
   75TMC2    O5 1176   4.279   2.937  14.026 -0.0355  0.2924  0.1827
   75TMC2    H5 1177   4.271   2.935  13.928 -0.5179 -0.4825  0.2413
   76TMC2    C1 1178   3.206   3.602  11.983 -0.1565  0.1251 -0.2652
   76TMC2    C2 1179   3.074   3.600  12.001 -0.0051  0.0777 -0.0732
   76TMC2    C3 1180   3.023   3.502  12.086  1.2229  0.3521 -0.0281
   76TMC2    C4 1181   3.288   3.533  12.059  0.1793 -1.0154  0.2001
   76TMC2    C5 1182   3.245   3.440  12.152 -0.4232  1.1292  0.2111
   76TMC2    C6 1183   3.110   3.420  12.161 -0.0546 -0.3205  0.0473
   76TMC2     C 1184   3.254   3.709  11.891  0.8999  0.1716  0.1099
   76TMC2     O 1185   3.162   3.764  11.834 -0.2682  0.4313 -0.1565
   76TMC2     H 1186   3.008   3.652  11.932 -0.3055  0.6769  0.6661
   76TMC2    H1 1187   3.395   3.551  12.052  0.0139 -0.4802 -0.8203
   76TMC2    H2 1188   3.078   3.341  12.228 -1.4446 -0.7348 -1.1043
   76TMC2    C7 1189   3.332   3.326  12.174 -0.2403 -0.2743  0.7745
   76TMC2    C8 1190   2.892   3.451  12.045 -0.1122  0.3601  0.9271
   76TMC2    O1 1191   3.281   3.217  12.174  0.0002 -0.0903 -0.0703
   76TMC2    O2 1192   2.828   3.492  11.951  0.4796  0.6961 -0.0666
   76TMC2    O5 1193   2.892   3.317  12.084  0.4373  0.2378 -0.3316
   76TMC2    H5 1194   2.911   3.308  12.179  2.3096  1.0699 -0.6384
   77MPD2     C 1195   3.611   4.036  11.726  0.3455 -0.1346  0.5972
   77MPD2    C1 1196   3.475   4.034  11.707  0.5749  0.4724 -0.3249
   77MPD2    C2 1197   3.400   3.929  11.749  0.2562 -0.2147 -0.8778
   77MPD2    C3 1198   3.464   3.828  11.817  0.4872 -0.0660 -0.3440
   77MPD2    C4 1199   3.601   3.829  11.834 -0.2616 -0.0090  0.1515
   77MPD2    C5 1200   3.673   3.933  11.788  0.1346  0.6301 -0.1724
   77MPD2     H 1201   3.293   3.927  11.730  0.1777  1.1588 -0.5948
   77MPD2    H1 1202   3.637   3.734  11.872 -1.1750 -0.4900 -0.1971
   77MPD2    H2 1203   3.668   4.122  11.693  0.6868 -0.8625 -0.7268
   77MPD2    H3 1204   3.779   3.948  11.802  0.4910 -2.2544  0.2844
   77MPD2     N 1205   3.392   3.726  11.885 -0.2092  0.0115  0.0499
   77MPD2    H5 1206   3.453   3.661  11.934 -1.1790 -0.1391  1.0469
   77MPD2    N1 1207   3.404   4.128  11.637 -0.4352  0.5863  0.0871
   77MPD2    H7 1208   3.303   4.112  11.639 -0.2754  0.0166  2.8034
   78TMC2    C1 1209   4.321   4.527   1.072 -0.9124 -0.2041 -0.0731
   78TMC2    C2 1210   4.233   4.460   0.993 -0.2332  0.0275  0.3080
   78TMC2    C3 1211   4.231   4.465   0.850 -0.3338  0.4780  0.1421
   78TMC2    C4 1212   4.415   4.597   1.001  0.4572  0.1392  0.1714
   78TMC2    C5 1213   4.421   4.592   0.860  0.8926 -0.2728  0.0178
   78TMC2    C6 1214   4.328   4.528   0.782  0.4167 -0.4070 -0.3002
   78TMC2     C 1215   4.323   4.499   1.217  0.1665  0.1158  0.2143
   78TMC2     O 1216   4.215   4.465   1.270 -0.1584  0.4716  0.7536
   78TMC2     H 1217   4.145   4.419   1.042 -0.0846 -1.4275 -0.6570
   78TMC2    H1 1218   4.478   4.666   1.056 -0.2042 -0.0146  1.1208
   78TMC2    H2 1219   4.337   4.499   0.677  0.1725 -0.5687 -0.2773
   78TMC2    C7 1220   4.511   4.694   0.806 -1.2528 -0.1352  0.4191
   78TMC2    C8 1221   4.149   4.374   0.775 -0.4509  0.3158  0.3827
   78TMC2    O1 1222   4.556   0.038   0.882  0.4685 -0.5621 -0.3015
   78TMC2    O2 1223   4.090   4.283   0.833  0.0220 -1.2596  0.1197
   78TMC2    O5 1224   4.093   4.457   0.686  0.0785  0.1023  0.1710
   78TMC2    H5 1225   4.155   4.528   0.658 -0.6921  1.2085  1.2497
   79MPD1     C 1226   4.558   4.427   1.664 -0.0533  0.0692 -0.1334
   79MPD1    C1 1227   4.422   4.420   1.638  0.5010 -0.5578  0.0001
   79MPD1    C2 1228   4.383   4.455   1.510 -0.4891 -0.0692  0.4464
   79MPD1    C3 1229   4.480   4.490   1.409  0.0856  0.2231 -0.3002
   79MPD1    C4 1230   4.613   4.505   1.449  0.3537 -0.2548  0.0400
   79MPD1    C5 1231   4.649   4.472   1.575  0.6510  0.2998 -0.1065
   79MPD1     H 1232   4.276   4.452   1.492  0.1580 -1.7663 -3.1640
   79MPD1    H1 1233   4.685   4.534   1.373 -0.5779 -0.0119 -0.7583
   79MPD1    H2 1234   4.603   4.404   1.760 -2.9101  1.0472  1.4337
   79MPD1    H3 1235   0.015   4.476   1.604  0.5994  0.8240  0.0106
   79MPD1     N 1236   4.449   4.508   1.269  0.1696  0.1624 -0.4486
   79MPD1    H5 1237   4.527   4.530   1.207  0.5528 -1.4203 -0.5222
   79MPD1    N1 1238   4.318   4.407   1.742 -0.8116  0.1625  0.1249
   79MPD1    H6 1239   4.231   4.374   1.702 -1.0211 -0.3017  0.9605
   79MPD1    H7 1240   4.336   4.340   1.816  0.9397  1.0033  0.4818
   80TMC2    C1 1241   2.091   3.233  11.357  0.0217  0.1320  0.1738
   80TMC2    C2 1242   2.101   3.203  11.230  0.4728 -0.2560 -0.7943
   80TMC2    C3 1243   2.059   3.082  11.187 -0.4671  0.7318 -0.1310
   80TMC2    C4 1244   2.050   3.137  11.446  0.2605 -0.0167  0.1399
   80TMC2    C5 1245   2.014   3.014  11.407  0.0605 -1.3920  0.0080
   80TMC2    C6 1246   2.028   2.981  11.271  0.1135  0.0222  0.0388
   80TMC2     C 1247   2.164   3.348  11.409  0.5987  0.0386 -0.4700
   80TMC2     O 1248   2.255   3.392  11.334  0.1614 -0.0811  0.8828
   80TMC2     H 1249   2.148   3.270  11.159  0.5270 -1.1538 -1.6187
   80TMC2    H1 1250   2.062   3.155  11.552 -2.3663 -1.0464  0.6158
   80TMC2    H2 1251   2.015   2.886  11.220  2.9285 -0.0069 -0.6190
   80TMC2    C7 1252   2.024   2.892  11.487  0.7225 -0.2678 -0.1225
   80TMC2    C8 1253   2.069   3.052  11.053 -0.2154 -0.1188 -0.2979
   80TMC2    O1 1254   2.002   2.787  11.429  0.3812 -0.3593  0.0922
   80TMC2    O2 1255   1.972   3.034  10.983 -0.6854 -0.2338  0.4021
   80TMC2    O5 1256   2.190   3.002  11.041 -0.3571 -0.2115  0.5463
   80TMC2    H5 1257   2.236   2.993  11.128  0.7578  0.1908 -0.0066
   81MPD2     C 1258   2.294   3.567  11.576 -0.6233 -0.2432  0.7106
   81MPD2    C1 1259   2.180   3.496  11.608 -0.9117 -0.1394 -0.0797
   81MPD2    C2 1260   2.104   3.533  11.714  0.3186 -0.3037  0.2206
   81MPD2    C3 1261   2.154   3.631  11.796  0.4162 -0.6320  0.5303
   81MPD2    C4 1262   2.283   3.691  11.769  0.3241 -0.9749 -0.5744
   81MPD2    C5 1263   2.346   3.663  11.658  0.2958 -0.0671  0.6635
   81MPD2     H 1264   2.004   3.493  11.728 -1.2599  3.2327 -0.8042
   81MPD2    H1 1265   2.333   3.759  11.837 -0.4545  1.1658 -2.1449
   81MPD2    H2 1266   2.351   3.551  11.485 -1.2935  3.7788 -0.4134
   81MPD2    H3 1267   2.438   3.709  11.624 -0.2131 -1.1773 -2.1609
   81MPD2     N 1268   2.072   3.683  11.897  0.0309 -0.0275 -0.3261
   81MPD2    H5 1269   1.999   3.617  11.922 -0.1678  0.2788 -0.0897
   81MPD2    N1 1270   2.124   3.391  11.532 -0.8739 -0.2005  0.7172
   81MPD2    H7 1271   2.045   3.349  11.580 -1.2030 -2.0411 -1.4234
   82TMC2    C1 1272   0.129   3.344  11.601 -0.0721 -0.7490  0.3625
   82TMC2    C2 1273   0.144   3.412  11.720 -0.8079  0.4895 -0.0668
   82TMC2    C3 1274   0.189   3.340  11.831 -0.3008 -0.3359  0.4059
   82TMC2    C4 1275   0.151   3.209  11.588  0.0224  0.8734  0.0605
   82TMC2    C5 1276   0.180   3.142  11.707  0.1434 -0.2159  0.1737
   82TMC2    C6 1277   0.201   3.203  11.825 -0.1294 -0.6013 -0.9102
   82TMC2     C 1278   0.074   3.416  11.484 -0.7325 -0.5344  0.6848
   82TMC2     O 1279   0.013   3.355  11.397  0.5375  0.6243  0.1057
   82TMC2     H 1280   0.132   3.519  11.735  1.5385  0.6186  0.9216
   82TMC2    H1 1281   0.112   3.162  11.499  2.7316 -0.6009 -0.3394
   82TMC2    H2 1282   0.207   3.147  11.917  0.6784 -1.0793 -1.2447
   82TMC2    C7 1283   0.143   2.998  11.716  0.1477  1.1975  0.4827
   82TMC2    C8 1284   0.192   3.406  11.965 -0.8062  0.3537 -0.3092
   82TMC2    O1 1285   0.088   2.954  11.816  0.0786  0.4662 -0.0508
   82TMC2    O2 1286   0.148   3.514  11.993  0.1489 -0.3483 -0.1546
   82TMC2    O5 1287   0.290   3.352  12.034  0.0505 -0.1081  0.2127
   82TMC2    H5 1288   0.345   3.292  11.980  1.3263  1.8129 -0.5981
   83MPD2     C 1289   4.690   3.793  11.174 -0.3781  0.3065 -0.3438
   83MPD2    C1 1290   4.622   3.683  11.205 -0.2069  0.1605 -0.0094
   83MPD2    C2 1291   4.662   3.599  11.309  0.5125  0.7988 -0.3524
   83MPD2    C3 1292   0.040   3.632  11.379  0.2498  0.4726  0.2017
   83MPD2    C4 1293   0.110   3.744  11.349  0.4857  0.6545  0.2171
   83MPD2    C5 1294   0.063   3.821  11.245  0.4349 -0.4531  0.3906
   83MPD2     H 1295   4.594   3.521  11.341  1.0643  0.8284  0.8655
   83MPD2    H1 1296   0.205   3.766  11.398  0.8408  2.9225 -1.5064
   83MPD2    H2 1297   4.656   3.841  11.083 -1.8355 -0.4814 -0.2349
   83MPD2    H3 1298   0.117   3.910  11.215  2.8870 -1.7835  0.8321
   83MPD2     N 1299   0.096   3.548  11.477 -0.6666  0.3028  0.7383
   83MPD2    H5 1300   0.177   3.588  11.522  0.7575  0.0038 -1.5566
   83MPD2    N1 1301   4.509   3.649  11.125  0.2727  0.0549  0.1012
   83MPD2    H7 1302   4.503   3.719  11.051  1.8378  1.4486  1.2827
   84TMC2    C1 1303   1.809   2.001  11.508 -0.5560  0.4735 -0.1675
   84TMC2    C2 1304   1.939   2.004  11.546  0.3618  0.4654 -0.1816
   84TMC2    C3 1305   2.018   1.920  11.470 -0.2738 -0.6357 -0.3070
   84TMC2    C4 1306   1.754   1.922  11.408 -0.5476  0.5286  0.5582
   84TMC2    C5 1307   1.843   1.853  11.332 -0.3881  0.7821  0.5215
   84TMC2    C6 1308   1.976   1.860  11.360  0.1892 -0.5712  0.2799
   84TMC2     C 1309   1.713   2.087  11.584 -0.7826 -0.0108  0.5888
   84TMC2     O 1310   1.608   2.113  11.517  0.3212 -0.6741  1.0340
   84TMC2     H 1311   1.974   2.070  11.625 -0.8612  0.6163  0.2343
   84TMC2    H1 1312   1.646   1.923  11.402 -0.4995 -1.6416 -0.9993
   84TMC2    H2 1313   2.045   1.797  11.305  0.5814  1.2120 -1.2670
   84TMC2    C7 1314   1.808   1.784  11.211 -0.1307 -0.0407  0.3034
   84TMC2    C8 1315   2.154   1.889  11.508  0.0082  0.0213 -0.1606
   84TMC2    O1 1316   1.892   1.701  11.173 -0.4144  0.2580 -0.1672
   84TMC2    O2 1317   2.227   1.818  11.439  0.3511  0.2256 -0.2250
   84TMC2    O5 1318   2.187   1.991  11.582  0.6395  0.0945  0.1698
   84TMC2    H5 1319   2.281   1.985  11.610  0.3921 -0.8010  0.8123
   85TMC2    C1 1320   2.724   0.185  15.837  0.3100 -0.1647 -0.6773
   85TMC2    C2 1321   2.806   0.248  15.926  0.1641 -0.8686 -0.1899
   85TMC2    C3 1322   2.849   0.373  15.903  1.0155  0.4532  0.0361
   85TMC2    C4 1323   2.691   0.257  15.723 -0.4105  0.0972  0.4340
   85TMC2    C5 1324   2.737   0.381  15.698 -0.7460 -0.0817  0.4464
   85TMC2    C6 1325   2.823   0.443  15.786 -0.1790 -0.1624  0.2569
   85TMC2     C 1326   2.636   0.079  15.879  0.8610  0.4387  0.2151
   85TMC2     O 1327   2.553   0.031  15.801  0.3705 -0.2458 -0.2169
   85TMC2     H 1328   2.841   0.203  16.018  1.5028 -0.4641 -0.4991
   85TMC2    H1 1329   2.622   0.210  15.653  0.3753 -1.3121  0.6066
   85TMC2    H2 1330   2.855   0.541  15.756  1.1981 -0.8351 -0.4559
   85TMC2    C7 1331   2.709   0.455  15.579 -0.3155 -0.0903  0.0930
   85TMC2    C8 1332   2.958   0.415  15.994  0.1981  0.2788 -0.2261
   85TMC2    O1 1333   2.789   0.546  15.550 -0.3972  0.0930 -0.0599
   85TMC2    O2 1334   2.963   0.388  16.115 -0.2767 -0.1225 -0.0907
   85TMC2    O5 1335   3.043   0.502  15.924 -0.3990 -0.1541  0.3242
   85TMC2    H5 1336   3.021   0.515  15.830  0.5063 -0.7088  0.0321
   86MPD2     C 1337   2.403   4.613  16.293  0.8229 -0.5692  0.5861
   86MPD2    C1 1338   2.377   4.604  16.161  0.0853  0.8368 -0.0723
   86MPD2    C2 1339   2.452   4.669  16.065  0.0551  0.7940  0.4554
   86MPD2    C3 1340   2.575   4.721  16.097 -0.0377  0.1800 -0.7861
   86MPD2    C4 1341   2.610   4.725  16.232  0.3426  0.2289 -1.0106
   86MPD2    C5 1342   2.527   4.672  16.328 -0.1557  0.1646 -0.4332
   86MPD2     H 1343   2.427   4.658  15.960 -0.2940  0.7701  0.5414
   86MPD2    H1 1344   2.707   0.029  16.256 -0.4597  0.3975  1.9462
   86MPD2    H2 1345   2.344   4.569  16.373  2.3301 -2.0041  0.9077
   86MPD2    H3 1346   2.553   4.670  16.433  1.6637  1.2767 -0.8614
   86MPD2     N 1347   2.662   0.041  16.005  0.1018  0.3340 -0.1412
   86MPD2    H5 1348   2.741   0.085  16.053 -0.5799 -0.9585  2.1731
   86MPD2    N1 1349   2.259   4.533  16.115 -0.0405  0.1131 -0.0544
   86MPD2    H7 1350   2.251   4.526  16.015  2.2034 -2.6241 -0.0366
   87TMC2    C1 1351   4.344   2.839   0.627 -0.1472  0.0625 -0.2112
   87TMC2    C2 1352   4.218   2.839   0.573  0.2517  0.4383 -0.5756
   87TMC2    C3 1353   4.117   2.877   0.650  0.3922  0.0082  0.0827
   87TMC2    C4 1354   4.374   2.909   0.743  0.9199  0.5515  0.0766
   87TMC2    C5 1355   4.267   2.956   0.811  0.1986 -0.2369 -1.6000
   87TMC2    C6 1356   4.135   2.942   0.765  0.3739 -0.3455  0.5493
   87TMC2     C 1357   4.452   2.769   0.556  0.2669  0.5180  0.0453
   87TMC2     O 1358   4.419   2.717   0.447  0.1588  0.3725  0.3222
   87TMC2     H 1359   4.197   2.791   0.478  1.9120 -1.0641 -0.1915
   87TMC2    H1 1360   4.477   2.923   0.775  0.9681  2.4940 -0.9753
   87TMC2    H2 1361   4.050   2.989   0.813 -0.1570  0.8798 -1.6181
   87TMC2    C7 1362   4.285   3.089   0.872 -0.0962 -0.6876  0.6353
   87TMC2    C8 1363   3.989   2.888   0.597 -1.1812 -0.1605  0.0335
   87TMC2    O1 1364   4.188   3.164   0.868  0.8480 -0.2893 -0.0160
   87TMC2    O2 1365   3.891   2.893   0.671 -0.2977 -0.1869  0.2673
   87TMC2    O5 1366   3.997   2.948   0.480 -0.0241  0.8765  0.0488
   87TMC2    H5 1367   4.076   2.935   0.424 -0.3835 -1.3361  0.0453
   88MPD2     C 1368   4.585   3.258   0.992 -0.0751 -0.4586 -0.0817
   88MPD2    C1 1369   4.459   3.247   0.943 -0.3962 -0.5650  0.6076
   88MPD2    C2 1370   4.378   3.359   0.936  0.1759 -0.8394 -0.9746
   88MPD2    C3 1371   4.430   3.483   0.981  0.3302 -0.3699  0.1173
   88MPD2    C4 1372   4.544   3.485   1.060  0.0836 -0.8098  0.0896
   88MPD2    C5 1373   4.620   3.371   1.061  0.2890 -0.1802  0.3500
   88MPD2     H 1374   4.283   3.360   0.885 -0.4659  1.8435  0.2916
   88MPD2    H1 1375   4.580   3.577   1.106  1.1917 -1.6425  0.8844
   88MPD2    H2 1376   4.652   3.173   0.980 -0.4954 -0.5127 -1.9428
   88MPD2    H3 1377   4.717   3.381   1.108  0.2923 -2.1810  0.7726
   88MPD2     N 1378   4.346   3.597   0.968  0.2565  0.2659  0.0018
   88MPD2    H5 1379   4.378   3.681   1.015 -0.4741  0.5334  0.0111
   88MPD2    N1 1380   4.414   3.110   0.919 -0.4824  0.6418 -0.1516
   88MPD2    H7 1381   4.473   3.029   0.931 -1.7719 -0.4435 -1.1289
   89TMC2    C1 1382   4.695   1.930   1.617 -0.4807  0.3449 -0.2058
   89TMC2    C2 1383   4.723   1.844   1.513 -0.3636 -1.1446 -0.1802
   89TMC2    C3 1384   0.020   1.904   1.396  0.8275  0.1067 -0.3888
   89TMC2    C4 1385   4.706   2.062   1.603 -0.0242  0.4122 -0.9656
   89TMC2    C5 1386   0.013   2.115   1.491  0.1421 -0.2648 -0.2761
   89TMC2    C6 1387   0.040   2.041   1.380  0.5064  0.9832  0.0679
   89TMC2     C 1388   4.615   1.868   1.728  0.3042 -0.0298 -0.4344
   89TMC2     O 1389   4.620   1.747   1.739  0.2142  0.1846  0.2999
   89TMC2     H 1390   4.704   1.738   1.523  2.2309 -1.3881  2.1640
   89TMC2    H1 1391   4.701   2.128   1.689  0.8155  1.0397 -1.3937
   89TMC2    H2 1392   0.057   2.079   1.280 -0.6886 -0.3434 -0.6277
   89TMC2    C7 1393   0.091   2.235   1.504  1.2179 -0.2523 -0.3105
   89TMC2    C8 1394   0.055   1.826   1.275 -0.1197 -0.1575  0.0513
   89TMC2    O1 1395   0.073   2.322   1.586  0.3279 -0.3773 -0.6828
   89TMC2    O2 1396   0.136   1.859   1.190  0.0814  0.2992 -1.0862
   89TMC2    O5 1397   4.700   1.727   1.268 -0.2633 -0.0723  0.0678
   89TMC2    H5 1398   4.638   1.736   1.344 -0.0532 -0.5867  0.2975
   90MPD2     C 1399   4.265   1.917   2.101 -0.0943  0.0600 -0.0382
   90MPD2    C1 1400   4.327   1.806   2.045 -0.2663  0.0085 -0.2826
   90MPD2    C2 1401   4.418   1.812   1.939 -0.3241  0.7366 -0.3923
   90MPD2    C3 1402   4.453   1.938   1.896  0.0041  0.6788  0.2887
   90MPD2    C4 1403   4.402   2.056   1.956 -0.4791  0.3376  0.2271
   90MPD2    C5 1404   4.306   2.040   2.052  0.9296  0.2294 -0.5517
   90MPD2     H 1405   4.459   1.719   1.903  0.5603  1.8025 -2.1016
   90MPD2    H1 1406   4.417   2.156   1.916  1.8411 -0.1034 -0.0138
   90MPD2    H2 1407   4.197   1.917   2.186 -0.4387 -0.5298 -0.3186
   90MPD2    H3 1408   4.271   2.133   2.095  0.1645 -1.2094  1.8879
   90MPD2     N 1409   4.538   1.961   1.787  0.0836  0.0230 -0.7634
   90MPD2    H5 1410   4.567   2.056   1.764  1.0477 -0.4300 -1.4084
   90MPD2    N1 1411   4.302   1.671   2.087 -0.0917 -0.6647 -0.0678
   90MPD2    H7 1412   4.358   1.605   2.033 -1.5504 -0.5673 -1.7085
   91TMC2    C1 1413   2.065   0.583  15.635 -0.3665 -0.5550 -0.0113
   91TMC2    C2 1414   2.074   0.518  15.516 -0.3112  0.2197  0.2326
   91TMC2    C3 1415   1.952   0.485  15.467 -0.1736  0.0804 -0.0851
   91TMC2    C4 1416   1.956   0.626  15.697 -0.0677 -0.1732 -0.0461
   91TMC2    C5 1417   1.841   0.609  15.635  0.6651  0.2372 -0.1033
   91TMC2    C6 1418   1.839   0.538  15.515 -0.0994  0.1681 -0.3985
   91TMC2     C 1419   2.182   0.649  15.690  0.2586 -0.6782 -0.2369
   91TMC2     O 1420   2.202   0.666  15.809  0.2309  0.3088 -0.4284
   91TMC2     H 1421   2.169   0.485  15.475 -1.1761 -2.0981  0.0913
   91TMC2    H1 1422   1.966   0.682  15.789 -0.7144  0.3929 -0.3180
   91TMC2    H2 1423   1.746   0.538  15.461 -1.3587  3.0735  1.7376
   91TMC2    C7 1424   1.729   0.681  15.692 -0.5154  0.3209  0.2555
   91TMC2    C8 1425   1.931   0.475  15.327 -0.1497 -0.1211  0.0956
   91TMC2    O1 1426   1.757   0.736  15.798  0.9235 -0.2051  0.3697
   91TMC2    O2 1427   1.866   0.556  15.258 -0.4808  0.1749 -0.4762
   91TMC2    O5 1428   2.010   0.380  15.274  0.1170  0.1404  0.1515
   91TMC2    H5 1429   2.057   0.324  15.339 -0.9212 -0.2114  0.6061
   92MPD2     C 1430   2.436   0.796  15.464 -0.0368  0.3321 -0.2654
   92MPD2    C1 1431   2.366   0.773  15.586  0.1308  0.5452 -0.4194
   92MPD2    C2 1432   2.402   0.850  15.701  0.2462  0.1756  0.0341
   92MPD2    C3 1433   2.505   0.935  15.688 -0.4492 -0.0595  0.1498
   92MPD2    C4 1434   2.579   0.951  15.575 -0.1514  0.5495  0.1720
   92MPD2    C5 1435   2.546   0.877  15.469 -0.2560 -0.0927  0.6808
   92MPD2     H 1436   2.344   0.844  15.792  1.7554  1.2959  1.0784
   92MPD2    H1 1437   2.649   1.034  15.566  2.0313 -1.3856 -0.5016
   92MPD2    H2 1438   2.423   0.757  15.364 -1.8729  1.2518 -0.3903
   92MPD2    H3 1439   2.615   0.887  15.386 -2.7143 -0.6648 -1.4299
   92MPD2     N 1440   2.542   1.025  15.797 -0.3269  0.5139  0.1961
   92MPD2    H5 1441   2.476   1.023  15.874 -3.1521  1.9212 -2.2015
   92MPD2    N1 1442   2.249   0.692  15.584  0.4771  0.5599  0.3900
   92MPD2    H7 1443   2.221   0.653  15.494  0.9927 -1.1856  0.9976
   93TMC2    C1 1444   4.020   1.389  13.870 -0.0025  0.2371  0.0488
   93TMC2    C2 1445   4.026   1.354  14.006 -0.6223  0.1826  0.1343
   93TMC2    C3 1446   4.145   1.356  14.071  0.8085  0.2777  0.1851
   93TMC2    C4 1447   4.131   1.431  13.804 -0.1889 -0.1908  0.8261
   93TMC2    C5 1448   4.244   1.446  13.878 -0.2036 -0.2879 -0.3263
   93TMC2    C6 1449   4.249   1.398  14.002 -0.6186 -0.8665 -1.1591
   93TMC2     C 1450   3.903   1.356  13.787  0.4056  0.4617  0.7522
   93TMC2     O 1451   3.922   1.362  13.669 -0.2201 -0.6384 -0.9822
   93TMC2     H 1452   3.939   1.312  14.056 -0.7218  0.6783  0.3731
   93TMC2    H1 1453   4.115   1.464  13.703 -2.4704  2.8393  2.1750
   93TMC2    H2 1454   4.346   1.396  14.051 -1.3417  0.2770  0.3139
   93TMC2    C7 1455   4.368   1.449  13.808 -0.2945 -0.2534 -0.0724
   93TMC2    C8 1456   4.167   1.329  14.209 -0.0562 -0.7911 -0.2280
   93TMC2    O1 1457   4.450   1.369  13.848 -0.1352  0.4221  0.0445
   93TMC2    O2 1458   4.274   1.318  14.265  0.3913 -0.8423  0.5756
   93TMC2    O5 1459   4.048   1.348  14.272 -0.2800 -0.0281 -0.1702
   93TMC2    H5 1460   3.983   1.394  14.215 -1.2593  0.2397  1.1625
   94MPD2     C 1461   3.695   1.177  13.676 -0.0179  0.1383 -0.8361
   94MPD2    C1 1462   3.693   1.223  13.808 -0.1733  0.7903 -0.3141
   94MPD2    C2 1463   3.589   1.192  13.888  0.4436  0.2439  0.2940
   94MPD2    C3 1464   3.489   1.107  13.840 -0.0619  0.1771 -0.6016
   94MPD2    C4 1465   3.491   1.060  13.708  0.3033 -0.6873 -0.0980
   94MPD2    C5 1466   3.595   1.097  13.631  0.1834  0.2263 -0.3871
   94MPD2     H 1467   3.588   1.232  13.989 -0.4985 -1.1624  0.8355
   94MPD2    H1 1468   3.416   0.992  13.668 -0.0083  0.9574 -2.3499
   94MPD2    H2 1469   3.776   1.203  13.609  2.8847 -0.1032  2.5762
   94MPD2    H3 1470   3.597   1.060  13.529 -3.0845 -0.1796 -0.3134
   94MPD2     N 1471   3.364   1.092  13.912 -0.8608  0.0070  0.1991
   94MPD2    H5 1472   3.294   1.039  13.862  1.2306 -1.9427 -0.6268
   94MPD2    N1 1473   3.802   1.301  13.859 -0.1878 -0.2105 -0.2569
   94MPD2    H7 1474   3.793   1.325  13.957  0.5767 -0.0917 -0.2230
   95TMC2    C1 1475   3.667   2.957  15.520 -0.3584  0.2686  0.0917
   95TMC2    C2 1476   3.589   3.004  15.627 -0.7162  0.8726  0.1118
   95TMC2    C3 1477   3.480   2.932  15.661  0.0038 -1.0280  0.6450
   95TMC2    C4 1478   3.654   2.827  15.467 -0.3352  0.3116 -0.4307
   95TMC2    C5 1479   3.542   2.763  15.509  0.2729 -0.2064  0.8522
   95TMC2    C6 1480   3.454   2.813  15.602  0.4756  0.5354 -0.1594
   95TMC2     C 1481   3.771   3.040  15.467  0.3310  0.0913 -0.1308
   95TMC2     O 1482   3.829   2.986  15.374 -0.6081 -0.1806  0.0363
   95TMC2     H 1483   3.601   3.101  15.674 -0.9448  1.1422 -0.3891
   95TMC2    H1 1484   3.727   2.795  15.393 -1.0401 -0.2707 -0.8789
   95TMC2    H2 1485   3.353   2.775  15.608  0.2398  0.6849 -3.2169
   95TMC2    C7 1486   3.481   2.658  15.419 -0.1585 -1.0125  0.4717
   95TMC2    C8 1487   3.368   2.984  15.743  0.3865 -0.6198  0.0227
   95TMC2    O1 1488   3.361   2.646  15.426 -0.1302  0.4809 -0.4296
   95TMC2    O2 1489   3.294   2.910  15.809 -0.1505  0.0261 -0.3630
   95TMC2    O5 1490   3.380   3.121  15.755  0.5847 -0.0856 -0.1863
   95TMC2    H5 1491   3.438   3.163  15.688  3.1256  1.7872  3.2117
   96MPD2     C 1492   4.017   3.497  15.444  0.8097 -0.0986 -0.3037
   96MPD2    C1 1493   4.045   3.378  15.385 -0.0112 -0.0866  0.4160
   96MPD2    C2 1494   3.967   3.267  15.417 -0.1184 -0.6532  0.0258
   96MPD2    C3 1495   3.856   3.278  15.494 -0.3696  0.0319 -0.6516
   96MPD2    C4 1496   3.831   3.398  15.559  0.2308 -0.6713 -0.5881
   96MPD2    C5 1497   3.920   3.504  15.542  0.2245  0.1669 -0.2148
   96MPD2     H 1498   3.986   3.169  15.376  0.2953  0.0234 -1.4061
   96MPD2    H1 1499   3.759   3.394  15.641  0.6658 -3.3976 -0.3212
   96MPD2    H2 1500   4.090   3.575  15.425 -0.0200  0.4453 -1.2293
   96MPD2    H3 1501   3.907   3.596  15.599 -0.2149 -1.2040  1.9209
   96MPD2     N 1502   3.770   3.172  15.521 -0.3684  0.2230 -0.3862
   96MPD2    H5 1503   3.679   3.187  15.563 -1.2616 -0.3373 -2.0801
   96MPD2    N1 1504   4.147   3.363  15.286  0.2664  0.2582 -0.2889
   96MPD2    H7 1505   4.212   3.440  15.272  1.6670 -0.7504  0.7004
   97TMC2    C1 1506   1.386   1.019   0.242  0.0022 -0.0962  0.1849
   97TMC2    C2 1507   1.318   0.949   0.152 -0.1305 -0.5028  0.9265
   97TMC2    C3 1508   1.352   0.978   0.022  0.3402 -0.0444  0.5473
   97TMC2    C4 1509   1.500   1.095   0.218  0.4022 -0.1204  0.2440
   97TMC2    C5 1510   1.535   1.105   0.092  0.5034 -0.6543  0.0087
   97TMC2    C6 1511   1.457   1.054  17.739  0.1195 -0.4530  0.3786
   97TMC2     C 1512   1.331   1.033   0.378 -0.1854  0.3687  0.1058
   97TMC2     O 1513   1.404   1.080   0.466 -0.0303  0.4382  0.2928
   97TMC2     H 1514   1.244   0.874   0.179 -0.5497 -0.9991 -1.5774
   97TMC2    H1 1515   1.540   1.155   0.299  0.3557 -0.3070  0.4051
   97TMC2    H2 1516   1.469   1.074  17.633 -0.6451  0.1573  0.4154
   97TMC2    C7 1517   1.647   1.200   0.065  0.0661  0.0754 -0.9421
   97TMC2    C8 1518   1.287   0.899  17.673  0.0470 -0.1263 -0.4207
   97TMC2    O1 1519   1.702   1.249   0.163  0.4156 -0.0067  0.0581
   97TMC2    O2 1520   1.357   0.864  17.580 -0.1772  0.6127 -0.2671
   97TMC2    O5 1521   1.154   0.884  17.702  0.0884 -0.2698 -0.6346
   97TMC2    H5 1522   1.124   0.927   0.035 -3.2196  1.4655 -2.7752
   98MPD2     C 1523   0.961   0.982   0.735  0.2522  0.0410 -0.2962
   98MPD2    C1 1524   1.075   1.051   0.738 -0.0857  0.0573  0.0820
   98MPD2    C2 1525   1.163   1.055   0.626 -0.1909 -0.6420  0.6914
   98MPD2    C3 1526   1.124   0.987   0.513 -0.4196 -0.2080 -0.4681
   98MPD2    C4 1527   1.005   0.913   0.511  0.1454 -0.9910  0.2253
   98MPD2    C5 1528   0.927   0.906   0.627  0.3954 -0.5386 -1.0607
   98MPD2     H 1529   1.256   1.109   0.632 -0.4281 -0.1354 -0.2066
   98MPD2    H1 1530   0.968   0.851   0.430  0.8875  1.2144 -1.7878
   98MPD2    H2 1531   0.898   0.971   0.823 -0.1105 -0.2864 -0.5937
   98MPD2    H3 1532   0.839   0.844   0.633  0.3309 -0.5838 -2.4261
   98MPD2     N 1533   1.203   0.989   0.394 -0.6891 -0.0663 -0.1970
   98MPD2    H5 1534   1.152   0.959   0.311 -1.5218  0.6834  0.0330
   98MPD2    N1 1535   1.102   1.119   0.863  0.6271 -0.7041  0.1762
   98MPD2    H7 1536   1.032   1.102   0.933  0.4957  0.7574  0.4080
   99TMC2    C1 1537   4.635   2.607   1.503  0.0743 -0.1854  0.2195
   99TMC2    C2 1538   4.690   2.676   1.609 -0.0427  0.2825  0.4590
   99TMC2    C3 1539   4.610   2.698   1.717 -0.9312 -0.1131  0.1524
   99TMC2    C4 1540   4.499   2.581   1.500  0.2668 -0.6055  0.5897
   99TMC2    C5 1541   4.427   2.605   1.614 -0.0369  0.0271  0.6774
   99TMC2    C6 1542   4.481   2.663   1.725  0.2594 -0.0731 -0.3442
   99TMC2     C 1543   4.707   2.602   1.378  0.8011  0.9207 -0.0364
   99TMC2     O 1544   0.064   2.680   1.366  0.0390 -0.4835 -0.4212
   99TMC2     H 1545   0.056   2.705   1.616 -0.0995  0.7099 -0.5825
   99TMC2    H1 1546   4.454   2.564   1.403  0.2141 -0.2211  0.5480
   99TMC2    H2 1547   4.422   2.672   1.816 -1.5367 -0.0746 -1.4919
   99TMC2    C7 1548   4.281   2.605   1.619  0.2240  0.6941 -0.1192
   99TMC2    C8 1549   4.674   2.766   1.827 -0.3469 -0.1433 -0.7363
   99TMC2    O1 1550   4.218   2.672   1.699  0.5302 -0.5933 -0.0274
   99TMC2    O2 1551   0.053   2.734   1.864  0.0431  0.5168 -0.4511
   99TMC2    O5 1552   4.570   2.840   1.883 -0.4698  0.4152  0.0638
   99TMC2    H5 1553   4.489   2.851   1.828 -0.3535 -2.0231 -0.6162
  100MPD2     C 1554   0.094   2.510   1.122  0.1093 -0.5881 -0.7900
  100MPD2    C1 1555   4.732   2.448   1.193  0.1018 -0.2032 -0.0591
  100MPD2    C2 1556   4.681   2.328   1.147  0.4033 -1.2487 -0.5703
  100MPD2    C3 1557   4.735   2.269   1.040 -0.3337 -0.6443  0.2203
  100MPD2    C4 1558   0.099   2.325   0.969 -0.4628 -0.0418  0.7439
  100MPD2    C5 1559   0.145   2.451   1.012  0.4029 -0.2264 -0.1599
  100MPD2     H 1560   4.598   2.278   1.196  0.9798 -2.0953 -0.4433
  100MPD2    H1 1561   0.142   2.288   0.876 -1.8593 -0.3171  0.2163
  100MPD2    H2 1562   0.139   2.604   1.152  0.8007 -0.5704 -1.8696
  100MPD2    H3 1563   0.229   2.502   0.968 -0.1512 -1.2356 -2.3743
  100MPD2     N 1564   4.690   2.140   1.007 -0.3859 -0.2028  0.4831
  100MPD2    H5 1565   4.592   2.116   1.021 -0.4999 -0.5456 -0.8970
  100MPD2    N1 1566   4.664   2.500   1.303 -0.5684 -0.1891  0.1971
  100MPD2    H7 1567   4.586   2.445   1.339  0.2200 -1.1753  0.3959
  101TMC2    C1 1568   1.561   3.514  13.140 -0.0492 -0.2494  0.5358
  101TMC2    C2 1569   1.609   3.571  13.255  0.0109 -0.5884 -0.2286
  101TMC2    C3 1570   1.673   3.689  13.236  0.3070  0.6478  0.6345
  101TMC2    C4 1571   1.575   3.576  13.017 -0.6530 -0.2888  0.8508
  101TMC2    C5 1572   1.664   3.683  13.008 -0.7140  0.3899 -0.1152
  101TMC2    C6 1573   1.716   3.745  13.115  0.1745 -0.6226 -0.1703
  101TMC2     C 1574   1.469   3.397  13.160 -0.3073 -0.0300 -0.4511
  101TMC2     O 1575   1.406   3.384  13.263  0.1660 -0.1138 -0.4999
  101TMC2     H 1576   1.583   3.531  13.353 -0.0135  1.6242  0.6836
  101TMC2    H1 1577   1.509   3.539  12.940 -1.1882 -0.3992  1.3662
  101TMC2    H2 1578   1.780   3.831  13.111 -0.3617 -0.2243 -0.1851
  101TMC2    C7 1579   1.698   3.740  12.875  0.0497  0.3806  0.5537
  101TMC2    C8 1580   1.764   3.734  13.338 -0.7060  0.2104  0.1717
  101TMC2    O1 1581   1.775   3.832  12.874  0.5687  0.4837 -0.2703
  101TMC2    O2 1582   1.875   3.776  13.324 -0.4691  0.1520  0.0869
  101TMC2    O5 1583   1.704   3.702  13.455 -0.4111 -0.0312  0.9051
  101TMC2    H5 1584   1.606   3.703  13.445 -0.5097 -1.5131  1.8263
  102MPD2     C 1585   1.428   3.107  12.922  0.1890  0.4018  0.2832
  102MPD2    C1 1586   1.401   3.191  13.028  0.9223 -0.8924  0.1639
  102MPD2    C2 1587   1.297   3.155  13.109  0.1838  0.0011  0.5472
  102MPD2    C3 1588   1.217   3.043  13.089  0.9972  0.6444 -0.2653
  102MPD2    C4 1589   1.240   2.963  12.980  0.0088 -0.0240 -0.1835
  102MPD2    C5 1590   1.343   3.002  12.898 -0.4545 -0.2952  0.0140
  102MPD2     H 1591   1.285   3.203  13.206  0.8863  0.5045  0.3845
  102MPD2    H1 1592   1.176   2.880  12.952  0.2877 -1.3501  3.1301
  102MPD2    H2 1593   1.513   3.124  12.858 -1.5522  0.5905 -1.9825
  102MPD2    H3 1594   1.354   2.917  12.832  0.9221 -0.5094  0.5324
  102MPD2     N 1595   1.102   3.025  13.177 -0.1930  0.1855  0.8711
  102MPD2    H5 1596   1.101   3.081  13.261  2.7809  1.1570  0.2392
  102MPD2    N1 1597   1.481   3.308  13.053 -0.0079  0.3844  0.0605
  102MPD2    H7 1598   1.548   3.325  12.979 -0.9787 -0.2165 -0.9720
  103TMC2    C1 1599   3.992   3.441  12.616  0.1951 -0.8766 -0.5447
  103TMC2    C2 1600   4.089   3.535  12.617  0.1894 -0.5604 -0.1874
  103TMC2    C3 1601   4.181   3.546  12.716  0.4654  1.0043 -0.2180
  103TMC2    C4 1602   3.967   3.368  12.733 -0.0272  0.1624 -0.2187
  103TMC2    C5 1603   4.063   3.382  12.836 -0.1534  0.5525 -0.6780
  103TMC2    C6 1604   4.175   3.464  12.819  0.0138  0.9482  0.0906
  103TMC2     C 1605   3.906   3.425  12.503 -0.2584 -0.2990  0.3293
  103TMC2     O 1606   3.892   3.522  12.430 -0.3063 -0.5565 -0.2005
  103TMC2     H 1607   4.115   3.589  12.527  0.8283  0.7359  0.7871
  103TMC2    H1 1608   3.878   3.309  12.750  0.7647 -0.7070  0.9212
  103TMC2    H2 1609   4.259   3.463  12.887  0.1611  1.3109 -0.0837
  103TMC2    C7 1610   4.044   3.297  12.949 -0.6317 -0.3074  0.3277
  103TMC2    C8 1611   4.305   3.624  12.707  0.2065  0.2006  0.1048
  103TMC2    O1 1612   3.928   3.255  12.970 -0.1103 -0.1295 -0.0456
  103TMC2    O2 1613   4.406   3.590  12.766  0.0677 -0.3615  0.4946
  103TMC2    O5 1614   4.291   3.740  12.635  0.2510  0.0632 -0.3244
  103TMC2    H5 1615   4.212   3.754  12.578  0.0761  1.5069  0.2615
  104MPD2     C 1616   3.748   3.130  12.384 -0.7308 -0.1246 -0.0950
  104MPD2    C1 1617   3.754   3.264  12.400 -0.9506  0.7714  0.2393
  104MPD2    C2 1618   3.664   3.343  12.338  0.1694 -0.1186 -0.0772
  104MPD2    C3 1619   3.558   3.282  12.266  0.4985 -0.9082 -0.4228
  104MPD2    C4 1620   3.558   3.150  12.238 -0.1107  0.4309  0.2175
  104MPD2    C5 1621   3.656   3.074  12.300 -0.1241  0.3167 -0.0890
  104MPD2     H 1622   3.661   3.451  12.345 -1.8260 -0.1509 -0.2301
  104MPD2    H1 1623   3.475   3.103  12.185 -1.9850  1.5766  2.1455
  104MPD2    H2 1624   3.820   3.063  12.431 -0.2474  0.3463 -0.1624
  104MPD2    H3 1625   3.670   2.966  12.296 -0.5625  0.3006 -1.1503
  104MPD2     N 1626   3.454   3.369  12.222  0.2872 -0.1156  0.4786
  104MPD2    H5 1627   3.466   3.468  12.241 -0.9561  0.2793 -0.7996
  104MPD2    N1 1628   3.857   3.301  12.488 -0.4916 -0.1608  0.6447
  104MPD2    H7 1629   3.890   3.226  12.549  1.4362 -0.1094 -0.3339
  105TMC2    C1 1630   0.310   2.482  17.648 -0.0663  0.5313  0.0423
  105TMC2    C2 1631   0.192   2.503  17.577  0.3106  0.0886  0.4507
  105TMC2    C3 1632   0.073   2.515  17.646 -0.2216 -0.0544  0.4082
  105TMC2    C4 1633   0.307   2.457   0.029 -0.0832  0.4809 -0.3996
  105TMC2    C5 1634   0.187   2.472   0.092  0.1985  0.1917 -0.3881
  105TMC2    C6 1635   0.069   2.495   0.031  0.7647  0.6367 -0.3459
  105TMC2     C 1636   0.444   2.510  17.594  1.1499  0.2421 -0.1296
  105TMC2     O 1637   0.539   2.435  17.624 -0.0818 -0.2114 -0.2831
  105TMC2     H 1638   0.182   2.491  17.470 -1.9675  1.1052  0.5383
  105TMC2    H1 1639   0.397   2.467   0.088 -0.4300  0.4698  0.1353
  105TMC2    H2 1640   4.717   2.483   0.090  1.5443 -0.6596  0.5759
  105TMC2    C7 1641   0.197   2.472   0.234  0.1099  0.1064 -0.5300
  105TMC2    C8 1642   4.697   2.465  17.580 -0.4381  0.1924  0.0278
  105TMC2    O1 1643   0.272   2.390   0.283  0.6948 -0.4584  0.1170
  105TMC2    O2 1644   4.620   2.387  17.633 -0.4117  0.1702 -0.3901
  105TMC2    O5 1645   4.672   2.558  17.495  0.1598  0.5336  0.1096
  105TMC2    H5 1646   0.009   2.621  17.493 -0.1401  0.9040  0.6761
  106MPD2     C 1647   0.682   2.633  17.142 -0.1326  0.1238 -0.2545
  106MPD2    C1 1648   0.559   2.697  17.150  0.0512 -0.6170  1.1059
  106MPD2    C2 1649   0.474   2.677  17.260 -0.2415 -0.2319  0.2540
  106MPD2    C3 1650   0.516   2.596  17.371 -1.1859 -0.6370  0.3528
  106MPD2    C4 1651   0.647   2.541  17.362  0.0353 -0.3824 -0.4402
  106MPD2    C5 1652   0.725   2.557  17.246  0.1594 -0.2454  0.3769
  106MPD2     H 1653   0.377   2.725  17.266  0.3629  1.2283 -1.9579
  106MPD2    H1 1654   0.694   2.482  17.440 -0.2697  1.9843  1.5400
  106MPD2    H2 1655   0.753   2.646  17.061  2.2116 -0.6209  1.6774
  106MPD2    H3 1656   0.824   2.512  17.235 -0.6317 -2.3295  1.8021
  106MPD2     N 1657   0.430   2.582  17.476 -0.3483 -0.1090  0.7993
  106MPD2    H5 1658   0.344   2.633  17.458 -1.4263 -1.3501  2.4182
  106MPD2    N1 1659   0.504   2.784  17.052  0.3815  0.3523 -0.1571
  106MPD2    H7 1660   0.417   2.833  17.072 -0.0382 -1.0248  1.3851
  107TMC2    C1 1661   1.068   2.795  11.791 -0.2433 -0.9174  0.7173
  107TMC2    C2 1662   1.032   2.782  11.660 -0.0601  0.0487  0.1299
  107TMC2    C3 1663   1.104   2.680  11.588  0.4126  0.2942 -0.2220
  107TMC2    C4 1664   1.160   2.714  11.852 -0.2103 -0.5609  0.1265
  107TMC2    C5 1665   1.224   2.618  11.779  0.1971  0.9458 -0.8322
  107TMC2    C6 1666   1.201   2.601  11.643 -0.3495  0.6927 -0.4748
  107TMC2     C 1667   0.972   2.849  11.885 -0.4336 -0.1848 -0.6630
  107TMC2     O 1668   1.015   2.869  11.997  0.0744 -0.4173 -0.0931
  107TMC2     H 1669   0.973   2.857  11.607 -1.3109 -1.0333 -0.0159
  107TMC2    H1 1670   1.170   2.722  11.960  1.5042  1.8149 -0.2144
  107TMC2    H2 1671   1.241   2.516  11.590  0.2015  0.2764  0.6102
  107TMC2    C7 1672   1.319   2.543  11.855 -0.1615 -0.2601  0.0061
  107TMC2    C8 1673   1.087   2.665  11.443 -0.3709 -0.1958  0.4379
  107TMC2    O1 1674   1.308   2.539  11.973  0.1911 -0.1257  0.6555
  107TMC2    O2 1675   0.978   2.688  11.398 -0.0081 -0.1432  0.0025
  107TMC2    O5 1676   1.195   2.735  11.397  0.0103 -0.8163 -0.0707
  107TMC2    H5 1677   1.250   2.767  11.471  1.0827  1.2964 -1.7760
  108MPD2     C 1678   0.595   2.853  11.843  0.1530 -0.7346  0.4674
  108MPD2    C1 1679   0.715   2.866  11.911  0.4077  0.1031  0.1951
  108MPD2    C2 1680   0.719   2.894  12.053  0.2361  0.0021  0.8632
  108MPD2    C3 1681   0.599   2.925  12.115  0.6910 -0.3394 -0.1647
  108MPD2    C4 1682   0.485   2.924  12.043  0.0653 -0.0032  0.0483
  108MPD2    C5 1683   0.480   2.870  11.915  0.5350  0.6730 -0.3732
  108MPD2     H 1684   0.817   2.890  12.100  1.7359 -1.0360 -2.3314
  108MPD2    H1 1685   0.390   2.962  12.079  0.0276 -0.3817  0.3458
  108MPD2    H2 1686   0.604   2.837  11.736 -0.4562  2.7451 -0.0793
  108MPD2    H3 1687   0.385   2.871  11.862 -0.3953 -1.5066  1.2632
  108MPD2     N 1688   0.582   2.956  12.249 -0.1563 -0.3002  0.1275
  108MPD2    H5 1689   0.488   2.961  12.287  1.1016  3.3160  2.7452
  108MPD2    N1 1690   0.839   2.835  11.834  0.0205  0.1283 -0.3428
  108MPD2    H7 1691   0.826   2.798  11.741  1.1106 -4.3507  1.2935
  109TMC2    C1 1692   0.171   1.194   1.584  0.4125 -0.1571 -0.2157
  109TMC2    C2 1693   0.159   1.218   1.717 -0.0592 -0.7733  0.3474
  109TMC2    C3 1694   0.273   1.251   1.789  0.1686  0.3379 -1.0931
  109TMC2    C4 1695   0.292   1.202   1.526 -0.1965 -0.4316 -0.6121
  109TMC2    C5 1696   0.404   1.240   1.589 -0.0801 -0.0753 -0.3453
  109TMC2    C6 1697   0.394   1.258   1.725  0.9034  0.4751  0.2241
  109TMC2     C 1698   0.061   1.122   1.522 -0.1324 -0.2801 -0.0715
  109TMC2     O 1699   4.687   1.139   1.568 -0.4956  0.1216  0.2677
  109TMC2     H 1700   0.072   1.193   1.777 -0.3505  0.7595  0.5816
  109TMC2    H1 1701   0.287   1.198   1.418  1.1955 -1.0283 -0.6592
  109TMC2    H2 1702   0.485   1.279   1.779  0.2803  1.7163  0.7807
  109TMC2    C7 1703   0.516   1.301   1.523  0.0104  0.1278 -0.3395
  109TMC2    C8 1704   0.272   1.232   1.931  0.2578  0.0872  0.0137
  109TMC2    O1 1705   0.525   1.276   1.401  0.0167 -0.5994  0.1718
  109TMC2    O2 1706   0.177   1.181   1.989  0.4119 -0.3242 -0.1420
  109TMC2    O5 1707   0.336   1.344   1.979 -0.4159 -0.4744  0.2273
  109TMC2    H5 1708   0.364   1.403   1.906  0.4695  0.1780  1.0834
  110MPD2     C 1709   4.616   0.805   1.161  0.8851  0.0821 -0.5478
  110MPD2    C1 1710   0.015   0.825   1.135 -0.3966  0.2798  0.4521
  110MPD2    C2 1711   0.080   0.915   1.213  0.3245  0.3630  0.5667
  110MPD2    C3 1712   0.022   0.982   1.322 -0.1417 -0.2672 -0.1721
  110MPD2    C4 1713   4.625   0.970   1.342  0.3305  0.7126 -0.5046
  110MPD2    C5 1714   4.554   0.884   1.265  0.0189  0.8530 -0.1757
  110MPD2     H 1715   0.187   0.910   1.202  0.0496 -2.0167 -1.0124
  110MPD2    H1 1716   4.575   1.022   1.422  1.1856  2.3056 -1.0106
  110MPD2    H2 1717   4.562   0.723   1.115 -0.7468  0.2778  1.0402
  110MPD2    H3 1718   4.449   0.867   1.286  0.3570 -1.3439 -0.2948
  110MPD2     N 1719   0.104   1.056   1.408 -0.3650  0.2857  0.5738
  110MPD2    H5 1720   0.203   1.039   1.392 -0.0746  0.6289  1.9821
  110MPD2    N1 1721   0.073   0.746   1.030 -0.1863  0.2690 -0.7538
  110MPD2    H7 1722   0.010   0.694   0.970  0.9217 -0.6682 -1.1068
  111TMC2    C1 1723   1.049   4.601  11.681 -1.3937  0.2396  0.1789
  111TMC2    C2 1724   0.950   4.594  11.766 -0.4744 -0.8136  0.0366
  111TMC2    C3 1725   0.961   4.496  11.858 -1.0454  0.8277 -0.0278
  111TMC2    C4 1726   1.160   4.524  11.684 -0.8816 -0.7047  0.2460
  111TMC2    C5 1727   1.172   4.423  11.780 -0.4342  0.7023 -0.6576
  111TMC2    C6 1728   1.072   4.409  11.867  0.0299 -0.5704 -0.2754
  111TMC2     C 1729   1.049   4.696  11.572  0.2849  1.1982 -0.2785
  111TMC2     O 1730   1.111   4.668  11.473 -0.8529 -0.2648 -0.2723
  111TMC2     H 1731   0.865   4.659  11.749 -0.1097  0.0585  1.5549
  111TMC2    H1 1732   1.243   4.555  11.622 -1.3511  1.2067  0.5632
  111TMC2    H2 1733   1.089   4.343  11.951  0.6752 -3.2594 -2.5318
  111TMC2    C7 1734   1.302   4.372  11.807  0.0610 -0.4920  0.0750
  111TMC2    C8 1735   0.854   4.481  11.946 -0.3396 -0.2132 -0.2435
  111TMC2    O1 1736   1.324   4.330  11.918 -0.3777  0.4926  0.3605
  111TMC2    O2 1737   0.817   4.381  12.002 -0.5313 -0.3531  0.3275
  111TMC2    O5 1738   0.789   4.604  11.963  0.7996  0.1275 -0.0068
  111TMC2    H5 1739   0.839   4.683  11.933 -0.7652  0.7690 -0.8898
  112MPD2     C 1740   0.819   0.352  11.360  0.4377  0.0146 -0.0649
  112MPD2    C1 1741   0.886   0.246  11.298 -0.1193  0.7127  0.5298
  112MPD2    C2 1742   0.934   0.148  11.382 -0.4811  0.1848  0.0997
  112MPD2    C3 1743   0.930   0.168  11.518 -0.6504  0.2130 -0.0647
  112MPD2    C4 1744   0.872   0.280  11.572  0.2222 -0.8439  0.4554
  112MPD2    C5 1745   0.814   0.373  11.490 -0.4378 -0.9579  1.3235
  112MPD2     H 1746   0.977   0.058  11.338  0.1807  0.1468  0.8101
  112MPD2    H1 1747   0.869   0.299  11.679  3.2752  0.1264  0.3699
  112MPD2    H2 1748   0.780   0.435  11.302 -0.4207 -1.0544 -0.9922
  112MPD2    H3 1749   0.763   0.462  11.524  1.2125 -0.4359  2.4257
  112MPD2     N 1750   0.979   0.076  11.604 -0.3530  0.6466 -0.1965
  112MPD2    H5 1751   0.942   0.084  11.699 -1.0485  0.9770 -0.4906
  112MPD2    N1 1752   0.890   0.227  11.162 -0.5818  0.0687  0.0797
  112MPD2    H7 1753   0.944   0.150  11.123  0.4781  0.3829  0.9194
  113TMC2    C1 1754   3.627   2.377   0.209 -0.4901 -0.0729 -0.0203
  113TMC2    C2 1755   3.614   2.495   0.137 -0.1135  0.0435  0.6873
  113TMC2    C3 1756   3.539   2.489   0.019 -0.2134 -0.5980 -0.0136
  113TMC2    C4 1757   3.577   2.261   0.152 -0.7302 -0.4115 -0.6329
  113TMC2    C5 1758   3.516   2.264   0.026  0.6126  0.2577 -0.5083
  113TMC2    C6 1759   3.504   2.376  17.703  0.0033 -0.8546 -0.8303
  113TMC2     C 1760   3.697   2.385   0.334 -0.2263  0.1156  0.9370
  113TMC2     O 1761   3.710   2.499   0.379 -0.0781 -0.2819 -0.2985
  113TMC2     H 1762   3.654   2.588   0.176  0.5998  0.3432 -0.7679
  113TMC2    H1 1763   3.569   2.173   0.213  0.1058  0.3414  0.5470
  113TMC2    H2 1764   3.450   2.383  17.609 -1.8342  1.2109  0.4108
  113TMC2    C7 1765   3.461   2.149  17.708 -0.1576  0.3143  0.3779
  113TMC2    C8 1766   3.518   2.610  17.705 -0.5705  0.3529  0.8103
  113TMC2    O1 1767   3.407   2.156  17.597 -0.3795  0.2479  0.7187
  113TMC2    O2 1768   3.507   2.716   0.025  0.2398  0.5923 -0.6061
  113TMC2    O5 1769   3.542   2.601  17.565  0.5967 -0.1294  0.7315
  113TMC2    H5 1770   3.594   2.519  17.550 -0.5402 -0.4650 -1.4444
  114MPD2     C 1771   4.004   2.233   0.721  0.0502 -0.0935 -0.2355
  114MPD2    C1 1772   3.919   2.338   0.707  0.3707 -0.1381 -0.1817
  114MPD2    C2 1773   3.846   2.342   0.590  0.2942  0.4766 -0.3624
  114MPD2    C3 1774   3.843   2.247   0.492 -0.3426  0.1914  0.8090
  114MPD2    C4 1775   3.922   2.141   0.513 -0.0299 -0.4225  0.2393
  114MPD2    C5 1776   4.008   2.136   0.626 -0.9336  0.0026  0.6066
  114MPD2     H 1777   3.783   2.430   0.580 -2.0129 -1.2408 -0.7712
  114MPD2    H1 1778   3.933   2.059   0.443 -0.1848  2.0332 -2.6514
  114MPD2    H2 1779   4.050   2.200   0.814  0.8254 -2.3921 -1.4299
  114MPD2    H3 1780   4.083   2.058   0.621  0.2169  1.1241  0.1028
  114MPD2     N 1781   3.761   2.266   0.373  0.8145  0.0831 -0.9356
  114MPD2    H5 1782   3.750   2.187   0.309  0.4624 -1.0964  0.5899
  114MPD2    N1 1783   3.900   2.436   0.812 -0.2870  0.3920 -0.2249
  114MPD2    H7 1784   3.836   2.514   0.801  0.1529  0.6675 -0.8134
  115TMC2    C1 1785   0.041   0.510  17.735  0.0614 -0.3518  0.8293
  115TMC2    C2 1786   0.062   0.533   0.122 -0.3329  0.4762 -0.4183
  115TMC2    C3 1787   0.087   0.659   0.166  0.7345 -0.4557  0.3600
  115TMC2    C4 1788   0.051   0.620  17.650 -0.0909  0.6969 -0.2262
  115TMC2    C5 1789   0.093   0.747  17.695 -0.0938  0.0966 -0.5930
  115TMC2    C6 1790   0.108   0.766   0.079  0.2480  0.2989 -0.1666
  115TMC2     C 1791   4.735   0.384  17.671  0.6687 -0.7188 -0.2393
  115TMC2     O 1792   4.712   0.381  17.550  0.0181  0.3580  0.2956
  115TMC2     H 1793   0.041   0.456   0.194  1.5386  1.1983  0.9024
  115TMC2    H1 1794   0.042   0.603  17.543 -1.4571 -0.7692  0.1170
  115TMC2    H2 1795   0.120   0.865   0.120  0.6535  0.2903 -0.2658
  115TMC2    C7 1796   0.079   0.868  17.604  0.0267  0.0548 -0.6512
  115TMC2    C8 1797   0.101   0.677   0.306 -0.2603 -0.7291 -0.0449
  115TMC2    O1 1798   0.137   0.965  17.648  0.0351 -0.8087  0.3097
  115TMC2    O2 1799   0.042   0.617   0.395  0.2309  1.1973  0.4265
  115TMC2    O5 1800   0.224   0.734   0.307  0.0617  0.4394 -0.0924
  115TMC2    H5 1801   0.272   0.773   0.231  0.4092  1.2146  0.5187
  116MPD2     C 1802   0.003   4.626  17.707  0.1325  0.0513 -0.0964
  116MPD2    C1 1803   4.685   4.706  17.612 -0.0450 -0.1095 -0.7522
  116MPD2    C2 1804   4.684   0.108  17.626  0.1034 -0.9991 -0.4300
  116MPD2    C3 1805   4.718   0.158  17.747 -0.5132 -0.0400 -0.3318
  116MPD2    C4 1806   0.009   0.072   0.101  0.3789 -0.9443  0.4469
  116MPD2    C5 1807   0.023   4.679   0.085  0.4190  0.6223  0.4848
  116MPD2     H 1808   4.642   0.165  17.544  0.7610 -0.3915 -0.3459
  116MPD2    H1 1809   0.027   0.115   0.199  0.6649 -0.4146  0.1609
  116MPD2    H2 1810   0.001   4.519  17.693 -0.6094 -0.1929  2.0111
  116MPD2    H3 1811   0.040   4.613   0.169 -1.3106  0.0220  0.3625
  116MPD2     N 1812   4.721   0.293   0.021  0.6541  0.3864  0.6011
  116MPD2    H5 1813   4.728   0.315   0.120  1.0473  1.0465  0.4259
  116MPD2    N1 1814   4.632   4.637  17.503 -0.0943  0.8136  0.5109
  116MPD2    H7 1815   4.664   4.542  17.491  0.0727  0.7170  1.6835
  117TMC2    C1 1816   3.398   1.552  14.333 -0.7329 -0.4410 -0.0422
  117TMC2    C2 1817   3.513   1.480  14.321  0.1494 -0.2641  0.0209
  117TMC2    C3 1818   3.623   1.537  14.265  0.6681 -0.6249  0.3398
  117TMC2    C4 1819   3.402   1.686  14.307 -0.2286  0.1773  0.3320
  117TMC2    C5 1820   3.521   1.741  14.269  0.1011 -0.2389 -0.1873
  117TMC2    C6 1821   3.632   1.668  14.243  0.2682  0.0912  0.3893
  117TMC2     C 1822   3.273   1.482  14.343 -0.5395  0.6541  0.2955
  117TMC2     O 1823   3.260   1.379  14.408 -0.7116  0.3801 -0.2099
  117TMC2     H 1824   3.506   1.375  14.347  2.0389 -0.0743  1.3533
  117TMC2    H1 1825   3.321   1.750  14.340 -1.8363 -1.1966 -0.9890
  117TMC2    H2 1826   3.722   1.717  14.206  1.2581 -1.8683  0.2006
  117TMC2    C7 1827   3.540   1.890  14.263  0.5424 -0.0469  0.0214
  117TMC2    C8 1828   3.732   1.454  14.220 -0.2283  0.3258 -0.7487
  117TMC2    O1 1829   3.653   1.928  14.246 -0.7022  0.0119  0.6379
  117TMC2    O2 1830   3.843   1.493  14.187  0.0772 -0.1748  0.0760
  117TMC2    O5 1831   3.669   1.358  14.153  0.4649 -0.2371  0.3214
  117TMC2    H5 1832   3.581   1.389  14.124  1.0191 -0.4985 -1.6884
  118MPD2     C 1833   3.296   2.168  14.271 -0.6361 -0.7007 -0.1508
  118MPD2    C1 1834   3.415   2.105  14.259 -0.0997  0.6679  0.1401
  118MPD2    C2 1835   3.520   2.183  14.221  0.0330 -0.9144 -0.8275
  118MPD2    C3 1836   3.508   2.320  14.216  0.7945  0.0352 -0.4307
  118MPD2    C4 1837   3.386   2.382  14.232 -0.1478  0.0080  0.0717
  118MPD2    C5 1838   3.279   2.300  14.257 -0.0339 -0.0490  0.1179
  118MPD2     H 1839   3.613   2.141  14.186  0.8679  1.1780 -1.0961
  118MPD2    H1 1840   3.362   2.487  14.220 -1.1005 -0.5734 -2.9862
  118MPD2    H2 1841   3.201   2.117  14.287 -1.9166  0.9751 -2.4246
  118MPD2    H3 1842   3.177   2.332  14.272  0.5913  1.3113  1.3932
  118MPD2     N 1843   3.612   2.413  14.183  0.5604  0.1763  0.1302
  118MPD2    H5 1844   3.590   2.512  14.182 -0.3169 -0.0087  1.3196
  118MPD2    N1 1845   3.425   1.965  14.275  0.0696 -0.6527  0.4294
  118MPD2    H7 1846   3.338   1.911  14.277 -1.8326  2.3296 -2.5514
  119TMC2    C1 1847   1.891   2.864  13.384  0.1289 -0.2807 -0.4344
  119TMC2    C2 1848   1.939   2.899  13.261 -0.0043 -0.3733 -0.3434
  119TMC2    C3 1849   1.877   2.846  13.149 -0.8416 -0.2527 -0.4214
  119TMC2    C4 1850   1.789   2.780  13.403  0.6275 -0.7191 -0.3241
  119TMC2    C5 1851   1.736   2.722  13.286 -0.2081 -0.1525 -0.0963
  119TMC2    C6 1852   1.772   2.764  13.160  0.3586 -0.3948  0.4327
  119TMC2     C 1853   1.967   2.913  13.496  0.1164 -0.1201 -0.4025
  119TMC2     O 1854   1.914   2.901  13.604 -0.2194 -0.2371  0.2116
  119TMC2     H 1855   2.006   2.984  13.249 -1.5100  0.7591 -0.7272
  119TMC2    H1 1856   1.777   2.744  13.504  0.6661  1.8861  0.6060
  119TMC2    H2 1857   1.741   2.708  13.072  4.7743  0.6024 -1.7489
  119TMC2    C7 1858   1.671   2.595  13.298 -0.1054  0.0921 -0.2389
  119TMC2    C8 1859   1.905   2.904  13.020 -0.3100  0.3464  0.1529
  119TMC2    O1 1860   1.687   2.517  13.204 -0.6876 -0.4606 -0.6282
  119TMC2    O2 1861   2.015   2.925  12.969 -1.0157 -0.1864  0.0450
  119TMC2    O5 1862   1.799   2.980  13.001 -0.5790  0.2125 -0.4797
  119TMC2    H5 1863   1.727   2.960  13.065  1.9455  1.4323  2.7550
  120MPD2     C 1864   2.380   3.137  13.718  0.3522 -0.0745  0.4857
  120MPD2    C1 1865   2.247   3.133  13.758  0.0641 -0.3133  0.8575
  120MPD2    C2 1866   2.154   3.060  13.684  0.3645 -0.3333 -0.7922
  120MPD2    C3 1867   2.189   3.010  13.555  0.2414 -0.7327 -0.3981
  120MPD2    C4 1868   2.318   3.042  13.502  0.0140  0.1407 -0.3770
  120MPD2    C5 1869   2.410   3.087  13.593 -0.0375  1.1557 -0.0825
  120MPD2     H 1870   2.052   3.041  13.716  0.4403  1.1193  0.2709
  120MPD2    H1 1871   2.354   3.011  13.405  0.2651  0.0105 -0.2424
  120MPD2    H2 1872   2.467   3.169  13.775  1.9790 -0.1680 -1.9179
  120MPD2    H3 1873   2.515   3.082  13.566 -0.1665 -1.4985 -0.1295
  120MPD2     N 1874   2.093   2.950  13.467  0.6334  0.1528  0.4197
  120MPD2    H5 1875   2.132   2.930  13.375 -0.8250 -2.3533  0.3303
  120MPD2    N1 1876   2.213   3.208  13.870  0.0966 -0.1597  0.4609
  120MPD2    H7 1877   2.292   3.236  13.928 -0.1471 -1.4357  1.4204
  121TMC2    C1 1878   3.424   4.431  14.026  0.2037 -0.5591  0.3426
  121TMC2    C2 1879   3.384   4.458  14.154  0.1899  0.5305 -0.3820
  121TMC2    C3 1880   3.250   4.455  14.174 -0.1251 -0.1084  0.0575
  121TMC2    C4 1881   3.342   4.392  13.933 -0.4376 -0.4493 -0.0549
  121TMC2    C5 1882   3.205   4.393  13.953 -0.1786  0.0422  0.1238
  121TMC2    C6 1883   3.153   4.427  14.076 -0.6501  0.5066  0.2869
  121TMC2     C 1884   3.564   4.420  14.009  0.4241  0.5331 -0.2347
  121TMC2     O 1885   3.629   4.378  14.100 -0.2047 -0.3735  0.7049
  121TMC2     H 1886   3.456   4.475  14.233  0.7182  0.4908 -0.8510
  121TMC2    H1 1887   3.380   4.367  13.835  3.6879  0.2803  1.3425
  121TMC2    H2 1888   3.049   4.427  14.104 -0.7962 -1.4292 -0.2757
  121TMC2    C7 1889   3.121   4.369  13.837  0.2105 -0.1526  0.6543
  121TMC2    C8 1890   3.196   4.513  14.292 -0.5224  0.1918 -1.3615
  121TMC2    O1 1891   3.171   4.376  13.725 -0.5181 -0.1478 -0.0871
  121TMC2    O2 1892   3.264   4.519  14.395  0.3256  0.0202 -0.1777
  121TMC2    O5 1893   3.107   4.607  14.255  0.0202  0.7178  0.2632
  121TMC2    H5 1894   3.074   4.600  14.162 -2.6369 -2.0714  1.4259
  122MPD2     C 1895   3.841   4.349  13.883 -0.5037 -0.2190 -0.0930
  122MPD2    C1 1896   3.744   4.426  13.819 -0.1270  0.5176  0.3168
  122MPD2    C2 1897   3.762   4.474  13.689 -0.3741 -0.5740 -0.2639
  122MPD2    C3 1898   3.885   4.461  13.626  0.5452  0.2254  0.0462
  122MPD2    C4 1899   3.983   4.388  13.700  0.6737 -0.2169 -0.1876
  122MPD2    C5 1900   3.954   4.322  13.817  0.5032 -0.5902  0.7442
  122MPD2     H 1901   3.673   4.509  13.639 -0.1589  1.4524  0.7452
  122MPD2    H1 1902   4.076   4.358  13.652  0.9724 -1.5740  1.2473
  122MPD2    H2 1903   3.828   4.305  13.981 -3.3656 -1.6142 -1.0932
  122MPD2    H3 1904   4.031   4.264  13.867  2.6169  0.5752 -1.1467
  122MPD2     N 1905   3.919   4.511  13.495 -0.2061 -0.2546 -0.2019
  122MPD2    H5 1906   4.017   4.505  13.471 -0.1249  1.2442 -0.2727
  122MPD2    N1 1907   3.616   4.458  13.880 -0.2710 -0.1007  0.4639
  122MPD2    H7 1908   3.548   4.493  13.814  1.0436 -2.2807 -2.0598
  123TMC2    C1 1909   2.186   3.241   9.815  0.2071  0.1508  0.1732
  123TMC2    C2 1910   2.302   3.227   9.745 -0.4231  0.3746  0.1174
  123TMC2    C3 1911   2.310   3.285   9.618  0.0715  0.6057 -0.3599
  123TMC2    C4 1912   2.079   3.298   9.759 -0.0312  0.0865  0.3041
  123TMC2    C5 1913   2.086   3.354   9.637  0.0636  0.4835 -0.0095
  123TMC2    C6 1914   2.201   3.347   9.560 -0.1581 -0.6150 -0.5948
  123TMC2     C 1915   2.167   3.149   9.929 -0.2048 -0.2122 -0.0680
  123TMC2     O 1916   2.265   3.119   9.990  0.4034 -0.0787 -0.4461
  123TMC2     H 1917   2.385   3.180   9.796 -1.4799 -1.2710  0.3372
  123TMC2    H1 1918   1.984   3.302   9.811 -0.3944  0.6602 -0.4063
  123TMC2    H2 1919   2.207   3.380   9.457 -1.6575  2.1194  0.1945
  123TMC2    C7 1920   1.952   3.373   9.575 -0.1506  0.2269  0.7210
  123TMC2    C8 1921   2.415   3.250   9.528 -0.9892  0.2183  0.1306
  123TMC2    O1 1922   1.856   3.311   9.622 -0.5038 -0.0928 -0.6148
  123TMC2    O2 1923   2.466   3.318   9.439 -0.2850 -0.0894 -0.3872
  123TMC2    O5 1924   2.439   3.115   9.555 -0.6488 -0.6274 -0.0091
  123TMC2    H5 1925   2.371   3.063   9.602 -2.4563  0.9708 -0.8633
  124MPD2     C 1926   1.907   2.873  10.266 -0.0329  0.9192  0.3067
  124MPD2    C1 1927   1.830   2.893  10.150 -0.1414 -0.0972 -0.5608
  124MPD2    C2 1928   1.884   2.969  10.049 -0.8899  0.2008  0.4211
  124MPD2    C3 1929   2.007   3.023  10.059 -0.1402  0.3138 -0.4814
  124MPD2    C4 1930   2.087   3.005  10.171  0.2523  0.1350 -0.5063
  124MPD2    C5 1931   2.031   2.932  10.279 -0.9644 -0.1654  0.2017
  124MPD2     H 1932   1.828   2.986   9.957 -0.8574  0.4955  0.4566
  124MPD2    H1 1933   2.172   3.070  10.185  0.9120 -0.5054 -1.6203
  124MPD2    H2 1934   1.881   2.809  10.350  1.4238 -0.4418 -0.2771
  124MPD2    H3 1935   2.080   2.922  10.375 -0.5629 -0.4340 -0.0343
  124MPD2     N 1936   2.045   3.100   9.944 -0.7457  0.1603  0.4903
  124MPD2    H5 1937   1.976   3.116   9.872  0.4614  1.2852 -0.4214
  124MPD2    N1 1938   1.704   2.832  10.147  0.2380 -0.0405 -0.3096
  124MPD2    H7 1939   1.678   2.773  10.225  0.6641  1.3909  0.9139
  125TMC2    C1 1940   2.510   4.260   9.780 -0.8062 -0.1077 -0.0277
  125TMC2    C2 1941   2.591   4.343   9.856  0.4204 -0.8116 -0.4184
  125TMC2    C3 1942   2.669   4.438   9.792  0.5590 -0.0814 -0.1817
  125TMC2    C4 1943   2.508   4.274   9.645  0.2694  0.0470 -0.1170
  125TMC2    C5 1944   2.586   4.365   9.586  0.6156  0.6026 -0.3732
  125TMC2    C6 1945   2.661   4.458   9.653 -0.7456 -0.2090  0.0161
  125TMC2     C 1946   2.424   4.164   9.846  0.0901 -0.0463  0.4571
  125TMC2     O 1947   2.388   4.067   9.776 -0.0036 -0.3822 -0.3668
  125TMC2     H 1948   2.612   4.322   9.960 -0.8016 -0.3668 -0.0792
  125TMC2    H1 1949   2.430   4.223   9.588  0.8875  1.4571 -2.2229
  125TMC2    H2 1950   2.710   4.539   9.601 -1.6929 -1.0140 -2.1485
  125TMC2    C7 1951   2.599   4.360   9.440 -0.5315 -0.0725  0.3102
  125TMC2    C8 1952   2.748   4.526   9.865  0.6422  0.1758  0.1267
  125TMC2    O1 1953   2.519   4.295   9.377 -0.0188 -0.1663  0.0960
  125TMC2    O2 1954   2.846   4.567   9.800  0.1563 -0.2748  0.3234
  125TMC2    O5 1955   2.701   4.570   9.982  0.1433  0.2280 -0.4672
  125TMC2    H5 1956   2.619   4.522  10.005  1.2173 -1.0458  0.7237
  126MPD1     C 1957   2.104   4.071  10.237 -0.4143 -0.9125  0.0188
  126MPD1    C1 1958   2.182   4.180  10.264 -0.3518  0.3538 -0.3181
  126MPD1    C2 1959   2.285   4.212  10.177 -0.5777 -0.2611 -0.6436
  126MPD1    C3 1960   2.299   4.148  10.060  0.1062 -0.5439  0.1099
  126MPD1    C4 1961   2.217   4.044  10.023 -0.0944  0.0862  0.5387
  126MPD1    C5 1962   2.118   4.003  10.114  0.2108  0.2564  0.2326
  126MPD1     H 1963   2.349   4.294  10.207  0.4750 -1.8502  1.4351
  126MPD1    H1 1964   2.221   3.995   9.926  1.6705 -0.6475  0.9861
  126MPD1    H2 1965   2.035   4.034  10.313  1.2217 -3.0807  0.4597
  126MPD1    H3 1966   2.052   3.923  10.085  0.6168  0.0384 -0.0953
  126MPD1     N 1967   2.395   4.211   9.971 -0.3093  0.9804 -0.2479
  126MPD1    H5 1968   2.442   4.293  10.007  0.1051  0.9490 -0.7092
  126MPD1    N1 1969   2.188   4.223  10.398 -0.1850 -0.3259 -0.0395
  126MPD1    H6 1970   2.099   4.234  10.445  0.5624 -1.1829  1.5950
  126MPD1    H7 1971   2.244   4.308  10.408 -0.6241 -0.0244 -0.1800
  127TMC2    C1 1972   3.217   3.451   9.818  1.0295  0.4136  0.1639
  127TMC2    C2 1973   3.241   3.411   9.949 -0.1964  0.9313  0.4864
  127TMC2    C3 1974   3.163   3.304   9.991 -0.0618 -0.0275  1.1487
  127TMC2    C4 1975   3.122   3.398   9.738  0.1200 -0.2139  0.0759
  127TMC2    C5 1976   3.055   3.292   9.787  0.1660 -0.9157  0.0350
  127TMC2    C6 1977   3.078   3.235   9.911  0.1791 -0.4857 -0.3780
  127TMC2     C 1978   3.319   3.535   9.761  0.3432 -0.5603  0.4500
  127TMC2     O 1979   3.386   3.600   9.837 -0.3884 -0.3836  0.1116
  127TMC2     H 1980   3.320   3.453  10.010  0.2141  0.7536  0.0812
  127TMC2    H1 1981   3.096   3.441   9.642 -1.3063 -2.0613 -0.3697
  127TMC2    H2 1982   3.044   3.135   9.934  0.8848 -0.3539  1.3037
  127TMC2    C7 1983   2.960   3.230   9.707  0.1062  0.5394  0.1510
  127TMC2    C8 1984   3.197   3.248  10.117 -1.4258  0.4688 -0.5194
  127TMC2    O1 1985   2.943   3.274   9.597  0.3579  0.1981 -0.4665
  127TMC2    O2 1986   3.288   3.293  10.181  0.1117  0.7588 -0.3855
  127TMC2    O5 1987   3.095   3.170  10.165  0.7514  0.2546  0.1081
  127TMC2    H5 1988   3.013   3.195  10.116  0.7256 -0.3586 -0.1605
  128MPD2     C 1989   3.346   3.629   9.396 -1.2220  0.3727 -0.1412
  128MPD2    C1 1990   3.384   3.625   9.528 -0.8958 -0.0105 -0.3441
  128MPD2    C2 1991   3.480   3.714   9.577 -0.4136  0.0635 -0.1035
  128MPD2    C3 1992   3.544   3.800   9.484  0.0417  0.4543 -0.1107
  128MPD2    C4 1993   3.508   3.791   9.355  0.0195 -0.3784  0.2978
  128MPD2    C5 1994   3.409   3.711   9.306  0.1478  0.2226 -0.1183
  128MPD2     H 1995   3.520   3.726   9.677  0.3940  1.7588 -0.6274
  128MPD2    H1 1996   3.569   3.846   9.284 -1.3348 -1.8916 -2.0239
  128MPD2    H2 1997   3.264   3.571   9.356  0.5057 -2.2655  0.1483
  128MPD2    H3 1998   3.389   3.721   9.200 -2.2995  1.7259  0.4839
  128MPD2     N 1999   3.642   3.892   9.532 -0.3942 -0.6536 -0.1826
  128MPD2    H5 2000   3.673   3.882   9.628 -0.6030  1.0516  0.0694
  128MPD2    N1 2001   3.309   3.544   9.620  0.3920  0.1961  0.1370
  128MPD2    H7 2002   3.238   3.490   9.571  0.7017 -1.8471  1.8985
  129TMC2    C1 2003   1.141   4.526   1.162 -0.3822 -0.1071  0.4230
  129TMC2    C2 2004   1.157   4.631   1.251  0.1197 -0.0465  0.4646
  129TMC2    C3 2005   1.170   4.607   1.382 -0.4159 -0.9909  0.0576
  129TMC2    C4 2006   1.125   4.400   1.218  0.2263 -0.4063 -0.3272
  129TMC2    C5 2007   1.139   4.384   1.352 -0.3725  0.6368 -0.7182
  129TMC2    C6 2008   1.164   4.483   1.443 -0.5997 -0.0520 -0.5483
  129TMC2     C 2009   1.191   4.529   1.032 -0.5165  0.1454 -0.1621
  129TMC2     O 2010   1.241   4.427   0.985 -0.5196 -0.1194 -0.4421
  129TMC2     H 2011   1.176   4.733   1.218 -0.3012  0.5418  2.0835
  129TMC2    H1 2012   1.113   4.312   1.156  0.1117 -0.2861 -0.4761
  129TMC2    H2 2013   1.162   4.474   1.551 -1.0598  0.0778 -0.5467
  129TMC2    C7 2014   1.123   4.247   1.403 -0.1663 -0.0683  0.0165
  129TMC2    C8 2015   1.221   4.709   1.477 -0.4571  0.4625 -0.3537
  129TMC2    O1 2016   1.045   4.167   1.352 -0.0502 -0.0500 -0.0739
  129TMC2    O2 2017   1.216   4.695   1.600 -0.0101  0.3593 -0.4380
  129TMC2    O5 2018   1.284   0.064   1.405 -0.2817  0.0506  0.4168
  129TMC2    H5 2019   1.310   0.032   1.316 -3.4296  1.7589 -1.1215
  130MPD2     C 2020   1.261   4.608   0.763  0.1827  0.8330 -0.4308
  130MPD2    C1 2021   1.203   4.692   0.844 -0.4643 -0.1040 -0.2956
  130MPD2    C2 2022   1.180   0.083   0.813  0.3017 -0.2926  0.0389
  130MPD2    C3 2023   1.220   0.136   0.690  0.0185 -0.0519  0.3869
  130MPD2    C4 2024   1.279   0.046   0.605 -0.6015  0.1350 -0.6697
  130MPD2    C5 2025   1.302   4.656   0.640 -0.3719 -0.9751  0.3281
  130MPD2     H 2026   1.131   0.153   0.879 -1.7312 -1.8340  0.1828
  130MPD2    H1 2027   1.304   0.078   0.505 -1.1897  1.0927 -0.5097
  130MPD2    H2 2028   1.276   4.503   0.785 -3.3627 -0.2043 -3.0993
  130MPD2    H3 2029   1.351   4.590   0.570  1.4491  0.5755  0.1291
  130MPD2     N 2030   1.180   0.266   0.662 -0.0742  0.3794 -0.1434
  130MPD2    H5 2031   1.141   0.327   0.733  1.0225  2.6317 -1.4793
  130MPD2    N1 2032   1.166   4.649   0.976 -0.1485 -0.2297  0.4606
  130MPD2    H7 2033   1.118   4.718   1.033 -1.8872  0.2651 -1.5992
  131TMC2    C1 2034   1.045   3.597   9.851  0.3612  0.1928 -0.0605
  131TMC2    C2 2035   0.921   3.652   9.846 -0.0572 -0.0832  0.3052
  131TMC2    C3 2036   0.902   3.788   9.829  0.5318 -0.5020 -0.0469
  131TMC2    C4 2037   1.151   3.682   9.874  0.3898 -0.5674 -0.4322
  131TMC2    C5 2038   1.128   3.817   9.877 -0.3113 -0.1794  0.2405
  131TMC2    C6 2039   1.010   3.878   9.834  0.1785 -0.1604  0.2701
  131TMC2     C 2040   1.068   3.450   9.862 -0.5500 -0.3583  0.0514
  131TMC2     O 2041   1.179   3.410   9.879  0.0528  0.6601  0.2977
  131TMC2     H 2042   0.829   3.594   9.838  0.7747 -1.4938  1.1025
  131TMC2    H1 2043   1.251   3.646   9.896 -0.4579 -1.5829  1.7229
  131TMC2    H2 2044   0.986   3.984   9.831  0.9499  0.0339  0.7642
  131TMC2    C7 2045   1.226   3.904   9.929 -0.3651  0.4875 -0.6997
  131TMC2    C8 2046   0.777   3.832   9.789  0.0170 -0.2066 -0.3475
  131TMC2    O1 2047   1.342   3.865   9.919 -0.0354 -0.5346 -0.3535
  131TMC2    O2 2048   0.674   3.806   9.845  0.1943  0.1777  0.4714
  131TMC2    O5 2049   0.797   3.925   9.689  0.6467  0.0639 -0.0448
  131TMC2    H5 2050   0.882   3.904   9.644 -0.1280 -2.6064 -0.2795
  132MPD2     C 2051   0.841   3.174   9.772 -0.4671 -0.5425  0.4903
  132MPD2    C1 2052   0.951   3.235   9.827  0.7737  0.7338  0.6770
  132MPD2    C2 2053   1.047   3.148   9.892  0.0852  0.1776  0.0184
  132MPD2    C3 2054   1.027   3.011   9.896  0.3793  0.4914  0.1461
  132MPD2    C4 2055   0.915   2.955   9.837  0.6380  0.1573  0.7082
  132MPD2    C5 2056   0.827   3.036   9.772  0.6884  0.5140 -0.3441
  132MPD2     H 2057   1.139   3.178   9.942  0.1977 -0.8682  0.4221
  132MPD2    H1 2058   0.886   2.851   9.842  3.5101 -0.6986 -0.2252
  132MPD2    H2 2059   0.764   3.232   9.722 -0.0025  0.6484  1.1700
  132MPD2    H3 2060   0.743   2.996   9.716  0.9621 -0.1224 -0.2959
  132MPD2     N 2061   1.129   2.938   9.959 -0.3317 -0.0625 -0.5760
  132MPD2    H5 2062   1.210   2.989   9.992  0.4330 -1.7224  0.0826
  132MPD2    N1 2063   0.954   3.379   9.821 -0.6020  0.4656 -0.1284
  132MPD2    H7 2064   0.873   3.433   9.794 -1.4780 -1.1656 -0.8106
  133TMC2    C1 2065   3.951   3.524   9.233  0.0752  0.2398  0.0521
  133TMC2    C2 2066   4.026   3.411   9.245 -0.1584  0.9922 -0.4260
  133TMC2    C3 2067   3.958   3.292   9.256 -0.2511 -0.3421 -0.3576
  133TMC2    C4 2068   3.814   3.521   9.224 -0.4905  0.3657 -0.3608
  133TMC2    C5 2069   3.748   3.402   9.242  0.7905 -0.3226 -0.2602
  133TMC2    C6 2070   3.816   3.287   9.250 -0.3105 -1.0347 -0.5458
  133TMC2     C 2071   4.026   3.644   9.271 -0.0656 -0.5649  0.0887
  133TMC2     O 2072   4.134   3.648   9.325 -0.6408 -0.2481 -0.2551
  133TMC2     H 2073   4.133   3.424   9.262 -0.6027  2.5244  1.2077
  133TMC2    H1 2074   3.763   3.614   9.206  0.9760  1.3749  0.7455
  133TMC2    H2 2075   3.773   3.188   9.250  0.3996 -1.3457 -1.5638
  133TMC2    C7 2076   3.611   3.407   9.199 -0.4047 -0.4697 -0.4531
  133TMC2    C8 2077   4.017   3.157   9.262  0.1525 -0.1742  0.4572
  133TMC2    O1 2078   3.586   3.507   9.138 -0.3316 -0.1189 -0.2203
  133TMC2    O2 2079   3.960   3.053   9.228 -0.6223  0.6788 -0.3807
  133TMC2    O5 2080   4.097   3.173   9.368  0.6153  0.1383 -0.3108
  133TMC2    H5 2081   4.103   3.268   9.389  0.4541  0.2126 -0.6022
  134MPD2     C 2082   3.952   3.991   9.196 -0.7875 -0.4076 -0.1506
  134MPD2    C1 2083   4.021   3.890   9.252  0.0064 -0.2015  0.6001
  134MPD2    C2 2084   4.126   3.927   9.341  0.7505 -0.0128  1.2483
  134MPD2    C3 2085   4.172   4.053   9.348  0.4190 -0.7698  0.4290
  134MPD2    C4 2086   4.109   4.157   9.282  0.1750  0.0285  0.6540
  134MPD2    C5 2087   3.995   4.124   9.213  0.7149 -0.1335 -0.7114
  134MPD2     H 2088   4.178   3.853   9.400  0.5226 -1.5128 -0.4181
  134MPD2    H1 2089   4.135   4.262   9.281  1.7021 -0.3538 -0.0715
  134MPD2    H2 2090   3.858   3.983   9.142  0.3228  0.6761 -2.2285
  134MPD2    H3 2091   3.940   4.203   9.163  0.2924  0.1134  0.1447
  134MPD2     N 2092   4.286   4.088   9.429 -0.4821 -0.0967  0.3282
  134MPD2    H5 2093   4.299   4.189   9.437  0.5958 -0.3098  1.2216
  134MPD2    N1 2094   3.967   3.756   9.229  0.2459  1.3728  0.2573
  134MPD2    H7 2095   3.877   3.746   9.185 -0.7718  0.5630  2.5235
  135TMC2    C1 2096   2.955   1.078   9.842  0.3476 -0.1008 -0.0742
  135TMC2    C2 2097   3.076   1.014   9.845 -0.0339 -0.0734 -0.2445
  135TMC2    C3 2098   3.100   0.944   9.959 -0.2740  0.5875  0.8487
  135TMC2    C4 2099   2.863   1.050   9.936  0.5573  0.3197 -0.2686
  135TMC2    C5 2100   2.890   0.972  10.044 -0.3040 -0.4143  0.0549
  135TMC2    C6 2101   3.013   0.915  10.063  1.0963 -1.1078 -0.0195
  135TMC2     C 2102   2.902   1.123   9.721 -0.1067  0.6552 -0.5340
  135TMC2     O 2103   2.790   1.170   9.717 -0.0903 -0.7556 -0.2178
  135TMC2     H 2104   3.155   1.029   9.772 -1.1460  3.3637 -0.7150
  135TMC2    H1 2105   2.768   1.104   9.930  0.4994  0.1539 -0.8609
  135TMC2    H2 2106   3.044   0.874  10.158  0.3944 -0.7270  0.3737
  135TMC2    C7 2107   2.798   0.959  10.147 -0.0102 -0.6649  0.1700
  135TMC2    C8 2108   3.238   0.894   9.983 -0.1444 -0.2169  0.1735
  135TMC2    O1 2109   2.733   1.056  10.174 -0.0909 -0.5291 -0.8417
  135TMC2    O2 2110   3.319   0.862   9.899 -0.0394 -0.1310  0.2750
  135TMC2    O5 2111   3.265   0.953  10.106  0.2073 -0.0493  1.1328
  135TMC2    H5 2112   3.190   0.972  10.166  0.9287 -0.4818  2.1950
  136MPD2     C 2113   2.881   1.184   9.420  0.3420  0.0951  0.4939
  136MPD2    C1 2114   2.990   1.124   9.483 -0.1376 -0.0601  0.3378
  136MPD2    C2 2115   3.098   1.077   9.404 -0.0647  0.6083 -0.0112
  136MPD2    C3 2116   3.102   1.106   9.270  0.2516 -0.3469 -0.2365
  136MPD2    C4 2117   2.992   1.156   9.206 -0.5769  0.4768  0.3869
  136MPD2    C5 2118   2.883   1.194   9.283 -0.0961  0.3370  0.0597
  136MPD2     H 2119   3.183   1.031   9.452 -0.5281 -0.7422 -0.4940
  136MPD2    H1 2120   2.995   1.182   9.101  1.4310 -0.7972  0.1255
  136MPD2    H2 2121   2.794   1.206   9.480  0.1931 -2.1655  1.1194
  136MPD2    H3 2122   2.799   1.242   9.233 -1.2165 -2.0751 -0.3434
  136MPD2     N 2123   3.210   1.064   9.194 -0.3315 -0.1005 -0.1019
  136MPD2    H5 2124   3.187   1.049   9.096  0.5853 -0.9480 -0.1822
  136MPD2    N1 2125   2.995   1.087   9.620 -0.3532 -0.5410  0.4744
  136MPD2    H7 2126   3.076   1.030   9.641  0.6723 -0.0543 -2.2261
  137TMC2    C1 2127   2.780   4.041   9.243 -0.1302 -0.0390  0.3004
  137TMC2    C2 2128   2.854   4.048   9.130  0.9637 -0.3255  0.7648
  137TMC2    C3 2129   2.781   4.073   9.013  0.2488 -0.7054 -0.4310
  137TMC2    C4 2130   2.641   4.061   9.239  0.0209  0.9448 -0.1601
  137TMC2    C5 2131   2.580   4.054   9.117  0.1290 -0.4267 -0.1977
  137TMC2    C6 2132   2.647   4.060   9.002 -0.3571  0.2902  0.0335
  137TMC2     C 2133   2.853   4.052   9.363  0.2809  0.7097 -0.6389
  137TMC2     O 2134   2.975   4.063   9.347  0.5592 -0.7301 -0.7559
  137TMC2     H 2135   2.961   4.058   9.117  1.0542 -1.1116  0.8901
  137TMC2    H1 2136   2.580   4.053   9.329 -1.6383  0.0001 -1.3722
  137TMC2    H2 2137   2.583   4.070   8.915 -0.3378 -0.0023 -0.0134
  137TMC2    C7 2138   2.431   4.038   9.111 -0.1005 -0.0409 -0.0195
  137TMC2    C8 2139   2.851   4.097   8.892  0.3742  0.0238  0.1745
  137TMC2    O1 2140   2.375   3.989   9.014  0.3996  0.3398  0.0839
  137TMC2    O2 2141   2.960   4.153   8.886  0.7125  0.5369  0.2850
  137TMC2    O5 2142   2.797   4.033   8.791  0.6486 -0.3791  0.1834
  137TMC2    H5 2143   2.731   3.974   8.834 -1.3863  1.4279 -0.4586
  138MPD2     C 2144   2.791   3.998   9.716  0.5885  0.4344 -1.0013
  138MPD2    C1 2145   2.842   4.061   9.605 -0.0304  0.2217  0.6000
  138MPD2    C2 2146   2.928   4.163   9.629  0.1316 -0.5806 -0.5446
  138MPD2    C3 2147   2.963   4.201   9.755  0.0533  0.1388  0.0839
  138MPD2    C4 2148   2.919   4.131   9.865 -0.3954  0.1145  0.0799
  138MPD2    C5 2149   2.825   4.035   9.845  0.5140 -0.1892  0.7521
  138MPD2     H 2150   2.959   4.226   9.546  0.7695  1.9957  1.6774
  138MPD2    H1 2151   2.935   4.165   9.967  1.8253  0.2658 -0.3300
  138MPD2    H2 2152   2.719   3.919   9.701 -1.3232  1.7114  1.4078
  138MPD2    H3 2153   2.771   3.991   9.928  1.2589  0.2918  1.4896
  138MPD2     N 2154   3.052   4.308   9.771 -0.2740  0.0118  0.1879
  138MPD2    H5 2155   3.068   4.370   9.693  1.2832  1.7255  1.8498
  138MPD2    N1 2156   2.786   4.040   9.481 -0.4349 -0.0427  0.4689
  138MPD2    H7 2157   2.698   3.990   9.481 -0.7081  0.4340 -3.0788
  139TMC2    C1 2158   3.341   2.376  13.538  0.7485  0.1350 -0.5927
  139TMC2    C2 2159   3.296   2.388  13.409 -0.4186  0.3351  0.2983
  139TMC2    C3 2160   3.203   2.481  13.387 -0.6560  0.0680 -0.5735
  139TMC2    C4 2161   3.294   2.455  13.639  0.1042 -0.3540 -0.0194
  139TMC2    C5 2162   3.185   2.536  13.618 -0.2938  0.0438  0.0645
  139TMC2    C6 2163   3.146   2.562  13.488  0.6610  0.6939  0.4783
  139TMC2     C 2164   3.445   2.273  13.552  0.4816 -0.4062  0.8833
  139TMC2     O 2165   3.491   2.230  13.450 -0.1203  0.2054  0.0758
  139TMC2     H 2166   3.334   2.339  13.319  1.9720  0.4603  1.2316
  139TMC2    H1 2167   3.328   2.442  13.741  0.8539  1.9201  0.0369
  139TMC2    H2 2168   3.056   2.621  13.472  0.1213 -0.4386 -0.6407
  139TMC2    C7 2169   3.116   2.609  13.729  0.2333  0.4474  0.5436
  139TMC2    C8 2170   3.138   2.502  13.260 -0.1517  0.4396  0.6262
  139TMC2    O1 2171   3.051   2.707  13.693  0.3272 -0.3298  0.0108
  139TMC2    O2 2172   3.138   2.415  13.173  0.3620 -0.9232  0.0253
  139TMC2    O5 2173   3.132   2.631  13.245  0.7586  0.2855 -0.4002
  139TMC2    H5 2174   3.166   2.696  13.311  0.8494  0.2327 -0.3942
  140MPD2     C 2175   3.500   2.101  13.870 -0.1633 -0.3267 -0.1608
  140MPD2    C1 2176   3.517   2.121  13.731 -0.3363 -0.3830 -0.1462
  140MPD2    C2 2177   3.590   2.025  13.667 -0.1912  0.0569  0.3809
  140MPD2    C3 2178   3.614   1.900  13.724  0.1685 -0.3759 -0.1157
  140MPD2    C4 2179   3.598   1.885  13.860 -0.2477 -0.5032  0.1057
  140MPD2    C5 2180   3.546   1.988  13.930  0.0083 -0.6774  0.2700
  140MPD2     H 2181   3.591   2.042  13.560  1.7553  0.4066  0.4727
  140MPD2    H1 2182   3.600   1.788  13.909 -0.9936  0.2862  1.7106
  140MPD2    H2 2183   3.444   2.174  13.928 -0.6745 -0.4890 -0.4490
  140MPD2    H3 2184   3.520   1.980  14.035 -3.4507  0.1551 -0.5213
  140MPD2     N 2185   3.656   1.798  13.636 -0.1333 -0.6061 -0.5749
  140MPD2    H5 2186   3.661   1.819  13.537 -2.1997 -1.9259 -0.9768
  140MPD2    N1 2187   3.450   2.232  13.682 -0.3484 -0.6573  0.2346
  140MPD2    H7 2188   3.400   2.291  13.748 -0.0308  1.9838 -1.8832
  141TMC2    C1 2189   3.467   3.514  14.254  0.1229 -0.3042  0.7615
  141TMC2    C2 2190   3.530   3.443  14.352  0.2296 -0.0247  0.6565
  141TMC2    C3 2191   3.638   3.498  14.417 -0.1504  0.3639 -0.3207
  141TMC2    C4 2192   3.497   3.647  14.250  0.8383 -0.1547 -0.2502
  141TMC2    C5 2193   3.603   3.703  14.314 -0.4613 -0.0418  0.2276
  141TMC2    C6 2194   3.669   3.625  14.400  0.1818 -0.5864 -0.7632
  141TMC2     C 2195   3.477   3.452  14.125 -0.1475 -0.3124 -0.7234
  141TMC2     O 2196   3.554   3.360  14.123 -0.1120  0.5510  0.0513
  141TMC2     H 2197   3.515   3.337  14.370 -2.7159  0.3972  0.6462
  141TMC2    H1 2198   3.451   3.715  14.180 -2.1164 -1.6473  0.1844
  141TMC2    H2 2199   3.761   3.660  14.446  0.0148 -0.3646 -0.5994
  141TMC2    C7 2200   3.681   3.799  14.238 -0.4056 -0.1774 -0.1684
  141TMC2    C8 2201   3.715   3.408  14.501  0.2793  0.4044 -0.1151
  141TMC2    O1 2202   3.667   3.797  14.117 -0.0553  0.1574  0.6005
  141TMC2    O2 2203   3.692   3.292  14.507 -0.1155  0.2660 -0.2945
  141TMC2    O5 2204   3.765   3.486  14.602  1.0666  0.2756  0.1108
  141TMC2    H5 2205   3.745   3.582  14.600  3.4708  0.7450 -1.0560
  142TMC2    C1 2206   1.220   3.015   9.488  0.6699  0.3408 -0.1199
  142TMC2    C2 2207   1.127   3.107   9.513 -0.0933 -0.4991 -0.5921
  142TMC2    C3 2208   1.141   3.230   9.458  0.2865  0.2463  0.5632
  142TMC2    C4 2209   1.330   3.044   9.410 -0.5180 -0.0657  0.1811
  142TMC2    C5 2210   1.352   3.172   9.364  0.3520  0.5538 -0.7940
  142TMC2    C6 2211   1.257   3.266   9.384  0.8380 -0.3081 -0.2543
  142TMC2     C 2212   1.208   2.886   9.556 -0.5637 -0.6392  0.3422
  142TMC2     O 2213   1.099   2.833   9.575 -0.1925  0.0366 -0.1759
  142TMC2     H 2214   1.043   3.073   9.573 -0.0916 -1.0660 -0.9123
  142TMC2    H1 2215   1.404   2.968   9.387  0.4267  0.9653 -0.2111
  142TMC2    H2 2216   1.274   3.371   9.365  1.0962 -0.1922  0.6334
  142TMC2    C7 2217   1.492   3.206   9.355  0.0185  0.0698  0.0577
  142TMC2    C8 2218   1.039   3.329   9.463 -0.6217  0.5119 -0.7583
  142TMC2    O1 2219   1.579   3.135   9.402  0.4679 -0.3054  0.2018
  142TMC2    O2 2220   1.054   3.450   9.460 -0.2863  0.0847  0.3375
  142TMC2    O5 2221   0.918   3.269   9.468  0.0750 -0.7704 -0.1289
  142TMC2    H5 2222   0.930   3.175   9.443 -2.8011 -0.8275 -1.3297
  143MPD2     C 2223   1.425   2.488   9.805  0.2675  0.2105 -0.2476
  143MPD2    C1 2224   1.293   2.520   9.781 -0.0506 -0.3114  0.7104
  143MPD2    C2 2225   1.256   2.632   9.709 -0.5163 -0.1577  0.3896
  143MPD2    C3 2226   1.353   2.724   9.668 -0.3363  0.1316 -0.4097
  143MPD2    C4 2227   1.484   2.696   9.701  0.1872 -0.0339  0.1953
  143MPD2    C5 2228   1.518   2.581   9.766 -0.4044 -0.7144 -0.2397
  143MPD2     H 2229   1.150   2.657   9.709 -0.2124  1.1419  2.0232
  143MPD2    H1 2230   1.558   2.770   9.674  0.1760 -0.0925  0.0062
  143MPD2    H2 2231   1.453   2.397   9.856 -0.3966 -0.1243 -0.4765
  143MPD2    H3 2232   1.619   2.575   9.805 -1.1622  1.7020  2.0761
  143MPD2     N 2233   1.337   2.845   9.596  0.0480 -0.0959 -0.3639
  143MPD2    H5 2234   1.414   2.910   9.590 -0.7126  0.9768  1.1720
  143MPD2    N1 2235   1.198   2.423   9.824 -0.1007 -0.0888 -0.3757
  143MPD2    H7 2236   1.225   2.349   9.888  4.6535  1.6676 -0.2924
  144TMC2    C1 2237   4.337   1.195   0.362 -0.2246  0.0278 -0.2910
  144TMC2    C2 2238   4.439   1.113   0.316  0.4195 -0.0254  0.4308
  144TMC2    C3 2239   4.566   1.131   0.360 -0.3242 -0.2666 -0.4501
  144TMC2    C4 2240   4.366   1.294   0.454 -0.3294 -0.8511 -0.4587
  144TMC2    C5 2241   4.494   1.291   0.512 -0.3378  0.2914 -0.6941
  144TMC2    C6 2242   4.592   1.211   0.464 -0.2206  0.0321 -0.4151
  144TMC2     C 2243   4.199   1.160   0.323 -0.4093 -0.1430  0.4483
  144TMC2     O 2244   4.184   1.108   0.214 -0.5237  0.1159  0.5097
  144TMC2     H 2245   4.416   1.036   0.243  0.3125 -0.6179  1.0878
  144TMC2    H1 2246   4.301   1.379   0.471 -0.0070 -0.8117  0.5798
  144TMC2    H2 2247   4.682   1.194   0.522 -0.6722 -0.6079  0.0974
  144TMC2    C7 2248   4.530   1.371   0.627 -0.0796 -0.9537 -0.0543
  144TMC2    C8 2249   4.654   1.016   0.359 -0.5253 -0.4293 -0.5160
  144TMC2    O1 2250   4.652   1.388   0.638  0.3779 -0.1395 -0.2993
  144TMC2    O2 2251   4.598   0.908   0.354 -0.1245 -0.1604 -0.7486
  144TMC2    O5 2252   0.013   1.045   0.272 -0.1875 -0.3083 -0.0225
  144TMC2    H5 2253   0.022   1.142   0.256 -0.8788 -0.3715 -0.7899
  145MPD2     C 2254   3.711   1.329   0.295 -0.5010 -0.4858 -0.5515
  145MPD2    C1 2255   3.791   1.268   0.207 -0.1352 -0.3764 -0.1325
  145MPD2    C2 2256   3.918   1.216   0.240 -0.4874 -0.4588  0.1143
  145MPD2    C3 2257   3.967   1.226   0.371 -0.4963  0.2732  0.8458
  145MPD2    C4 2258   3.896   1.304   0.457  0.1331 -0.5460  0.4571
  145MPD2    C5 2259   3.775   1.348   0.415 -0.6757 -1.0509 -0.1635
  145MPD2     H 2260   3.976   1.174   0.159  0.1716  0.2274  0.2339
  145MPD2    H1 2261   3.917   1.329   0.561 -0.7610  1.1418  0.2374
  145MPD2    H2 2262   3.612   1.370   0.278  0.2559  1.4351 -0.2673
  145MPD2    H3 2263   3.716   1.400   0.489 -1.1737 -0.9437 -0.6321
  145MPD2     N 2264   4.101   1.208   0.408  0.8176  0.0378  0.0221
  145MPD2    H5 2265   4.125   1.245   0.500 -2.1957  2.0989 -0.0207
  145MPD2    N1 2266   3.756   1.247   0.074 -0.2969 -0.9097  0.8378
  145MPD2    H7 2267   3.820   1.188   0.023  1.2971  0.4350  1.2834
  146TMC2    C1 2268   1.278   0.300  11.688 -0.7411  0.1713  0.5343
  146TMC2    C2 2269   1.235   0.347  11.566  0.2645 -0.2694 -0.1212
  146TMC2    C3 2270   1.272   0.287  11.453  0.6018 -0.0726  0.0300
  146TMC2    C4 2271   1.360   0.190  11.700 -0.1661 -0.4256  0.5891
  146TMC2    C5 2272   1.405   0.136  11.578  0.2541 -0.5929 -0.3774
  146TMC2    C6 2273   1.358   0.181  11.457  0.4369 -0.1148 -0.3026
  146TMC2     C 2274   1.221   0.363  11.811 -0.4889 -0.0054 -0.1618
  146TMC2     O 2275   1.170   0.468  11.794 -0.5643  0.1640  0.0604
  146TMC2     H 2276   1.175   0.437  11.565 -0.7367 -0.9407 -0.4591
  146TMC2    H1 2277   1.418   0.188  11.791  1.2147  3.1624 -0.1920
  146TMC2    H2 2278   1.404   0.154  11.363  0.6095  0.0836 -0.2759
  146TMC2    C7 2279   1.514   0.040  11.588  0.0119  0.1726  0.8301
  146TMC2    C8 2280   1.249   0.364  11.330  0.0492  0.2695 -0.3806
  146TMC2    O1 2281   1.590   0.034  11.494 -0.1886  0.3318 -0.9001
  146TMC2    O2 2282   1.226   0.481  11.328  0.1270  0.3085  0.1378
  146TMC2    O5 2283   1.243   0.278  11.227 -0.9025 -0.5086 -0.6583
  146TMC2    H5 2284   1.235   0.182  11.245  2.4041 -0.8614 -1.1288
  147MPD2     C 2285   1.909   4.637  11.885  0.0852  0.3926 -0.2458
  147MPD2    C1 2286   1.808   4.666  11.971  0.6514 -0.2108  0.0161
  147MPD2    C2 2287   1.688   4.707  11.915  0.0114 -0.1484  0.4450
  147MPD2    C3 2288   1.673   4.716  11.772  0.4388 -0.1120  0.0949
  147MPD2    C4 2289   1.776   4.679  11.697  0.0977  0.2258 -0.3523
  147MPD2    C5 2290   1.889   4.631  11.751  0.1849 -1.2010 -0.2292
  147MPD2     H 2291   1.609   0.003  11.981 -2.0099 -1.3850 -1.3431
  147MPD2    H1 2292   1.755   4.665  11.592  2.2923  2.0452 -1.0334
  147MPD2    H2 2293   1.997   4.582  11.917 -0.7523 -0.8819 -0.0975
  147MPD2    H3 2294   1.971   4.606  11.684  0.0746 -0.7810 -0.5236
  147MPD2     N 2295   1.549   0.012  11.721  0.1702  0.2622 -0.4538
  147MPD2    H5 2296   1.482   0.034  11.794 -2.5815 -1.2656 -2.5056
  147MPD2    N1 2297   1.844   4.658  12.108  0.5880 -1.0625 -0.4388
  147MPD2    H7 2298   1.937   4.625  12.132  0.3937  0.5869  2.5574
  148TMC2    C1 2299   1.698   3.509  10.371 -0.5462  0.2372  0.4348
  148TMC2    C2 2300   1.806   3.498  10.287 -0.0837  0.0636 -0.4069
  148TMC2    C3 2301   1.858   3.369  10.263  0.0342 -0.6675  0.0295
  148TMC2    C4 2302   1.633   3.402  10.428  0.5729  0.3687 -0.0559
  148TMC2    C5 2303   1.682   3.280  10.399  0.1673 -0.5181  0.3480
  148TMC2    C6 2304   1.791   3.260  10.323  0.3528  0.2505  0.1754
  148TMC2     C 2305   1.635   3.640  10.350 -0.6584 -0.1499 -0.1414
  148TMC2     O 2306   1.710   3.718  10.304 -0.2239 -0.3291  0.1955
  148TMC2     H 2307   1.858   3.579  10.237  2.4119 -0.9547  0.5337
  148TMC2    H1 2308   1.547   3.416  10.492  0.3666 -3.6928  0.5613
  148TMC2    H2 2309   1.828   3.159  10.307  0.4974  0.6208 -1.7824
  148TMC2    C7 2310   1.635   3.168  10.492  0.2391  0.0151  0.3573
  148TMC2    C8 2311   1.949   3.352  10.146 -0.0409  0.5467 -0.1712
  148TMC2    O1 2312   1.623   3.058  10.443 -0.0283  0.1723 -0.5187
  148TMC2    O2 2313   2.048   3.421  10.135 -0.0649  0.1991 -0.5216
  148TMC2    O5 2314   1.874   3.307  10.045  0.7936  0.5207 -0.0644
  148TMC2    H5 2315   1.790   3.262  10.069  1.3833 -0.5340 -0.0041
  149MPD2     C 2316   1.458   3.882  10.366 -0.4298 -0.5611  0.4718
  149MPD2    C1 2317   1.431   3.758  10.425 -0.3220 -0.8394 -0.6594
  149MPD2    C2 2318   1.314   3.741  10.491  0.0924 -1.1793  0.2113
  149MPD2    C3 2319   1.228   3.841  10.510 -0.1677  0.0471  0.2198
  149MPD2    C4 2320   1.244   3.964  10.448 -0.4968 -0.3243  1.1522
  149MPD2    C5 2321   1.361   3.983  10.378 -0.6165  0.3922 -0.6997
  149MPD2     H 2322   1.295   3.651  10.549 -0.6501 -0.1217  1.6022
  149MPD2    H1 2323   1.167   4.040  10.448 -0.9410 -0.7739  0.7362
  149MPD2    H2 2324   1.549   3.905  10.313 -1.9101  1.4085 -1.2247
  149MPD2    H3 2325   1.374   4.085  10.343 -3.0346  1.0801  0.4383
  149MPD2     N 2326   1.106   3.835  10.576 -1.0372 -0.2585  0.5683
  149MPD2    H5 2327   1.051   3.921  10.582  1.4934  1.4458 -0.7191
  149MPD2    N1 2328   1.517   3.646  10.420 -0.7589 -0.1301 -0.8180
  149MPD2    H7 2329   1.477   3.561  10.459 -0.2750 -0.2202 -0.5102
  150TMC2    C1 2330   2.903   2.845  12.436  0.1166 -0.2826  0.4883
  150TMC2    C2 2331   2.953   2.778  12.324  0.2000 -0.1637  0.1643
  150TMC2    C3 2332   3.050   2.690  12.347  0.0779 -0.3423  0.0728
  150TMC2    C4 2333   2.964   2.844  12.561  0.0846  0.0448 -0.4269
  150TMC2    C5 2334   3.065   2.755  12.571  0.7198 -0.8040  0.7058
  150TMC2    C6 2335   3.099   2.664  12.472 -1.0367 -0.4716  0.5325
  150TMC2     C 2336   2.792   2.938  12.417 -1.0891  0.5524 -0.0120
  150TMC2     O 2337   2.758   3.001  12.515  0.4993 -0.1071 -0.1734
  150TMC2     H 2338   2.915   2.794  12.224 -0.7454 -1.4903  0.3058
  150TMC2    H1 2339   2.931   2.912  12.638 -0.7015 -0.2951 -0.4621
  150TMC2    H2 2340   3.191   2.608  12.481 -0.1401  0.8959 -0.1763
  150TMC2    C7 2341   3.148   2.748  12.693 -0.2317  0.5870  0.6229
  150TMC2    C8 2342   3.100   2.607  12.242 -0.7239 -0.0039 -0.2585
  150TMC2    O1 2343   3.135   2.848  12.760 -0.7582  0.2378  0.6016
  150TMC2    O2 2344   3.087   2.645  12.126  0.1925  0.3010 -0.2982
  150TMC2    O5 2345   3.118   2.484  12.285 -0.6080 -0.7727 -0.3996
  150TMC2    H5 2346   3.101   2.478  12.381 -0.3454  0.6215 -0.2666
  151MPD2     C 2347   2.501   3.239  12.121 -0.2591 -0.0186  0.9532
  151MPD2    C1 2348   2.526   3.126  12.049 -0.4089  0.1249 -0.2299
  151MPD2    C2 2349   2.606   3.027  12.109 -0.0990  0.7194  0.4678
  151MPD2    C3 2350   2.645   3.032  12.238 -0.1814  0.1332 -0.1818
  151MPD2    C4 2351   2.606   3.142  12.312  0.7124  0.5297 -0.6467
  151MPD2    C5 2352   2.543   3.245  12.248  0.6904  0.3624  1.2148
  151MPD2     H 2353   2.643   2.942  12.053 -0.5862 -1.6572  3.7803
  151MPD2    H1 2354   2.630   3.148  12.417  0.1108 -4.0339 -0.2445
  151MPD2    H2 2355   2.441   3.319  12.081  1.5036  0.7801 -0.0818
  151MPD2    H3 2356   2.522   3.338  12.300  1.9952  1.1638  0.3142
  151MPD2     N 2357   2.734   2.936  12.292  0.5347 -0.1352  0.0057
  151MPD2    H5 2358   2.758   2.866  12.222 -2.0856  0.0890 -1.1209
  151MPD2    N1 2359   2.494   3.135  11.914  1.0876  0.0090 -0.0524
  151MPD2    H7 2360   2.466   3.227  11.881 -2.4079 -2.3626 -3.7384
  152TMC2    C1 2361   3.036   3.029  13.088 -0.4704  0.2054 -0.0955
  152TMC2    C2 2362   3.057   3.166  13.084  0.2000 -0.2223 -0.4646
  152TMC2    C3 2363   3.152   3.221  13.165 -0.0367  0.1694  0.2368
  152TMC2    C4 2364   3.094   2.958  13.183  0.5415 -0.2440  0.2086
  152TMC2    C5 2365   3.193   3.014  13.262 -0.3321  0.0402 -0.4719
  152TMC2    C6 2366   3.224   3.148  13.257  0.1105  0.5049 -0.1599
  152TMC2     C 2367   2.948   2.965  12.989  0.0510 -0.0489 -0.0169
  152TMC2     O 2368   2.879   3.045  12.928 -0.5418 -0.4213 -0.3386
  152TMC2     H 2369   3.012   3.216  12.999 -1.4506 -0.0153  0.5312
  152TMC2    H1 2370   3.081   2.850  13.183  0.0887 -0.1951 -1.2074
  152TMC2    H2 2371   3.310   3.197  13.302 -1.2860  0.4978  2.5513
  152TMC2    C7 2372   3.285   2.922  13.333  0.3274 -0.1518 -0.6569
  152TMC2    C8 2373   3.211   3.346  13.146  0.1793 -0.5563  0.4949
  152TMC2    O1 2374   3.237   2.820  13.380  0.2823 -1.2324 -0.0543
  152TMC2    O2 2375   3.326   3.368  13.171  0.1277  0.4558  0.3911
  152TMC2    O5 2376   3.120   3.433  13.096  0.6024  0.1807 -0.8191
  152TMC2    H5 2377   3.029   3.404  13.119  0.8583 -0.6010 -0.7924
  153MPD2     C 2378   2.901   2.611  12.904  0.1064  0.0540 -0.6536
  153MPD2    C1 2379   2.885   2.745  12.891 -0.0577  0.2463  1.0429
  153MPD2    C2 2380   2.767   2.784  12.828 -0.2562  0.2477 -0.6080
  153MPD2    C3 2381   2.681   2.699  12.761 -0.2467 -0.4197  0.1330
  153MPD2    C4 2382   2.704   2.569  12.788  0.2046  0.2198  0.1437
  153MPD2    C5 2383   2.817   2.527  12.848  0.0266 -0.0300 -0.0469
  153MPD2     H 2384   2.746   2.890  12.822  2.4837  0.8707  1.0528
  153MPD2    H1 2385   2.656   2.486  12.736  1.7752  0.7629 -2.1898
  153MPD2    H2 2386   2.978   2.567  12.966 -0.6893  1.3292  1.2647
  153MPD2    H3 2387   2.833   2.421  12.864  0.2639 -0.0629 -0.4999
  153MPD2     N 2388   2.580   2.751  12.668 -0.6099 -0.1322 -0.5010
  153MPD2    H5 2389   2.572   2.853  12.672 -2.1149 -0.2534 -0.4824
  153MPD2    N1 2390   2.961   2.829  12.975 -0.5966 -0.0467  0.7965
  153MPD2    H7 2391   3.048   2.782  13.000  1.4051  3.1411 -0.2748
  154TMC2    C1 2392   4.234   2.484   0.574 -0.2068 -0.1036 -0.3890
  154TMC2    C2 2393   4.245   2.542   0.702  0.3506 -0.0853  0.5201
  154TMC2    C3 2394   4.342   2.514   0.789  0.4878 -0.6684 -0.0777
  154TMC2    C4 2395   4.343   2.414   0.520 -0.4994  0.4075  0.4156
  154TMC2    C5 2396   4.440   2.394   0.617  0.0458  0.1856  0.2124
  154TMC2    C6 2397   4.447   2.440   0.749 -0.1104 -0.2688  0.4049
  154TMC2     C 2398   4.127   2.527   0.485  0.0598  0.2093  0.3491
  154TMC2     O 2399   4.041   2.601   0.537  0.6346  0.2157 -0.0776
  154TMC2     H 2400   4.156   2.595   0.733 -0.4770 -1.3840  0.3890
  154TMC2    H1 2401   4.339   2.356   0.428  1.6522  1.0854 -0.1021
  154TMC2    H2 2402   4.541   2.433   0.803 -0.1446 -0.4253  0.4435
  154TMC2    C7 2403   4.544   2.300   0.575  0.2458 -0.0900  0.0495
  154TMC2    C8 2404   4.332   2.570   0.919  0.0474  0.1792  0.2066
  154TMC2    O1 2405   4.604   2.241   0.664 -0.4242 -0.2979  0.3038
  154TMC2    O2 2406   4.277   2.671   0.954 -0.2378 -0.6084  0.5346
  154TMC2    O5 2407   4.402   2.486   0.993 -0.0556 -0.1307 -0.0811
  154TMC2    H5 2408   4.400   2.402   0.942  0.6058 -1.0744  1.4532
  155MPD2     C 2409   4.128   2.525   0.111  0.0044 -0.3964 -0.4126
  155MPD2    C1 2410   4.093   2.566   0.238 -0.3901 -0.7346 -0.4298
  155MPD2    C2 2411   3.994   2.662   0.257  0.6020  0.8569 -0.3188
  155MPD2    C3 2412   3.929   2.713   0.143 -0.1824  0.0331 -0.4683
  155MPD2    C4 2413   3.964   2.670   0.017 -0.1411 -0.3753  0.4515
  155MPD2    C5 2414   4.056   2.569   0.002  0.0475 -0.4872  0.7746
  155MPD2     H 2415   3.963   2.695   0.355 -1.3248 -4.4454  0.8828
  155MPD2    H1 2416   3.906   2.699  17.679  0.3908  1.0910  0.5804
  155MPD2    H2 2417   4.215   2.462   0.098  1.3888  1.3940  0.0937
  155MPD2    H3 2418   4.074   2.520  17.656 -0.4348 -0.9945  0.9469
  155MPD2     N 2419   3.844   2.824   0.163 -0.8841  0.4282  0.3157
  155MPD2    H5 2420   3.827   2.853   0.258 -2.5783 -2.2612  0.8193
  155MPD2    N1 2421   4.160   2.512   0.350 -0.1932  0.2105 -0.0084
  155MPD2    H7 2422   4.240   2.454   0.326 -1.1788 -2.0482  2.0924
  156TMC2    C1 2423   2.862   0.341  11.168  0.2384 -0.3004  0.3790
  156TMC2    C2 2424   2.909   0.286  11.053 -0.2019  0.1704  0.3989
  156TMC2    C3 2425   2.858   0.343  10.939 -0.8071 -0.5555  0.3207
  156TMC2    C4 2426   2.775   0.444  11.156  0.3213  0.2283  0.7339
  156TMC2    C5 2427   2.724   0.492  11.039  0.1497  0.1526  0.3626
  156TMC2    C6 2428   2.767   0.442  10.920  0.1776 -0.1673 -0.7574
  156TMC2     C 2429   2.941   0.329  11.292 -0.2490 -0.4797 -0.2765
  156TMC2     O 2430   2.911   0.407  11.384 -0.7423 -0.4372  0.6963
  156TMC2     H 2431   2.992   0.216  11.045  1.6401  2.2977  1.0136
  156TMC2    H1 2432   2.750   0.498  11.246 -0.2039  1.2547 -0.0216
  156TMC2    H2 2433   2.721   0.476  10.828 -0.4202  2.6299  0.5674
  156TMC2    C7 2434   2.695   0.624  11.034 -0.0814  0.0999  0.4279
  156TMC2    C8 2435   2.920   0.287  10.825 -0.1610 -0.2958  0.1400
  156TMC2    O1 2436   2.733   0.684  10.937 -0.1730 -0.0176  0.0363
  156TMC2    O2 2437   2.862   0.185  10.792  0.1802  0.0706  0.5444
  156TMC2    O5 2438   2.935   0.390  10.745  0.4980 -0.1349  0.1134
  156TMC2    H5 2439   2.985   0.456  10.797  0.9181  1.6580 -2.5588
  157MPD2     C 2440   3.233   0.130  11.390  0.1606 -0.5999  0.3232
  157MPD2    C1 2441   3.155   0.244  11.380  0.3503 -0.2870  0.4119
  157MPD2    C2 2442   3.182   0.349  11.466 -1.0083  0.6325  0.1989
  157MPD2    C3 2443   3.260   0.321  11.581  0.4132 -0.6687  1.2347
  157MPD2    C4 2444   3.333   0.210  11.594 -0.0603  0.3247 -0.4509
  157MPD2    C5 2445   3.318   0.117  11.499 -0.2869  0.2328 -0.1357
  157MPD2     H 2446   3.136   0.446  11.450 -2.2097 -0.3640 -2.4193
  157MPD2    H1 2447   3.396   0.187  11.680 -0.1181  0.7018 -0.3078
  157MPD2    H2 2448   3.229   0.053  11.314  1.5188 -0.7289  0.3846
  157MPD2    H3 2449   3.372   0.024  11.511  0.0918  0.4859  0.0976
  157MPD2     N 2450   3.279   0.433  11.668  0.2001 -0.5283  0.3371
  157MPD2    H5 2451   3.242   0.522  11.637 -0.6281 -1.3481 -1.0445
  157MPD2    N1 2452   3.048   0.248  11.286 -0.1794 -0.8355  0.3275
  157MPD2    H7 2453   3.044   0.183  11.208  1.9095  0.6754 -1.0414
  158TMC2    C1 2454   3.155   4.018  13.564  0.1109  0.3144 -0.9742
  158TMC2    C2 2455   3.156   4.089  13.450 -0.0799  0.1881  0.1520
  158TMC2    C3 2456   3.042   4.100  13.380 -0.0254  0.1769 -0.2081
  158TMC2    C4 2457   3.041   3.949  13.612 -0.5718  0.2131  0.1137
  158TMC2    C5 2458   2.924   3.962  13.533  1.1311  0.3641  0.6492
  158TMC2    C6 2459   2.923   4.037  13.421 -0.2356 -0.5082  0.3191
  158TMC2     C 2460   3.271   4.041  13.649  0.1101 -0.1092  1.1594
  158TMC2     O 2461   3.373   4.080  13.593 -0.3907  0.2010 -0.0314
  158TMC2     H 2462   3.243   4.148  13.423  0.0241 -0.1373 -0.2249
  158TMC2    H1 2463   3.046   3.888  13.702 -0.2977  0.3900  0.2192
  158TMC2    H2 2464   2.835   4.055  13.361 -0.9298  0.6803  1.6899
  158TMC2    C7 2465   2.812   3.877  13.544  0.3532 -0.1011 -0.6561
  158TMC2    C8 2466   3.044   4.167  13.249  0.1155  0.0367 -0.1483
  158TMC2    O1 2467   2.727   3.892  13.454 -0.4304 -0.0750 -0.1497
  158TMC2    O2 2468   2.950   4.217  13.187  0.1943  0.4289 -0.1033
  158TMC2    O5 2469   3.164   4.171  13.212 -0.1915  0.5938  0.7645
  158TMC2    H5 2470   3.216   4.097  13.251  0.5128  0.0837 -1.1142
  159MPD2     C 2471   3.516   4.086  14.109  0.7226  0.9425  0.3343
  159MPD2    C1 2472   3.381   4.067  14.137  0.1210 -0.1065  0.4571
  159MPD2    C2 2473   3.295   4.045  14.025  0.4712 -0.0569 -0.8300
  159MPD2    C3 2474   3.339   4.045  13.892  0.3444  1.3858 -0.5772
  159MPD2    C4 2475   3.475   4.053  13.871 -0.5551 -0.8609 -0.1634
  159MPD2    C5 2476   3.556   4.087  13.976  0.5551  0.1955  1.5226
  159MPD2     H 2477   3.189   4.027  14.038  0.6847 -0.3689  0.4890
  159MPD2    H1 2478   3.524   4.061  13.774 -0.6459 -1.6696 -0.2734
  159MPD2    H2 2479   3.587   4.092  14.189  0.4680 -0.4890  0.6684
  159MPD2    H3 2480   3.662   4.101  13.955  0.1372 -1.2982 -1.5806
  159MPD2     N 2481   3.239   4.040  13.787 -0.1146  0.1099 -0.4740
  159MPD2    H5 2482   3.139   4.035  13.807  0.0888  2.5582  1.1790
  159MPD2    N1 2483   3.335   4.048  14.269 -0.1860 -0.4840 -0.1484
  159MPD2    H7 2484   3.411   4.061  14.335 -0.1487 -0.5956 -0.1683
  160TMC2    C1 2485   2.050   2.409   1.303  0.3976  0.3420  0.2053
  160TMC2    C2 2486   1.956   2.426   1.406  0.0522 -0.5085  0.0700
  160TMC2    C3 2487   1.977   2.347   1.514 -0.0839 -0.3272 -0.7033
  160TMC2    C4 2488   2.154   2.324   1.315  0.5791 -0.3170 -0.1385
  160TMC2    C5 2489   2.168   2.244   1.422  0.2582 -0.4137  0.1151
  160TMC2    C6 2490   2.072   2.244   1.515 -0.1973  0.9888  0.8327
  160TMC2     C 2491   2.044   2.496   1.190  0.0305  0.7670 -0.0590
  160TMC2     O 2492   2.142   2.493   1.114 -0.1047 -0.6108 -0.1605
  160TMC2     H 2493   1.865   2.485   1.397  0.2546 -0.2077 -0.0065
  160TMC2    H1 2494   2.229   2.333   1.237 -1.1523 -0.0333 -1.7454
  160TMC2    H2 2495   2.081   2.182   1.603 -2.6413 -1.0394 -0.3385
  160TMC2    C7 2496   2.288   2.159   1.436  0.1251  0.1581  0.0233
  160TMC2    C8 2497   1.858   2.322   1.592 -0.2760 -0.2530  0.0636
  160TMC2    O1 2498   2.291   2.092   1.536 -0.1381  0.3806 -0.4383
  160TMC2    O2 2499   1.828   2.215   1.646 -0.0242 -0.1393 -0.0708
  160TMC2    O5 2500   1.795   2.443   1.604 -0.0728  0.4156  0.1173
  160TMC2    H5 2501   1.857   2.519   1.592 -0.1030  0.5036  0.5129
  161MPD2     C 2502   1.972   2.659   0.963 -0.2152  0.5099  0.5276
  161MPD2    C1 2503   1.889   2.630   1.068 -0.2073 -0.1225  0.5491
  161MPD2    C2 2504   1.761   2.670   1.062  0.5137  0.5957  0.6324
  161MPD2    C3 2505   1.712   2.742   0.953  0.0809 -0.9178  0.3040
  161MPD2    C4 2506   1.794   2.761   0.841  0.5134  0.0288 -0.5848
  161MPD2    C5 2507   1.923   2.719   0.850 -0.3426 -0.8535  0.1363
  161MPD2     H 2508   1.692   2.643   1.141 -0.1474 -1.2216 -0.5588
  161MPD2    H1 2509   1.766   2.819   0.754 -1.3182 -1.6352 -1.1091
  161MPD2    H2 2510   2.080   2.646   0.961 -0.4347 -1.0443 -0.6700
  161MPD2    H3 2511   1.979   2.724   0.757 -0.5541 -2.7821 -0.1053
  161MPD2     N 2512   1.578   2.788   0.936 -0.1382 -1.0642 -0.1389
  161MPD2    H5 2513   1.558   2.809   0.839  0.7300 -0.7372 -0.2458
  161MPD2    N1 2514   1.926   2.554   1.177  0.0483  0.9859  0.2172
  161MPD2    H7 2515   1.854   2.534   1.245 -0.2971  0.3235 -0.3413
  162TMC2    C1 2516   0.365   4.312   0.850 -0.1439 -0.0746  0.1233
  162TMC2    C2 2517   0.416   4.397   0.946  0.5334 -0.1977  0.2679
  162TMC2    C3 2518   0.381   4.371   1.082  0.7640 -0.4849 -0.0927
  162TMC2    C4 2519   0.301   4.198   0.886  0.1872  0.6237 -0.5864
  162TMC2    C5 2520   0.297   4.170   1.017 -0.2029 -0.7032  0.4263
  162TMC2    C6 2521   0.327   4.250   1.124  0.2900  0.4274 -0.0040
  162TMC2     C 2522   0.424   4.315   0.712  0.6351  0.4053 -0.4504
  162TMC2     O 2523   0.386   4.225   0.640  0.0202  0.2052  0.2623
  162TMC2     H 2524   0.472   4.485   0.917 -0.9358  0.8976  0.7433
  162TMC2    H1 2525   0.295   4.112   0.820  1.6080  1.0281 -1.2449
  162TMC2    H2 2526   0.311   4.215   1.226 -2.7929  0.3424 -0.5388
  162TMC2    C7 2527   0.252   4.032   1.045 -0.0467  0.0890 -0.2951
  162TMC2    C8 2528   0.414   4.468   1.188 -0.0484 -0.4128 -0.1610
  162TMC2    O1 2529   0.172   3.982   0.969 -0.1325  0.0228  0.5150
  162TMC2    O2 2530   0.424   4.588   1.156 -0.6995  0.1928  0.6330
  162TMC2    O5 2531   0.448   4.409   1.302 -0.2521 -0.0568 -0.7615
  162TMC2    H5 2532   0.415   4.318   1.318  3.3029 -1.2783 -0.2235
  163MPD2     C 2533   0.625   4.564   0.300  0.6268 -0.0920 -0.4379
  163MPD2    C1 2534   0.582   4.435   0.308 -0.1083 -0.2897 -0.3714
  163MPD2    C2 2535   0.528   4.396   0.429 -0.1142 -0.3123 -0.2888
  163MPD2    C3 2536   0.519   4.475   0.542 -0.3405 -0.0387 -0.4642
  163MPD2    C4 2537   0.549   4.611   0.525 -0.6237 -0.2100  0.0681
  163MPD2    C5 2538   0.608   4.655   0.405 -0.7062 -1.1095  0.6796
  163MPD2     H 2539   0.502   4.293   0.447 -2.9582  0.4386 -0.0611
  163MPD2    H1 2540   0.546   4.683   0.605  1.5101 -0.2806  0.2139
  163MPD2    H2 2541   0.664   4.604   0.207  0.3738 -2.2085 -1.4592
  163MPD2    H3 2542   0.638   0.021   0.397 -0.3657 -1.1934  0.8311
  163MPD2     N 2543   0.475   4.434   0.675  0.3597 -0.0883  0.4140
  163MPD2    H5 2544   0.485   4.506   0.745  1.5236 -1.6850  1.8546
  163MPD2    N1 2545   0.589   4.351   0.187  0.6826 -0.0631  0.0591
  163MPD2    H7 2546   0.598   4.399   0.098 -3.1980 -1.3680 -1.0365
  164TMC2    C1 2547   1.733   3.683  10.728 -0.4131  0.0121 -0.4329
  164TMC2    C2 2548   1.800   3.779  10.653 -0.9295 -0.8661 -0.1209
  164TMC2    C3 2549   1.749   3.902  10.657 -0.0317 -0.2016  0.3539
  164TMC2    C4 2550   1.609   3.712  10.779  0.8715 -0.5939 -0.1216
  164TMC2    C5 2551   1.556   3.837  10.778 -0.7439 -0.2610 -0.2488
  164TMC2    C6 2552   1.621   3.934  10.706  0.1579 -0.1103 -0.4995
  164TMC2     C 2553   1.770   3.544  10.718 -0.0376  0.7183  0.2288
  164TMC2     O 2554   1.689   3.462  10.757 -0.4959  0.0210  0.2071
  164TMC2     H 2555   1.901   3.767  10.617 -1.3878 -2.0280 -1.0105
  164TMC2    H1 2556   1.551   3.633  10.826  0.4140  0.2042  0.6627
  164TMC2    H2 2557   1.576   4.030  10.686  0.3473  0.2325  0.7413
  164TMC2    C7 2558   1.426   3.878  10.832  0.2436  0.3967 -0.1911
  164TMC2    C8 2559   1.790   4.000  10.551 -0.2468  0.0372  0.0231
  164TMC2    O1 2560   1.404   3.997  10.821  0.0691  0.5534  0.0818
  164TMC2    O2 2561   1.761   4.119  10.558  0.0843  0.1073  0.3037
  164TMC2    O5 2562   1.847   3.940  10.448 -0.4195 -0.1779 -0.1158
  164TMC2    H5 2563   1.866   3.845  10.464  0.5486  0.8150  4.6602
  165TMC2    C1 2564   2.474   1.245   1.260  0.1361  0.5230  0.0369
  165TMC2    C2 2565   2.532   1.224   1.378  0.1222  0.5228 -0.1579
  165TMC2    C3 2566   2.665   1.203   1.385  0.3413 -0.3776  0.1353
  165TMC2    C4 2567   2.554   1.251   1.144  0.1641  0.4859 -0.5621
  165TMC2    C5 2568   2.686   1.208   1.153  0.3913 -0.4092 -0.5448
  165TMC2    C6 2569   2.740   1.184   1.280 -0.1721 -1.1804 -0.3317
  165TMC2     C 2570   2.325   1.266   1.255  0.0298  0.4380 -0.7870
  165TMC2     O 2571   2.263   1.259   1.361 -0.4068  0.1349  0.6296
  165TMC2     H 2572   2.478   1.245   1.470  0.1640  2.6845 -0.6154
  165TMC2    H1 2573   2.539   1.301   1.049  0.8819 -0.1542 -1.0182
  165TMC2    H2 2574   2.845   1.167   1.299 -0.8561 -2.5158  2.3632
  165TMC2    C7 2575   2.774   1.206   1.038 -0.8205 -0.6115  0.2667
  165TMC2    C8 2576   2.731   1.233   1.505 -0.1367 -1.2489  0.1005
  165TMC2    O1 2577   2.891   1.219   1.062 -0.2413 -0.1227 -0.1988
  165TMC2    O2 2578   2.681   1.192   1.609 -0.1395 -0.3301  0.0403
  165TMC2    O5 2579   2.759   1.360   1.485  0.7279 -0.1498  0.7526
  165TMC2    H5 2580   2.741   1.386   1.392 -1.3488 -0.9498  0.9395
  166MPD2     C 2581   1.867   1.322   1.037 -0.0876  0.2428 -1.0969
  166MPD2    C1 2582   1.901   1.293   1.167 -0.2665  0.0378  0.0856
  166MPD2    C2 2583   2.034   1.289   1.205  0.1153  0.1787  0.5557
  166MPD2    C3 2584   2.130   1.301   1.106 -0.4712  0.0708 -0.8403
  166MPD2    C4 2585   2.099   1.334   0.977  0.4421  0.3782 -0.0783
  166MPD2    C5 2586   1.969   1.335   0.944 -0.2483 -0.2956 -0.5011
  166MPD2     H 2587   2.053   1.281   1.311  2.1529  0.5955  0.2169
  166MPD2    H1 2588   2.179   1.350   0.905 -0.9320  0.7196 -1.5254
  166MPD2    H2 2589   1.763   1.325   1.007  0.0583 -1.2382 -1.7612
  166MPD2    H3 2590   1.942   1.351   0.840  2.7057 -2.1975 -1.5514
  166MPD2     N 2591   2.267   1.294   1.137 -0.0619  0.2677 -0.8205
  166MPD2    H5 2592   2.330   1.304   1.058  0.9999  1.8793  0.2152
  166MPD2    N1 2593   1.797   1.269   1.256  0.5106  0.1015 -0.0850
  166MPD2    H7 2594   1.706   1.293   1.217  1.9739  2.8433 -1.7462
  167TMC2    C1 2595   1.130   3.606  13.161 -0.3641 -0.8271  0.5216
  167TMC2    C2 2596   1.157   3.549  13.283 -0.1651  0.6830  0.6003
  167TMC2    C3 2597   1.075   3.454  13.334  0.3219 -0.4838 -0.2730
  167TMC2    C4 2598   1.017   3.573  13.086  0.1318 -0.1886 -0.3429
  167TMC2    C5 2599   0.933   3.485  13.144  0.7835 -0.4532  0.0305
  167TMC2    C6 2600   0.954   3.431  13.267  0.1880  0.3518  0.1823
  167TMC2     C 2601   1.223   3.708  13.124 -0.3059 -0.2031 -0.1343
  167TMC2     O 2602   1.315   3.741  13.195  0.6039  0.1781 -0.5685
  167TMC2     H 2603   1.256   3.566  13.323  0.6780  0.2195 -1.2780
  167TMC2    H1 2604   0.992   3.631  12.998 -0.1874  1.1013  0.5931
  167TMC2    H2 2605   0.893   3.354  13.314 -0.1512  1.6177  1.8337
  167TMC2    C7 2606   0.835   3.411  13.054 -0.1522 -0.8057  0.2971
  167TMC2    C8 2607   1.143   3.350  13.405  0.6838 -0.7408 -0.1609
  167TMC2    O1 2608   0.746   3.359  13.114 -0.1007 -0.1398  0.5974
  167TMC2    O2 2609   1.126   3.233  13.379 -0.2556  0.0150 -0.3896
  167TMC2    O5 2610   1.182   3.412  13.522 -0.4901  0.1144  0.4563
  167TMC2    H5 2611   1.164   3.508  13.524 -1.8549 -0.1830  2.3880
  168MPD2     C 2612   1.383   3.913  12.966  0.1562  0.3687  0.0113
  168MPD2    C1 2613   1.272   3.843  12.917  0.5534  0.0396 -0.5671
  168MPD2    C2 2614   1.227   3.872  12.789  0.3876  0.2343  0.3018
  168MPD2    C3 2615   1.300   3.971  12.709  0.7277  0.5653 -1.0070
  168MPD2    C4 2616   1.406   4.036  12.770  0.3165 -0.1095  0.0281
  168MPD2    C5 2617   1.452   4.003  12.897 -0.0501 -0.3102  0.3779
  168MPD2     H 2618   1.146   3.813  12.747 -1.2218  3.2930 -0.8888
  168MPD2    H1 2619   1.449   4.122  12.720  0.2913 -0.5899 -0.8209
  168MPD2    H2 2620   1.439   3.879  13.053 -0.4156  2.7756  1.3275
  168MPD2    H3 2621   1.531   4.057  12.948 -1.3667  1.3125  0.6937
  168MPD2     N 2622   1.268   3.994  12.575  0.0366  0.1621 -0.1693
  168MPD2    H5 2623   1.319   4.068  12.528 -0.5329  0.8915  0.3633
  168MPD2    N1 2624   1.206   3.745  12.992 -0.3257 -0.6550  0.1712
  168MPD2    H7 2625   1.134   3.687  12.950 -0.1150 -0.3151 -0.6582
  169MPD1     C 2626   2.633   2.053   9.223  0.0846  0.3028 -0.2459
  169MPD1    C1 2627   2.671   2.030   9.353 -0.3587  0.1192  0.0184
  169MPD1    C2 2628   2.746   2.133   9.415  0.5154  0.5586  1.0695
  169MPD1    C3 2629   2.771   2.258   9.355  0.3593 -0.1725 -0.0550
  169MPD1    C4 2630   2.711   2.293   9.237 -0.0909  0.2163 -0.3009
  169MPD1    C5 2631   2.645   2.187   9.179 -0.5587 -0.5014 -0.4253
  169MPD1     H 2632   2.794   2.114   9.510 -0.6205 -0.3434  1.4664
  169MPD1    H1 2633   2.728   2.381   9.177  0.8234 -0.6713 -1.3326
  169MPD1    H2 2634   2.586   1.979   9.160 -0.8208  0.4601  0.2421
  169MPD1    H3 2635   2.606   2.204   9.079  0.2869  0.8911 -0.5293
  169MPD1     N 2636   2.841   2.354   9.437 -0.5943 -0.3274  0.0259
  169MPD1    H5 2637   2.871   2.330   9.531  2.5020  0.6250 -0.7150
  169MPD1    N1 2638   2.667   1.904   9.406 -0.4950 -0.8768  0.0226
  169MPD1    H6 2639   2.666   1.912   9.507  2.1980  1.0460 -0.1142
  169MPD1    H7 2640   2.587   1.850   9.374 -0.8711 -0.0482 -0.4284
  170MPD1     C 2641   0.984   1.717  12.690  0.1179 -0.0789 -0.0047
  170MPD1    C1 2642   1.082   1.795  12.746  0.0445  0.2001 -0.7740
  170MPD1    C2 2643   1.159   1.732  12.845  0.6329 -0.4430 -0.1010
  170MPD1    C3 2644   1.127   1.604  12.893 -0.1712 -0.0577  0.4762
  170MPD1    C4 2645   1.016   1.543  12.850  0.4842  0.1813  0.1525
  170MPD1    C5 2646   0.953   1.590  12.738 -0.2439  0.2651 -0.7690
  170MPD1     H 2647   1.246   1.780  12.888 -0.1938  2.3242 -1.5214
  170MPD1    H1 2648   0.981   1.449  12.892  3.5063 -0.4856  1.2151
  170MPD1    H2 2649   0.928   1.753  12.604  0.5684  0.4501 -0.0811
  170MPD1    H3 2650   0.868   1.543  12.689 -1.8322  0.7417  1.5571
  170MPD1     N 2651   1.218   1.549  12.990  1.0333 -0.7336 -0.2185
  170MPD1    H5 2652   1.309   1.590  13.009  0.5025 -0.2300  1.2324
  170MPD1    N1 2653   1.119   1.923  12.692 -0.1640 -0.3106 -0.2760
  170MPD1    H6 2654   1.037   1.975  12.663 -1.0334 -1.3057  0.3753
  170MPD1    H7 2655   1.170   1.977  12.762 -0.7178  0.1212 -0.2016
  171MPD1     C 2656   0.228   2.164  15.267  0.1006  0.1015 -0.4051
  171MPD1    C1 2657   0.282   2.053  15.203  0.2484 -0.1061  0.3351
  171MPD1    C2 2658   0.382   1.988  15.268  0.0200  0.4962  0.1291
  171MPD1    C3 2659   0.411   2.004  15.399  0.2356  0.1920  0.0986
  171MPD1    C4 2660   0.348   2.113  15.464 -0.5669 -0.0299  0.0447
  171MPD1    C5 2661   0.266   2.193  15.391  0.1671  0.7003 -0.3740
  171MPD1     H 2662   0.429   1.912  15.206 -2.9818 -0.1426 -1.3324
  171MPD1    H1 2663   0.368   2.134  15.568 -1.8848 -1.9509  0.6900
  171MPD1    H2 2664   0.146   2.214  15.217 -0.2952  0.2502  0.3938
  171MPD1    H3 2665   0.217   2.282  15.428 -2.5088 -0.7862 -0.2755
  171MPD1     N 2666   0.502   1.914  15.468  0.9038 -0.1118 -0.1674
  171MPD1    H5 2667   0.499   1.925  15.569  0.2647 -2.5028  0.0745
  171MPD1    N1 2668   0.243   2.025  15.072 -0.3976 -0.3990  0.2022
  171MPD1    H6 2669   0.261   1.929  15.043 -0.2757 -0.0033 -1.0724
  171MPD1    H7 2670   0.142   2.033  15.062 -0.4012  0.1898  0.7576
  172MPD1     C 2671   4.190   1.124  17.372  0.4077  0.1071  0.2992
  172MPD1    C1 2672   4.100   1.225  17.363  0.1169  0.0069  0.6481
  172MPD1    C2 2673   4.052   1.300  17.478  0.5980 -0.1906  0.1616
  172MPD1    C3 2674   4.113   1.263  17.598  0.7680  0.2234  0.1245
  172MPD1    C4 2675   4.194   1.147  17.603 -0.9755  0.3086  1.1723
  172MPD1    C5 2676   4.238   1.083  17.493  0.6530 -0.1875  0.2293
  172MPD1     H 2677   3.988   1.387  17.467  1.3977  0.7572  2.8726
  172MPD1    H1 2678   4.243   1.126  17.698  0.0404 -1.7396  0.1927
  172MPD1    H2 2679   4.228   1.072  17.286  0.2056  1.0816 -0.3814
  172MPD1    H3 2680   4.308   1.001  17.490  2.2574  1.2515 -2.2106
  172MPD1     N 2681   4.105   1.340  17.715  0.2661 -0.0880  0.1772
  172MPD1    H5 2682   4.165   1.312   0.043 -1.1979 -0.8380  1.0310
  172MPD1    N1 2683   4.071   1.251  17.229  0.3666  0.0499 -0.2328
  172MPD1    H6 2684   3.982   1.298  17.214  1.6311  2.3531 -0.5928
  172MPD1    H7 2685   4.066   1.165  17.175  1.3423 -1.3959  1.9765
  173MPD1     C 2686   0.459   1.763  13.704  0.1188 -0.2197  0.5448
  173MPD1    C1 2687   0.364   1.729  13.790  0.1345 -0.0387  0.8179
  173MPD1    C2 2688   0.402   1.648  13.895 -0.3269  0.5493 -0.0757
  173MPD1    C3 2689   0.519   1.581  13.902 -0.1509  0.5036  0.5368
  173MPD1    C4 2690   0.615   1.617  13.807  0.3649  0.2503 -0.0693
  173MPD1    C5 2691   0.586   1.706  13.710  0.4693 -0.7026 -0.4273
  173MPD1     H 2692   0.327   1.637  13.972  1.3673 -0.7279  1.3752
  173MPD1    H1 2693   0.716   1.578  13.799 -0.7661 -2.8021  0.2630
  173MPD1    H2 2694   0.432   1.820  13.616  3.2750  0.7088  0.1829
  173MPD1    H3 2695   0.653   1.725  13.627 -0.5215 -2.5275 -1.6489
  173MPD1     N 2696   0.539   1.481  13.998  0.3300 -0.3164 -0.6797
  173MPD1    H5 2697   0.464   1.452  14.060  0.9809  1.2065  0.7876
  173MPD1    N1 2698   0.242   1.805  13.791  0.2197 -0.1027  0.1208
  173MPD1    H6 2699   0.228   1.844  13.698 -0.4999  0.7279  0.5629
  173MPD1    H7 2700   0.157   1.762  13.827 -0.8608  1.6642 -0.2801
  174MPD1     C 2701   1.244   0.733  13.974  0.3732  1.3536  0.0332
  174MPD1    C1 2702   1.134   0.683  14.039  0.1214 -0.3216  0.0685
  174MPD1    C2 2703   1.028   0.768  14.059 -0.1973 -1.0424 -0.5052
  174MPD1    C3 2704   1.017   0.900  14.014  0.3698  0.8559 -0.0411
  174MPD1    C4 2705   1.127   0.944  13.937  0.2966  0.0245  0.7843
  174MPD1    C5 2706   1.236   0.861  13.920 -0.3486  0.4630  0.7451
  174MPD1     H 2707   0.945   0.726  14.115 -0.1341 -0.2582  0.1800
  174MPD1    H1 2708   1.120   1.042  13.891 -0.7624  0.5280  2.0290
  174MPD1    H2 2709   1.331   0.671  13.955 -1.4834 -1.2049 -0.1253
  174MPD1    H3 2710   1.320   0.901  13.863 -0.6805  0.5282  0.3066
  174MPD1     N 2711   0.906   0.983  14.024 -0.3899  0.2524 -0.0756
  174MPD1    H5 2712   0.916   1.072  13.977  0.0270 -0.5723 -1.5425
  174MPD1    N1 2713   1.135   0.559  14.110 -0.2287  0.0944  0.4687
  174MPD1    H6 2714   1.190   0.489  14.060 -3.1625  1.0367 -4.0847
  174MPD1    H7 2715   1.042   0.519  14.119 -0.6489  1.2513  1.2802
  175MPD1     C 2716   3.699   2.064  15.065 -0.6864 -0.0995  0.2364
  175MPD1    C1 2717   3.809   1.993  15.115  0.2955  0.0869 -0.0808
  175MPD1    C2 2718   3.836   1.994  15.246  0.0542 -0.1137  0.5923
  175MPD1    C3 2719   3.773   2.095  15.321 -0.3506  0.2971 -0.3745
  175MPD1    C4 2720   3.669   2.183  15.271 -0.5149 -0.0241 -0.4550
  175MPD1    C5 2721   3.630   2.159  15.141 -0.4458 -0.3368  0.6714
  175MPD1     H 2722   3.909   1.930  15.294 -1.2452 -2.8365 -1.1327
  175MPD1    H1 2723   3.617   2.258  15.329  1.2382  1.3199 -0.6141
  175MPD1    H2 2724   3.674   2.044  14.962 -1.3591 -2.4999  0.8612
  175MPD1    H3 2725   3.546   2.214  15.101 -1.6862 -1.8599  1.1982
  175MPD1     N 2726   3.789   2.103  15.459 -0.1602  0.6982  0.5318
  175MPD1    H5 2727   3.721   2.168  15.498  2.8740  3.8677  0.5372
  175MPD1    N1 2728   3.882   1.908  15.036  0.4714 -0.4124 -0.1930
  175MPD1    H6 2729   3.911   1.953  14.949 -0.4840 -1.7593 -1.2256
  175MPD1    H7 2730   3.960   1.854  15.072  0.5608 -2.2132 -3.0244
  176MPD1     C 2731   0.655   3.692  16.193 -0.7281  0.2858 -0.0708
  176MPD1    C1 2732   0.593   3.802  16.144 -1.7066 -0.8234 -0.0074
  176MPD1    C2 2733   0.594   3.915  16.225 -0.1780  0.1683 -0.3302
  176MPD1    C3 2734   0.638   3.920  16.362 -0.3712  1.3325 -0.1647
  176MPD1    C4 2735   0.689   3.797  16.406 -0.2346 -0.4006  0.1106
  176MPD1    C5 2736   0.706   3.687  16.322  0.6719  0.0339 -0.5745
  176MPD1     H 2737   0.574   4.014  16.184  0.8903  0.4212 -0.2421
  176MPD1    H1 2738   0.722   3.793  16.509 -0.3915 -1.6365  0.1113
  176MPD1    H2 2739   0.660   3.602  16.133  1.3427 -0.0238  0.5710
  176MPD1    H3 2740   0.768   3.603  16.352 -2.8036 -2.1582  0.4347
  176MPD1     N 2741   0.618   4.032  16.441  0.0528 -0.3057 -0.5360
  176MPD1    H5 2742   0.576   4.109  16.389  1.0904  1.5730  1.4054
  176MPD1    N1 2743   0.566   3.811  16.007  0.1681  0.2512 -0.0911
  176MPD1    H6 2744   0.570   3.721  15.960 -0.7840  0.5246 -0.6975
  176MPD1    H7 2745   0.483   3.863  15.977 -0.9423 -0.9618  0.8949
  177MPD1     C 2746   4.178   3.553  10.072 -0.0053  0.7906 -0.3948
  177MPD1    C1 2747   4.039   3.569  10.062 -0.0743 -0.6682 -0.3162
  177MPD1    C2 2748   3.987   3.681  10.004  0.5712 -0.5615  0.1293
  177MPD1    C3 2749   4.066   3.768   9.927  0.9424 -0.0186  0.1642
  177MPD1    C4 2750   4.204   3.754   9.936  0.1464 -0.1599  0.6147
  177MPD1    C5 2751   4.260   3.650  10.009 -0.2636  0.0675 -0.0185
  177MPD1     H 2752   3.879   3.686  10.011  0.4684 -1.8799 -0.5954
  177MPD1    H1 2753   4.271   3.819   9.881 -1.9711  0.7248 -0.9202
  177MPD1    H2 2754   4.222   3.473  10.130 -1.3191 -1.0735 -1.9555
  177MPD1    H3 2755   4.368   3.645  10.014 -0.1448  0.3213 -2.4312
  177MPD1     N 2756   4.006   3.873   9.846 -0.0893  0.3110  0.0377
  177MPD1    H5 2757   3.905   3.877   9.840 -0.0555 -1.3433 -1.4301
  177MPD1    N1 2758   3.951   3.489  10.122 -0.6376 -0.1307  0.3550
  177MPD1    H6 2759   3.988   3.400  10.154 -2.2475 -0.3821  1.5773
  177MPD1    H7 2760   3.865   3.477  10.069  0.2901  0.3177 -1.2220
  178MPD1     C 2761   1.658   0.532   0.170  0.6089 -0.8770  0.4903
  178MPD1    C1 2762   1.562   0.567   0.076  0.0136 -0.0811  1.1112
  178MPD1    C2 2763   1.584   0.553  17.690  0.4132  0.0497  0.1581
  178MPD1    C3 2764   1.703   0.497  17.648  0.1173 -0.2511 -0.5741
  178MPD1    C4 2765   1.786   0.439  17.743 -0.0813  0.6248 -0.0568
  178MPD1    C5 2766   1.765   0.459   0.125 -0.3992 -0.4428 -0.6444
  178MPD1     H 2767   1.507   0.583  17.620  1.6069  0.9603 -0.7513
  178MPD1    H1 2768   1.880   0.391  17.718 -1.2860 -1.1166 -1.2256
  178MPD1    H2 2769   1.649   0.538   0.278  1.5599  0.7365  0.4845
  178MPD1    H3 2770   1.836   0.422   0.198 -1.0393  0.1707  0.2890
  178MPD1     N 2771   1.740   0.476  17.507  0.5182 -0.2547 -0.0734
  178MPD1    H5 2772   1.818   0.413  17.491 -0.2055 -0.9552 -0.8771
  178MPD1    N1 2773   1.432   0.611   0.108  0.3049  0.0105  0.4701
  178MPD1    H6 2774   1.424   0.657   0.198 -0.8470 -0.9241  0.8470
  178MPD1    H7 2775   1.400   0.680   0.040  0.5012 -1.3172 -0.9629
  179MPD1     C 2776   0.818   3.677  15.591  0.5206 -0.4722  0.7167
  179MPD1    C1 2777   0.847   3.608  15.704 -1.3629  0.2000 -0.2401
  179MPD1    C2 2778   0.887   3.479  15.691  0.5519  0.3388 -0.3869
  179MPD1    C3 2779   0.917   3.427  15.565 -0.1689 -0.2722  0.1337
  179MPD1    C4 2780   0.895   3.494  15.451 -0.0448  0.1571 -0.1802
  179MPD1    C5 2781   0.840   3.620  15.462  0.6119  0.2513 -0.8835
  179MPD1     H 2782   0.898   3.417  15.779 -0.9186 -0.4815 -0.7951
  179MPD1    H1 2783   0.913   3.447  15.355  0.9287  2.4140 -1.0955
  179MPD1    H2 2784   0.762   3.768  15.605 -0.1150 -0.9682  1.4408
  179MPD1    H3 2785   0.823   3.681  15.373 -1.0895  0.7041 -0.2493
  179MPD1     N 2786   0.981   3.301  15.558  0.1549  0.2469 -0.1107
  179MPD1    H5 2787   0.981   3.266  15.462 -3.2231  2.6282 -0.9758
  179MPD1    N1 2788   0.810   3.655  15.827 -0.5440 -0.1862 -0.2553
  179MPD1    H6 2789   0.803   3.756  15.835  0.8629 -0.2029  1.1332
  179MPD1    H7 2790   0.862   3.612  15.903 -1.1250 -1.2765 -0.4589
  180MPD1     C 2791   0.421   4.316  14.705 -0.1675 -0.7866 -0.0601
  180MPD1    C1 2792   0.363   4.328  14.575  0.2325  0.1303 -0.9657
  180MPD1    C2 2793   0.453   4.292  14.476  0.8855  0.3479  0.3258
  180MPD1    C3 2794   0.592   4.276  14.497  0.6928 -0.6710 -0.4702
  180MPD1    C4 2795   0.634   4.288  14.627 -0.4056 -0.1025 -0.1122
  180MPD1    C5 2796   0.556   4.310  14.732 -0.1896 -0.5616 -0.1023
  180MPD1     H 2797   0.415   4.301  14.375 -1.1829  1.6818  1.2487
  180MPD1    H1 2798   0.733   4.250  14.652  0.4854  0.2156 -3.1086
  180MPD1    H2 2799   0.356   4.325  14.792 -1.4461 -0.5011 -1.0396
  180MPD1    H3 2800   0.597   4.318  14.832  0.6100 -0.9920 -0.3952
  180MPD1     N 2801   0.674   4.250  14.381  0.4193 -0.3863 -0.2161
  180MPD1    H5 2802   0.621   4.243  14.294 -1.9231 -0.4333  1.2302
  180MPD1    N1 2803   0.230   4.326  14.548  1.0045 -0.1786  0.0890
  180MPD1    H6 2804   0.169   4.367  14.619  1.4318  0.1393  0.2705
  180MPD1    H7 2805   0.213   4.367  14.456  2.3647 -0.8592 -0.4509
  181MPD1     C 2806   3.308   2.552   9.232  0.5803  0.8736 -0.0764
  181MPD1    C1 2807   3.282   2.649   9.325 -0.3902  0.6252 -0.2423
  181MPD1    C2 2808   3.294   2.620   9.456  1.3292  0.7710 -0.5591
  181MPD1    C3 2809   3.300   2.488   9.499  0.0101  0.4784 -0.2392
  181MPD1    C4 2810   3.304   2.391   9.406  0.6268 -0.4433  0.1625
  181MPD1    C5 2811   3.309   2.420   9.273 -0.1339 -0.6588 -0.5109
  181MPD1     H 2812   3.313   2.701   9.525  1.2358  0.5661 -0.2913
  181MPD1    H1 2813   3.326   2.286   9.421 -1.5683 -1.0420 -0.8693
  181MPD1    H2 2814   3.327   2.572   9.127 -0.6038  0.3985 -0.3735
  181MPD1    H3 2815   3.333   2.345   9.199 -0.3129 -0.8918 -0.3340
  181MPD1     N 2816   3.303   2.444   9.633  0.3061 -0.2668  0.0137
  181MPD1    H5 2817   3.321   2.347   9.656  1.5840 -0.2780 -1.0680
  181MPD1    N1 2818   3.281   2.788   9.285  0.4423  0.1714 -0.7996
  181MPD1    H6 2819   3.248   2.851   9.358  2.5261  0.0720  0.2245
  181MPD1    H7 2820   3.217   2.798   9.206 -1.1754  0.8898  0.5974
  182MPD1     C 2821   3.840   0.758   1.525  0.4018  0.0783  0.1148
  182MPD1    C1 2822   3.843   0.712   1.400  0.2555  1.0009  0.1037
  182MPD1    C2 2823   3.756   0.760   1.305  0.4435 -0.7866  0.2333
  182MPD1    C3 2824   3.644   0.838   1.337  0.3308 -0.7390 -0.8308
  182MPD1    C4 2825   3.634   0.867   1.469  0.0728  0.0049 -0.2551
  182MPD1    C5 2826   3.731   0.829   1.555  0.1424  0.1159  0.1916
  182MPD1     H 2827   3.767   0.731   1.201  0.5351 -0.7691  0.2377
  182MPD1    H1 2828   3.555   0.927   1.513  1.6176  0.6485  1.6310
  182MPD1    H2 2829   3.909   0.742   1.607  1.3014  1.3015 -0.3993
  182MPD1    H3 2830   3.716   0.861   1.658  0.9269 -1.7026  0.8743
  182MPD1     N 2831   3.552   0.888   1.237  0.3078  0.1607 -0.4122
  182MPD1    H5 2832   3.470   0.940   1.268 -0.7715 -1.8339  0.1514
  182MPD1    N1 2833   3.963   0.651   1.366  0.3328  0.0030  0.1988
  182MPD1    H6 2834   3.951   0.597   1.281 -0.2569 -0.1682  0.3965
  182MPD1    H7 2835   3.997   0.595   1.444  2.7325  0.3887 -0.5716
  183MPD1     C 2836   3.643   1.638   8.978  0.1072  0.1021  0.5761
  183MPD1    C1 2837   3.587   1.732   9.061  0.0616  0.1564  0.1166
  183MPD1    C2 2838   3.639   1.747   9.184 -0.9203 -0.3069 -0.8093
  183MPD1    C3 2839   3.742   1.668   9.222 -0.1608  0.1609 -0.1350
  183MPD1    C4 2840   3.803   1.582   9.141  0.4540  0.1923  0.2325
  183MPD1    C5 2841   3.746   1.558   9.020 -0.3972  0.7476 -0.2637
  183MPD1     H 2842   3.594   1.822   9.249 -1.3957 -1.7846  0.5561
  183MPD1    H1 2843   3.884   1.517   9.171  0.5274 -0.6173 -1.6712
  183MPD1    H2 2844   3.606   1.631   8.876 -0.7224  0.8464  0.8345
  183MPD1    H3 2845   3.782   1.487   8.946 -0.5509 -0.4889  0.8345
  183MPD1     N 2846   3.793   1.710   9.348 -0.0909  0.2068 -1.3865
  183MPD1    H5 2847   3.745   1.791   9.386  0.7884  0.9662 -1.8867
  183MPD1    N1 2848   3.509   1.837   8.999 -0.0486  0.0443  0.1872
  183MPD1    H6 2849   3.463   1.804   8.915 -1.1650 -0.5897  1.0592
  183MPD1    H7 2850   3.442   1.874   9.066 -0.0359  0.9668 -0.2994
  184MPD1     C 2851   2.968   3.482  10.339  0.7150 -0.1169 -0.5621
  184MPD1    C1 2852   3.093   3.530  10.311  0.0481  0.1829  0.7377
  184MPD1    C2 2853   3.098   3.607  10.197  0.2543 -0.1070  0.3004
  184MPD1    C3 2854   2.992   3.627  10.115 -1.4685 -0.1277  0.3975
  184MPD1    C4 2855   2.869   3.583  10.149  0.4664  0.0537  0.5628
  184MPD1    C5 2856   2.857   3.505  10.255 -0.4085 -0.0379  0.1073
  184MPD1     H 2857   3.192   3.647  10.162 -1.6617  1.4426 -3.0892
  184MPD1    H1 2858   2.791   3.601  10.076  0.0774 -2.4031  0.3775
  184MPD1    H2 2859   2.942   3.434  10.433 -1.0249  0.7145 -0.6232
  184MPD1    H3 2860   2.756   3.474  10.283  0.4241 -1.2947  1.7009
  184MPD1     N 2861   3.000   3.694   9.991 -0.3245  0.5485 -0.0502
  184MPD1    H5 2862   2.921   3.670   9.933 -1.1345  1.7933  0.5379
  184MPD1    N1 2863   3.202   3.520  10.400 -0.5088  0.5083  0.1292
  184MPD1    H6 2864   3.289   3.539  10.352  0.3939 -1.0521  1.1163
  184MPD1    H7 2865   3.208   3.428  10.445 -0.0547  0.3767 -0.2012
  185MPD1     C 2866   2.889   3.590   9.006  0.4226  0.2331 -0.0945
  185MPD1    C1 2867   2.845   3.526   9.119 -0.0250 -0.0235 -0.0512
  185MPD1    C2 2868   2.898   3.573   9.244  0.7799  0.8409  0.0942
  185MPD1    C3 2869   2.993   3.674   9.251 -1.3312  0.6173 -0.5688
  185MPD1    C4 2870   3.055   3.715   9.133 -0.7912 -0.0622 -0.0078
  185MPD1    C5 2871   3.009   3.663   9.012  0.0341  0.6600  0.3407
  185MPD1     H 2872   2.859   3.528   9.335 -0.7710  2.4549  0.2267
  185MPD1    H1 2873   3.112   3.805   9.114 -0.0832 -0.3740  0.6501
  185MPD1    H2 2874   2.853   3.562   8.908 -1.1109  1.6078  0.0674
  185MPD1    H3 2875   3.049   3.705   8.921  0.9856 -0.5045  0.2227
  185MPD1     N 2876   3.039   3.737   9.368  0.6984 -0.5781  0.4536
  185MPD1    H5 2877   3.103   3.813   9.346 -1.5778  0.4468 -2.5915
  185MPD1    N1 2878   2.733   3.450   9.122 -1.2136  0.4600 -0.8851
  185MPD1    H6 2879   2.727   3.378   9.194 -0.4931  0.2672 -1.0162
  185MPD1    H7 2880   2.719   3.388   9.042  0.6043  0.7883 -1.4424
  186MPD1     C 2881   2.341   3.118  15.836  0.5944  0.0143  0.3525
  186MPD1    C1 2882   2.284   3.123  15.962 -0.0891  0.0480 -0.1428
  186MPD1    C2 2883   2.182   3.219  15.989 -0.5918  0.3681  0.3845
  186MPD1    C3 2884   2.163   3.332  15.900  0.1760 -0.1987 -0.0018
  186MPD1    C4 2885   2.234   3.331  15.787  0.3489 -0.3987  0.1995
  186MPD1    C5 2886   2.319   3.226  15.748  0.0203  0.1449  0.8109
  186MPD1     H 2887   2.153   3.225  16.093 -3.0024 -0.4868 -0.2427
  186MPD1    H1 2888   2.219   3.412  15.715  2.4320  1.2630  1.6488
  186MPD1    H2 2889   2.407   3.035  15.812  0.5142  1.2488 -4.1628
  186MPD1    H3 2890   2.375   3.238  15.656  0.9333  2.6542  1.7131
  186MPD1     N 2891   2.082   3.440  15.946 -0.1635  0.2882 -0.8206
  186MPD1    H5 2892   2.100   3.533  15.911  1.7432 -0.5689 -2.0970
  186MPD1    N1 2893   2.314   3.014  16.051  0.1636  0.3474 -0.1417
  186MPD1    H6 2894   2.293   3.036  16.148  0.2976  2.2432 -0.5459
  186MPD1    H7 2895   2.410   2.982  16.050  0.7394  2.0770  1.4152
  187MPD1     C 2896   1.525   0.101  17.553  0.0728 -0.9446  0.3281
  187MPD1    C1 2897   1.490   0.050  17.428  0.3477  0.1406  0.0886
  187MPD1    C2 2898   1.403   0.117  17.343  0.4217  0.2870  0.0130
  187MPD1    C3 2899   1.369   0.247  17.373  0.6415  0.4466 -0.8162
  187MPD1    C4 2900   1.401   0.301  17.499 -0.4026  0.5120 -0.0000
  187MPD1    C5 2901   1.475   0.222  17.588 -0.0022  0.1932  0.2079
  187MPD1     H 2902   1.362   0.071  17.254  1.0933  1.6767 -1.0189
  187MPD1    H1 2903   1.390   0.408  17.512 -0.5519  0.5091 -0.1106
  187MPD1    H2 2904   1.585   0.055  17.630  0.0090 -2.0304 -0.2741
  187MPD1    H3 2905   1.520   0.259  17.680 -0.5592 -0.0464  0.5702
  187MPD1     N 2906   1.278   0.314  17.293  0.4114 -0.5619 -0.0597
  187MPD1    H5 2907   1.271   0.414  17.313 -0.9678 -0.4732 -0.9556
  187MPD1    N1 2908   1.523   4.650  17.409 -0.1860 -0.4207 -0.2627
  187MPD1    H6 2909   1.611   4.623  17.452  0.6006  3.0729  0.2781
  187MPD1    H7 2910   1.533   4.626  17.310 -0.1984  0.0009 -0.3652
  188MPD1     C 2911   0.549   0.096   9.663  0.7198 -0.4870 -0.0979
  188MPD1    C1 2912   0.679   0.067   9.709  0.3911  0.4212  0.5864
  188MPD1    C2 2913   0.708   4.668   9.738 -0.7759  0.3480 -0.3830
  188MPD1    C3 2914   0.597   4.577   9.737  0.0572  0.6797  0.2366
  188MPD1    C4 2915   0.470   4.625   9.734  0.2402  0.0881 -0.2298
  188MPD1    C5 2916   0.446   0.016   9.698  0.2648  0.1740 -0.1179
  188MPD1     H 2917   0.810   4.638   9.757 -1.1423 -2.1699 -2.3196
  188MPD1    H1 2918   0.387   4.555   9.724 -1.0303  1.4885  0.4457
  188MPD1    H2 2919   0.521   0.194   9.628  0.5989 -0.8691 -1.0579
  188MPD1    H3 2920   0.349   0.057   9.671  0.0939 -0.1623 -0.0145
  188MPD1     N 2921   0.610   4.442   9.771 -0.4230  0.6351 -0.2838
  188MPD1    H5 2922   0.520   4.408   9.803 -1.0440  2.0266 -0.5456
  188MPD1    N1 2923   0.790   0.157   9.688  0.4002  0.3415 -0.0170
  188MPD1    H6 2924   0.866   0.148   9.756 -0.4111 -0.2250  0.8177
  188MPD1    H7 2925   0.765   0.255   9.676  0.6162  0.3423 -0.4470
  189MPD1     C 2926   2.181   2.155   0.903  0.2751  0.3557 -0.6099
  189MPD1    C1 2927   2.089   2.225   0.819  0.5808  0.4179 -0.7255
  189MPD1    C2 2928   2.063   2.173   0.689  0.0757 -0.1065 -0.0321
  189MPD1    C3 2929   2.122   2.053   0.646 -0.6662 -0.0471  0.0801
  189MPD1    C4 2930   2.221   1.995   0.722  1.3319  0.2357 -0.0076
  189MPD1    C5 2931   2.242   2.044   0.846  0.2332  0.6814  0.3385
  189MPD1     H 2932   1.993   2.230   0.629  2.1750  2.2142 -0.2841
  189MPD1    H1 2933   2.281   1.912   0.685 -0.1004  0.0529 -1.9122
  189MPD1    H2 2934   2.217   2.198   0.995  1.0352 -2.3207  0.3401
  189MPD1    H3 2935   2.328   2.004   0.898  1.4896  0.5281 -1.8335
  189MPD1     N 2936   2.086   2.006   0.517 -0.5447 -0.2319  0.2000
  189MPD1    H5 2937   2.033   2.073   0.463  0.9126  0.9246  0.2025
  189MPD1    N1 2938   2.061   2.354   0.848  0.0190 -0.0184 -0.1118
  189MPD1    H6 2939   1.963   2.371   0.828 -0.0580  2.3844  2.3889
  189MPD1    H7 2940   2.082   2.380   0.944  0.6616 -3.7174  0.7478
  190MPD1     C 2941   1.492   0.438  15.308  0.6156 -0.3344  0.0413
  190MPD1    C1 2942   1.429   0.368  15.408 -0.0045 -0.1439 -0.7223
  190MPD1    C2 2943   1.481   0.249  15.442  0.1411  1.0855  0.3734
  190MPD1    C3 2944   1.589   0.191  15.369 -0.6807  0.5760  0.1660
  190MPD1    C4 2945   1.650   0.268  15.275  1.3569 -0.2821 -0.0714
  190MPD1    C5 2946   1.598   0.393  15.241  0.3390  0.0544  0.3978
  190MPD1     H 2947   1.431   0.197  15.523  2.2895  0.8158  1.5083
  190MPD1    H1 2948   1.744   0.242  15.228  2.2968 -0.1785  1.7720
  190MPD1    H2 2949   1.450   0.535  15.288 -1.3850 -1.1076  0.4895
  190MPD1    H3 2950   1.650   0.449  15.164  0.3310 -1.6192 -0.8174
  190MPD1     N 2951   1.636   0.063  15.416 -0.6488  0.2313 -0.1582
  190MPD1    H5 2952   1.570   0.015  15.476 -1.0503 -0.2587 -0.9912
  190MPD1    N1 2953   1.330   0.433  15.481 -0.2079  0.0915 -0.5016
  190MPD1    H6 2954   1.276   0.495  15.421 -0.3254  1.4263  0.9589
  190MPD1    H7 2955   1.261   0.375  15.530 -0.5170  0.8766 -0.0040
  191MPD1     C 2956   0.830   2.514  12.085 -0.3140  0.1009  0.9043
  191MPD1    C1 2957   0.924   2.433  12.147 -0.5853 -0.9269  0.0652
  191MPD1    C2 2958   0.979   2.328  12.075 -0.6343 -0.1000  0.8082
  191MPD1    C3 2959   0.950   2.317  11.937 -0.4857 -0.0894  0.0640
  191MPD1    C4 2960   0.876   2.416  11.879  0.1537  0.6080  0.6174
  191MPD1    C5 2961   0.808   2.506  11.951 -0.5862  0.3206 -0.9013
  191MPD1     H 2962   1.035   2.251  12.126 -1.7712 -0.9219  0.8222
  191MPD1    H1 2963   0.851   2.416  11.774  0.6465  0.4649  0.5052
  191MPD1    H2 2964   0.772   2.591  12.135  0.8944  0.7697  1.2846
  191MPD1    H3 2965   0.727   2.559  11.902  0.3324 -0.0864 -2.8555
  191MPD1     N 2966   1.003   2.217  11.844  0.1714  0.2085  0.6269
  191MPD1    H5 2967   0.989   2.232  11.745 -2.1567  3.2534  1.3994
  191MPD1    N1 2968   0.942   2.444  12.284  0.6025 -0.1287 -0.6205
  191MPD1    H6 2969   1.021   2.396  12.325  0.7826  1.3291  0.7324
  191MPD1    H7 2970   0.946   2.542  12.312  1.9935  0.0886 -1.5975
  192MPD1     C 2971   0.734   1.966  11.103 -0.1132  0.0080 -0.3398
  192MPD1    C1 2972   0.840   2.051  11.093 -0.3073  0.2394  0.3992
  192MPD1    C2 2973   0.932   2.039  11.196  0.8597  0.4438 -0.1059
  192MPD1    C3 2974   0.893   1.966  11.310 -0.0243  0.0547 -0.8151
  192MPD1    C4 2975   0.774   1.902  11.324 -0.2568 -0.0715  0.7717
  192MPD1    C5 2976   0.694   1.900  11.215  0.1808 -0.1883 -0.1704
  192MPD1     H 2977   1.022   2.099  11.190  1.7048 -0.6581  1.5445
  192MPD1    H1 2978   0.752   1.847  11.415 -2.3936  0.1867  0.4015
  192MPD1    H2 2979   0.663   1.967  11.021  0.1873  1.4941 -0.5863
  192MPD1    H3 2980   0.612   1.831  11.202 -0.2150  0.2606 -0.0385
  192MPD1     N 2981   0.976   1.957  11.426 -0.3734 -0.0215  0.3094
  192MPD1    H5 2982   0.941   1.919  11.513  0.0306 -1.2480 -0.0602
  192MPD1    N1 2983   0.872   2.125  10.975  0.3243  0.2108 -0.8761
  192MPD1    H6 2984   0.923   2.212  10.989  2.4199 -1.3479  1.1103
  192MPD1    H7 2985   0.781   2.145  10.934 -1.4113 -1.1495  2.2869
  193MPD1     C 2986   0.470   1.726  17.501 -0.0818  0.1690  0.1424
  193MPD1    C1 2987   0.362   1.799  17.484 -0.2410 -0.1381  0.7879
  193MPD1    C2 2988   0.345   1.867  17.358 -0.7365  0.5855  0.6252
  193MPD1    C3 2989   0.438   1.860  17.259  0.1145  0.0985  0.3439
  193MPD1    C4 2990   0.552   1.783  17.281  0.2179  0.2742  0.4249
  193MPD1    C5 2991   0.565   1.714  17.406 -0.1956 -0.2135 -0.2686
  193MPD1     H 2992   0.252   1.919  17.339 -1.6275 -0.8120  1.1510
  193MPD1    H1 2993   0.633   1.782  17.210  1.1762  0.3570  1.5208
  193MPD1    H2 2994   0.492   1.668  17.589  0.5029  0.6617  0.3199
  193MPD1    H3 2995   0.654   1.660  17.439  0.2523  0.6209 -0.1082
  193MPD1     N 2996   0.434   1.932  17.135  0.3292 -0.4105  0.5709
  193MPD1    H5 2997   0.516   1.949  17.078 -0.6132 -2.1767 -1.3207
  193MPD1    N1 2998   0.266   1.794  17.586 -0.0839 -0.3697 -0.2931
  193MPD1    H6 2999   0.305   1.782  17.679  2.3329 -1.8737 -1.4880
  193MPD1    H7 3000   0.211   1.879  17.592  1.1177  0.3479  0.6958
  194MPD1     C 3001   2.983   4.294  16.917  0.4642  0.2754 -0.0691
  194MPD1    C1 3002   2.922   4.240  16.809 -0.2127 -0.1195 -0.1698
  194MPD1    C2 3003   2.877   4.106  16.816 -1.1786  0.4462 -0.1912
  194MPD1    C3 3004   2.908   4.026  16.922 -0.6151  0.3892 -0.1738
  194MPD1    C4 3005   2.973   4.087  17.031 -0.1206 -0.3564 -0.2895
  194MPD1    C5 3006   3.014   4.217  17.031 -0.1542  0.0504 -0.3606
  194MPD1     H 3007   2.828   4.058  16.732 -0.6020 -0.0703 -0.2341
  194MPD1    H1 3008   2.991   4.024  17.117 -3.0654  0.6986  1.0840
  194MPD1    H2 3009   3.016   4.397  16.922  0.1033  0.3532  0.6940
  194MPD1    H3 3010   3.063   4.259  17.117 -2.5233  0.2253  0.9127
  194MPD1     N 3011   2.862   3.892  16.943  0.0920  0.1641  0.1774
  194MPD1    H5 3012   2.894   3.852  17.031  0.7017  0.1869 -0.0337
  194MPD1    N1 3013   2.880   4.330  16.707 -0.4186  0.6097 -0.0431
  194MPD1    H6 3014   2.941   4.411  16.699 -1.4386  1.3289 -0.5376
  194MPD1    H7 3015   2.873   4.282  16.618  3.4894  0.8687 -0.4780
  195MPD1     C 3016   0.368   0.994  17.148 -0.1134 -0.3185 -0.8859
  195MPD1    C1 3017   0.246   0.941  17.101 -0.0517  0.2181  0.1130
  195MPD1    C2 3018   0.205   0.823  17.149 -0.4054 -0.1684 -0.4110
  195MPD1    C3 3019   0.274   0.760  17.252  0.3520 -1.3857 -0.8055
  195MPD1    C4 3020   0.384   0.824  17.313 -0.3343  0.4146  0.3668
  195MPD1    C5 3021   0.430   0.936  17.256 -0.1153 -0.7866  0.3871
  195MPD1     H 3022   0.113   0.785  17.106  0.6746 -2.1346 -1.0073
  195MPD1    H1 3023   0.437   0.773  17.393 -0.8570  1.2200  1.2261
  195MPD1    H2 3024   0.409   1.079  17.096 -1.3337 -1.2066 -3.3033
  195MPD1    H3 3025   0.526   0.971  17.292 -1.3693  3.5931 -0.4553
  195MPD1     N 3026   0.234   0.632  17.309 -0.2417 -0.3887  0.3852
  195MPD1    H5 3027   0.299   0.595  17.378 -1.7056 -1.2508  1.2859
  195MPD1    N1 3028   0.183   1.002  16.987  0.5622  0.0238  0.8777
  195MPD1    H6 3029   0.087   0.972  16.971 -0.1464  2.5438  0.2823
  195MPD1    H7 3030   0.189   1.103  16.975 -0.9703 -0.0140 -0.1970
  196MPD1     C 3031   4.206   0.342  17.565 -0.1621 -0.8414  0.2954
  196MPD1    C1 3032   4.340   0.374  17.595 -0.2472  0.6385  0.1110
  196MPD1    C2 3033   4.360   0.417  17.724 -0.0257  0.1445  0.1440
  196MPD1    C3 3034   4.261   0.423   0.074  1.0266 -0.5771  0.1003
  196MPD1    C4 3035   4.135   0.384   0.046  0.3425 -0.3534 -0.0806
  196MPD1    C5 3036   4.108   0.354  17.664 -0.2745  0.8213  0.2560
  196MPD1     H 3037   4.465   0.422   0.002 -0.2952 -0.4175  1.3037
  196MPD1    H1 3038   4.049   0.376   0.112 -0.7566 -1.4733 -1.6477
  196MPD1    H2 3039   4.181   0.310  17.464 -0.7865 -1.0104  0.5024
  196MPD1    H3 3040   4.003   0.341  17.640 -0.3708  0.8832  0.6422
  196MPD1     N 3041   4.281   0.466   0.209  0.2760 -0.6758  0.2375
  196MPD1    H5 3042   4.199   0.459   0.270  0.0191  0.4607  0.0191
  196MPD1    N1 3043   4.437   0.394  17.492 -0.8438 -0.7137  0.7153
  196MPD1    H6 3044   4.533   0.389  17.526  1.0757  0.0893 -4.6312
  196MPD1    H7 3045   4.427   0.324  17.418  1.4541 -0.5205  0.2399
  197MPD1     C 3046   3.918   2.795  17.394  0.0138 -0.2999  0.0896
  197MPD1    C1 3047   3.944   2.687  17.317 -0.1203 -0.1036 -0.7909
  197MPD1    C2 3048   4.030   2.699  17.208  0.3051  0.2368 -0.1531
  197MPD1    C3 3049   4.087   2.822  17.176 -0.1597  0.7515 -0.3375
  197MPD1    C4 3050   4.071   2.926  17.265 -0.1426 -0.0133  0.2894
  197MPD1    C5 3051   3.985   2.911  17.374  0.2089  0.0180 -0.1420
  197MPD1     H 3052   4.039   2.612  17.144 -1.5635 -0.8078  0.9817
  197MPD1    H1 3053   4.128   3.017  17.250  0.9225 -0.9751 -1.4225
  197MPD1    H2 3054   3.846   2.791  17.475  0.0142 -0.0865  0.0999
  197MPD1    H3 3055   3.979   2.994  17.443 -1.1187  2.0705 -2.7436
  197MPD1     N 3056   4.175   2.842  17.067  0.4041  0.0542 -0.1850
  197MPD1    H5 3057   4.225   2.930  17.057  0.0317  0.1554 -1.1186
  197MPD1    N1 3058   3.874   2.568  17.334  0.1806 -0.4615  0.3960
  197MPD1    H6 3059   3.845   2.545  17.429 -0.7390 -0.9205  0.0084
  197MPD1    H7 3060   3.933   2.492  17.300  2.0997  0.4662  1.6471
  198MPD1     C 3061   0.507   0.285  15.151  1.0083  0.5411 -0.1206
  198MPD1    C1 3062   0.613   0.267  15.235  0.2604  0.6046 -0.2703
  198MPD1    C2 3063   0.709   0.359  15.237  0.4791 -0.5787 -0.2048
  198MPD1    C3 3064   0.700   0.477  15.177  0.6637 -0.2552  0.4290
  198MPD1    C4 3065   0.585   0.506  15.101  0.2877  0.2135 -0.5233
  198MPD1    C5 3066   0.488   0.407  15.090  0.3498  0.1350  0.6122
  198MPD1     H 3067   0.790   0.333  15.304  1.2565 -0.0888 -0.9608
  198MPD1    H1 3068   0.574   0.598  15.044  0.3754  1.3287  1.2755
  198MPD1    H2 3069   0.439   0.202  15.134 -1.0985  1.8794  1.8540
  198MPD1    H3 3070   0.403   0.429  15.026 -0.0535  0.5258  1.2756
  198MPD1     N 3071   0.813   0.561  15.190 -0.1201  0.0836 -0.4499
  198MPD1    H5 3072   0.872   0.536  15.269  0.4854  1.4229 -0.4766
  198MPD1    N1 3073   0.629   0.143  15.308 -0.6022  0.4650 -0.1955
  198MPD1    H6 3074   0.560   0.070  15.322  0.5135 -0.7474 -0.8975
  198MPD1    H7 3075   0.693   0.138  15.387 -1.7679 -3.6261  0.5216
  199MPD1     C 3076   2.641   1.742  10.911 -0.8240 -0.4952  0.0005
  199MPD1    C1 3077   2.507   1.743  10.878 -0.3616  0.0615 -0.1205
  199MPD1    C2 3078   2.481   1.775  10.744  0.4874  0.7273 -0.1112
  199MPD1    C3 3079   2.580   1.811  10.649 -0.3242  0.6575  0.7384
  199MPD1    C4 3080   2.708   1.821  10.701 -0.0640  0.1687 -0.7193
  199MPD1    C5 3081   2.737   1.784  10.824  0.5429 -0.2007  0.2763
  199MPD1     H 3082   2.377   1.781  10.715  0.9635  1.5072 -1.6969
  199MPD1    H1 3083   2.801   1.849  10.652  0.3455  3.0116  1.6598
  199MPD1    H2 3084   2.675   1.722  11.011 -1.6680 -0.2971  0.3269
  199MPD1    H3 3085   2.835   1.802  10.868  0.0589  0.8071  0.9749
  199MPD1     N 3086   2.561   1.831  10.507  0.1274 -0.0404  0.3064
  199MPD1    H5 3087   2.646   1.843  10.453  0.4408 -3.4672  0.0154
  199MPD1    N1 3088   2.411   1.671  10.960  0.0522  0.3699 -0.0902
  199MPD1    H6 3089   2.313   1.696  10.944 -0.0124  1.8507  2.5391
  199MPD1    H7 3090   2.436   1.671  11.059  1.7472  0.4235 -0.5135
  200MPD1     C 3091   2.070   1.551  15.424 -0.2197  0.2419 -0.3196
  200MPD1    C1 3092   1.984   1.513  15.323  0.2157 -0.6354 -0.2080
  200MPD1    C2 3093   1.997   1.574  15.200 -0.3168 -0.6430 -0.5174
  200MPD1    C3 3094   2.120   1.631  15.169 -0.5229  0.1721  0.0905
  200MPD1    C4 3095   2.205   1.668  15.269  0.7007 -0.1270  0.4399
  200MPD1    C5 3096   2.180   1.632  15.402  0.1518  0.2980  0.6169
  200MPD1     H 3097   1.926   1.542  15.125  0.5950  0.1493 -1.7032
  200MPD1    H1 3098   2.288   1.737  15.253  0.4325 -0.0760 -0.7192
  200MPD1    H2 3099   2.052   1.510  15.523  0.1393 -1.1163 -0.8106
  200MPD1    H3 3100   2.246   1.666  15.481  0.3242 -0.1732  0.6755
  200MPD1     N 3101   2.142   1.666  15.035 -0.1177 -0.7284 -0.2883
  200MPD1    H5 3102   2.074   1.640  14.964 -0.2730 -1.6351  0.1818
  200MPD1    N1 3103   1.864   1.438  15.355 -0.5325  0.0118  0.2045
  200MPD1    H6 3104   1.832   1.377  15.281  0.4355 -2.3683  1.7691
  200MPD1    H7 3105   1.886   1.373  15.430  3.5109  0.8552 -0.2587
  201MPD1     C 3106   4.188   1.161  13.507  0.2764  0.0181 -0.1907
  201MPD1    C1 3107   4.091   1.065  13.482  0.0062 -0.3235 -0.7296
  201MPD1    C2 3108   4.140   0.934  13.502 -0.1528  0.2227 -0.2865
  201MPD1    C3 3109   4.277   0.905  13.538  0.0601 -0.1682 -0.3698
  201MPD1    C4 3110   4.363   1.015  13.553 -0.8325 -0.8855  0.4561
  201MPD1    C5 3111   4.323   1.141  13.535 -0.2795  0.3703  0.4422
  201MPD1     H 3112   4.074   0.848  13.498 -1.8249  1.5433 -1.3604
  201MPD1    H1 3113   4.464   1.016  13.592 -0.8019  0.2513  0.3678
  201MPD1    H2 3114   4.148   1.262  13.518 -0.2617 -0.1904 -0.2504
  201MPD1    H3 3115   4.382   1.229  13.558  1.5434 -0.6213 -0.5026
  201MPD1     N 3116   4.313   0.770  13.556 -0.1529 -0.4660 -0.0129
  201MPD1    H5 3117   4.237   0.706  13.536 -0.1010 -1.1527  1.9581
  201MPD1    N1 3118   3.958   1.097  13.472 -0.2502  0.1398  0.0524
  201MPD1    H6 3119   3.930   1.191  13.444 -0.5688 -0.2272 -0.8902
  201MPD1    H7 3120   3.914   1.027  13.412 -2.5437  0.0030  1.8962
  202MPD1     C 3121   4.518   0.592   9.148 -0.6595 -0.1512  0.2797
  202MPD1    C1 3122   4.448   0.710   9.171 -0.2653  0.1966  0.6032
  202MPD1    C2 3123   4.517   0.809   9.232  0.0856 -0.4140  1.1313
  202MPD1    C3 3124   4.636   0.778   9.295  0.1141  0.2059 -0.0151
  202MPD1    C4 3125   4.697   0.658   9.293  0.4055 -0.3069 -0.0372
  202MPD1    C5 3126   4.635   0.565   9.208  0.0800 -0.1366 -0.2446
  202MPD1     H 3127   4.487   0.913   9.223  1.4708 -0.1313 -0.0641
  202MPD1    H1 3128   0.054   0.626   9.334 -0.2256  0.3422  1.8888
  202MPD1    H2 3129   4.474   0.517   9.084 -1.2968 -0.0478  0.5985
  202MPD1    H3 3130   4.676   0.465   9.199 -0.0711 -0.1314 -1.0027
  202MPD1     N 3131   4.700   0.875   9.376 -0.0611 -0.0461 -0.0558
  202MPD1    H5 3132   0.054   0.842   9.403  0.7093  1.4857 -0.7695
  202MPD1    N1 3133   4.352   0.748   9.077  0.4114 -0.8741  0.0073
  202MPD1    H6 3134   4.293   0.668   9.053 -0.3627 -0.8377  1.7972
  202MPD1    H7 3135   4.297   0.832   9.096 -0.5091 -1.8488  1.6541
  203MPD1     C 3136   3.204   1.402  12.509 -0.0623 -0.2019  0.4101
  203MPD1    C1 3137   3.193   1.331  12.393 -0.0136 -0.1065 -0.5411
  203MPD1    C2 3138   3.232   1.198  12.396 -0.3124 -0.1889 -0.2135
  203MPD1    C3 3139   3.290   1.143  12.505 -0.6632 -0.3158 -0.2712
  203MPD1    C4 3140   3.307   1.214  12.620  0.4542  0.7097  0.3299
  203MPD1    C5 3141   3.258   1.347  12.621 -0.6307  0.1523 -0.7131
  203MPD1     H 3142   3.227   1.134  12.308 -1.6917  0.0608 -0.3143
  203MPD1    H1 3143   3.336   1.173  12.715 -2.2371  1.2791  1.3893
  203MPD1    H2 3144   3.171   1.504  12.522  0.4481  0.0985 -0.6565
  203MPD1    H3 3145   3.258   1.399  12.716 -2.0076  0.6891 -1.0035
  203MPD1     N 3146   3.334   1.009  12.491  0.3867  0.1799 -0.0229
  203MPD1    H5 3147   3.349   0.973  12.397  2.0559  1.7555 -0.3719
  203MPD1    N1 3148   3.134   1.382  12.278 -0.3609  0.0242 -0.4893
  203MPD1    H6 3149   3.126   1.313  12.204  0.8017 -0.6934  0.0645
  203MPD1    H7 3150   3.188   1.463  12.247 -0.5259  1.3723  2.7764
  204MPD1     C 3151   2.109   2.589  17.242  0.3753  0.2530  0.6033
  204MPD1    C1 3152   2.184   2.608  17.126  0.1116  0.3288 -0.3857
  204MPD1    C2 3153   2.261   2.507  17.077  0.2915 -0.5873  0.4462
  204MPD1    C3 3154   2.287   2.389  17.150  0.1322 -0.0427 -0.0785
  204MPD1    C4 3155   2.238   2.389  17.276 -0.3480 -0.0631 -0.0900
  204MPD1    C5 3156   2.135   2.476  17.317  0.1839  0.4768  0.6685
  204MPD1     H 3157   2.315   2.519  16.984  1.4062 -0.9134  1.0462
  204MPD1    H1 3158   2.255   2.305  17.343 -1.5761 -1.6036 -1.7029
  204MPD1    H2 3159   2.031   2.654  17.281 -2.0753 -1.3073 -1.7748
  204MPD1    H3 3160   2.078   2.462  17.408 -1.0941  1.8353  0.0835
  204MPD1     N 3161   2.378   2.293  17.096  0.4068 -0.5371 -0.3161
  204MPD1    H5 3162   2.422   2.316  17.007 -0.4274 -0.2002 -0.6417
  204MPD1    N1 3163   2.172   2.731  17.060  0.5421  0.0459  0.4903
  204MPD1    H6 3164   2.181   2.801  17.134  1.3399 -0.6890  1.0886
  204MPD1    H7 3165   2.252   2.737  16.997 -0.5090  0.3634 -0.8087
  205MPD1     C 3166   1.625   1.034  17.110  0.2453 -0.7409  0.0851
  205MPD1    C1 3167   1.699   1.052  16.995 -0.3486  0.0722  0.0708
  205MPD1    C2 3168   1.836   1.062  17.010  0.1044 -0.1396 -0.3884
  205MPD1    C3 3169   1.894   1.068  17.132 -0.3581 -0.2404 -0.4993
  205MPD1    C4 3170   1.815   1.068  17.247 -0.6127  1.1185 -0.1174
  205MPD1    C5 3171   1.682   1.047  17.235 -0.0799 -0.7699  0.5441
  205MPD1     H 3172   1.895   1.060  16.919 -0.0829 -1.5851 -0.4722
  205MPD1    H1 3173   1.860   1.061  17.345 -1.6335 -1.8084  0.1515
  205MPD1    H2 3174   1.518   1.014  17.111 -0.1301  1.3109  1.7702
  205MPD1    H3 3175   1.621   1.039  17.325  1.9373  2.0328  2.1499
  205MPD1     N 3176   2.035   1.078  17.151  0.3333  0.4015 -0.1683
  205MPD1    H5 3177   2.058   1.084  17.250 -0.1667 -2.1878  0.0900
  205MPD1    N1 3178   1.651   1.040  16.866 -0.4967 -0.2804  0.3696
  205MPD1    H6 3179   1.709   1.100  16.809 -1.0561 -0.6998 -0.6393
  205MPD1    H7 3180   1.552   1.061  16.854 -0.5289 -0.7203 -0.1435
  206MPD1     C 3181   3.200   4.175  16.514  0.0445 -0.0609  0.2362
  206MPD1    C1 3182   3.190   4.061  16.582 -0.3532 -0.5351 -0.4351
  206MPD1    C2 3183   3.225   3.943  16.515 -0.3044  0.5726 -0.0884
  206MPD1    C3 3184   3.235   3.942  16.375  0.2903  0.2256  0.1676
  206MPD1    C4 3185   3.211   4.061  16.307 -0.3856  0.1278  0.0364
  206MPD1    C5 3186   3.210   4.176  16.381 -0.2803 -0.2679  0.3834
  206MPD1     H 3187   3.234   3.855  16.578  1.5119  0.8019 -0.0356
  206MPD1    H1 3188   3.212   4.061  16.199  3.6826 -0.3092  0.0512
  206MPD1    H2 3189   3.203   4.268  16.569 -2.5895 -0.2878  0.7444
  206MPD1    H3 3190   3.197   4.270  16.327  2.2150 -1.1143 -1.7225
  206MPD1     N 3191   3.243   3.819  16.303 -0.5090  0.4431  0.3513
  206MPD1    H5 3192   3.231   3.823  16.202  0.7558 -0.3811  0.1742
  206MPD1    N1 3193   3.200   4.071  16.718  0.8218 -0.3728  0.2094
  206MPD1    H6 3194   3.172   3.983  16.761 -2.1487  0.6070  0.2452
  206MPD1    H7 3195   3.142   4.144  16.758 -0.7179 -0.1158 -2.5148
  207MPD1     C 3196   0.137   2.150   9.898 -0.3991  0.3804  0.5340
  207MPD1    C1 3197   0.192   2.275   9.882  0.2883  0.1147 -0.6330
  207MPD1    C2 3198   0.329   2.282   9.873  0.2987  0.7268 -0.0281
  207MPD1    C3 3199   0.409   2.167   9.886 -0.5293 -0.2650 -0.6326
  207MPD1    C4 3200   0.350   2.046   9.922  0.1064 -0.1457 -0.7408
  207MPD1    C5 3201   0.212   2.037   9.913 -0.0786 -0.0231 -0.1300
  207MPD1     H 3202   0.369   2.381   9.855 -0.0658  1.1206  1.3145
  207MPD1    H1 3203   0.406   1.954   9.930 -0.3777 -0.3769 -0.0624
  207MPD1    H2 3204   0.030   2.138   9.891 -0.3167  0.4174 -0.8081
  207MPD1    H3 3205   0.174   1.936   9.923  1.6813 -0.5034  1.5713
  207MPD1     N 3206   0.551   2.169   9.890 -0.8283 -0.0331  0.3165
  207MPD1    H5 3207   0.601   2.082   9.900 -2.4102 -1.1279 -1.2661
  207MPD1    N1 3208   0.120   2.395   9.851 -0.0126  0.2862 -0.3224
  207MPD1    H6 3209   0.028   2.389   9.893  0.3225 -1.2332  0.1967
  207MPD1    H7 3210   0.175   2.464   9.901 -0.0275 -1.0565  1.5617
  208MPD1     C 3211   3.356   0.315  17.112  0.8063 -0.0019  0.1649
  208MPD1    C1 3212   3.226   0.310  17.128  0.0994 -0.3842  0.3982
  208MPD1    C2 3213   3.184   0.358  17.251  0.2499 -0.6744 -0.4050
  208MPD1    C3 3214   3.272   0.410  17.349  0.0865  0.4374  0.4740
  208MPD1    C4 3215   3.405   0.429  17.314  0.1622 -0.0632 -0.7013
  208MPD1    C5 3216   3.449   0.369  17.198  0.3709 -0.0875 -0.0015
  208MPD1     H 3217   3.081   0.356  17.284  0.3122 -0.1139 -0.1731
  208MPD1    H1 3218   3.485   0.482  17.363 -1.3853 -0.4718  2.2818
  208MPD1    H2 3219   3.398   0.279  17.019  1.9237  1.8477 -0.0449
  208MPD1    H3 3220   3.552   0.376  17.167  0.1347  2.3349 -0.2174
  208MPD1     N 3221   3.226   0.456  17.473 -0.0778  1.3149 -0.4275
  208MPD1    H5 3222   3.129   0.433  17.493  0.0504  1.3906  0.2733
  208MPD1    N1 3223   3.144   0.245  17.036 -0.0889 -0.2836  0.0250
  208MPD1    H6 3224   3.045   0.258  17.056 -0.1620  0.0023 -0.5589
  208MPD1    H7 3225   3.176   0.253  16.940  0.5474  1.8907  0.4385
  209MPD1     C 3226   0.332   1.092  10.145  0.0272  0.5917  0.1228
  209MPD1    C1 3227   0.328   1.224  10.186 -0.1151 -0.4384 -0.7664
  209MPD1    C2 3228   0.444   1.270  10.247  0.4796  0.1941 -0.1828
  209MPD1    C3 3229   0.557   1.193  10.280  0.6216 -0.7605  0.0433
  209MPD1    C4 3230   0.539   1.054  10.258  0.5850  0.0938 -0.2527
  209MPD1    C5 3231   0.424   1.008  10.191  0.0514  0.5697 -0.2813
  209MPD1     H 3232   0.439   1.376  10.271  1.1712 -0.2284  1.8451
  209MPD1    H1 3233   0.611   0.973  10.265  0.2709 -0.2723 -1.2507
  209MPD1    H2 3234   0.252   1.055  10.082 -0.3622  1.3338  0.1715
  209MPD1    H3 3235   0.413   0.905  10.159 -1.0378  0.6055 -0.0246
  209MPD1     N 3236   0.660   1.255  10.350 -0.1673 -0.2965  0.1858
  209MPD1    H5 3237   0.657   1.356  10.344  0.5778 -0.2444  0.7015
  209MPD1    N1 3238   0.233   1.314  10.134 -0.1989 -0.1508 -0.4849
  209MPD1    H6 3239   0.229   1.407  10.176  1.4687 -1.6227  2.8830
  209MPD1    H7 3240   0.148   1.271  10.099  0.0812 -1.1263  0.0316
  210MPD1     C 3241   1.385   1.354  11.146 -0.0158 -0.3163  0.7042
  210MPD1    C1 3242   1.274   1.270  11.132 -0.6955  0.0065 -0.4579
  210MPD1    C2 3243   1.194   1.287  11.025  0.1030 -0.2857 -0.0717
  210MPD1    C3 3244   1.207   1.389  10.937  0.0563 -0.4600  0.0644
  210MPD1    C4 3245   1.319   1.468  10.950  0.5062  0.2561  0.4109
  210MPD1    C5 3246   1.410   1.451  11.055  0.1781  0.9286  0.1846
  210MPD1     H 3247   1.111   1.216  11.022 -1.6601  1.9118 -3.3920
  210MPD1    H1 3248   1.344   1.536  10.870 -0.4226  0.4945  0.3235
  210MPD1    H2 3249   1.453   1.334  11.229 -0.3833 -2.6753  0.4089
  210MPD1    H3 3250   1.496   1.515  11.069  0.7403  0.2901 -0.4154
  210MPD1     N 3251   1.134   1.400  10.819 -0.0823 -0.1554 -0.5981
  210MPD1    H5 3252   1.158   1.476  10.757 -0.9447 -0.2615 -1.0663
  210MPD1    N1 3253   1.258   1.155  11.208 -0.0575  0.3478  0.7214
  210MPD1    H6 3254   1.160   1.130  11.216 -0.8158  2.1421 -2.9878
  210MPD1    H7 3255   1.293   1.175  11.301  0.9020  1.9761  0.0126
  211MPD1     C 3256   3.327   1.560  16.044  0.6506  0.5079 -0.1600
  211MPD1    C1 3257   3.309   1.427  16.012  0.3082 -0.3840  0.3691
  211MPD1    C2 3258   3.190   1.373  16.047 -0.0157  0.0317  0.2936
  211MPD1    C3 3259   3.078   1.446  16.089 -0.2952  0.6210 -0.2881
  211MPD1    C4 3260   3.096   1.585  16.109 -1.0522  0.0009 -0.1969
  211MPD1    C5 3261   3.219   1.639  16.092  0.6193  0.2996  0.4704
  211MPD1     H 3262   3.175   1.271  16.014  0.5592  1.4992 -4.6360
  211MPD1    H1 3263   3.014   1.654  16.122 -1.0083  0.2249 -1.1024
  211MPD1    H2 3264   3.417   1.613  16.014  0.9846 -0.6906 -1.2236
  211MPD1    H3 3265   3.238   1.745  16.108 -1.2941  0.5958  0.7646
  211MPD1     N 3266   2.953   1.384  16.090 -0.4767 -0.4069 -0.5650
  211MPD1    H5 3267   2.959   1.283  16.085  0.2282 -0.3884 -0.1355
  211MPD1    N1 3268   3.414   1.349  15.959 -0.6014 -0.1923 -0.3834
  211MPD1    H6 3269   3.467   1.407  15.895  1.1072 -0.9509  0.3333
  211MPD1    H7 3270   3.381   1.269  15.906 -0.2409 -1.1355  0.7917
  212MPD1     C 3271   2.865   4.205  16.295  0.4683 -0.4303  0.1765
  212MPD1    C1 3272   2.811   4.318  16.357  0.0307 -1.0403  0.2590
  212MPD1    C2 3273   2.716   4.294  16.453 -0.0602  0.4122  0.0285
  212MPD1    C3 3274   2.692   4.168  16.507  0.5380 -0.2008  0.3110
  212MPD1    C4 3275   2.776   4.073  16.470  0.0818 -0.0883 -0.0356
  212MPD1    C5 3276   2.855   4.086  16.358 -0.6547  0.4818  0.6702
  212MPD1     H 3277   2.665   4.380  16.494 -1.3812 -0.4577  0.2013
  212MPD1    H1 3278   2.775   3.976  16.518 -1.6487 -0.5012 -0.8828
  212MPD1    H2 3279   2.938   4.211  16.216 -0.5071 -1.7554 -0.8337
  212MPD1    H3 3280   2.924   4.010  16.324 -1.6986  0.0763 -0.5459
  212MPD1     N 3281   2.603   4.138  16.614 -0.0394  0.1255 -0.2882
  212MPD1    H5 3282   2.599   4.040  16.638 -1.0516  0.3234  0.3526
  212MPD1    N1 3283   2.836   4.443  16.304 -0.1925  0.3836 -0.1723
  212MPD1    H6 3284   2.930   4.452  16.266 -0.3340 -0.9255 -0.8166
  212MPD1    H7 3285   2.833   4.514  16.377  1.4058 -0.5273  0.7732
  213MPD1     C 3286   1.221   0.053  15.246 -0.1402  0.4538  0.3217
  213MPD1    C1 3287   1.183   0.148  15.157 -0.0744 -0.2432 -0.6908
  213MPD1    C2 3288   1.058   0.133  15.103  0.3192  0.1087 -0.7578
  213MPD1    C3 3289   0.984   0.013  15.114  0.1503  0.3964  0.2230
  213MPD1    C4 3290   1.034   4.660  15.207  0.9124 -0.0178  0.4287
  213MPD1    C5 3291   1.158   4.672  15.260  0.2915  0.2356 -0.5011
  213MPD1     H 3292   1.016   0.208  15.036 -2.3165 -1.1271 -0.4894
  213MPD1    H1 3293   0.986   4.569  15.238  2.7004 -0.7327  1.1319
  213MPD1    H2 3294   1.320   0.067  15.287  0.4450 -1.4861 -0.4612
  213MPD1    H3 3295   1.199   4.591  15.319 -0.2538  0.3223 -0.0102
  213MPD1     N 3296   0.856   0.007  15.052  0.0606  0.0171 -0.4485
  213MPD1    H5 3297   0.820   0.095  15.016 -0.1535 -0.4795 -1.4427
  213MPD1    N1 3298   1.237   0.278  15.163  0.6069 -0.1998  0.2676
  213MPD1    H6 3299   1.217   0.328  15.076  1.6771 -1.7241 -0.8544
  213MPD1    H7 3300   1.336   0.277  15.187  0.8536 -1.3505 -0.7729
  214MPD1     C 3301   4.573   4.408  15.190  0.3016  0.0164  0.3277
  214MPD1    C1 3302   4.665   4.335  15.117  0.0816 -0.3351  0.2927
  214MPD1    C2 3303   0.049   4.396  15.086  0.1602  0.9136 -0.8314
  214MPD1    C3 3304   0.070   4.524  15.134  0.1981  0.6669  0.3120
  214MPD1    C4 3305   4.719   4.591  15.207 -0.1016  0.4648  0.6263
  214MPD1    C5 3306   4.606   4.529  15.234 -0.0639 -0.3681  0.4647
  214MPD1     H 3307   0.126   4.343  15.032  1.0675 -0.9084  2.2731
  214MPD1    H1 3308   0.006   4.691  15.238 -0.4154  0.5808  0.4970
  214MPD1    H2 3309   4.474   4.369  15.212 -0.0539  0.4251 -0.5387
  214MPD1    H3 3310   4.536   4.577  15.301  1.1898 -0.3515  1.7614
  214MPD1     N 3311   0.190   4.594  15.099  0.5242  0.0320 -0.0708
  214MPD1    H5 3312   0.186   4.693  15.121  0.8740  0.2793 -1.1355
  214MPD1    N1 3313   4.642   4.199  15.094 -0.7119 -0.6764  0.7188
  214MPD1    H6 3314   4.702   4.174  15.015 -0.4133  1.4712  0.2503
  214MPD1    H7 3315   4.546   4.179  15.067  0.1207 -1.3629 -1.7283
  215MPD1     C 3316   0.364   1.059  10.746  0.3677  0.4551 -0.0354
  215MPD1    C1 3317   0.335   1.114  10.870  0.4550 -0.2622 -0.2360
  215MPD1    C2 3318   0.409   1.225  10.908  0.1299 -0.4922  0.2394
  215MPD1    C3 3319   0.490   1.297  10.823 -0.0857 -0.6411  0.1357
  215MPD1    C4 3320   0.510   1.249  10.692  0.4578  0.0793  0.8282
  215MPD1    C5 3321   0.447   1.128  10.665  0.1722 -0.1431  0.1084
  215MPD1     H 3322   0.389   1.247  11.012 -0.2100  0.1568  0.0394
  215MPD1    H1 3323   0.571   1.292  10.614  0.2483  1.8203  1.6279
  215MPD1    H2 3324   0.310   0.974  10.705 -1.5548  1.6220  0.0472
  215MPD1    H3 3325   0.454   1.089  10.564  3.0272 -2.0418  1.0198
  215MPD1     N 3326   0.557   1.406  10.877  0.4347 -1.0308 -0.2759
  215MPD1    H5 3327   0.529   1.437  10.969  0.9387  0.4889 -0.6307
  215MPD1    N1 3328   0.269   1.047  10.973  0.0274  0.2008  0.1414
  215MPD1    H6 3329   0.239   1.099  11.055  1.6055  0.2837  0.6687
  215MPD1    H7 3330   0.190   1.005  10.926  1.6524 -0.7322 -1.7351
  216MPD1     C 3331   2.099   3.530  16.853  0.3195  0.1197 -0.1858
  216MPD1    C1 3332   2.050   3.561  16.978  0.1015  0.3660 -0.1526
  216MPD1    C2 3333   1.951   3.488  17.040  0.3176  0.7575 -0.2998
  216MPD1    C3 3334   1.913   3.373  16.980 -0.1824 -0.2805  0.5310
  216MPD1    C4 3335   1.964   3.328  16.857  0.4620  0.0122 -0.4809
  216MPD1    C5 3336   2.064   3.409  16.801 -0.2955 -0.3352 -0.7666
  216MPD1     H 3337   1.899   3.510  17.132  2.0722 -2.5072  1.4945
  216MPD1    H1 3338   1.935   3.231  16.819 -0.7109 -0.5092  1.7212
  216MPD1    H2 3339   2.165   3.597  16.799  1.3443 -1.5672 -1.0053
  216MPD1    H3 3340   2.113   3.371  16.712 -1.3847 -0.4200 -1.3235
  216MPD1     N 3341   1.822   3.285  17.052  0.0953  0.2494 -0.0494
  216MPD1    H5 3342   1.809   3.306  17.151 -2.2357 -1.2220 -0.0459
  216MPD1    N1 3343   2.092   3.681  17.037  0.1655 -0.4478  0.0053
  216MPD1    H6 3344   2.170   3.731  16.994 -0.4960 -0.6674 -1.4621
  216MPD1    H7 3345   2.106   3.671  17.137 -1.8760 -0.4442  0.2834
  217MPD1     C 3346   3.145   0.226   8.748  0.1971 -0.2998  0.5281
  217MPD1    C1 3347   3.078   0.310   8.826  0.2187  0.0775  0.4507
  217MPD1    C2 3348   3.145   0.424   8.864 -0.2333 -0.3109  0.0664
  217MPD1    C3 3349   3.278   0.446   8.832  0.0868 -0.6427  0.6758
  217MPD1    C4 3350   3.343   0.358   8.756  0.0813  0.1638  0.2671
  217MPD1    C5 3351   3.273   0.248   8.708 -0.1552  0.7221  0.0105
  217MPD1     H 3352   3.094   0.493   8.931 -0.7090 -0.7068  0.1120
  217MPD1    H1 3353   3.447   0.365   8.726  0.0831 -2.2984 -0.3006
  217MPD1    H2 3354   3.095   0.141   8.704  0.0085 -1.0652  2.2154
  217MPD1    H3 3355   3.323   0.184   8.637  1.6654  0.3513  1.6160
  217MPD1     N 3356   3.354   0.555   8.878  0.9989  0.0261 -0.2288
  217MPD1    H5 3357   3.448   0.564   8.842  0.7252  0.1923 -0.8990
  217MPD1    N1 3358   2.942   0.305   8.832  0.2969  0.3663 -0.0567
  217MPD1    H6 3359   2.898   0.214   8.821  1.0001 -0.1643  1.5301
  217MPD1    H7 3360   2.908   0.355   8.914  1.8526 -2.7914  2.5001
  218MPD1     C 3361   0.746   1.981  11.968  0.2461 -0.0127  1.1167
  218MPD1    C1 3362   0.666   1.887  11.912  0.3107  0.0255  0.1121
  218MPD1    C2 3363   0.643   1.770  11.985 -0.7029 -0.2207 -0.0503
  218MPD1    C3 3364   0.687   1.763  12.118  1.1123 -0.3792  0.9951
  218MPD1    C4 3365   0.745   1.879  12.182  0.1976  0.2932 -0.5202
  218MPD1    C5 3366   0.778   1.978  12.101 -0.0169  0.6316 -0.5746
  218MPD1     H 3367   0.591   1.693  11.929 -1.3087  0.5662 -0.5795
  218MPD1    H1 3368   0.764   1.890  12.288  0.2064  0.0177 -0.4924
  218MPD1    H2 3369   0.783   2.065  11.909 -1.5120 -1.3733 -1.9462
  218MPD1    H3 3370   0.843   2.060  12.131  0.6473 -0.0273 -0.2092
  218MPD1     N 3371   0.675   1.639  12.184 -0.8206  0.0057  0.1796
  218MPD1    H5 3372   0.647   1.559  12.129 -1.1192 -0.6690  1.3028
  218MPD1    N1 3373   0.623   1.904  11.777 -0.3632  0.2717  0.5549
  218MPD1    H6 3374   0.574   1.822  11.744 -0.6851  0.3907  0.7401
  218MPD1    H7 3375   0.568   1.989  11.765 -0.4535  0.3148  1.2469
  219MPD1     C 3376   0.413   0.823  11.880  0.0188 -0.2274 -0.3668
  219MPD1    C1 3377   0.350   0.854  11.997 -0.9341 -0.2125  0.3859
  219MPD1    C2 3378   0.404   0.955  12.071  0.6237  0.0344 -0.1738
  219MPD1    C3 3379   0.536   0.994  12.056 -0.0417  0.5760 -0.3603
  219MPD1    C4 3380   0.598   0.943  11.951 -0.5486 -0.4734 -0.0184
  219MPD1    C5 3381   0.542   0.862  11.854 -0.6354  0.0270 -0.0029
  219MPD1     H 3382   0.345   0.990  12.154 -1.2708 -1.7874 -0.7576
  219MPD1    H1 3383   0.698   0.974  11.923 -0.5511 -0.0798  0.4193
  219MPD1    H2 3384   0.376   0.741  11.818  0.1982 -0.4795 -0.1369
  219MPD1    H3 3385   0.593   0.828  11.765 -2.4994 -0.6805 -0.7929
  219MPD1     N 3386   0.607   1.092  12.138 -0.0787 -0.6420 -0.1202
  219MPD1    H5 3387   0.707   1.088  12.124 -0.2160 -0.8199 -1.0417
  219MPD1    N1 3388   0.223   0.798  12.020  0.0502  0.2202 -0.1296
  219MPD1    H6 3389   0.210   0.714  11.964  0.6758  0.0026  0.0527
  219MPD1    H7 3390   0.218   0.762  12.115  1.1096 -1.9472 -0.8865
  220MPD1     C 3391   0.405   2.873   9.681 -0.2824  0.0179  0.8507
  220MPD1    C1 3392   0.524   2.804   9.700  0.4982 -0.0242  0.0475
  220MPD1    C2 3393   0.526   2.724   9.815 -0.3371  0.1844 -0.1649
  220MPD1    C3 3394   0.421   2.713   9.901 -0.5176 -0.8628 -0.1278
  220MPD1    C4 3395   0.309   2.786   9.884  0.9415  0.6485  0.4149
  220MPD1    C5 3396   0.300   2.862   9.770 -0.5888 -0.1968  0.0263
  220MPD1     H 3397   0.608   2.656   9.835 -1.2958 -0.8679  0.1567
  220MPD1    H1 3398   0.221   2.785   9.947 -0.1306 -0.2323 -1.1049
  220MPD1    H2 3399   0.394   2.923   9.586 -1.4346 -1.6175  0.1316
  220MPD1    H3 3400   0.202   2.900   9.743 -0.6047  0.4005  0.9018
  220MPD1     N 3401   0.429   2.616  10.004  0.4799 -0.1995  1.1075
  220MPD1    H5 3402   0.510   2.556  10.011  0.1280 -0.8982 -0.7232
  220MPD1    N1 3403   0.618   2.777   9.599  0.3280  0.0113  0.0895
  220MPD1    H6 3404   0.711   2.745   9.627  0.3094  0.3042  0.4861
  220MPD1    H7 3405   0.614   2.854   9.533  0.3239  0.3399  0.4747
  221MPD1     C 3406   3.680   4.660  16.658  0.0699  0.3882 -0.2548
  221MPD1    C1 3407   3.765   0.008  16.593  0.9435  0.7293 -0.0365
  221MPD1    C2 3408   3.709   0.095  16.499 -0.1200  0.2960 -0.2084
  221MPD1    C3 3409   3.570   0.100  16.487  0.2691  0.2925  0.6455
  221MPD1    C4 3410   3.491   0.033  16.570  0.3363  0.5890 -0.2233
  221MPD1    C5 3411   3.543   4.681  16.656 -0.3936 -0.6359  0.7579
  221MPD1     H 3412   3.767   0.145  16.422 -0.8264  1.1695 -0.1802
  221MPD1    H1 3413   3.385   0.057  16.576  0.2553  0.0793  0.4886
  221MPD1    H2 3414   3.724   4.580  16.717  0.5152 -0.1528 -1.3242
  221MPD1    H3 3415   3.474   4.612  16.704  2.0627 -2.0717  2.2579
  221MPD1     N 3416   3.505   0.180  16.387  0.0894 -0.1862 -0.1024
  221MPD1    H5 3417   3.404   0.176  16.379  0.1642 -1.0515 -0.6267
  221MPD1    N1 3418   3.906   4.724  16.590 -0.1234  0.2025  1.0400
  221MPD1    H6 3419   3.943   4.690  16.679  0.4464  2.1453  1.5463
  221MPD1    H7 3420   3.954   0.071  16.562  0.5646 -0.8187 -0.8532
  222MPD1     C 3421   2.662   4.296  17.047  0.7202 -0.4539 -0.0797
  222MPD1    C1 3422   2.628   4.416  17.004 -0.1939 -0.1589 -0.0597
  222MPD1    C2 3423   2.521   4.486  17.065 -0.0728 -0.1207  0.2389
  222MPD1    C3 3424   2.447   4.420  17.161  0.6717 -0.2534 -0.3640
  222MPD1    C4 3425   2.485   4.295  17.196 -0.2790  0.7421 -0.8086
  222MPD1    C5 3426   2.599   4.237  17.149 -0.4080  0.0092  0.1387
  222MPD1     H 3427   2.489   4.582  17.027 -0.7093 -0.5513 -0.3221
  222MPD1    H1 3428   2.445   4.249  17.285  1.8826  0.8713  0.2248
  222MPD1    H2 3429   2.743   4.243  16.998 -0.2006 -0.2479 -1.8364
  222MPD1    H3 3430   2.634   4.143  17.188  0.8856  0.4721  0.0991
  222MPD1     N 3431   2.343   4.477  17.234 -0.6328  0.0673  0.2393
  222MPD1    H5 3432   2.312   4.421  17.313 -0.8790  0.9379  0.7633
  222MPD1    N1 3433   2.708   4.474  16.908  0.3280 -0.2249 -0.3342
  222MPD1    H6 3434   2.658   4.542  16.851 -1.1721 -0.6069  0.5427
  222MPD1    H7 3435   2.767   4.412  16.853  1.1775 -1.1424  1.5968
  223MPD1     C 3436   1.663   4.049  17.471 -0.5683 -0.6962  0.5653
  223MPD1    C1 3437   1.782   4.035  17.396 -0.5654 -0.8964 -0.2748
  223MPD1    C2 3438   1.846   4.150  17.358 -0.5670 -0.0052 -0.8449
  223MPD1    C3 3439   1.799   4.274  17.390  0.3194  0.6180 -0.5204
  223MPD1    C4 3440   1.677   4.284  17.458  0.1645 -0.0772 -0.5569
  223MPD1    C5 3441   1.610   4.176  17.490  0.4826  0.0534 -0.1726
  223MPD1     H 3442   1.940   4.138  17.305 -0.5728  1.1547 -1.1114
  223MPD1    H1 3443   1.644   4.382  17.488  1.5840  0.5433 -1.0157
  223MPD1    H2 3444   1.603   3.963  17.496 -1.2817  0.2532  2.0824
  223MPD1    H3 3445   1.523   4.181  17.555 -0.5672 -0.5620 -1.5431
  223MPD1     N 3446   1.880   4.384  17.353  0.4812 -0.4359  0.3182
  223MPD1    H5 3447   1.966   4.370  17.301  1.3233 -1.2041  1.8901
  223MPD1    N1 3448   1.808   3.910  17.339 -0.0978  1.6152  0.0012
  223MPD1    H6 3449   1.770   3.829  17.387  1.1937  0.0324 -1.6133
  223MPD1    H7 3450   1.908   3.902  17.320 -0.7891  1.1232 -3.3444
  224MPD1     C 3451   3.129   1.435   8.947 -0.4957  0.4732 -0.2334
  224MPD1    C1 3452   3.240   1.356   8.958  0.0229 -0.6909 -0.3544
  224MPD1    C2 3453   3.327   1.371   9.063 -0.5560 -0.5127 -0.6643
  224MPD1    C3 3454   3.300   1.461   9.167 -0.5925 -0.0140 -0.4106
  224MPD1    C4 3455   3.184   1.544   9.156 -0.0766  0.4467 -0.2018
  224MPD1    C5 3456   3.105   1.531   9.044  0.3680 -0.3683 -0.0936
  224MPD1     H 3457   3.417   1.310   9.069  1.0251  1.7354 -1.5167
  224MPD1    H1 3458   3.155   1.612   9.236  1.2362  0.3167  0.3803
  224MPD1    H2 3459   3.057   1.414   8.869  0.6148  0.9055 -1.3841
  224MPD1    H3 3460   3.021   1.599   9.037 -1.1333 -1.9940  2.2142
  224MPD1     N 3461   3.384   1.479   9.281 -0.7611  0.4555 -0.2177
  224MPD1    H5 3462   3.356   1.546   9.352 -1.3552 -1.8351  1.7264
  224MPD1    N1 3463   3.261   1.267   8.854 -0.6996 -0.2973 -0.0605
  224MPD1    H6 3464   3.357   1.236   8.848 -0.6978 -0.4182  0.5534
  224MPD1    H7 3465   3.225   1.301   8.765 -0.3863  2.7351  0.9464
  225MPD1     C 3466   0.691   2.392  12.504 -0.4054  0.0923 -0.0232
  225MPD1    C1 3467   0.672   2.264  12.465  0.2192 -0.3211 -0.1377
  225MPD1    C2 3468   0.562   2.194  12.508  0.5228  0.8326 -0.4197
  225MPD1    C3 3469   0.455   2.268  12.574 -0.8434 -0.1745 -0.4298
  225MPD1    C4 3470   0.481   2.397  12.617 -0.0996  0.7196  0.7479
  225MPD1    C5 3471   0.598   2.461  12.584 -0.6586 -0.8066 -0.1435
  225MPD1     H 3472   0.550   2.089  12.483  0.2110  0.2575  2.0555
  225MPD1    H1 3473   0.401   2.447  12.672  0.1023  1.7116  0.1442
  225MPD1    H2 3474   0.777   2.452  12.475 -1.1157  1.3965  0.5606
  225MPD1    H3 3475   0.603   2.567  12.606 -0.1072 -0.3292 -2.6230
  225MPD1     N 3476   0.324   2.210  12.605  0.0762  0.3407  0.0692
  225MPD1    H5 3477   0.254   2.279  12.631 -1.4498 -0.3963 -2.0814
  225MPD1    N1 3478   0.771   2.200  12.395  0.2048  0.2589 -0.4499
  225MPD1    H6 3479   0.821   2.268  12.337  3.6344 -1.8231  0.0616
  225MPD1    H7 3480   0.736   2.117  12.347  1.2802 -0.8432  0.6675
  226MPD1     C 3481   3.890   3.517   9.656 -0.3526 -0.2724  0.3081
  226MPD1    C1 3482   3.948   3.416   9.732 -0.7529  0.6512  0.4497
  226MPD1    C2 3483   3.892   3.289   9.724 -0.0238  0.2447  0.5593
  226MPD1    C3 3484   3.793   3.255   9.628  0.3338  0.2356 -0.5700
  226MPD1    C4 3485   3.737   3.362   9.566  0.0549  0.3295  0.4817
  226MPD1    C5 3486   3.785   3.485   9.569 -0.2168 -0.4926  0.3278
  226MPD1     H 3487   3.921   3.209   9.791 -0.1464  0.2435  0.6109
  226MPD1    H1 3488   3.648   3.352   9.506 -0.3316 -3.0566  1.6069
  226MPD1    H2 3489   3.918   3.621   9.649 -1.0785 -0.1306 -0.5587
  226MPD1    H3 3490   3.729   3.563   9.518 -1.6007 -1.5070  0.3062
  226MPD1     N 3491   3.765   3.116   9.598 -0.1616  0.2006 -0.4012
  226MPD1    H5 3492   3.824   3.043   9.637  0.7470  0.8115 -0.6363
  226MPD1    N1 3493   4.075   3.436   9.792  0.0084 -0.2494  0.0150
  226MPD1    H6 3494   4.080   3.358   9.858  3.7114  1.4033  1.6753
  226MPD1    H7 3495   4.073   3.523   9.844  0.2616 -0.6755  0.7459
  227MPD1     C 3496   3.516   2.666   8.770 -0.2131  0.0417 -0.0518
  227MPD1    C1 3497   3.424   2.742   8.836  0.1022 -0.6294 -0.2012
  227MPD1    C2 3498   3.438   2.764   8.970 -0.1513 -0.0986 -0.1847
  227MPD1    C3 3499   3.540   2.702   9.040 -0.0783  0.7254  0.2635
  227MPD1    C4 3500   3.631   2.628   8.976  0.6298 -0.6773  0.3812
  227MPD1    C5 3501   3.619   2.614   8.843 -0.0584 -0.0797  0.6632
  227MPD1     H 3502   3.359   2.824   9.014  0.9595 -0.8607  2.8077
  227MPD1    H1 3503   3.715   2.579   9.024 -0.1195  0.2848  2.6887
  227MPD1    H2 3504   3.518   2.638   8.665 -0.9872  1.4457 -0.4416
  227MPD1    H3 3505   3.696   2.553   8.797 -0.0603 -0.4776  1.1961
  227MPD1     N 3506   3.562   2.731   9.178 -0.3176 -0.7897 -0.2308
  227MPD1    H5 3507   3.492   2.784   9.227  1.0829  0.7211  0.1326
  227MPD1    N1 3508   3.313   2.797   8.774 -0.5376 -0.0756  0.2302
  227MPD1    H6 3509   3.282   2.879   8.825 -0.0036  1.9403 -2.6832
  227MPD1    H7 3510   3.334   2.824   8.679 -0.4669 -1.6993 -0.2182
  228MPD1     C 3511   2.609   0.096  12.437  0.9613  0.1944 -0.1873
  228MPD1    C1 3512   2.521   0.173  12.366 -0.3865  0.0464  1.1369
  228MPD1    C2 3513   2.396   0.127  12.357 -0.5019 -0.8474  0.4403
  228MPD1    C3 3514   2.345   0.021  12.435  0.1001 -0.5332 -0.0355
  228MPD1    C4 3515   2.436   4.685  12.506  0.3411  0.2840 -0.2984
  228MPD1    C5 3516   2.568   4.726  12.505  0.2931  0.0470  0.3726
  228MPD1     H 3517   2.330   0.176  12.286 -0.5206 -2.7970 -0.9132
  228MPD1    H1 3518   2.408   4.601  12.569  0.3971  0.3933 -0.1270
  228MPD1    H2 3519   2.712   0.128  12.437  1.0875 -0.1917  0.8970
  228MPD1    H3 3520   2.639   4.679  12.572 -1.0866 -2.5792 -0.0065
  228MPD1     N 3521   2.209   4.728  12.424  0.0640  0.4723 -0.0731
  228MPD1    H5 3522   2.156   0.062  12.374  1.2464  0.8255 -0.8161
  228MPD1    N1 3523   2.570   0.286  12.294 -0.3504  0.3573  0.0277
  228MPD1    H6 3524   2.657   0.327  12.327  0.0720 -1.4010  1.1431
  228MPD1    H7 3525   2.510   0.367  12.307  1.2911  1.7050 -0.9024
  229MPD1     C 3526   1.316   3.579  14.433 -0.4549  0.3719  0.4649
  229MPD1    C1 3527   1.349   3.583  14.565  1.0113  1.1604  0.3111
  229MPD1    C2 3528   1.422   3.468  14.612 -0.1524  0.4747  0.7780
  229MPD1    C3 3529   1.430   3.352  14.549 -0.4103 -0.5140 -0.6856
  229MPD1    C4 3530   1.386   3.356  14.416 -0.4647 -0.6312  0.5555
  229MPD1    C5 3531   1.334   3.461  14.363  0.1537  0.5547  0.2399
  229MPD1     H 3532   1.462   3.468  14.713  1.7402 -1.7471  0.0173
  229MPD1    H1 3533   1.384   3.271  14.349 -0.0943  0.3581 -0.7110
  229MPD1    H2 3534   1.259   3.657  14.384 -0.7417 -0.2228 -0.1393
  229MPD1    H3 3535   1.285   3.453  14.267  2.6507 -1.8265 -0.8483
  229MPD1     N 3536   1.495   3.233  14.597  0.2204 -0.9687  0.2533
  229MPD1    H5 3537   1.496   3.152  14.536 -1.7190 -1.5174  0.9390
  229MPD1    N1 3538   1.320   3.695  14.645 -0.0827  0.6348  0.2781
  229MPD1    H6 3539   1.238   3.751  14.622  0.2405  1.2401  0.6056
  229MPD1    H7 3540   1.327   3.676  14.745  0.6144 -1.5092 -0.1706
  230MPD1     C 3541   1.609   2.535  15.447 -1.2962  0.7688  0.3080
  230MPD1    C1 3542   1.701   2.502  15.352  0.8413 -0.3120 -0.1010
  230MPD1    C2 3543   1.690   2.577  15.233 -0.0979 -0.2803 -0.2767
  230MPD1    C3 3544   1.612   2.691  15.216 -0.1197 -0.0018 -0.1623
  230MPD1    C4 3545   1.538   2.733  15.324 -0.2920 -0.6011  0.4883
  230MPD1    C5 3546   1.537   2.650  15.436 -0.0198 -0.3039  0.1828
  230MPD1     H 3547   1.751   2.534  15.154  0.5825 -0.4547  0.3350
  230MPD1    H1 3548   1.466   2.814  15.324  0.0742 -0.2684  1.9614
  230MPD1    H2 3549   1.603   2.487  15.544  2.7160 -1.3975 -0.5121
  230MPD1    H3 3550   1.475   2.665  15.524 -0.3301 -0.9777  0.0765
  230MPD1     N 3551   1.616   2.754  15.091  0.2123 -0.3509 -0.3277
  230MPD1    H5 3552   1.677   2.709  15.023  0.7272 -1.5312  0.9119
  230MPD1    N1 3553   1.780   2.396  15.360  0.0385 -0.2906 -0.3789
  230MPD1    H6 3554   1.823   2.395  15.453  0.8053  0.5745 -0.7161
  230MPD1    H7 3555   1.863   2.402  15.302  1.2120 -0.8543  1.2210
  231MPD1     C 3556   4.393   0.081  15.335  0.4254 -0.5061 -0.2713
  231MPD1    C1 3557   4.367   0.103  15.203 -0.7268 -0.9964 -0.0409
  231MPD1    C2 3558   4.452   0.172  15.127 -0.0143  0.4862  0.3652
  231MPD1    C3 3559   4.564   0.230  15.180  0.8616 -0.7193 -0.1176
  231MPD1    C4 3560   4.591   0.207  15.313  0.6316 -0.3730 -0.3990
  231MPD1    C5 3561   4.503   0.145  15.397 -0.2133  0.0333  0.2401
  231MPD1     H 3562   4.416   0.202  15.029 -3.9664 -0.2630  1.5717
  231MPD1    H1 3563   4.678   0.252  15.360  1.2568  0.1689 -2.0993
  231MPD1    H2 3564   4.318   0.036  15.399  0.7105  1.1215  1.2202
  231MPD1    H3 3565   4.521   0.126  15.502 -2.3091  1.5075  0.8624
  231MPD1     N 3566   4.641   0.311  15.094 -0.1372  0.3392 -0.1307
  231MPD1    H5 3567   4.629   0.305  14.994 -0.8639  0.8832 -0.0762
  231MPD1    N1 3568   4.251   0.038  15.158  0.0034  0.2784 -0.1195
  231MPD1    H6 3569   4.188   0.025  15.237  0.3609 -0.1354  0.0959
  231MPD1    H7 3570   4.206   0.097  15.088 -0.3311  0.0634 -0.0858
  232MPD1     C 3571   1.585   1.641   0.896 -0.2110  0.1202 -0.3090
  232MPD1    C1 3572   1.521   1.757   0.884  0.4210 -0.9536  0.0741
  232MPD1    C2 3573   1.456   1.774   0.764 -0.1345  0.6151  0.1742
  232MPD1    C3 3574   1.469   1.691   0.653  0.1028 -0.7945 -0.6180
  232MPD1    C4 3575   1.559   1.580   0.671  0.9193  0.2790 -0.3824
  232MPD1    C5 3576   1.608   1.555   0.794  0.2359 -0.0890  0.0757
  232MPD1     H 3577   1.397   1.865   0.760  0.0311  0.6448 -1.5088
  232MPD1    H1 3578   1.585   1.514   0.589 -0.6542  0.1544 -0.7754
  232MPD1    H2 3579   1.631   1.611   0.989 -1.0809  0.6289  0.2798
  232MPD1    H3 3580   1.665   1.464   0.808  1.5132  0.9365  1.5902
  232MPD1     N 3581   1.388   1.709   0.541 -0.0918  0.6182 -0.1807
  232MPD1    H5 3582   1.310   1.774   0.541 -0.1174  0.5928 -0.9519
  232MPD1    N1 3583   1.484   1.840   0.995  0.2431 -0.7783 -0.3006
  232MPD1    H6 3584   1.467   1.933   0.957  0.0214 -0.9089 -0.5184
  232MPD1    H7 3585   1.568   1.836   1.053 -0.7875 -1.0955  1.1450
  233MPD1     C 3586   1.970   0.285   1.753 -0.1390 -0.1777  0.3501
  233MPD1    C1 3587   2.066   0.250   1.661  0.0103  0.0621 -0.3745
  233MPD1    C2 3588   2.159   0.345   1.633  0.7420 -0.6120 -0.0737
  233MPD1    C3 3589   2.146   0.473   1.682 -0.7923  0.3782  0.5524
  233MPD1    C4 3590   2.040   0.512   1.757 -0.4484 -0.0761  0.4779
  233MPD1    C5 3591   1.945   0.417   1.793 -0.3180 -0.3474 -0.4403
  233MPD1     H 3592   2.239   0.321   1.564  2.1746 -0.9022  1.6967
  233MPD1    H1 3593   2.031   0.615   1.792 -0.3288 -0.0394  0.3989
  233MPD1    H2 3594   1.892   0.215   1.783  0.2433 -1.0488 -0.6833
  233MPD1    H3 3595   1.859   0.450   1.849 -0.5936  1.2614 -1.7865
  233MPD1     N 3596   2.245   0.571   1.653  0.0734 -0.2357 -0.2946
  233MPD1    H5 3597   2.237   0.660   1.701 -0.2524 -0.1586 -0.4937
  233MPD1    N1 3598   2.087   0.118   1.622 -0.5642  0.2357  0.1996
  233MPD1    H6 3599   2.142   0.112   1.537  0.8353 -0.0329  1.1189
  233MPD1    H7 3600   2.002   0.079   1.582  0.6707 -1.8238 -0.4298
  234MPD1     C 3601   0.165   0.209   9.519  0.7257 -0.6859  0.1883
  234MPD1    C1 3602   0.032   0.174   9.527 -0.2978  0.0940  0.1872
  234MPD1    C2 3603   4.675   0.272   9.550 -0.2611  0.8183 -0.5456
  234MPD1    C3 3604   4.713   0.403   9.591 -0.0575 -0.2062  0.4217
  234MPD1    C4 3605   0.111   0.435   9.598  0.4952  0.1526 -0.1664
  234MPD1    C5 3606   0.198   0.332   9.563  0.3168  0.1234 -0.0218
  234MPD1     H 3607   4.573   0.234   9.549  0.1195 -0.1745 -2.2966
  234MPD1    H1 3608   0.148   0.532   9.629 -1.2169  0.1850  1.8020
  234MPD1    H2 3609   0.240   0.135   9.490 -0.8685 -2.1687 -0.1784
  234MPD1    H3 3610   0.301   0.361   9.584  0.3665 -0.1330  0.0839
  234MPD1     N 3611   4.611   0.496   9.608  0.1707 -0.2691  0.0380
  234MPD1    H5 3612   4.515   0.464   9.616  0.1911  0.1397  1.7971
  234MPD1    N1 3613   4.730   0.049   9.481 -0.0909 -0.0839  0.2241
  234MPD1    H6 3614   0.058   4.715   9.512 -0.7507 -0.6708  0.2636
  234MPD1    H7 3615   4.637   0.018   9.509 -0.5539  0.9276 -0.1992
  235MPD1     C 3616   1.477   2.356  10.764  0.0609  0.3173 -0.1351
  235MPD1    C1 3617   1.397   2.292  10.677  0.3746 -0.1307  0.3963
  235MPD1    C2 3618   1.378   2.351  10.553  0.1701 -0.3220  0.2967
  235MPD1    C3 3619   1.429   2.479  10.527 -0.1964  0.5348  0.5558
  235MPD1    C4 3620   1.507   2.537  10.628 -0.1660  0.4824  0.1378
  235MPD1    C5 3621   1.524   2.485  10.752 -0.2522  0.2789 -0.7811
  235MPD1     H 3622   1.337   2.295  10.470  0.0192  0.2567 -0.0152
  235MPD1    H1 3623   1.553   2.633  10.610 -0.4938  0.6572  0.2169
  235MPD1    H2 3624   1.497   2.293  10.850 -0.9972  1.3257  0.8561
  235MPD1    H3 3625   1.591   2.531  10.823  1.3944  0.5708 -2.5460
  235MPD1     N 3626   1.421   2.551  10.403  0.0856  0.3549  0.0603
  235MPD1    H5 3627   1.475   2.635  10.387  1.1237 -0.7200 -2.1770
  235MPD1    N1 3628   1.361   2.161  10.705 -0.3049  0.4002  0.3553
  235MPD1    H6 3629   1.283   2.134  10.645  1.0740 -1.6329 -0.5429
  235MPD1    H7 3630   1.337   2.147  10.802 -0.5310  0.5665  0.3230
  236MPD1     C 3631   0.222   3.913  10.232  0.2323  0.2398 -0.0594
  236MPD1    C1 3632   0.315   4.008  10.260 -0.2824 -0.3885  0.1710
  236MPD1    C2 3633   0.416   3.971  10.345  0.3315 -0.1627  0.5434
  236MPD1    C3 3634   0.419   3.845  10.404 -0.3082  0.2967  0.2443
  236MPD1    C4 3635   0.319   3.751  10.376 -0.2399  0.2462  0.6736
  236MPD1    C5 3636   0.224   3.791  10.292 -0.5006 -0.2708  0.1396
  236MPD1     H 3637   0.482   4.051  10.375 -1.2359  2.2616 -2.5409
  236MPD1    H1 3638   0.307   3.651  10.416  2.1015  0.0064  0.7990
  236MPD1    H2 3639   0.141   3.930  10.162  0.9828  1.0513 -0.7301
  236MPD1    H3 3640   0.131   3.736  10.292 -1.7497  1.8493 -1.9461
  236MPD1     N 3641   0.514   3.811  10.501  1.0848  0.3830  0.1500
  236MPD1    H5 3642   0.500   3.728  10.558 -1.3647  0.5648 -0.2020
  236MPD1    N1 3643   0.323   4.136  10.197  0.0399 -0.2145 -0.6621
  236MPD1    H6 3644   0.232   4.161  10.160 -0.5812  2.4153  2.6394
  236MPD1    H7 3645   0.381   4.209  10.236 -0.2133 -0.9475  1.0984
  237MPD1     C 3646   0.490   1.804  14.792 -0.4781  0.4314 -0.3547
  237MPD1    C1 3647   0.498   1.764  14.921 -0.0712 -0.3078 -0.5792
  237MPD1    C2 3648   0.384   1.736  14.993 -0.0491 -0.1174 -0.6071
  237MPD1    C3 3649   0.261   1.749  14.935 -0.7831 -0.1374  0.3568
  237MPD1    C4 3650   0.254   1.786  14.802  0.4190  0.2533  0.2046
  237MPD1    C5 3651   0.369   1.822  14.734 -0.5656  0.5110 -0.7085
  237MPD1     H 3652   0.407   1.704  15.093  1.4096 -0.6351 -1.1079
  237MPD1    H1 3653   0.165   1.800  14.742  0.9739  1.8031 -0.2559
  237MPD1    H2 3654   0.581   1.828  14.738 -1.4422  1.5961 -1.4665
  237MPD1    H3 3655   0.353   1.869  14.638 -0.5242  1.6999 -0.1224
  237MPD1     N 3656   0.146   1.716  15.001 -0.1182 -0.0632  0.6269
  237MPD1    H5 3657   0.057   1.735  14.956  1.9060  2.8484 -2.1441
  237MPD1    N1 3658   0.625   1.729  14.969  0.7253  0.3090 -0.0268
  237MPD1    H6 3659   0.633   1.738  15.070  3.7722 -1.0985 -0.1403
  237MPD1    H7 3660   0.698   1.782  14.921  0.4338  1.2677  0.5830
  238MPD1     C 3661   2.343   0.258  14.384 -0.1076  0.0425 -0.1255
  238MPD1    C1 3662   2.284   0.239  14.508 -0.6261  0.0585 -0.0990
  238MPD1    C2 3663   2.163   0.170  14.508 -0.1721  0.8665 -0.2820
  238MPD1    C3 3664   2.118   0.107  14.396 -0.2030 -0.2344  0.0788
  238MPD1    C4 3665   2.187   0.125  14.275  0.2514 -0.2782 -0.4599
  238MPD1    C5 3666   2.296   0.202  14.269 -0.2344  0.3616  0.3335
  238MPD1     H 3667   2.117   0.173  14.606 -0.8653  1.1074 -0.6146
  238MPD1    H1 3668   2.140   0.085  14.186 -2.8355  1.3236  0.4569
  238MPD1    H2 3669   2.428   0.325  14.380 -0.2721  0.1320 -1.8290
  238MPD1    H3 3670   2.357   0.225  14.182  1.6174 -0.2955  1.4669
  238MPD1     N 3671   2.000   0.028  14.392  0.2721 -0.3460 -1.1240
  238MPD1    H5 3672   1.975   0.007  14.296 -1.8205  1.1482 -0.9141
  238MPD1    N1 3673   2.326   0.312  14.618 -0.2388 -0.6636  0.4780
  238MPD1    H6 3674   2.307   0.274  14.711  1.7626 -1.9204  0.3796
  238MPD1    H7 3675   2.427   0.302  14.622 -0.2260 -0.8096 -0.2153
  239MPD1     C 3676   1.926   0.854  14.761 -0.0434 -0.0575  0.1015
  239MPD1    C1 3677   1.989   0.794  14.653 -0.2307 -0.6070 -0.4498
  239MPD1    C2 3678   1.946   0.823  14.520  0.1050 -0.3092 -0.3331
  239MPD1    C3 3679   1.838   0.911  14.502 -0.0178 -0.1477  0.0037
  239MPD1    C4 3680   1.764   0.948  14.613 -0.0374 -0.4902 -0.4471
  239MPD1    C5 3681   1.811   0.926  14.741 -0.2281  0.1496 -0.1916
  239MPD1     H 3682   2.009   0.786  14.440 -1.7746 -2.2376 -0.9198
  239MPD1    H1 3683   1.676   1.009  14.602 -1.4424 -2.2542  1.1815
  239MPD1    H2 3684   1.966   0.837  14.860  1.9777  1.9952 -0.3685
  239MPD1    H3 3685   1.749   0.957  14.825 -0.4071  1.2913 -0.7389
  239MPD1     N 3686   1.791   0.944  14.371 -0.2873 -0.3505  0.2198
  239MPD1    H5 3687   1.715   1.011  14.362 -0.5503 -0.4405  1.8027
  239MPD1    N1 3688   2.094   0.706  14.687 -0.1116  0.4168  0.2671
  239MPD1    H6 3689   2.073   0.648  14.768  1.0973 -1.0148 -0.4526
  239MPD1    H7 3690   2.110   0.639  14.612  0.8667  2.8338 -1.7007
  240MPD1     C 3691   1.699   0.364  13.683 -0.3857  0.1622 -0.0516
  240MPD1    C1 3692   1.756   0.381  13.806  1.2772 -0.0330 -0.2423
  240MPD1    C2 3693   1.674   0.376  13.918  0.5584  0.1089  0.2439
  240MPD1    C3 3694   1.542   0.350  13.913  0.2421  0.3998  0.2816
  240MPD1    C4 3695   1.483   0.352  13.788 -0.2142 -0.2809  0.7081
  240MPD1    C5 3696   1.561   0.356  13.671 -0.5892  0.5467  0.3926
  240MPD1     H 3697   1.717   0.373  14.018 -0.7461 -1.7315  0.7542
  240MPD1    H1 3698   1.378   0.330  13.771  0.0243 -1.9051  1.2889
  240MPD1    H2 3699   1.763   0.370  13.597 -1.9284  0.2337 -1.2041
  240MPD1    H3 3700   1.514   0.328  13.578 -0.4368 -1.5224  0.9485
  240MPD1     N 3701   1.476   0.324  14.033  0.3819  0.6272  0.1904
  240MPD1    H5 3702   1.533   0.311  14.116  0.3675  2.0392  0.4202
  240MPD1    N1 3703   1.892   0.367  13.819 -0.0348  0.1780  0.3673
  240MPD1    H6 3704   1.929   0.415  13.900 -2.3193  1.3647  0.7024
  240MPD1    H7 3705   1.940   0.393  13.733 -0.5981 -0.7025 -0.2249
  241MPD1     C 3706   1.639   0.063  14.974  0.1540 -0.8604  0.0276
  241MPD1    C1 3707   1.705   0.076  14.855 -0.4775  0.2652 -0.5198
  241MPD1    C2 3708   1.631   0.108  14.745  0.5197 -0.4142  0.2940
  241MPD1    C3 3709   1.492   0.125  14.749  0.8968  0.3864  0.0703
  241MPD1    C4 3710   1.429   0.106  14.869 -0.1649  0.5999  0.2400
  241MPD1    C5 3711   1.502   0.073  14.980  0.7479 -0.1875  0.5437
  241MPD1     H 3712   1.686   0.125  14.653  2.2028  2.0456  1.7563
  241MPD1    H1 3713   1.321   0.113  14.875 -0.2795 -0.2698 -0.7179
  241MPD1    H2 3714   1.697   0.054  15.066  2.6147  0.1253 -1.4257
  241MPD1    H3 3715   1.448   0.053  15.071 -2.0377  1.2356 -0.7858
  241MPD1     N 3716   1.416   0.167  14.633  0.9767  1.0375 -0.3765
  241MPD1    H5 3717   1.315   0.170  14.640  0.8461 -0.8062 -1.4070
  241MPD1    N1 3718   1.851   0.078  14.854  0.0351  0.0062  0.2280
  241MPD1    H6 3719   1.889   0.062  14.760  2.0967  0.6160  0.9555
  241MPD1    H7 3720   1.898   0.017  14.921  0.3691  1.2981  1.1545
  242MPD1     C 3721   1.201   3.946  16.109 -0.3657  0.2187 -0.0741
  242MPD1    C1 3722   1.211   4.034  16.002 -0.7794  0.3108 -0.5685
  242MPD1    C2 3723   1.191   3.990  15.872  0.0406  0.2385  0.0014
  242MPD1    C3 3724   1.171   3.854  15.835  0.2492  0.0377 -0.3552
  242MPD1    C4 3725   1.169   3.767  15.947  0.8768  0.1889  0.0755
  242MPD1    C5 3726   1.182   3.813  16.076  0.6251 -0.4485  0.0039
  242MPD1     H 3727   1.198   4.074  15.804 -1.9480  1.2708  1.0661
  242MPD1    H1 3728   1.160   3.662  15.922 -0.8525  0.3880 -0.1102
  242MPD1    H2 3729   1.202   3.978  16.212 -0.5681  1.8283 -0.5683
  242MPD1    H3 3730   1.185   3.741  16.157 -0.5344 -1.0566 -0.4958
  242MPD1     N 3731   1.162   3.809  15.708  0.0688 -0.2522 -0.3720
  242MPD1    H5 3732   1.150   3.711  15.685 -0.6071 -0.0212 -1.0129
  242MPD1    N1 3733   1.202   4.164  16.035 -0.0824 -0.4328  0.3570
  242MPD1    H6 3734   1.248   4.231  15.974  2.7448 -1.7629  1.0731
  242MPD1    H7 3735   1.229   4.179  16.132  0.0745 -0.1669  0.2719
  243MPD1     C 3736   1.700   2.598  17.727  0.0880  0.0889 -0.2720
  243MPD1    C1 3737   1.786   2.504   0.040 -0.2392  0.5074 -0.2016
  243MPD1    C2 3738   1.844   2.407  17.713  1.3698  0.1257 -0.1197
  243MPD1    C3 3739   1.818   2.394  17.581 -0.4606 -0.0520 -0.7776
  243MPD1    C4 3740   1.738   2.488  17.520 -0.3128  0.3767  0.4297
  243MPD1    C5 3741   1.670   2.585  17.592  0.2563 -0.2017 -0.2913
  243MPD1     H 3742   1.907   2.326  17.748 -2.1928 -2.0313  1.3769
  243MPD1    H1 3743   1.707   2.477  17.417  3.0060 -0.1559 -0.5317
  243MPD1    H2 3744   1.638   2.667   0.035 -0.5208 -0.4065 -0.3317
  243MPD1    H3 3745   1.599   2.657  17.554  1.6217  0.2598 -1.9467
  243MPD1     N 3746   1.868   2.285  17.505 -0.2620  0.7974 -0.7365
  243MPD1    H5 3747   1.942   2.233  17.551 -0.7843 -1.9371 -2.9794
  243MPD1    N1 3748   1.802   2.508   0.179  0.0791 -0.0602  0.0036
  243MPD1    H6 3749   1.775   2.604   0.199  1.2810  0.3971 -0.5791
  243MPD1    H7 3750   1.898   2.488   0.208  0.4510 -0.3607 -1.4150
  244MPD1     C 3751   2.525   1.814   0.021 -0.4973 -0.3786  0.3913
  244MPD1    C1 3752   2.572   1.908  17.678 -0.1514  0.2378 -0.2861
  244MPD1    C2 3753   2.484   1.937  17.573 -0.3893 -0.4458  0.6014
  244MPD1    C3 3754   2.353   1.885  17.561  0.4647  0.3449 -0.2789
  244MPD1    C4 3755   2.304   1.809  17.666  0.2775 -0.2383  0.5145
  244MPD1    C5 3756   2.392   1.776   0.017  0.6992  0.2312  0.8871
  244MPD1     H 3757   2.530   1.990  17.491  1.8080 -1.3211  1.2644
  244MPD1    H1 3758   2.209   1.758  17.660 -0.1519  0.6788 -0.6328
  244MPD1    H2 3759   2.576   1.794   0.115  0.7491 -2.7896 -0.7844
  244MPD1    H3 3760   2.345   1.726   0.101 -1.0702 -0.3185 -0.4487
  244MPD1     N 3761   2.266   1.919  17.456  0.4048  0.4433  0.4095
  244MPD1    H5 3762   2.299   1.997  17.400 -1.9831  1.2353  0.1457
  244MPD1    N1 3763   2.685   1.989  17.703  0.5664  0.3988  0.3827
  244MPD1    H6 3764   2.755   1.936   0.005  0.1439 -1.6460 -1.1294
  244MPD1    H7 3765   2.723   2.026  17.616  0.9964 -2.2497 -0.5658
  245MPD1     C 3766   0.233   2.415  12.949 -0.0441 -1.0426 -0.6252
  245MPD1    C1 3767   0.335   2.471  13.003 -1.1848 -0.0551  0.4516
  245MPD1    C2 3768   0.336   2.597  13.057 -0.0930  0.1070 -0.4200
  245MPD1    C3 3769   0.223   2.673  13.052 -0.1775  0.8274 -0.0535
  245MPD1    C4 3770   0.116   2.618  12.993 -0.7773  0.2823 -1.1894
  245MPD1    C5 3771   0.117   2.489  12.945 -0.6011  0.2137 -0.6617
  245MPD1     H 3772   0.423   2.631  13.113 -1.2358  0.6789  1.0231
  245MPD1    H1 3773   0.021   2.666  12.971  0.0260  1.2995 -2.4249
  245MPD1    H2 3774   0.240   2.312  12.915  0.8357 -1.6372  1.3656
  245MPD1    H3 3775   0.031   2.446  12.895 -0.3637 -2.2352  1.0471
  245MPD1     N 3776   0.215   2.796  13.125 -0.2500  0.6549 -0.0307
  245MPD1    H5 3777   0.301   2.835  13.161 -0.0458  1.2802 -1.2170
  245MPD1    N1 3778   0.442   2.388  13.036  0.4098 -0.3137  0.5554
  245MPD1    H6 3779   0.461   2.303  12.984  1.5956  1.1918 -1.4389
  245MPD1    H7 3780   0.527   2.439  13.059 -0.9781  2.5422 -0.6672
  246MPD1     C 3781   3.127   3.270   9.110 -0.6470 -0.2223  0.1518
  246MPD1    C1 3782   3.179   3.161   9.178 -0.5371 -0.5853  0.5471
  246MPD1    C2 3783   3.318   3.164   9.203 -0.2914 -0.2738 -0.3891
  246MPD1    C3 3784   3.394   3.285   9.188  0.6184 -0.0883 -0.9758
  246MPD1    C4 3785   3.328   3.392   9.126 -0.8111  0.0099  0.0260
  246MPD1    C5 3786   3.205   3.374   9.074  0.7186 -0.2225 -0.4017
  246MPD1     H 3787   3.371   3.086   9.256  0.1714  0.9849  0.9954
  246MPD1    H1 3788   3.378   3.485   9.102 -1.5119  0.0900 -1.1346
  246MPD1    H2 3789   3.022   3.270   9.082 -0.5740  0.5918 -0.1272
  246MPD1    H3 3790   3.154   3.457   9.026 -1.0731 -0.7287  0.6250
  246MPD1     N 3791   3.535   3.293   9.224  0.1735  0.6394 -0.3278
  246MPD1    H5 3792   3.575   3.213   9.272  0.2411  1.5840  1.1605
  246MPD1    N1 3793   3.103   3.044   9.177  0.0175  0.2157 -0.1210
  246MPD1    H6 3794   3.120   2.998   9.266 -3.8873 -1.8648 -0.4455
  246MPD1    H7 3795   3.004   3.067   9.173 -0.0114  0.5361  2.6825
  247MPD1     C 3796   3.482   2.420  14.966  0.2542 -0.0191  0.2429
  247MPD1    C1 3797   3.382   2.445  15.051 -0.4618 -0.1565 -0.0201
  247MPD1    C2 3798   3.413   2.503  15.170  0.9344  0.6594  0.0123
  247MPD1    C3 3799   3.538   2.538  15.210 -0.1655 -0.1340 -0.6734
  247MPD1    C4 3800   3.640   2.519  15.116 -0.4963  1.7429  0.6516
  247MPD1    C5 3801   3.609   2.465  14.994 -0.3106  0.4644  0.2856
  247MPD1     H 3802   3.334   2.519  15.243 -0.2110  2.6620 -1.6898
  247MPD1    H1 3803   3.742   2.547  15.140 -0.3808  0.5319  1.5843
  247MPD1    H2 3804   3.456   2.360  14.879  3.3223  0.1759 -0.8250
  247MPD1    H3 3805   3.687   2.456  14.920  0.0569 -0.5596  0.8028
  247MPD1     N 3806   3.572   2.606  15.332 -0.3639 -0.1062  0.8317
  247MPD1    H5 3807   3.670   2.630  15.348 -0.0258 -0.6815 -0.4263
  247MPD1    N1 3808   3.254   2.387  15.034  0.6108  0.3031 -0.3641
  247MPD1    H6 3809   3.221   2.404  14.939 -1.5123  1.1916  0.5207
  247MPD1    H7 3810   3.178   2.415  15.096  0.6741  1.0369 -0.6110
  248MPD1     C 3811   0.104   2.065   0.217 -0.1710  0.9310  0.2815
  248MPD1    C1 3812   0.017   2.148   0.157 -0.6908 -0.9198 -0.4706
  248MPD1    C2 3813   4.665   2.220   0.227 -0.6081  0.3956  0.7844
  248MPD1    C3 3814   4.660   2.215   0.366 -0.0612 -0.0977  0.5757
  248MPD1    C4 3815   0.020   2.144   0.430  0.1408  0.1389 -0.0776
  248MPD1    C5 3816   0.109   2.074   0.357  0.2000 -0.3573 -0.1366
  248MPD1     H 3817   4.592   2.280   0.174 -0.8998 -0.7139 -0.0710
  248MPD1    H1 3818   0.035   2.152   0.537  0.2949  0.7934 -0.1459
  248MPD1    H2 3819   0.178   2.007   0.163 -1.4912 -0.6212  0.1626
  248MPD1    H3 3820   0.198   2.027   0.396  0.1431 -0.7784 -0.5140
  248MPD1     N 3821   4.570   2.300   0.439 -0.5479  0.4915  0.0549
  248MPD1    H5 3822   4.512   2.363   0.385 -0.6730  0.2872 -0.0492
  248MPD1    N1 3823   4.737   2.136   0.019 -0.4033  0.4321 -0.0265
  248MPD1    H6 3824   4.700   2.218  17.721  1.5821  0.5076 -1.4668
  248MPD1    H7 3825   0.089   2.118  17.723 -0.9599 -1.4955 -0.3345
  249MPD1     C 3826   1.479   0.853   9.948  0.0805  0.3062 -0.1116
  249MPD1    C1 3827   1.602   0.905   9.914 -0.5393  0.3326 -0.7478
  249MPD1    C2 3828   1.652   0.995  10.003 -0.7630  1.2696  0.2759
  249MPD1    C3 3829   1.597   1.038  10.124 -0.2796  0.2168  0.1203
  249MPD1    C4 3830   1.466   0.995  10.140 -1.1849 -0.0854 -0.0587
  249MPD1    C5 3831   1.415   0.898  10.058 -0.5019 -0.4346  0.2408
  249MPD1     H 3832   1.738   1.050   9.970  0.5835 -1.9244 -1.5274
  249MPD1    H1 3833   1.415   1.029  10.230 -1.5347 -1.6786  0.3427
  249MPD1    H2 3834   1.427   0.784   9.882 -0.4337  1.1446 -0.5821
  249MPD1    H3 3835   1.322   0.849  10.082 -1.1797  0.0866 -1.2685
  249MPD1     N 3836   1.667   1.130  10.199  0.2572 -0.0714 -0.5375
  249MPD1    H5 3837   1.736   1.192  10.156 -0.3691  0.1327 -1.2359
  249MPD1    N1 3838   1.669   0.892   9.786  0.3782  0.0833  0.2059
  249MPD1    H6 3839   1.660   0.798   9.748 -1.1409 -0.4604  1.9386
  249MPD1    H7 3840   1.764   0.930   9.784 -0.2712  1.7082  0.4942
  250MPD2     C 3841   3.047   1.416  13.122 -0.4020 -0.1310 -0.4229
  250MPD2    C1 3842   3.020   1.538  13.059 -0.1671 -0.5321  0.2223
  250MPD2    C2 3843   2.957   1.547  12.939  0.9774 -0.1028  0.1373
  250MPD2    C3 3844   2.911   1.430  12.882  0.1427  0.6342  0.0401
  250MPD2    C4 3845   2.931   1.308  12.944 -0.0730  0.4152  0.1104
  250MPD2    C5 3846   3.002   1.304  13.056  0.1486  0.0077  0.8158
  250MPD2     H 3847   2.942   1.644  12.892  2.7969  0.1544  0.0878
  250MPD2    H1 3848   2.905   1.213  12.899  1.2708 -0.1030  0.4329
  250MPD2    H2 3849   3.095   1.404  13.218 -0.1330  0.9398 -0.4240
  250MPD2    H3 3850   3.024   1.213  13.111  0.4852 -1.4075 -1.6706
  250MPD2     N 3851   2.858   1.404  12.749  0.9612  0.4702 -0.6031
  250MPD2    H5 3852   2.865   1.306  12.722 -1.7138  0.0389  0.1885
  250MPD2    N1 3853   3.076   1.656  13.113 -0.1877 -0.0201 -1.0633
  250MPD2    H7 3854   3.131   1.642  13.197  0.2725  0.8705 -1.2105
  251TMC3    C1 3855   3.126   1.880  13.163 -0.2211  0.0920 -0.0554
  251TMC3    C2 3856   3.062   1.996  13.215  0.4383  0.1113 -0.4434
  251TMC3    C3 3857   3.123   2.069  13.317 -0.6766 -0.9150 -0.2297
  251TMC3    C4 3858   3.239   1.828  13.226 -0.1086  0.5006  0.2037
  251TMC3    C5 3859   3.299   1.905  13.323  1.0659 -0.4083  1.0548
  251TMC3    C6 3860   3.242   2.023  13.368 -0.0977 -0.2914 -0.1654
  251TMC3     C 3861   3.056   1.791  13.078  0.0879  0.0088  0.3229
  251TMC3     O 3862   2.975   1.840  12.998  0.3464 -0.6649 -0.4850
  251TMC3     H 3863   2.964   2.024  13.178  1.0922  0.0872 -2.2074
  251TMC3    H1 3864   3.297   1.744  13.190  1.1651 -0.0626  3.4869
  251TMC3    H2 3865   3.284   2.070  13.456 -0.3206 -1.2542  0.4609
  251TMC3    C7 3866   3.436   1.864  13.365  0.3250 -0.0920  0.2841
  251TMC3    C8 3867   3.040   2.144  13.410 -0.5357  0.4255  0.8094
  251TMC3    O1 3868   3.461   1.746  13.393 -0.0884  0.3989 -0.5812
  251TMC3    O2 3869   3.098   2.160  13.516 -0.8743 -0.0602  0.2000
  252TMC3    C1 3870   2.918   2.573   9.500  0.2263  0.3444 -0.0094
  252TMC3    C2 3871   2.967   2.696   9.468  1.1896 -0.4333 -0.3647
  252TMC3    C3 3872   3.010   2.773   9.572 -0.3338  0.1796  0.3171
  252TMC3    C4 3873   2.897   2.530   9.637 -0.9857 -0.6106  0.5114
  252TMC3    C5 3874   2.939   2.620   9.729  0.7677 -0.0386 -0.1056
  252TMC3    C6 3875   2.997   2.735   9.698 -0.4662  0.1358 -0.7680
  252TMC3     C 3876   2.869   2.486   9.396 -0.1851  0.1988  0.0252
  252TMC3     O 3877   2.864   2.538   9.288 -0.2545 -0.8705 -0.3281
  252TMC3     H 3878   2.978   2.730   9.365  0.8256 -2.0400 -0.9221
  252TMC3    H1 3879   2.865   2.431   9.668 -0.4516 -1.2647 -1.0093
  252TMC3    H2 3880   3.021   2.806   9.777  0.6006 -0.7666 -0.2873
  252TMC3    C7 3881   2.945   2.575   9.871 -0.1940 -0.0687 -0.0137
  252TMC3    C8 3882   3.100   2.890   9.543 -0.4849  0.5318  0.1533
  252TMC3    O1 3883   3.006   2.643   9.948  0.4509 -0.7692  0.0856
  252TMC3    O2 3884   3.108   2.934   9.430  0.3319 -0.4185 -0.1734
  253MPD2     C 3885   4.037   1.243  14.866  0.2298 -0.2468 -0.5411
  253MPD2    C1 3886   3.906   1.270  14.888 -0.4821 -0.3911  0.1482
  253MPD2    C2 3887   3.862   1.300  15.013 -0.3488 -0.6256 -0.6290
  253MPD2    C3 3888   3.940   1.277  15.131 -0.7021 -0.3509  0.8355
  253MPD2    C4 3889   4.063   1.220  15.112 -0.5971 -0.1379 -0.0051
  253MPD2    C5 3890   4.114   1.203  14.983 -0.3884  0.2772 -0.2181
  253MPD2     H 3891   3.760   1.332  15.030 -0.0282 -0.2352  0.5750
  253MPD2    H1 3892   4.134   1.209  15.193  0.9947 -0.5242 -1.4458
  253MPD2    H2 3893   4.082   1.239  14.767  2.2579  0.4126  0.3518
  253MPD2    H3 3894   4.214   1.164  14.968  0.0086  1.7111 -1.3602
  253MPD2     N 3895   3.901   1.330  15.259  0.3914 -0.6846 -0.3021
  253MPD2    H5 3896   3.950   1.288  15.337 -0.5593 -1.9928 -0.4057
  253MPD2    N1 3897   3.811   1.309  14.790  0.3595 -0.6543 -0.3928
  253MPD2    H7 3898   3.712   1.323  14.812  0.9235  3.8926 -0.7327
  254TMC3    C1 3899   3.816   1.498  15.408  0.4694  0.0869  1.3129
  254TMC3    C2 3900   3.726   1.596  15.425  0.4689 -0.5664  0.3439
  254TMC3    C3 3901   3.756   1.700  15.513  0.0984 -0.5036  0.2664
  254TMC3    C4 3902   3.939   1.488  15.480 -0.1649 -0.7460  0.2310
  254TMC3    C5 3903   3.960   1.588  15.566 -0.4970  0.0586 -0.1717
  254TMC3    C6 3904   3.872   1.691  15.579  0.5282 -0.4031  0.1720
  254TMC3     C 3905   3.810   1.433  15.281 -0.3471 -0.1528 -0.1054
  254TMC3     O 3906   3.739   1.482  15.190  0.0072  0.4841  0.1516
  254TMC3     H 3907   3.639   1.594  15.361 -0.5282  4.0459  1.5421
  254TMC3    H1 3908   4.007   1.404  15.475 -0.8708 -1.3174  0.1581
  254TMC3    H2 3909   3.889   1.774  15.647 -0.7723  0.8828 -1.0770
  254TMC3    C7 3910   4.007   1.557  15.697 -0.4938 -0.5012  0.1261
  254TMC3    C8 3911   3.645   1.769  15.571 -0.4407 -0.6987 -0.0929
  254TMC3    O1 3912   3.948   1.464  15.749  0.2445  0.0672 -0.3507
  254TMC3    O2 3913   3.665   1.817  15.682  0.4123 -0.3326  0.6540
  255MPD2     C 3914   3.122   0.000  10.591  0.1876 -0.5004  0.1515
  255MPD2    C1 3915   3.064   0.037  10.476 -0.3424 -0.2440 -0.0775
  255MPD2    C2 3916   3.128   0.003  10.357  0.3154  0.4332 -0.3331
  255MPD2    C3 3917   3.241   4.664  10.354 -0.3579 -0.2958 -0.2901
  255MPD2    C4 3918   3.284   4.604  10.474  0.6196  1.0726 -0.4110
  255MPD2    C5 3919   3.224   4.648  10.591 -0.8688  0.3290 -0.1490
  255MPD2     H 3920   3.097   0.052  10.265  0.6749  0.4272 -0.4563
  255MPD2    H1 3921   3.376   4.546  10.474 -0.4851 -0.6652 -0.0863
  255MPD2    H2 3922   3.072   0.029  10.683  2.8869  3.2253  0.4602
  255MPD2    H3 3923   3.267   4.597  10.677 -0.5066  1.5493  0.3880
  255MPD2     N 3924   3.311   4.634  10.238  0.2036  0.0959 -0.1848
  255MPD2    H5 3925   3.371   4.552  10.233  1.3475  0.9659 -0.7790
  255MPD2    N1 3926   2.944   0.112  10.482  0.0641 -0.1446  0.0040
  255MPD2    H7 3927   2.910   0.133  10.576  2.2609  0.3593  0.6866
  256TMC3    C1 3928   2.724   0.155  10.425  0.1853  0.2408  0.8321
  256TMC3    C2 3929   2.715   0.250  10.520 -0.0173  0.0279 -0.2572
  256TMC3    C3 3930   2.586   0.273  10.561 -0.1676  0.3555  0.0426
  256TMC3    C4 3931   2.627   0.083  10.376 -0.0254  0.7497 -0.2425
  256TMC3    C5 3932   2.495   0.111  10.414 -0.3891  0.6521 -0.3582
  256TMC3    C6 3933   2.478   0.209  10.514  0.4730  1.0178 -0.3000
  256TMC3     C 3934   2.853   0.129  10.372 -0.0189 -0.1487  1.1120
  256TMC3     O 3935   2.869   0.108  10.252  0.8124 -0.2600 -0.4281
  256TMC3     H 3936   2.804   0.305  10.551  1.0199 -2.3958  1.1179
  256TMC3    H1 3937   2.651   0.011  10.299  0.3674 -1.0930  1.5833
  256TMC3    H2 3938   2.390   0.269  10.528  0.4209  0.3159  2.4367
  256TMC3    C7 3939   2.391   0.066  10.341  0.3041 -0.6310  0.5021
  256TMC3    C8 3940   2.566   0.416  10.579 -0.4425  0.3830 -0.1032
  256TMC3    O1 3941   2.422   4.716  10.264  0.8243  0.4381 -0.3015
  256TMC3    O2 3942   2.483   0.465  10.651  0.5025  0.2001  0.4941
  257MPD2     C 3943   1.790   2.006  13.122  0.5384 -0.2089  0.2585
  257MPD2    C1 3944   1.731   1.939  13.020  0.1935  0.8229  0.1707
  257MPD2    C2 3945   1.664   1.819  13.041  0.5904  0.1108  0.2841
  257MPD2    C3 3946   1.644   1.769  13.167 -0.8886 -1.2923 -0.1930
  257MPD2    C4 3947   1.698   1.834  13.276 -0.2650 -0.5954 -0.3073
  257MPD2    C5 3948   1.766   1.949  13.248 -0.0503  0.7673  0.0204
  257MPD2     H 3949   1.621   1.767  12.957  0.3406 -0.5557  0.8255
  257MPD2    H1 3950   1.670   1.806  13.377  1.2518 -0.9359  0.0067
  257MPD2    H2 3951   1.849   2.096  13.110  0.1092 -0.0456 -0.5724
  257MPD2    H3 3952   1.807   2.009  13.329  0.0578  0.8700 -0.1101
  257MPD2     N 3953   1.578   1.645  13.174 -1.1706  0.2540  0.6368
  257MPD2    H5 3954   1.540   1.607  13.089  1.3008  0.3856 -0.5299
  257MPD2    N1 3955   1.753   1.997  12.895 -0.1567 -0.4020 -0.7721
  257MPD2    H7 3956   1.789   2.091  12.887  1.2701 -0.8978 -0.0836
  258TMC3    C1 3957   1.473   1.464  13.277  0.4702  0.6638 -0.2439
  258TMC3    C2 3958   1.362   1.500  13.205  0.3820 -0.4001 -0.3422
  258TMC3    C3 3959   1.287   1.397  13.158 -0.3191 -0.2406  0.0037
  258TMC3    C4 3960   1.514   1.339  13.301 -0.0366 -0.4735  0.1788
  258TMC3    C5 3961   1.435   1.237  13.248  0.3833  0.5644 -0.1320
  258TMC3    C6 3962   1.321   1.268  13.182  0.4901 -0.3175 -0.5258
  258TMC3     C 3963   1.575   1.562  13.290 -0.6209 -0.2902  0.2116
  258TMC3     O 3964   1.650   1.556  13.387  0.3020  0.0340 -0.8946
  258TMC3     H 3965   1.337   1.605  13.196 -1.5917 -0.8440 -0.1757
  258TMC3    H1 3966   1.608   1.324  13.354  0.2764 -0.2991 -0.3325
  258TMC3    H2 3967   1.267   1.187  13.135  0.2062 -0.0081 -0.7305
  258TMC3    C7 3968   1.500   1.116  13.192  0.2787  0.4671  0.7683
  258TMC3    C8 3969   1.199   1.422  13.044 -0.3395 -0.8472 -0.5654
  258TMC3    O1 3970   1.469   1.075  13.083 -0.1092 -0.5631  0.1915
  258TMC3    O2 3971   1.128   1.329  13.021 -0.7610  0.4243  0.2776
  259MPD2     C 3972   0.166   2.926   0.387 -0.2857 -0.8574  0.1536
  259MPD2    C1 3973   0.256   2.878   0.481  0.0953  1.6909 -0.1556
  259MPD2    C2 3974   0.370   2.822   0.426  0.3533 -0.4075  0.0845
  259MPD2    C3 3975   0.378   2.806   0.288 -0.6083 -0.4558  0.4890
  259MPD2    C4 3976   0.281   2.845   0.201  0.4545 -0.0109  1.3006
  259MPD2    C5 3977   0.175   2.908   0.250  1.0987  0.7491 -0.5785
  259MPD2     H 3978   0.451   2.796   0.493  2.2647  0.4271 -1.8943
  259MPD2    H1 3979   0.290   2.841   0.093 -0.5538  1.6082  1.1630
  259MPD2    H2 3980   0.081   2.980   0.426  0.0529  0.6853 -1.2552
  259MPD2    H3 3981   0.102   2.946   0.180  0.4393  2.4000  0.9932
  259MPD2     N 3982   0.497   2.741   0.247 -0.6981 -0.4185  1.0294
  259MPD2    H5 3983   0.554   2.707   0.324 -1.0038 -3.1797  0.0089
  259MPD2    N1 3984   0.234   2.905   0.617  0.3171 -0.6282  0.0334
  259MPD2    H7 3985   0.150   2.956   0.642 -0.0984 -0.1001 -2.4398
  260TMC3    C1 3986   0.700   2.701   0.150 -0.3205 -0.2700 -0.1451
  260TMC3    C2 3987   0.762   2.629   0.048  0.3927 -0.5634 -0.0234
  260TMC3    C3 3988   0.871   2.552   0.084  0.3573  0.6854  0.0806
  260TMC3    C4 3989   0.748   2.701   0.276  0.1321  0.2854  0.1973
  260TMC3    C5 3990   0.861   2.634   0.298  0.0485 -0.0863 -0.1716
  260TMC3    C6 3991   0.920   2.552   0.211 -0.1527 -0.2275 -0.0379
  260TMC3     C 3992   0.561   2.744   0.126  0.2530 -0.3772  0.4802
  260TMC3     O 3993   0.527   2.773   0.013  0.1501  0.3004 -0.3184
  260TMC3     H 3994   0.709   2.611  17.705 -1.8992  0.9299  1.0156
  260TMC3    H1 3995   0.707   2.748   0.364 -0.5206  1.3367 -0.6717
  260TMC3    H2 3996   1.015   2.505   0.235 -0.3409  0.1774  1.5228
  260TMC3    C7 3997   0.899   2.621   0.438 -0.0020  0.3366  0.1514
  260TMC3    C8 3998   0.919   2.474  17.732  0.3317 -0.3521  0.6143
  260TMC3    O1 3999   1.017   2.591   0.459 -0.1298  0.2924  0.2506
  260TMC3    O2 4000   0.903   2.500  17.615 -0.4443 -0.2875  0.0244
  261MPD2     C 4001   2.409   1.643  12.067  0.1479 -0.0139  0.4825
  261MPD2    C1 4002   2.543   1.667  12.086 -0.3564  0.1182  0.0548
  261MPD2    C2 4003   2.601   1.761  12.003  0.0392 -0.2760  0.0252
  261MPD2    C3 4004   2.533   1.831  11.905 -0.1914 -0.1442 -0.1637
  261MPD2    C4 4005   2.403   1.804  11.901  0.5094  1.1527  0.3454
  261MPD2    C5 4006   2.346   1.704  11.970 -0.6366  0.7148  0.0015
  261MPD2     H 4007   2.708   1.781  12.006  0.0561 -0.2867 -0.5404
  261MPD2    H1 4008   2.346   1.876  11.844  1.4021  1.6126  0.0391
  261MPD2    H2 4009   2.357   1.565  12.122 -0.0917 -0.6445 -0.6257
  261MPD2    H3 4010   2.242   1.681  11.951 -0.7811  1.5565 -0.2135
  261MPD2     N 4011   2.600   1.918  11.814  0.3760  0.1201 -0.1404
  261MPD2    H5 4012   2.696   1.940  11.841  1.3303 -1.4489 -2.3097
  261MPD2    N1 4013   2.625   1.604  12.184  0.1831 -0.7801  0.1615
  261MPD2    H7 4014   2.722   1.632  12.190 -0.3995  0.7088  2.1941
  262TMC3    C1 4015   2.629   2.071  11.625  0.7227 -0.4476  0.0627
  262TMC3    C2 4016   2.572   2.155  11.535 -0.7403 -0.3462 -0.9550
  262TMC3    C3 4017   2.648   2.226  11.444  0.3450 -0.1346 -0.0609
  262TMC3    C4 4018   2.764   2.043  11.620  0.0150 -0.2706 -0.0403
  262TMC3    C5 4019   2.836   2.133  11.545 -0.0671 -0.0222 -0.3952
  262TMC3    C6 4020   2.786   2.217  11.448 -0.3087 -0.2917  0.8321
  262TMC3     C 4021   2.544   1.978  11.704  0.5825  0.6596  0.8982
  262TMC3     O 4022   2.423   1.975  11.668 -0.0596  0.0486 -0.4476
  262TMC3     H 4023   2.464   2.157  11.524 -0.8679  1.4366  0.6345
  262TMC3    H1 4024   2.816   1.996  11.703 -4.4891 -2.9419  1.3047
  262TMC3    H2 4025   2.848   2.279  11.385  0.2811  0.5454  2.2198
  262TMC3    C7 4026   2.954   2.177  11.617  0.0815 -0.1672  0.7795
  262TMC3    C8 4027   2.592   2.347  11.386 -0.4357 -0.5388 -0.3492
  262TMC3    O1 4028   3.013   2.097  11.690  0.8175 -0.1346  1.0482
  262TMC3    O2 4029   2.672   2.436  11.356  0.3924 -0.1450  1.0334
  263MPD2     C 4030   3.375   0.984  11.261 -0.2507 -0.3728 -0.1713
  263MPD2    C1 4031   3.503   1.045  11.284  0.4568  0.1469  0.1861
  263MPD2    C2 4032   3.530   1.154  11.198 -0.1193  0.3036 -0.4373
  263MPD2    C3 4033   3.449   1.202  11.105 -0.3582 -0.6847  0.6738
  263MPD2    C4 4034   3.334   1.132  11.076 -0.2351  0.2786 -0.2143
  263MPD2    C5 4035   3.301   1.021  11.150 -0.6435 -0.8806 -0.5246
  263MPD2     H 4036   3.627   1.201  11.209 -1.3600  2.3111  1.9801
  263MPD2    H1 4037   3.265   1.156  10.996 -1.6892  1.0102  1.2884
  263MPD2    H2 4038   3.343   0.903  11.326 -2.3771 -0.2740 -1.0785
  263MPD2    H3 4039   3.212   0.965  11.120  0.1175 -2.8245  0.8463
  263MPD2     N 4040   3.481   1.325  11.041 -0.4683  0.5151 -0.3271
  263MPD2    H5 4041   3.548   1.381  11.092  0.0326  1.4315 -1.9845
  263MPD2    N1 4042   3.590   0.995  11.385  0.7984  0.7906  0.8388
  263MPD2    H7 4043   3.554   0.918  11.440 -1.2223  0.1738 -1.3391
  264TMC3    C1 4044   3.449   1.523  10.910  0.2789  0.6739 -0.5260
  264TMC3    C2 4045   3.477   1.605  11.014 -0.2914 -0.2461  0.0292
  264TMC3    C3 4046   3.491   1.738  10.986  0.2376 -0.2289 -0.3749
  264TMC3    C4 4047   3.426   1.573  10.782 -0.4041  0.5099  0.4191
  264TMC3    C5 4048   3.422   1.710  10.766  0.2964  0.7998 -0.3579
  264TMC3    C6 4049   3.466   1.790  10.864 -0.6979 -0.4024 -0.4549
  264TMC3     C 4050   3.423   1.382  10.929 -0.0249 -0.2870 -0.2531
  264TMC3     O 4051   3.352   1.334  10.844  0.0141 -0.4611 -0.2351
  264TMC3     H 4052   3.495   1.564  11.113  4.4930  2.4357  0.2898
  264TMC3    H1 4053   3.408   1.497  10.708  1.7206 -0.8106  1.2604
  264TMC3    H2 4054   3.472   1.897  10.852 -2.0307 -0.4829 -1.7666
  264TMC3    C7 4055   3.473   1.750  10.634  0.5210 -0.3089  0.6576
  264TMC3    C8 4056   3.518   1.838  11.086  0.0032 -0.8049 -0.6478
  264TMC3    O1 4057   3.518   1.659  10.564  0.0418 -0.2346  0.1586
  264TMC3    O2 4058   3.552   1.953  11.044  0.1041 -0.4917  0.0937
  265MPD2     C 4059   0.619   1.096  15.462  0.2361  0.5487  1.0386
  265MPD2    C1 4060   0.671   1.203  15.396  0.6892  0.0288  0.3734
  265MPD2    C2 4061   0.699   1.190  15.261  0.0632 -0.4951 -0.4747
  265MPD2    C3 4062   0.680   1.069  15.192 -0.1839  0.1945  0.1381
  265MPD2    C4 4063   0.621   0.966  15.258 -0.9341  0.2118  0.5394
  265MPD2    C5 4064   0.600   0.982  15.390  0.0337 -0.0463  0.1328
  265MPD2     H 4065   0.736   1.279  15.212  0.9646  0.0911  1.2688
  265MPD2    H1 4066   0.600   0.872  15.209 -0.0727  0.5888 -0.5577
  265MPD2    H2 4067   0.571   1.101  15.559 -3.0675 -2.0999 -0.4933
  265MPD2    H3 4068   0.567   0.898  15.451 -1.0114 -1.0970 -1.8517
  265MPD2     N 4069   0.725   1.038  15.061  0.7706 -0.3207  0.0850
  265MPD2    H5 4070   0.700   0.942  15.043  1.6143 -0.0410 -2.4531
  265MPD2    N1 4071   0.666   1.330  15.455 -0.4660 -0.0601  0.0679
  265MPD2    H7 4072   0.697   1.409  15.398  0.6953 -0.8213 -0.3639
  266TMC3    C1 4073   0.663   1.504  15.621  0.4007 -0.0727 -0.0258
  266TMC3    C2 4074   0.612   1.543  15.744 -0.7726 -0.0564 -0.8833
  266TMC3    C3 4075   0.585   1.670  15.776 -0.1746  0.0381 -0.8160
  266TMC3    C4 4076   0.646   1.591  15.520  0.0902 -0.6516 -0.5117
  266TMC3    C5 4077   0.604   1.720  15.550  0.1275 -0.2457  0.3089
  266TMC3    C6 4078   0.575   1.767  15.678 -0.1022  0.1053 -0.2122
  266TMC3     C 4079   0.638   1.363  15.587 -1.2609  0.1301  0.2032
  266TMC3     O 4080   0.602   1.297  15.681 -0.1009 -0.0083  0.4534
  266TMC3     H 4081   0.628   1.472  15.824  0.3416 -0.7725 -1.7438
  266TMC3    H1 4082   0.666   1.559  15.419 -0.8473 -0.0338 -0.8975
  266TMC3    H2 4083   0.540   1.865  15.708  0.7017  0.0538  0.8966
  266TMC3    C7 4084   0.549   1.788  15.432  0.2952 -0.7148 -1.3121
  266TMC3    C8 4085   0.544   1.703  15.914  0.2774 -0.1031  0.2498
  266TMC3    O1 4086   0.559   1.741  15.320  0.1134 -0.2325 -0.3304
  266TMC3    O2 4087   0.588   1.635  16.002  0.1776  0.6013 -0.3047
  267MPD2     C 4088   2.021   2.833   0.145 -0.5863  0.5885 -0.1891
  267MPD2    C1 4089   2.086   2.841   0.024  0.5379 -0.2790  0.1379
  267MPD2    C2 4090   2.017   2.872  17.652 -0.0325  0.3942 -0.7424
  267MPD2    C3 4091   1.880   2.900  17.658  0.6607  0.3478  0.1102
  267MPD2    C4 4092   1.820   2.896   0.027 -0.1362 -0.8939  0.0538
  267MPD2    C5 4093   1.889   2.864   0.140  0.2294 -0.7575 -0.3915
  267MPD2     H 4094   2.072   2.882  17.559 -0.1448  2.3957 -0.5978
  267MPD2    H1 4095   1.713   2.908   0.037  0.4059  3.3046  1.1255
  267MPD2    H2 4096   2.063   2.808   0.241 -0.0156  0.7554 -0.3927
  267MPD2    H3 4097   1.824   2.854   0.226 -0.5682  0.0960 -0.8995
  267MPD2     N 4098   1.793   2.926  17.546  0.5854  0.3119 -0.3181
  267MPD2    H5 4099   1.698   2.961  17.555 -0.4885 -2.4540 -0.8952
  267MPD2    N1 4100   2.222   2.803   0.024  0.0980 -0.0525  0.1624
  267MPD2    H7 4101   2.265   2.771   0.110  1.7095  0.8511 -0.2998
  268TMC3    C1 4102   2.440   2.766  17.707 -0.6778  0.1472 -0.0534
  268TMC3    C2 4103   2.543   2.840  17.655  0.6715 -0.0292  0.1224
  268TMC3    C3 4104   2.666   2.834  17.716 -0.2547  0.2495  0.5864
  268TMC3    C4 4105   2.449   2.690   0.069 -0.0338  0.2618 -0.1975
  268TMC3    C5 4106   2.578   2.685   0.122  0.1619  0.0539 -0.2618
  268TMC3    C6 4107   2.686   2.759   0.074  0.5350 -0.3129  0.7840
  268TMC3     C 4108   2.310   2.811  17.664 -0.7121  0.5350 -0.0563
  268TMC3     O 4109   2.289   2.854  17.553  0.6280 -0.3590 -0.3383
  268TMC3     H 4110   2.506   2.900  17.572 -0.2269  0.7010  1.0358
  268TMC3    H1 4111   2.372   2.616   0.088  0.9136 -0.5994  0.3084
  268TMC3    H2 4112   2.786   2.752   0.116  1.1364  1.0560 -0.4225
  268TMC3    C7 4113   2.615   2.584   0.227 -0.0386  0.7566 -0.2283
  268TMC3    C8 4114   2.773   2.929  17.679  0.4534 -0.7289 -0.2020
  268TMC3    O1 4115   2.732   2.550   0.247  0.1301 -0.4409 -0.3510
  268TMC3    O2 4116   2.864   2.950   0.007 -0.3648 -0.2271 -0.0986
  269MPD2     C 4117   3.012   1.943  15.255  0.1474  0.0680 -0.4996
  269MPD2    C1 4118   3.001   1.979  15.391  0.4842 -0.1120 -0.3553
  269MPD2    C2 4119   2.979   2.111  15.420 -0.7053  0.2345 -0.0719
  269MPD2    C3 4120   2.978   2.214  15.323 -0.3854  0.3389  0.7639
  269MPD2    C4 4121   2.987   2.179  15.189  0.0452 -0.1349 -0.1607
  269MPD2    C5 4122   2.993   2.042  15.161  0.3073 -0.6046  0.8407
  269MPD2     H 4123   2.989   2.149  15.522  0.0734 -1.2101  0.3854
  269MPD2    H1 4124   2.983   2.257  15.115 -0.1285 -0.7521 -0.8043
  269MPD2    H2 4125   3.027   1.839  15.229  0.2058 -0.0466  0.0017
  269MPD2    H3 4126   2.995   2.005  15.059 -0.8471 -0.1409  0.6582
  269MPD2     N 4127   2.950   2.344  15.368  0.1830 -0.1028  0.4908
  269MPD2    H5 4128   2.935   2.348  15.468  1.5607 -0.3898  0.7074
  269MPD2    N1 4129   3.020   1.882  15.486  0.6463  0.3652  0.1257
  269MPD2    H7 4130   3.060   1.793  15.460 -0.9503  0.3333 -2.2177
  270TMC3    C1 4131   3.000   1.767  15.681 -0.2602  0.3139  0.1736
  270TMC3    C2 4132   2.892   1.685  15.686  0.3299 -0.3393  0.1331
  270TMC3    C3 4133   2.907   1.557  15.728 -0.3229  0.6021 -0.6229
  270TMC3    C4 4134   3.123   1.713  15.692 -0.2934 -0.0279  0.6303
  270TMC3    C5 4135   3.139   1.594  15.748 -0.1440 -0.5444  0.0474
  270TMC3    C6 4136   3.031   1.511  15.767 -0.4772 -0.0227 -0.6156
  270TMC3     C 4137   2.991   1.897  15.615  0.0767  0.5617 -0.9912
  270TMC3     O 4138   2.924   1.978  15.671 -0.3742  0.4175  0.1628
  270TMC3     H 4139   2.794   1.716  15.651  0.6540  2.2454  1.4975
  270TMC3    H1 4140   3.216   1.760  15.660 -0.4840  0.9392  1.4892
  270TMC3    H2 4141   3.044   1.411  15.806  2.3072  0.2490 -0.8211
  270TMC3    C7 4142   3.253   1.521  15.696 -0.4048  0.3854  0.4585
  270TMC3    C8 4143   2.855   1.456  15.638  0.3661 -0.1837  0.6183
  270TMC3    O1 4144   3.367   1.572  15.706 -0.5952 -0.3268 -0.3426
  270TMC3    O2 4145   2.940   1.369  15.610 -0.1640 -0.8168  0.0835
  271MPD2     C 4146   2.121   1.324  13.972 -0.2541  0.3096 -0.6299
  271MPD2    C1 4147   2.044   1.298  14.081  0.7213  0.3041 -0.0514
  271MPD2    C2 4148   1.922   1.363  14.105  0.1739  0.3468 -0.3352
  271MPD2    C3 4149   1.869   1.453  14.010 -0.0752 -0.0143 -0.7318
  271MPD2    C4 4150   1.949   1.481  13.897  0.6742 -0.0138 -0.1738
  271MPD2    C5 4151   2.075   1.415  13.883 -0.4705  0.3112  0.4577
  271MPD2     H 4152   1.866   1.344  14.195  2.8488 -2.8032  0.6639
  271MPD2    H1 4153   1.918   1.538  13.811  2.4186  1.3425  0.0951
  271MPD2    H2 4154   2.217   1.282  13.946 -0.6572 -0.1902 -1.2966
  271MPD2    H3 4155   2.135   1.434  13.795 -1.9920  0.0635 -0.6391
  271MPD2     N 4156   1.745   1.510  14.017  0.0006  0.5571 -0.0784
  271MPD2    H5 4157   1.715   1.571  13.942  0.2241  2.0097  1.0244
  271MPD2    N1 4158   2.091   1.208  14.180  1.1557  0.2289 -0.9023
  271MPD2    H7 4159   2.046   1.208  14.272  0.2731  1.7107 -1.3304
  272TMC3    C1 4160   2.235   1.062  14.291  0.5441 -0.8897 -0.8126
  272TMC3    C2 4161   2.353   1.002  14.281 -0.0744 -0.0254 -0.7786
  272TMC3    C3 4162   2.414   0.971  14.401 -0.0101 -0.2777 -0.5095
  272TMC3    C4 4163   2.172   1.100  14.406  0.0455 -0.6702  0.4026
  272TMC3    C5 4164   2.246   1.079  14.521 -0.1479  0.2599  0.0906
  272TMC3    C6 4165   2.361   1.010  14.525  0.5722  0.3290 -0.0557
  272TMC3     C 4166   2.193   1.119  14.164  0.1767  0.1718 -0.1962
  272TMC3     O 4167   2.260   1.102  14.064 -0.0033 -0.2700  0.4062
  272TMC3     H 4168   2.398   0.968  14.188  1.4840  3.6051 -1.3427
  272TMC3    H1 4169   2.073   1.143  14.414 -0.9003 -2.7155 -0.5711
  272TMC3    H2 4170   2.414   0.982  14.616  0.1546  1.1791  0.4443
  272TMC3    C7 4171   2.200   1.143  14.645  0.4981 -0.5253 -0.2007
  272TMC3    C8 4172   2.555   0.992  14.383 -0.0168 -0.0226  0.3513
  272TMC3    O1 4173   2.084   1.182  14.634  0.5033  0.1534  0.0025
  272TMC3    O2 4174   2.583   1.053  14.282  0.1231  0.1089  0.8134
  273MPD2     C 4175   3.820   4.501  11.285  0.2306 -0.0246  0.4367
  273MPD2    C1 4176   3.924   4.580  11.344  0.6538 -0.7958  0.2172
  273MPD2    C2 4177   3.971   4.682  11.269  0.4308 -0.0052  0.5545
  273MPD2    C3 4178   3.935   4.696  11.138  0.0533 -0.3894  0.0813
  273MPD2    C4 4179   3.839   4.620  11.083  0.1922  0.0181 -0.3600
  273MPD2    C5 4180   3.785   4.520  11.157  0.4468 -0.1964  0.0884
  273MPD2     H 4181   4.047   0.006  11.316 -2.4616  2.9667  1.3240
  273MPD2    H1 4182   3.811   4.632  10.979  1.4717  1.1203 -0.5827
  273MPD2    H2 4183   3.776   4.416  11.336 -0.1068 -0.1221 -0.0199
  273MPD2    H3 4184   3.716   4.450  11.113  2.2677 -1.1626 -1.2245
  273MPD2     N 4185   4.012   0.039  11.049 -0.3191  0.0065  0.1694
  273MPD2    H5 4186   4.008   0.018  10.950  0.0149 -0.0760  0.1736
  273MPD2    N1 4187   3.960   4.565  11.478  0.1370 -0.0174 -0.2692
  273MPD2    H7 4188   4.014   4.639  11.520 -2.4892  1.8537 -0.1738
  274TMC3    C1 4189   4.108   0.239  10.985 -0.2563 -0.0597 -0.1437
  274TMC3    C2 4190   4.030   0.239  10.871  0.1982  0.1764 -0.2876
  274TMC3    C3 4191   4.059   0.317  10.768 -0.3657  0.1847 -0.1360
  274TMC3    C4 4192   4.202   0.338  11.003  0.1590 -0.4212 -0.1135
  274TMC3    C5 4193   4.224   0.423  10.899  0.6868 -1.0714  0.6812
  274TMC3    C6 4194   4.168   0.408  10.777 -0.0792 -0.2414  0.1220
  274TMC3     C 4195   4.089   0.147  11.095  0.0517  0.2475 -0.4636
  274TMC3     O 4196   4.107   0.196  11.205 -0.3168  0.5411 -0.2816
  274TMC3     H 4197   3.947   0.170  10.868  0.4048 -0.0851  0.0004
  274TMC3    H1 4198   4.277   0.324  11.080 -0.2171 -0.2528  0.2811
  274TMC3    H2 4199   4.168   0.499  10.717  1.1360 -1.3540 -1.5330
  274TMC3    C7 4200   4.295   0.544  10.925  0.0637  0.0013 -0.2573
  274TMC3    C8 4201   3.977   0.296  10.647 -0.3987  0.7931 -0.0941
  274TMC3    O1 4202   4.334   0.617  10.834 -0.2313  0.2725  0.0731
  274TMC3    O2 4203   3.890   0.211  10.657 -0.2000  0.3301  0.1720
  275MPD2     C 4204   3.363   2.577  14.553  0.0963 -0.0227 -0.0028
  275MPD2    C1 4205   3.427   2.456  14.576 -0.4076 -0.1172  0.2698
  275MPD2    C2 4206   3.354   2.350  14.620  0.8434  0.0704  0.0438
  275MPD2    C3 4207   3.215   2.371  14.620 -0.3641  0.1234  0.2838
  275MPD2    C4 4208   3.153   2.489  14.586 -0.8816  0.0631 -0.0943
  275MPD2    C5 4209   3.237   2.590  14.552 -0.0258 -0.0904  0.0123
  275MPD2     H 4210   3.403   2.256  14.647 -0.1207  0.2110  2.2726
  275MPD2    H1 4211   3.045   2.503  14.577 -0.8736 -0.6716 -1.3509
  275MPD2    H2 4212   3.419   2.669  14.541 -1.0558  0.3877 -2.2498
  275MPD2    H3 4213   3.185   2.684  14.532 -0.7427 -0.9459 -2.1398
  275MPD2     N 4214   3.125   2.266  14.642  0.0417  0.1001  0.3886
  275MPD2    H5 4215   3.028   2.287  14.661  0.6164  2.1574  1.1643
  275MPD2    N1 4216   3.565   2.439  14.553 -0.3929 -0.1594 -0.3256
  275MPD2    H7 4217   3.603   2.352  14.588  0.9507  0.7535  0.4655
  276TMC3    C1 4218   3.787   2.518  14.547  0.2629 -0.8541 -0.5647
  276TMC3    C2 4219   3.835   2.401  14.589  0.4722  0.0244 -0.2731
  276TMC3    C3 4220   3.948   2.399  14.664 -0.1989  0.1907  0.5118
  276TMC3    C4 4221   3.860   2.634  14.561  0.4914  0.5387  0.0396
  276TMC3    C5 4222   3.979   2.624  14.618 -0.0077  0.2972  0.6717
  276TMC3    C6 4223   4.017   2.515  14.684 -0.3422 -0.4477  0.3153
  276TMC3     C 4224   3.648   2.544  14.510  0.0813  0.0076  0.5822
  276TMC3     O 4225   3.623   2.649  14.454  0.1727 -0.1770  0.3227
  276TMC3     H 4226   3.796   2.311  14.543  0.1587 -0.0340  0.1060
  276TMC3    H1 4227   3.815   2.724  14.521  0.0898  0.3552  0.0683
  276TMC3    H2 4228   4.112   2.515  14.735  0.0984 -0.6351 -0.5075
  276TMC3    C7 4229   4.049   2.746  14.647  0.0409 -0.7507  0.6143
  276TMC3    C8 4230   4.015   2.276  14.698 -0.1795 -0.0672 -0.0782
  276TMC3    O1 4231   4.098   2.770  14.760  0.2171 -0.7910 -0.2112
  276TMC3    O2 4232   4.136   2.278  14.722  0.3173  0.4188 -0.0914
  277MPD2     C 4233   1.043   1.675  13.227 -1.2060  0.1085 -0.4018
  277MPD2    C1 4234   0.916   1.700  13.178 -0.1430 -0.2628 -0.2035
  277MPD2    C2 4235   0.807   1.636  13.236  0.4139 -0.7931 -0.0445
  277MPD2    C3 4236   0.818   1.567  13.358 -0.6226  0.6473 -0.1941
  277MPD2    C4 4237   0.942   1.563  13.414  0.2514 -0.3642  0.1186
  277MPD2    C5 4238   1.048   1.613  13.346 -0.1547  0.5059 -0.7266
  277MPD2     H 4239   0.706   1.650  13.200  0.0960 -2.6141  0.1310
  277MPD2    H1 4240   0.949   1.523  13.514  1.1034  1.3538  0.7425
  277MPD2    H2 4241   1.133   1.709  13.176  0.3812 -0.2801  2.1588
  277MPD2    H3 4242   1.141   1.613  13.401 -0.5272 -2.5771 -0.0931
  277MPD2     N 4243   0.700   1.508  13.414 -0.3379  0.5956 -0.3094
  277MPD2    H5 4244   0.613   1.533  13.370 -0.0862 -0.0636 -1.1782
  277MPD2    N1 4245   0.901   1.788  13.069 -0.0355  0.5533 -0.1189
  277MPD2    H7 4246   0.983   1.846  13.057 -0.6751  1.0457 -2.0460
  278TMC3    C1 4247   0.561   1.399  13.580  0.9295  0.1661  0.3738
  278TMC3    C2 4248   0.546   1.292  13.663 -0.0386 -0.3365  0.1053
  278TMC3    C3 4249   0.425   1.233  13.680  0.5982 -0.1941 -0.2123
  278TMC3    C4 4250   0.448   1.456  13.533  0.0377 -0.3435  0.4791
  278TMC3    C5 4251   0.325   1.408  13.562  0.4641  0.1717 -0.3999
  278TMC3    C6 4252   0.313   1.298  13.641  0.1650 -0.2035  0.4159
  278TMC3     C 4253   0.693   1.427  13.525  0.6625  0.3994 -0.3604
  278TMC3     O 4254   0.784   1.358  13.573 -0.3489 -0.1341  0.3865
  278TMC3     H 4255   0.636   1.235  13.685 -0.2834 -0.9819 -0.5557
  278TMC3    H1 4256   0.454   1.540  13.465 -0.3767  0.0407  0.9217
  278TMC3    H2 4257   0.214   1.257  13.660 -0.0636  0.2504  0.2123
  278TMC3    C7 4258   0.211   1.470  13.493  0.5660  0.4272 -0.2363
  278TMC3    C8 4259   0.424   1.109  13.765 -0.4021  0.1968 -0.3991
  278TMC3    O1 4260   0.236   1.536  13.393  0.7637  0.1365  0.2263
  278TMC3    O2 4261   0.533   1.069  13.800  0.2966 -0.2041  0.2419
  279MPD2     C 4262   4.513   1.348  17.730 -0.1351 -0.1704  0.6975
  279MPD2    C1 4263   4.496   1.476   0.034  0.8476  0.6759 -0.1857
  279MPD2    C2 4264   4.481   1.583  17.697  0.1552 -0.1044 -0.0226
  279MPD2    C3 4265   4.482   1.567  17.555  0.0848 -0.3129  0.3211
  279MPD2    C4 4266   4.501   1.439  17.501 -0.1558  0.4785  0.0769
  279MPD2    C5 4267   4.519   1.330  17.589 -0.3574  0.0474 -0.2281
  279MPD2     H 4268   4.482   1.685  17.733  1.2375 -1.2069  3.0627
  279MPD2    H1 4269   4.500   1.428  17.393  0.0328  1.3746 -0.0141
  279MPD2    H2 4270   4.497   1.262   0.045  2.0702 -0.4172  0.9392
  279MPD2    H3 4271   4.548   1.234  17.547 -1.5789  0.4127 -1.9364
  279MPD2     N 4272   4.472   1.667  17.454  0.3301 -0.1522  0.1500
  279MPD2    H5 4273   4.479   1.641  17.356 -0.3637 -4.0766  1.1536
  279MPD2    N1 4274   4.490   1.475   0.177 -0.1566  0.0542 -0.1254
  279MPD2    H7 4275   4.548   1.414   0.235 -0.3965 -0.6195 -0.5912
  280TMC3    C1 4276   4.296   1.595   0.199 -0.0527  0.5069 -0.0410
  280TMC3    C2 4277   4.222   1.495   0.140  0.1215 -0.0093 -0.5562
  280TMC3    C3 4278   4.092   1.530   0.102 -0.4269 -0.4763 -0.6273
  280TMC3    C4 4279   4.240   1.712   0.238  0.4625 -0.3304 -0.0496
  280TMC3    C5 4280   4.111   1.741   0.201 -0.6631  0.7680 -0.1818
  280TMC3    C6 4281   4.033   1.651   0.131  0.3839  0.1485  0.3013
  280TMC3     C 4282   4.423   1.571   0.249 -0.0079  0.1322  0.4664
  280TMC3     O 4283   4.444   1.610   0.362  0.1211 -0.0066 -0.3477
  280TMC3     H 4284   4.266   1.396   0.131 -2.2975 -0.8336 -3.3752
  280TMC3    H1 4285   4.298   1.795   0.276 -3.0565  2.1546 -0.0726
  280TMC3    H2 4286   3.932   1.672   0.100 -0.1565 -1.8970  0.6763
  280TMC3    C7 4287   4.065   1.877   0.218 -0.5642 -0.5301 -0.0680
  280TMC3    C8 4288   4.041   1.461  17.738  0.0874 -0.1574  0.2711
  280TMC3    O1 4289   4.131   1.944   0.299 -0.2068  0.2994  0.5544
  280TMC3    O2 4290   3.955   1.516  17.666 -0.0073 -0.6398  0.0632
  281TMC3    C1 4291   3.693   1.577  13.560  0.8108  0.3050  0.5038
  281TMC3    C2 4292   3.784   1.614  13.464  0.3424  0.2288  0.2817
  281TMC3    C3 4293   3.770   1.552  13.344  0.1402  0.7828 -1.2330
  281TMC3    C4 4294   3.603   1.474  13.547  0.9734  0.2572 -0.4011
  281TMC3    C5 4295   3.604   1.413  13.426  0.0105  0.1889  0.2482
  281TMC3    C6 4296   3.685   1.445  13.322  0.0066 -0.7272  0.0835
  281TMC3     C 4297   3.682   1.665  13.675 -0.4287  0.3167  0.2171
  281TMC3     O 4298   3.665   1.619  13.785  0.3926 -0.3061  0.5949
  281TMC3     H 4299   3.853   1.695  13.483 -1.9990  2.6688 -1.6576
  281TMC3    H1 4300   3.542   1.446  13.632  1.1030 -1.8251 -0.9979
  281TMC3    H2 4301   3.678   1.396  13.225 -0.1512 -0.3141 -0.1117
  281TMC3    C7 4302   3.498   1.324  13.389  0.2522  0.9554  0.2669
  281TMC3    C8 4303   3.867   1.585  13.244  0.0083  0.5986 -0.3134
  281TMC3    O1 4304   3.527   1.246  13.299  0.6141  0.4874 -0.0943
  281TMC3    O2 4305   3.923   1.482  13.205  0.4371  0.2158 -0.5397
  282MPD2     C 4306   0.817   3.202  15.092 -0.8410  0.2492  0.0320
  282MPD2    C1 4307   0.684   3.197  15.064 -0.0619 -0.4947 -0.3923
  282MPD2    C2 4308   0.639   3.185  14.933 -0.6958 -0.2815  0.0281
  282MPD2    C3 4309   0.729   3.168  14.827 -0.0148 -0.1269  0.6644
  282MPD2    C4 4310   0.865   3.172  14.856  0.1156  0.1079 -0.4154
  282MPD2    C5 4311   0.908   3.187  14.981 -0.2496 -0.4529 -0.7009
  282MPD2     H 4312   0.531   3.185  14.920 -0.5162 -2.1873 -1.5066
  282MPD2    H1 4313   0.946   3.159  14.786 -1.2307  0.4482 -2.0423
  282MPD2    H2 4314   0.866   3.214  15.188  0.2893 -2.5826 -0.1857
  282MPD2    H3 4315   1.014   3.179  15.001 -0.7247 -0.0959  1.9422
  282MPD2     N 4316   0.674   3.159  14.695 -0.2897 -0.1793 -0.3154
  282MPD2    H5 4317   0.574   3.176  14.684 -0.7328 -0.3339  3.2759
  282MPD2    N1 4318   0.585   3.219  15.163  0.6969 -0.3714  0.4890
  282MPD2    H7 4319   0.489   3.219  15.131  1.1735  0.5041 -0.9662
  283TMC3    C1 4320   0.513   3.292  15.371  0.2262  0.1860 -0.0430
  283TMC3    C2 4321   0.541   3.389  15.466 -0.3383 -0.3190 -0.3458
  283TMC3    C3 4322   0.439   3.421  15.549  0.1072  0.5020  0.1277
  283TMC3    C4 4323   0.385   3.231  15.366  0.1876 -0.1327 -0.1020
  283TMC3    C5 4324   0.286   3.277  15.440 -0.3733  0.4514  0.3343
  283TMC3    C6 4325   0.314   3.368  15.540  0.1716 -0.3175  0.3737
  283TMC3     C 4326   0.620   3.249  15.291 -0.0189 -0.7789 -0.1132
  283TMC3     O 4327   0.728   3.259  15.344 -0.5673 -0.2088 -0.2904
  283TMC3     H 4328   0.640   3.429  15.483 -0.3963 -0.0615 -0.6282
  283TMC3    H1 4329   0.367   3.146  15.302 -1.4568 -1.0933  1.6520
  283TMC3    H2 4330   0.231   3.411  15.596  2.3524  0.8813  2.6918
  283TMC3    C7 4331   0.159   3.206  15.449  0.2508 -0.5411  0.1410
  283TMC3    C8 4332   0.429   3.556  15.586  0.5378  0.9628  1.0590
  283TMC3    O1 4333   0.103   3.193  15.557  0.0099 -0.0595 -0.2157
  283TMC3    O2 4334   0.401   3.579  15.704 -0.8871  0.3551  0.0651
  284MPD2     C 4335   3.458   2.415  12.511 -0.8224  0.0565 -0.5593
  284MPD2    C1 4336   3.584   2.454  12.471 -0.2810  0.1886 -0.3217
  284MPD2    C2 4337   3.696   2.383  12.511 -0.2505  0.1174  0.3866
  284MPD2    C3 4338   3.686   2.266  12.580  0.0252  0.4081  0.0744
  284MPD2    C4 4339   3.563   2.216  12.608 -0.3914 -0.0571  0.8708
  284MPD2    C5 4340   3.454   2.289  12.576 -0.4524 -0.2628  0.2896
  284MPD2     H 4341   3.794   2.420  12.481 -0.2699 -0.6749 -0.6836
  284MPD2    H1 4342   3.547   2.117  12.651  1.9600 -0.0907  1.6662
  284MPD2    H2 4343   3.360   2.457  12.489  0.1355  2.2985 -0.5244
  284MPD2    H3 4344   3.357   2.241  12.582 -0.6893  0.2549  0.6232
  284MPD2     N 4345   3.800   2.189  12.619 -0.1940 -0.8263  0.5545
  284MPD2    H5 4346   3.781   2.095  12.652  1.5723 -0.8576  1.4797
  284MPD2    N1 4347   3.606   2.565  12.384  0.4662 -0.7208  0.6198
  284MPD2    H7 4348   3.701   2.584  12.353  1.1220 -3.0755  1.1392
  285TMC3    C1 4349   3.538   2.718  12.205  0.2102 -0.0057  0.6534
  285TMC3    C2 4350   3.665   2.711  12.153  0.3097 -0.6708  0.2102
  285TMC3    C3 4351   3.692   2.788  12.044  0.7461  0.4845  0.3392
  285TMC3    C4 4352   3.439   2.789  12.141 -0.4307  0.1981 -0.6108
  285TMC3    C5 4353   3.473   2.868  12.024  0.1718  0.6701  0.1868
  285TMC3    C6 4354   3.601   2.874  11.990 -0.1665 -0.1457 -1.3686
  285TMC3     C 4355   3.501   2.643  12.326  0.0314  0.8224 -0.0096
  285TMC3     O 4356   3.378   2.647  12.345  0.3574 -0.1659  0.1541
  285TMC3     H 4357   3.754   2.667  12.197 -0.0433  0.3850  1.9601
  285TMC3    H1 4358   3.335   2.782  12.171  0.4443  1.3473  2.6337
  285TMC3    H2 4359   3.620   2.943  11.908  1.9351  1.0090  0.0721
  285TMC3    C7 4360   3.372   2.937  11.948  0.3650  0.7477  0.0285
  285TMC3    C8 4361   3.820   2.783  11.986  0.4907  0.2395  0.4095
  285TMC3    O1 4362   3.416   3.017  11.866  0.2912 -0.3419 -0.3518
  285TMC3    O2 4363   3.890   2.690  12.020 -0.5047 -0.2827 -0.1542
  286MPD2     C 4364   3.358   1.342   1.103  0.1459  0.2046  0.1944
  286MPD2    C1 4365   3.447   1.328   0.999 -0.3880 -0.5492 -0.8531
  286MPD2    C2 4366   3.580   1.282   1.010 -0.2030  0.2457  0.5766
  286MPD2    C3 4367   3.628   1.256   1.135  0.6829 -0.3002 -0.3781
  286MPD2    C4 4368   3.538   1.271   1.234 -0.0592 -0.0703 -0.7033
  286MPD2    C5 4369   3.402   1.297   1.224 -0.4510  0.0703 -0.2613
  286MPD2     H 4370   3.650   1.271   0.928  0.7791 -3.4332  1.9204
  286MPD2    H1 4371   3.565   1.241   1.335 -1.8469 -0.4498 -0.3496
  286MPD2    H2 4372   3.250   1.357   1.098  0.2001  0.3781 -0.4693
  286MPD2    H3 4373   3.337   1.307   1.310  0.3719  0.6884  0.2819
  286MPD2     N 4374   3.759   1.215   1.170  0.0045 -0.0791  0.0809
  286MPD2    H5 4375   3.776   1.204   1.269 -0.5353  0.1953  0.2079
  286MPD2    N1 4376   3.392   1.351   0.873 -0.2231 -0.1267 -0.5360
  286MPD2    H7 4377   3.293   1.373   0.864 -0.2472  0.7705  2.1433
  287TMC3    C1 4378   3.959   1.094   1.136  0.4164  0.1195 -0.0623
  287TMC3    C2 4379   4.036   1.019   1.056  0.0224  0.3575  0.1329
  287TMC3    C3 4380   4.124   0.928   1.106  0.0916 -0.1612 -0.3040
  287TMC3    C4 4381   3.977   1.087   1.274  0.5218  0.6553  0.0602
  287TMC3    C5 4382   4.051   0.987   1.320  0.3294 -0.3399  0.0009
  287TMC3    C6 4383   4.126   0.902   1.245  0.1451  0.3434  0.4092
  287TMC3     C 4384   3.845   1.162   1.078  0.8977  0.8213 -0.0246
  287TMC3     O 4385   3.853   1.171   0.956 -0.2583  0.6060 -0.6870
  287TMC3     H 4386   4.024   1.014   0.948 -1.3531  1.5117  0.2406
  287TMC3    H1 4387   3.913   1.135   1.348  1.4577  0.2650  1.1198
  287TMC3    H2 4388   4.190   0.827   1.289 -0.5623  0.1218  1.0602
  287TMC3    C7 4389   4.097   0.999   1.460 -0.2532  0.6496  0.4098
  287TMC3    C8 4390   4.143   0.813   1.022  0.3343 -0.1491 -0.1398
  287TMC3    O1 4391   4.102   1.115   1.499 -0.1162  0.2126 -0.3533
  287TMC3    O2 4392   4.058   0.728   1.034  0.1849 -0.1605 -0.3790
  288TMC3    C1 4393   0.724   1.080  14.147 -0.7291 -0.1967  0.3916
  288TMC3    C2 4394   0.668   1.080  14.270  0.4046  1.0257 -0.7098
  288TMC3    C3 4395   0.594   1.192  14.303 -0.2624  0.0596  0.2215
  288TMC3    C4 4396   0.714   1.181  14.057  0.5748 -0.2885  0.2936
  288TMC3    C5 4397   0.644   1.296  14.093  0.6267 -0.1944  0.8834
  288TMC3    C6 4398   0.584   1.304  14.217  0.6407 -0.3428  0.8896
  288TMC3     C 4399   0.793   0.955  14.109  0.6101 -0.5514  0.0079
  288TMC3     O 4400   0.788   0.862  14.191 -0.3664  1.0561  0.3955
  288TMC3     H 4401   0.687   0.997  14.337  1.7822 -0.6245 -3.1919
  288TMC3    H1 4402   0.764   1.172  13.961 -0.5806 -1.1987 -0.2164
  288TMC3    H2 4403   0.552   1.401  14.255 -3.0855 -2.4967  3.1694
  288TMC3    C7 4404   0.650   1.400  13.997  0.3487  0.2372 -0.5842
  288TMC3    C8 4405   0.533   1.210  14.440  0.3073 -0.0855 -0.3606
  288TMC3    O1 4406   0.750   1.408  13.929 -0.1103 -0.0897 -0.0140
  288TMC3    O2 4407   0.501   1.319  14.484 -0.1769 -0.0095 -0.4366
  289MPD2     C 4408   0.870   4.661  14.594 -0.0801 -0.1514 -0.7751
  289MPD2    C1 4409   0.856   0.005  14.484 -0.2425  0.6355 -0.2087
  289MPD2    C2 4410   0.730   0.044  14.441 -0.0941 -0.2684  0.1865
  289MPD2    C3 4411   0.621   4.715  14.487 -0.4883 -0.7221  0.4087
  289MPD2    C4 4412   0.636   4.624  14.585 -0.2942 -0.2807 -0.1743
  289MPD2    C5 4413   0.757   4.603  14.644 -0.8695 -0.1252 -0.0989
  289MPD2     H 4414   0.728   0.116  14.360  0.5693  0.0492  0.4464
  289MPD2    H1 4415   0.544   4.596  14.634 -2.1110 -0.3053 -3.6135
  289MPD2    H2 4416   0.963   4.653  14.648  0.4063  1.3411 -1.3731
  289MPD2    H3 4417   0.762   4.546  14.736  2.5466  1.1306  0.5023
  289MPD2     N 4418   0.485   4.726  14.431 -0.9528  0.1692  0.2204
  289MPD2    H5 4419   0.418   4.686  14.495 -1.5416  0.3347 -0.2889
  289MPD2    N1 4420   0.982   0.065  14.446 -0.0187  0.1062 -0.1262
  289MPD2    H7 4421   1.066   0.048  14.501 -0.5709  1.5674  1.1504
  290TMC3    C1 4422   0.305   0.059  14.313  0.3469  0.3410  0.3296
  290TMC3    C2 4423   0.239   0.174  14.282  0.4469 -0.7125 -0.1978
  290TMC3    C3 4424   0.112   0.167  14.233 -0.7911 -0.5951 -0.5798
  290TMC3    C4 4425   0.239   4.674  14.298 -0.1819  0.0152  0.2999
  290TMC3    C5 4426   0.118   4.672  14.228 -0.4433 -0.2278  0.4590
  290TMC3    C6 4427   0.045   0.049  14.213  0.0654  0.1495  0.0002
  290TMC3     C 4428   0.446   0.067  14.330  0.4052  0.0477  0.5065
  290TMC3     O 4429   0.519   0.128  14.251 -0.5390 -0.2139  0.4431
  290TMC3     H 4430   0.299   0.264  14.286  1.2403 -1.2535  0.1603
  290TMC3    H1 4431   0.288   4.584  14.335  2.3857  0.7977 -1.1470
  290TMC3    H2 4432   4.679   0.058  14.182 -0.2419  0.7748  1.1977
  290TMC3    C7 4433   0.041   4.550  14.229 -0.2481  0.1056 -0.0151
  290TMC3    C8 4434   0.043   0.288  14.188 -0.3205  0.7176  0.8356
  290TMC3    O1 4435   4.657   4.551  14.220  0.4068  0.3238 -0.0389
  290TMC3    O2 4436   4.704   0.260  14.099  0.1311  0.1175  0.0071
  291MPD2     C 4437   0.392   0.260   0.325 -0.5217 -0.0771 -0.3427
  291MPD2    C1 4438   0.353   0.149   0.254  0.0585  0.6893 -0.2033
  291MPD2    C2 4439   0.359   0.160   0.118 -0.1457 -0.6765 -0.1870
  291MPD2    C3 4440   0.382   0.285   0.059 -0.1965 -0.3982  0.1752
  291MPD2    C4 4441   0.416   0.393   0.141 -0.0040  0.8257  0.5244
  291MPD2    C5 4442   0.432   0.380   0.272 -0.3106 -0.1057  0.1840
  291MPD2     H 4443   0.329   0.071   0.064 -2.3783 -0.2897  0.4030
  291MPD2    H1 4444   0.439   0.492   0.103 -1.0480  1.2495  1.0078
  291MPD2    H2 4445   0.389   0.260   0.434  2.6589 -1.6269 -0.2508
  291MPD2    H3 4446   0.465   0.461   0.336 -0.3080 -1.1190  1.4544
  291MPD2     N 4447   0.350   0.305  17.670 -0.1577  0.0668 -0.9420
  291MPD2    H5 4448   0.379   0.393  17.629 -2.8659  1.8185  0.8920
  291MPD2    N1 4449   0.315   0.026   0.309 -0.3740  0.5809  0.0885
  291MPD2    H7 4450   0.301   4.687   0.245  0.8182 -1.3777  2.1827
  292TMC3    C1 4451   0.195   4.628   0.451  0.1056  0.0934  0.4193
  292TMC3    C2 4452   0.153   4.617   0.583 -0.1435  0.2824  0.4232
  292TMC3    C3 4453   0.098   4.497   0.615  0.4490  0.7845 -0.3649
  292TMC3    C4 4454   0.197   4.521   0.361  0.4069 -0.1321 -0.4559
  292TMC3    C5 4455   0.175   4.397   0.418  0.9669  0.3781 -0.0950
  292TMC3    C6 4456   0.105   4.385   0.536 -0.2021  0.2741  1.0481
  292TMC3     C 4457   0.245   0.021   0.425 -0.3297  0.3109 -0.1367
  292TMC3     O 4458   0.226   0.112   0.503  0.4711  0.4652  0.5034
  292TMC3     H 4459   0.139   4.709   0.638  1.5946 -0.0189  1.3534
  292TMC3    H1 4460   0.230   4.529   0.258  0.7678  1.0454 -0.2552
  292TMC3    H2 4461   0.067   4.289   0.566  0.6813 -0.6589 -0.7925
  292TMC3    C7 4462   0.191   4.280   0.339 -0.3146 -0.1818 -0.1820
  292TMC3    C8 4463   0.046   4.476   0.744  0.3803  0.2060 -0.0972
  292TMC3    O1 4464   0.192   4.289   0.218  0.0942  0.1182  0.1824
  292TMC3    O2 4465   0.110   4.523   0.835  0.4268  0.1554 -0.0230
  293MPD2     C 4466   2.085   1.609  12.329  0.7138 -0.3967 -0.2572
  293MPD2    C1 4467   1.957   1.596  12.384  0.0547 -0.4289 -0.1753
  293MPD2    C2 4468   1.935   1.624  12.519 -0.4203  0.4786  0.0859
  293MPD2    C3 4469   2.036   1.662  12.606  0.3794  0.0310  0.1346
  293MPD2    C4 4470   2.162   1.673  12.554 -0.5895  0.2631 -0.0722
  293MPD2    C5 4471   2.183   1.648  12.423  1.0071 -0.0257  0.0135
  293MPD2     H 4472   1.840   1.595  12.562 -0.2487  1.4432  1.1071
  293MPD2    H1 4473   2.248   1.699  12.615  0.2911 -2.8228  0.0319
  293MPD2    H2 4474   2.113   1.582  12.228 -0.0626 -0.4065 -0.4689
  293MPD2    H3 4475   2.285   1.646  12.388  1.1991  0.7894  0.5161
  293MPD2     N 4476   1.992   1.699  12.734  0.0285  0.1957 -0.0719
  293MPD2    H5 4477   1.895   1.681  12.759 -0.3325  0.8661 -0.9610
  293MPD2    N1 4478   1.857   1.547  12.291  0.5792 -0.9536 -0.6792
  293MPD2    H7 4479   1.877   1.530  12.193 -1.6924 -0.1610 -1.2688
  294TMC3    C1 4480   1.631   1.501  12.218 -0.1068 -0.7877 -0.2787
  294TMC3    C2 4481   1.520   1.434  12.259 -0.1658  1.0461  0.0714
  294TMC3    C3 4482   1.461   1.352  12.165  1.2446 -0.8102  0.0403
  294TMC3    C4 4483   1.693   1.479  12.094 -0.5004  0.1807 -0.2802
  294TMC3    C5 4484   1.624   1.403  12.010  0.0403 -0.2131  0.0091
  294TMC3    C6 4485   1.509   1.335  12.043  0.1508  0.6484  0.7774
  294TMC3     C 4486   1.721   1.558  12.318  0.4455  0.0122  0.4765
  294TMC3     O 4487   1.662   1.588  12.418 -0.1855 -0.3685  0.6264
  294TMC3     H 4488   1.482   1.446  12.360  0.9188 -1.8116  0.8314
  294TMC3    H1 4489   1.764   1.556  12.065 -2.0389  2.0695  1.0102
  294TMC3    H2 4490   1.457   1.289  11.960  1.7700 -2.2440  1.3753
  294TMC3    C7 4491   1.644   1.413  11.862  0.3870  0.0240  0.0157
  294TMC3    C8 4492   1.352   1.260  12.203 -0.0510  0.3303 -0.0751
  294TMC3    O1 4493   1.557   1.395  11.782  0.0761 -0.2948 -0.0381
  294TMC3    O2 4494   1.295   1.290  12.305  0.3361  0.1809  0.1773
  295MPD2     C 4495   1.864   1.002   0.536 -0.1395  0.1834  0.0334
  295MPD2    C1 4496   1.799   0.955   0.426  0.2242  0.6030  0.1469
  295MPD2    C2 4497   1.678   0.887   0.438  0.0067 -0.0466  0.3392
  295MPD2    C3 4498   1.623   0.865   0.560  0.3922 -0.1184 -0.3645
  295MPD2    C4 4499   1.685   0.915   0.673 -0.0785 -0.4512 -0.4112
  295MPD2    C5 4500   1.795   0.997   0.656 -0.2225 -0.3108 -0.4133
  295MPD2     H 4501   1.626   0.828   0.364  0.2221  0.9516 -0.5906
  295MPD2    H1 4502   1.652   0.900   0.775 -0.2526 -1.3195 -0.5974
  295MPD2    H2 4503   1.962   1.048   0.538 -0.5939  1.1524  0.0379
  295MPD2    H3 4504   1.841   1.038   0.745 -1.9598  0.0124  0.3324
  295MPD2     N 4505   1.514   0.782   0.582  0.8795 -0.1937 -0.1777
  295MPD2    H5 4506   1.491   0.769   0.680  1.6803 -1.9576 -0.2209
  295MPD2    N1 4507   1.849   0.958   0.300  0.1000 -0.6473 -0.2929
  295MPD2    H7 4508   1.795   0.912   0.227 -2.5027  0.4236  0.9311
  296TMC3    C1 4509   1.342   0.634   0.557 -0.3163 -0.4204 -0.2788
  296TMC3    C2 4510   1.273   0.682   0.664 -0.0236 -0.2813 -0.2321
  296TMC3    C3 4511   1.170   0.610   0.717 -0.2613  0.2206  0.0843
  296TMC3    C4 4512   1.289   0.532   0.486  0.2993  0.0750  0.8613
  296TMC3    C5 4513   1.184   0.463   0.538  0.1981 -0.6225  0.2464
  296TMC3    C6 4514   1.116   0.507   0.646 -0.9663 -0.0117 -0.0382
  296TMC3     C 4515   1.441   0.711   0.487 -1.1522  0.2385 -0.4544
  296TMC3     O 4516   1.450   0.696   0.367  0.2453  0.6718  0.4353
  296TMC3     H 4517   1.294   0.782   0.700 -0.0464 -1.6107  3.4625
  296TMC3    H1 4518   1.335   0.499   0.394  1.1055 -0.8716  1.6053
  296TMC3    H2 4519   1.033   0.445   0.679  0.1466 -0.4154  2.0235
  296TMC3    C7 4520   1.200   0.325   0.531  0.4294  0.3437 -0.0655
  296TMC3    C8 4521   1.083   0.657   0.832 -0.5695  0.7956  0.0258
  296TMC3    O1 4522   1.256   0.276   0.434 -0.5109  0.0757  0.0127
  296TMC3    O2 4523   0.978   0.599   0.843  0.7746 -0.0710 -0.4968
  297MPD2     C 4524   4.274   2.225  16.076  0.9316  1.4531 -0.3812
  297MPD2    C1 4525   4.205   2.249  15.958  0.1166 -0.8782  0.1426
  297MPD2    C2 4526   4.245   2.353  15.876  0.2177 -1.3967 -0.1605
  297MPD2    C3 4527   4.345   2.434  15.924  0.5094  0.1430 -0.3657
  297MPD2    C4 4528   4.398   2.418  16.050 -0.1433  0.0677  0.1760
  297MPD2    C5 4529   4.364   2.313  16.132 -0.4159 -0.0602  0.4608
  297MPD2     H 4530   4.206   2.361  15.776  1.1185  0.9991 -0.3030
  297MPD2    H1 4531   4.479   2.481  16.082 -1.0295  1.8161 -1.0274
  297MPD2    H2 4532   4.264   2.132  16.132 -0.8639  1.5125 -0.5938
  297MPD2    H3 4533   4.416   2.296  16.226  0.3006 -0.7235 -0.0437
  297MPD2     N 4534   4.377   2.544  15.842  0.1478  0.1330 -0.3082
  297MPD2    H5 4535   4.334   2.547  15.750  2.4797  0.8104 -1.3983
  297MPD2    N1 4536   4.102   2.166  15.909 -0.5239 -0.0608  0.7666
  297MPD2    H7 4537   4.073   2.174  15.812  1.5821  0.3355  0.1709
  298TMC3    C1 4538   3.918   2.038  15.902  0.3159 -1.0055 -0.9344
  298TMC3    C2 4539   3.943   2.027  15.768 -0.3947  0.8418  0.1003
  298TMC3    C3 4540   3.851   2.075  15.679 -0.6197  0.5949  0.1401
  298TMC3    C4 4541   3.796   2.095  15.949 -0.6064  0.2904  0.0399
  298TMC3    C5 4542   3.702   2.126  15.860  0.2686 -0.5239 -0.3444
  298TMC3    C6 4543   3.727   2.117  15.724  0.2134  0.9819  0.7082
  298TMC3     C 4544   4.029   2.074  15.983  0.8065 -0.0041  0.6792
  298TMC3     O 4545   4.023   2.053  16.105 -0.3105  0.5532 -0.3123
  298TMC3     H 4546   4.039   1.987  15.735 -0.2114  2.6482 -1.5441
  298TMC3    H1 4547   3.782   2.108  16.056 -0.0756  2.2916 -0.1423
  298TMC3    H2 4548   3.648   2.140  15.654  0.5616  0.4415  0.1458
  298TMC3    C7 4549   3.591   2.208  15.905 -0.7987 -0.0503  0.4358
  298TMC3    C8 4550   3.876   2.038  15.542 -0.1385 -0.1281  0.0817
  298TMC3    O1 4551   3.571   2.210  16.026 -0.4410  0.3849 -0.3150
  298TMC3    O2 4552   3.961   1.957  15.509  0.4923  0.5122  0.1155
  299MPD2     C 4553   0.220   1.893  11.130  0.3026  0.6676  0.1723
  299MPD2    C1 4554   0.289   2.008  11.103 -0.2805  0.4974  0.3180
  299MPD2    C2 4555   0.268   2.083  10.986  0.5977 -0.6806  0.0570
  299MPD2    C3 4556   0.160   2.052  10.905  0.2963  0.6220 -0.9961
  299MPD2    C4 4557   0.080   1.945  10.945 -0.0197  1.0417  0.8723
  299MPD2    C5 4558   0.107   1.865  11.059 -0.3841 -0.3186 -0.0479
  299MPD2     H 4559   0.314   2.179  10.966  0.9079 -1.2891 -2.0907
  299MPD2    H1 4560   4.727   1.920  10.891  0.3833  0.0463  0.6553
  299MPD2    H2 4561   0.233   1.838  11.222  1.1291  0.1524 -0.2538
  299MPD2    H3 4562   0.054   1.776  11.088 -1.5473 -0.0278 -1.2937
  299MPD2     N 4563   0.113   2.121  10.793  0.2955 -0.4994 -0.0375
  299MPD2    H5 4564   0.023   2.091  10.758  0.4748 -1.4751  0.3326
  299MPD2    N1 4565   0.376   2.047  11.206  0.4488  0.1933  0.1598
  299MPD2    H7 4566   0.383   1.983  11.285 -0.6242 -1.8365 -1.3741
  300TMC3    C1 4567   0.089   2.278  10.616 -0.3811  0.1266 -1.0848
  300TMC3    C2 4568   0.128   2.393  10.559 -0.1574  0.5851 -0.1632
  300TMC3    C3 4569   0.037   2.444  10.463 -0.3551  0.3511  0.1197
  300TMC3    C4 4570   4.697   2.238  10.610  0.1986  0.2189 -0.2354
  300TMC3    C5 4571   4.617   2.287  10.516  0.1360 -0.3552 -0.1724
  300TMC3    C6 4572   4.658   2.390  10.435  0.3064 -0.2435 -0.1377
  300TMC3     C 4573   0.176   2.224  10.723 -0.0654  0.5097  0.2953
  300TMC3     O 4574   0.282   2.279  10.748  0.3939 -0.1943  0.2282
  300TMC3     H 4575   0.223   2.440  10.579 -1.3390  2.9543 -0.1338
  300TMC3    H1 4576   4.654   2.161  10.673  1.6983 -0.1515  0.3492
  300TMC3    H2 4577   4.579   2.432  10.375 -0.2018 -0.7483  0.1790
  300TMC3    C7 4578   4.471   2.287  10.534 -0.2118  0.1905 -0.2532
  300TMC3    C8 4579   0.050   2.586  10.451 -0.6278  0.2124  0.0633
  300TMC3    O1 4580   4.405   2.270  10.433 -0.3469 -0.6732  0.3883
  300TMC3    O2 4581   0.107   2.638  10.548 -0.4920 -0.0449 -0.1605
  301MPD2     C 4582   1.146   3.593   1.291 -0.0552 -0.6191  0.4557
  301MPD2    C1 4583   1.060   3.535   1.208 -0.6112  0.8524 -0.3843
  301MPD2    C2 4584   1.072   3.404   1.163  0.6441 -0.2974 -0.4790
  301MPD2    C3 4585   1.191   3.332   1.194 -0.8249 -0.0974  0.1263
  301MPD2    C4 4586   1.273   3.392   1.287  0.2374  0.2202 -0.4467
  301MPD2    C5 4587   1.247   3.519   1.333  0.6532 -0.2745 -0.9271
  301MPD2     H 4588   1.002   3.365   1.091  0.2433  0.1981 -0.3562
  301MPD2    H1 4589   1.357   3.340   1.332 -1.2134 -0.7231  1.1417
  301MPD2    H2 4590   1.132   3.694   1.328  0.4845  1.1985 -4.2892
  301MPD2    H3 4591   1.316   3.554   1.409 -0.0298  0.1975 -0.5186
  301MPD2     N 4592   1.209   3.196   1.157  0.0844  0.0265 -0.0242
  301MPD2    H5 4593   1.296   3.151   1.181 -2.3395 -4.3417  0.6180
  301MPD2    N1 4594   0.945   3.605   1.158 -0.4323  0.2282 -0.3481
  301MPD2    H7 4595   0.893   3.564   1.082 -0.3583 -1.6062  0.5993
  302TMC3    C1 4596   1.172   2.991   1.043  0.3629  0.5628  0.0889
  302TMC3    C2 4597   1.300   2.945   1.095 -0.6451  0.4093 -0.4875
  302TMC3    C3 4598   1.361   2.849   1.016  0.3945 -0.0329  0.1794
  302TMC3    C4 4599   1.130   2.965   0.910  0.1183 -0.0529 -0.1229
  302TMC3    C5 4600   1.202   2.872   0.844 -0.6073 -0.9216  1.1672
  302TMC3    C6 4601   1.311   2.809   0.893  0.2911  0.2369  0.2162
  302TMC3     C 4602   1.117   3.117   1.090 -0.1303  0.1339  0.5945
  302TMC3     O 4603   1.004   3.143   1.057  0.1687  0.3883  0.4012
  302TMC3     H 4604   1.339   2.984   1.188 -0.7601  0.6419 -0.5379
  302TMC3    H1 4605   1.056   3.029   0.864 -0.6818  1.1379  2.7858
  302TMC3    H2 4606   1.364   2.738   0.831 -1.5388 -1.8421  1.0524
  302TMC3    C7 4607   1.181   2.861   0.701  0.8072  0.2228 -0.0620
  302TMC3    C8 4608   1.500   2.812   1.045 -0.5055  0.5478  0.1761
  302TMC3    O1 4609   1.273   2.799   0.648  0.1001  0.8147  0.2081
  302TMC3    O2 4610   1.542   2.845   1.151 -0.4426 -0.3289  0.5169
  303MPD2     C 4611   1.930   1.155  10.807 -0.6379  0.1512 -0.1244
  303MPD2    C1 4612   1.830   1.073  10.757 -0.2216 -0.2989 -0.0611
  303MPD2    C2 4613   1.858   1.007  10.638 -0.1238  0.2290  0.0184
  303MPD2    C3 4614   1.966   1.042  10.555  0.0282  0.2913 -0.2827
  303MPD2    C4 4615   2.046   1.145  10.600  0.2939  0.2672 -0.6332
  303MPD2    C5 4616   2.036   1.199  10.730  0.5781 -0.1892  0.4711
  303MPD2     H 4617   1.782   0.944  10.594 -0.6589 -0.1212  1.4552
  303MPD2    H1 4618   2.131   1.173  10.538  2.6082 -0.7103  2.1251
  303MPD2    H2 4619   1.904   1.193  10.905  1.4613  0.1977  0.4203
  303MPD2    H3 4620   2.111   1.268  10.768  0.2429 -0.0961  0.9600
  303MPD2     N 4621   2.000   0.983  10.430 -0.0451  0.0208 -0.7593
  303MPD2    H5 4622   2.089   0.996  10.382 -0.0790 -2.1556 -1.4345
  303MPD2    N1 4623   1.702   1.064  10.818 -0.3230  0.2592 -0.4450
  303MPD2    H7 4624   1.683   1.145  10.876  2.7718  2.4689 -2.4775
  304TMC3    C1 4625   1.484   0.986  10.836 -0.0122 -0.7083  0.4787
  304TMC3    C2 4626   1.435   1.100  10.771 -0.5764 -0.6024 -0.5627
  304TMC3    C3 4627   1.300   1.112  10.750 -0.2494 -0.4083  0.4851
  304TMC3    C4 4628   1.410   0.880  10.875 -0.0539 -0.2526  0.2991
  304TMC3    C5 4629   1.272   0.898  10.858 -0.2721  0.2006  0.2866
  304TMC3    C6 4630   1.218   1.012  10.806  0.1144 -0.3915  0.2719
  304TMC3     C 4631   1.618   0.960  10.797  0.3789  0.1848 -1.2293
  304TMC3     O 4632   1.646   0.840  10.772 -0.5438  0.8018  0.1844
  304TMC3     H 4633   1.501   1.173  10.727 -0.4848  1.0449  2.3457
  304TMC3    H1 4634   1.443   0.779  10.895  0.1099 -0.5019 -1.2314
  304TMC3    H2 4635   1.113   1.026  10.783  1.4279  5.8370 -2.0071
  304TMC3    C7 4636   1.197   0.787  10.808  0.2721  0.6040  0.5741
  304TMC3    C8 4637   1.274   1.144  10.607  0.0881 -0.1342 -0.0886
  304TMC3    O1 4638   1.140   0.813  10.700  0.4536  0.2283 -0.4411
  304TMC3    O2 4639   1.331   1.239  10.558 -0.3038  0.3419 -0.9330
  305MPD2     C 4640   0.929   3.571  13.848  0.5240 -0.6451  0.2154
  305MPD2    C1 4641   0.944   3.439  13.873 -0.1298  0.0810  0.1244
  305MPD2    C2 4642   0.901   3.347  13.779  0.3980 -0.3034 -0.7680
  305MPD2    C3 4643   0.848   3.391  13.657 -0.2092 -0.3194  0.5298
  305MPD2    C4 4644   0.834   3.530  13.637  0.2026  0.0452  0.3405
  305MPD2    C5 4645   0.881   3.615  13.730 -0.4172 -0.1159  0.2231
  305MPD2     H 4646   0.902   3.240  13.792  2.0942  0.0337  1.8107
  305MPD2    H1 4647   0.773   3.561  13.553 -2.7525 -1.0310  2.0789
  305MPD2    H2 4648   0.969   3.640  13.922 -0.2878  0.9510 -0.8437
  305MPD2    H3 4649   0.871   3.722  13.721  0.2094 -0.0063  0.8176
  305MPD2     N 4650   0.802   3.302  13.555 -0.0573 -0.0117 -0.2175
  305MPD2    H5 4651   0.741   3.337  13.481  1.5081 -0.2992 -1.6415
  305MPD2    N1 4652   0.989   3.408  14.005 -0.1026 -0.0472  0.4514
  305MPD2    H7 4653   1.039   3.480  14.056 -0.7203  0.1140  0.8298
  306TMC3    C1 4654   1.021   3.280  14.204  0.4241  0.5683  0.3868
  306TMC3    C2 4655   1.062   3.164  14.262  0.3397  0.0666 -0.8781
  306TMC3    C3 4656   1.062   3.160  14.394  0.2988 -0.3564 -0.7891
  306TMC3    C4 4657   0.982   3.391  14.278  0.0081 -0.6266  0.1574
  306TMC3    C5 4658   0.998   3.386  14.412  0.1007 -0.0521  0.2932
  306TMC3    C6 4659   1.029   3.270  14.473  0.2706  0.1817  0.3151
  306TMC3     C 4660   0.985   3.280  14.061 -0.0313  0.2286 -0.1696
  306TMC3     O 4661   0.932   3.174  14.030 -0.0392 -0.8888 -0.4823
  306TMC3     H 4662   1.091   3.079  14.200  0.6300 -0.7667  0.3968
  306TMC3    H1 4663   0.946   3.486  14.240  0.1377 -1.1403 -1.2422
  306TMC3    H2 4664   1.043   3.264  14.580 -1.7373 -0.0726  0.5632
  306TMC3    C7 4665   0.920   3.493  14.490 -0.1359  0.6390 -0.3658
  306TMC3    C8 4666   1.121   3.037  14.452  0.0142 -0.0837 -1.0853
  306TMC3    O1 4667   0.818   3.533  14.435 -0.5785 -0.6980 -0.1448
  306TMC3    O2 4668   1.108   2.930  14.392 -0.2152 -0.6335  0.1773
  307MPD2     C 4669   2.596   1.126   0.056 -0.3353 -0.1783 -0.3749
  307MPD2    C1 4670   2.706   1.210   0.068 -0.3272 -0.0818 -0.3527
  307MPD2    C2 4671   2.714   1.293   0.177 -0.5211 -0.1384  0.0515
  307MPD2    C3 4672   2.619   1.286   0.277 -0.1983  0.2606  0.1432
  307MPD2    C4 4673   2.505   1.204   0.254  0.0705 -0.2836  0.0399
  307MPD2    C5 4674   2.501   1.114   0.154  0.9212  0.4631 -0.2380
  307MPD2     H 4675   2.811   1.340   0.187  0.0630 -0.9377 -1.7087
  307MPD2    H1 4676   2.423   1.200   0.324 -0.0968 -0.6034 -0.1718
  307MPD2    H2 4677   2.594   1.050  17.727  1.2293  0.7553 -1.3261
  307MPD2    H3 4678   2.429   1.032   0.156 -0.7796  1.9068 -1.9335
  307MPD2     N 4679   2.644   1.374   0.386 -0.9178 -0.5384 -0.1095
  307MPD2    H5 4680   2.721   1.438   0.372  0.8634 -2.6029  0.0840
  307MPD2    N1 4681   2.814   1.210  17.721  0.4422  0.4692 -0.0091
  307MPD2    H7 4682   2.896   1.266  17.743  0.8020  0.3675 -1.0969
  308TMC3    C1 4683   2.665   1.536   0.813  0.2163 -0.4785 -0.2628
  308TMC3    C2 4684   2.796   1.576   0.809 -0.1643  0.1343 -0.3133
  308TMC3    C3 4685   2.844   1.580   0.682  0.4621  0.0955  0.2841
  308TMC3    C4 4686   2.584   1.496   0.716  0.1387  0.5124 -0.8693
  308TMC3    C5 4687   2.640   1.481   0.593 -0.2192  0.1578 -0.0533
  308TMC3    C6 4688   2.776   1.520   0.578  0.2253  0.2174 -0.0703
  308TMC3     C 4689   2.607   1.571   0.946 -0.1140 -1.0060  0.4492
  308TMC3     O 4690   2.673   1.557   1.046  0.7213 -0.3780 -0.3823
  308TMC3     H 4691   2.835   1.619   0.900  1.0873 -0.2428 -0.6629
  308TMC3    H1 4692   2.487   1.456   0.742  1.3413 -2.3894 -0.8168
  308TMC3    H2 4693   2.833   1.509   0.487 -2.4194 -1.0226 -1.5530
  308TMC3    C7 4694   2.575   1.384   0.504 -1.0153 -0.2244 -0.0056
  308TMC3    C8 4695   2.972   1.646   0.652 -0.6670  0.1043  0.3739
  308TMC3    O1 4696   2.472   1.324   0.541  0.2274  0.3125  0.3852
  308TMC3    O2 4697   3.061   1.656   0.737  0.3132 -0.0923  0.3588
  309MPD2     C 4698   1.730   1.737  17.039 -1.0132 -0.0693 -0.4140
  309MPD2    C1 4699   1.733   1.878  17.026  0.1412  0.3709 -0.0503
  309MPD2    C2 4700   1.671   1.955  17.125  0.8832  0.4563 -0.2433
  309MPD2    C3 4701   1.636   1.890  17.245  0.1619  0.2519  0.0631
  309MPD2    C4 4702   1.642   1.753  17.252 -0.7619 -0.0548 -0.6391
  309MPD2    C5 4703   1.685   1.674  17.149 -0.4918  0.3802 -0.3985
  309MPD2     H 4704   1.660   2.062  17.117 -0.4463  0.3321 -0.0867
  309MPD2    H1 4705   1.599   1.707  17.340  0.3443  0.6336  0.2567
  309MPD2    H2 4706   1.766   1.665  16.966 -0.6097  0.4516 -0.7334
  309MPD2    H3 4707   1.681   1.568  17.170 -0.4621  1.1379  3.3978
  309MPD2     N 4708   1.589   1.955  17.366 -0.8048 -0.0533  0.1288
  309MPD2    H5 4709   1.583   1.893  17.446  0.6214  0.0558  0.3149
  309MPD2    N1 4710   1.792   1.940  16.910 -0.4206 -0.1305 -0.6429
  309MPD2    H7 4711   1.804   2.040  16.900 -4.4839  0.1284 -2.9142
  310TMC3    C1 4712   1.940   1.943  16.729  0.1501  0.3046 -0.5403
  310TMC3    C2 4713   1.884   2.038  16.649  0.0709  0.1849 -0.7737
  310TMC3    C3 4714   1.954   2.069  16.533 -0.7245 -0.2686 -0.3140
  310TMC3    C4 4715   2.055   1.874  16.691  0.3095  0.0193  0.4863
  310TMC3    C5 4716   2.119   1.915  16.584  0.0087 -0.2666  0.2569
  310TMC3    C6 4717   2.075   2.010  16.498  0.5661 -0.4180 -0.0507
  310TMC3     C 4718   1.862   1.867  16.816  0.0994  0.2800 -0.0701
  310TMC3     O 4719   1.848   1.752  16.772  0.5316  0.2151 -0.0280
  310TMC3     H 4720   1.788   2.081  16.677  0.1758 -0.8688  1.2370
  310TMC3    H1 4721   2.097   1.797  16.756  0.8583  0.0123  0.1270
  310TMC3    H2 4722   2.125   2.036  16.405 -2.9923  1.6445 -1.3470
  310TMC3    C7 4723   2.184   1.806  16.522 -0.5974  0.4490  0.3272
  310TMC3    C8 4724   1.891   2.154  16.432  0.3281 -0.1711 -0.2539
  310TMC3    O1 4725   2.275   1.831  16.449  0.1994 -0.5500 -0.1265
  310TMC3    O2 4726   1.771   2.147  16.434  0.2276  0.5656  0.2172
  311MPD2     C 4727   4.405   3.382  12.382  0.0632  1.2790 -0.1766
  311MPD2    C1 4728   4.469   3.350  12.497 -0.1922  0.7794 -0.5660
  311MPD2    C2 4729   4.416   3.263  12.586 -0.4853  0.4495  0.3300
  311MPD2    C3 4730   4.284   3.208  12.564 -0.4978 -0.0964  0.1130
  311MPD2    C4 4731   4.213   3.254  12.462 -0.9492  0.8033 -0.5218
  311MPD2    C5 4732   4.272   3.348  12.377  0.5384  0.3256 -0.3720
  311MPD2     H 4733   4.472   3.233  12.674  2.4681 -1.7181 -2.3211
  311MPD2    H1 4734   4.115   3.221  12.431 -0.6631  0.2162 -0.8000
  311MPD2    H2 4735   4.449   3.438  12.300 -0.4059 -1.1095 -2.0750
  311MPD2    H3 4736   4.218   3.385  12.290 -1.1646  0.0544  0.5655
  311MPD2     N 4737   4.234   3.113  12.656 -0.0312  0.3569  0.9473
  311MPD2    H5 4738   4.290   3.096  12.739  0.5319 -0.1046  0.4679
  311MPD2    N1 4739   4.599   3.396  12.520  0.1146 -0.2120 -0.0655
  311MPD2    H7 4740   4.632   3.369  12.612 -0.4047 -1.6917 -0.3109
  312TMC3    C1 4741   4.089   2.963  12.768 -0.5606 -0.2832 -0.1071
  312TMC3    C2 4742   3.973   2.965  12.833  0.1445 -0.3443 -0.1223
  312TMC3    C3 4743   3.977   2.896  12.957 -0.2270  0.4175 -0.1382
  312TMC3    C4 4744   4.195   2.886  12.807 -0.4297 -0.2031 -0.2096
  312TMC3    C5 4745   4.189   2.821  12.927 -0.1926  0.6538 -0.1684
  312TMC3    C6 4746   4.083   2.827  13.012 -0.4787  0.2448 -0.1282
  312TMC3     C 4747   4.112   3.044  12.650 -0.2478 -0.3194 -0.8236
  312TMC3     O 4748   4.015   3.068  12.575 -0.7323 -0.1641 -0.3755
  312TMC3     H 4749   3.897   3.041  12.813  0.7220  0.0961 -0.6362
  312TMC3    H1 4750   4.296   2.887  12.766 -1.4051 -0.5885 -2.6314
  312TMC3    H2 4751   4.073   2.793  13.115 -1.8743  0.3076 -0.2391
  312TMC3    C7 4752   4.307   2.754  12.971 -0.5507  0.1800  0.0241
  312TMC3    C8 4753   3.846   2.881  13.025 -0.5738  0.0345  0.4447
  312TMC3    O1 4754   4.374   2.694  12.891 -0.8843  0.3107  0.0511
  312TMC3    O2 4755   3.764   2.969  12.986 -0.0260 -0.1726 -0.4691
  313MPD2     C 4756   3.671   2.892  11.617  0.2223  0.3285 -0.5312
  313MPD2    C1 4757   3.735   2.890  11.493 -0.0183  0.3520 -0.2413
  313MPD2    C2 4758   3.717   2.779  11.408 -0.7698  0.8211  0.1573
  313MPD2    C3 4759   3.645   2.668  11.450  0.0410 -0.8949 -0.0151
  313MPD2    C4 4760   3.577   2.670  11.572 -0.9090 -0.3974 -0.1822
  313MPD2    C5 4761   3.598   2.781  11.651  0.0419  0.3979  0.5359
  313MPD2     H 4762   3.751   2.801  11.307  1.7448 -0.1965  0.8055
  313MPD2    H1 4763   3.514   2.594  11.615  2.9002 -4.3202 -1.5453
  313MPD2    H2 4764   3.687   2.971  11.689 -0.6014  0.0613 -0.0673
  313MPD2    H3 4765   3.554   2.779  11.750 -2.6296  1.3849 -0.6443
  313MPD2     N 4766   3.631   2.570  11.350 -0.5812  0.0472  0.1156
  313MPD2    H5 4767   3.674   2.591  11.260 -3.0181  1.7753 -0.6400
  313MPD2    N1 4768   3.795   3.005  11.442  0.4590 -0.1229  0.6147
  313MPD2    H7 4769   3.830   2.988  11.348 -0.2478  1.1311  0.1255
  314TMC3    C1 4770   3.800   3.225  11.371  0.0945  0.1861 -0.1095
  314TMC3    C2 4771   3.865   3.338  11.397 -0.2557  0.4758  0.1772
  314TMC3    C3 4772   3.896   3.420  11.294  0.4017 -0.1247 -0.5459
  314TMC3    C4 4773   3.766   3.178  11.246 -0.0864 -0.1210  0.0769
  314TMC3    C5 4774   3.800   3.262  11.146  0.7353 -0.2484  0.1298
  314TMC3    C6 4775   3.863   3.385  11.165  0.2496  0.3620 -0.6384
  314TMC3     C 4776   3.782   3.135  11.485  0.4335 -0.4193 -1.1117
  314TMC3     O 4777   3.755   3.181  11.593 -0.3831  0.0337  0.5982
  314TMC3     H 4778   3.899   3.352  11.499 -0.0392 -0.7940  0.2727
  314TMC3    H1 4779   3.726   3.079  11.229 -0.4259  0.3134 -1.6406
  314TMC3    H2 4780   3.893   3.441  11.077  0.4785  0.4385 -0.5103
  314TMC3    C7 4781   3.757   3.224  11.014 -0.7233 -0.0993  0.1876
  314TMC3    C8 4782   3.999   3.531  11.303 -0.1150 -0.3360  0.4286
  314TMC3    O1 4783   3.833   3.264  10.925  0.4158 -0.1752 -0.3681
  314TMC3    O2 4784   4.004   3.602  11.204 -0.0803  0.1951  0.7414
  315MPD2     C 4785   3.358   1.508  17.130  0.4571  0.2657 -0.2616
  315MPD2    C1 4786   3.430   1.544  17.241  0.4123 -0.0757  0.2022
  315MPD2    C2 4787   3.485   1.668  17.258 -0.7106  0.0184 -0.2006
  315MPD2    C3 4788   3.476   1.767  17.165  0.2461 -0.3493 -1.1954
  315MPD2    C4 4789   3.401   1.735  17.049  0.5548 -0.2312  0.0606
  315MPD2    C5 4790   3.351   1.604  17.031 -0.9459 -0.2270 -0.9089
  315MPD2     H 4791   3.536   1.683  17.352 -1.4499  2.2200 -0.1584
  315MPD2    H1 4792   3.371   1.810  16.977  0.7619 -0.3096 -0.1065
  315MPD2    H2 4793   3.306   1.413  17.128  0.8497  0.0769 -1.3712
  315MPD2    H3 4794   3.289   1.576  16.947 -2.0884  1.8412 -0.7387
  315MPD2     N 4795   3.513   1.894  17.201 -0.1521 -0.2756  0.0159
  315MPD2    H5 4796   3.549   1.899  17.296  2.6264  3.9049 -1.2501
  315MPD2    N1 4797   3.457   1.452  17.341 -0.4089  0.0317  0.5195
  315MPD2    H7 4798   3.514   1.478  17.420 -0.0759 -0.6697  0.5071
  316TMC3    C1 4799   3.508   2.134  17.206 -0.0282  0.5436 -0.3204
  316TMC3    C2 4800   3.605   2.145  17.299 -0.9649  0.1771 -0.0905
  316TMC3    C3 4801   3.645   2.263  17.348  0.2844  0.6538 -0.5980
  316TMC3    C4 4802   3.435   2.243  17.157  0.1538  0.5470  0.8044
  316TMC3    C5 4803   3.479   2.363  17.201 -0.1474  0.0929 -0.6375
  316TMC3    C6 4804   3.579   2.376  17.293 -0.2353 -0.2892  0.7477
  316TMC3     C 4805   3.470   2.012  17.145 -0.2188  0.4531 -0.7048
  316TMC3     O 4806   3.411   2.033  17.039 -0.0509 -0.9430  0.3469
  316TMC3     H 4807   3.666   2.059  17.321 -1.9592 -0.9465 -1.7517
  316TMC3    H1 4808   3.347   2.230  17.094  1.5143 -1.4088 -0.6458
  316TMC3    H2 4809   3.608   2.477  17.317 -1.2213  0.2756 -0.4338
  316TMC3    C7 4810   3.400   2.483  17.161 -0.4993  0.3241  0.0267
  316TMC3    C8 4811   3.713   2.284  17.478 -0.1963 -0.5292 -0.2638
  316TMC3    O1 4812   3.432   2.582  17.230  0.3311 -0.2769  0.0812
  316TMC3    O2 4813   3.724   2.401  17.513  0.5085  0.3685 -0.5195
  317MPD2     C 4814   1.082   0.409  12.076  0.1067 -0.1106 -0.5559
  317MPD2    C1 4815   1.177   0.314  12.052 -0.5697 -0.0820 -0.1112
  317MPD2    C2 4816   1.232   0.245  12.153 -0.7972  0.0561  0.3791
  317MPD2    C3 4817   1.196   0.263  12.288 -0.5014  0.2147 -0.7244
  317MPD2    C4 4818   1.099   0.363  12.310  1.0712 -0.7673 -0.4648
  317MPD2    C5 4819   1.047   0.433  12.205 -0.5295  0.3492 -0.0070
  317MPD2     H 4820   1.303   0.166  12.132  0.2365  1.5456 -1.7621
  317MPD2    H1 4821   1.063   0.384  12.410 -0.4755 -1.8182 -0.7972
  317MPD2    H2 4822   1.022   0.450  11.996  1.0230  2.3322  0.0002
  317MPD2    H3 4823   0.964   0.501  12.218 -0.7190 -0.0934  1.0860
  317MPD2     N 4824   1.253   0.179  12.390 -0.7088  0.8569  0.5306
  317MPD2    H5 4825   1.293   0.088  12.368  2.3524  2.5871 -1.1179
  317MPD2    N1 4826   1.235   0.286  11.924 -0.0061 -0.2642  0.3733
  317MPD2    H7 4827   1.289   0.200  11.919  0.3516 -0.0191  0.0438
  318TMC3    C1 4828   1.304   0.113  12.613  0.0943  0.0341  0.0258
  318TMC3    C2 4829   1.283   4.720  12.579  0.5075  0.2286  0.0138
  318TMC3    C3 4830   1.322   4.635  12.674 -0.0497 -0.3384  0.0785
  318TMC3    C4 4831   1.362   0.156  12.730 -0.6235 -0.6120 -0.0460
  318TMC3    C5 4832   1.403   0.062  12.819  0.3469  0.1671 -0.8453
  318TMC3    C6 4833   1.382   4.669  12.792  0.5799  0.4959  0.0196
  318TMC3     C 4834   1.250   0.213  12.524  0.4326 -0.1151  0.1091
  318TMC3     O 4835   1.258   0.331  12.559 -0.5517 -0.6559 -0.6965
  318TMC3     H 4836   1.225   4.698  12.491  0.1768 -1.6954  0.7229
  318TMC3    H1 4837   1.361   0.262  12.754  2.9287 -1.1377  2.3874
  318TMC3    H2 4838   1.389   4.592  12.869 -1.3315 -2.3232 -2.6276
  318TMC3    C7 4839   1.434   0.096  12.958  0.6078 -0.6500 -0.0925
  318TMC3    C8 4840   1.255   4.513  12.680 -0.0736  0.2030  0.0567
  318TMC3    O1 4841   1.376   0.191  13.005  0.2669  0.1679 -0.2876
  318TMC3    O2 4842   1.309   4.410  12.725  0.1598  0.2638  0.4996
  319MPD2     C 4843   1.729   1.182  15.602 -0.0075 -0.6682  0.1210
  319MPD2    C1 4844   1.707   1.209  15.737  0.6456  0.1550  0.5181
  319MPD2    C2 4845   1.599   1.290  15.778  1.3213 -0.0821 -0.6091
  319MPD2    C3 4846   1.507   1.341  15.686  0.5735 -0.3100 -0.5085
  319MPD2    C4 4847   1.534   1.313  15.549 -0.0896 -0.2164  0.9588
  319MPD2    C5 4848   1.642   1.225  15.510 -0.1908 -0.0214  0.1903
  319MPD2     H 4849   1.581   1.302  15.884 -1.1138 -1.1078 -0.9031
  319MPD2    H1 4850   1.462   1.348  15.476 -0.6936 -1.5060  0.9378
  319MPD2    H2 4851   1.817   1.131  15.564  0.5132 -1.1799  2.0414
  319MPD2    H3 4852   1.655   1.213  15.403  2.5419 -1.2294  0.6834
  319MPD2     N 4853   1.387   1.407  15.718 -0.0339 -0.3974  0.3726
  319MPD2    H5 4854   1.331   1.440  15.640  1.1865  1.0030  0.0939
  319MPD2    N1 4855   1.804   1.167  15.834 -1.0712  0.2107  0.2927
  319MPD2    H7 4856   1.780   1.198  15.927  0.7515 -1.6380  1.3966
  320TMC3    C1 4857   1.226   1.506  15.865 -0.4086 -0.0336  0.2290
  320TMC3    C2 4858   1.170   1.586  15.764  0.1664 -0.1206  0.0586
  320TMC3    C3 4859   1.038   1.621  15.780  0.2227 -0.9150 -0.1934
  320TMC3    C4 4860   1.151   1.474  15.980 -1.2756  0.2150  0.1273
  320TMC3    C5 4861   1.019   1.515  15.991  0.3191  0.5593 -0.1406
  320TMC3    C6 4862   0.966   1.587  15.890  0.1899 -0.3178  0.1940
  320TMC3     C 4863   1.339   1.413  15.850  0.2760  0.4059  0.0347
  320TMC3     O 4864   1.377   1.355  15.951  0.1623  0.0209  0.2980
  320TMC3     H 4865   1.232   1.620  15.683 -1.5407  0.2342 -1.0963
  320TMC3    H1 4866   1.193   1.401  16.048 -1.3177 -1.2962 -1.4515
  320TMC3    H2 4867   0.866   1.627  15.904  0.0919 -0.1254 -1.1041
  320TMC3    C7 4868   0.940   1.409  16.049  0.2334  0.3706 -0.6894
  320TMC3    C8 4869   0.979   1.721  15.692  0.3901  0.5031  0.1940
  320TMC3    O1 4870   0.892   1.333  15.968 -0.0448 -0.2057 -0.1344
  320TMC3    O2 4871   0.910   1.811  15.745 -0.1389 -0.0870  0.3820
  321TMC3    C1 4872   1.985   1.054  15.938  0.6214  0.2383  0.5627
  321TMC3    C2 4873   2.103   1.007  15.939 -0.1778  0.2820 -0.2172
  321TMC3    C3 4874   2.144   0.928  16.038  0.3383 -0.4231  0.8224
  321TMC3    C4 4875   1.893   1.028  16.045 -0.3468  0.0622  0.5121
  321TMC3    C5 4876   1.935   0.939  16.140 -0.5780 -0.5025 -0.1286
  321TMC3    C6 4877   2.058   0.884  16.135  0.7094  0.5248 -0.5639
  321TMC3     C 4878   1.927   1.100  15.813  0.7669  0.1411 -0.0004
  321TMC3     O 4879   1.976   1.058  15.709 -0.1513 -0.8995  0.2810
  321TMC3     H 4880   2.158   1.017  15.846  0.0083  0.9542 -0.0418
  321TMC3    H1 4881   1.795   1.071  16.062 -1.2791 -0.7409 -2.7243
  321TMC3    H2 4882   2.096   0.822  16.215 -3.2334  1.1403  1.8058
  321TMC3    C7 4883   1.906   0.979  16.283 -0.2609 -0.3996  0.1068
  321TMC3    C8 4884   2.274   0.963  16.082  0.2554 -0.2909  0.3741
  321TMC3    O1 4885   1.997   0.973  16.359 -0.1586 -0.0521 -0.2382
  321TMC3    O2 4886   2.352   1.006  15.994 -0.1971 -0.1788 -0.4667
  322MPD2     C 4887   0.722   2.840  13.612  0.2137 -0.3905  0.6912
  322MPD2    C1 4888   0.840   2.767  13.599 -0.0675 -0.4350 -0.4873
  322MPD2    C2 4889   0.849   2.657  13.515 -0.5299 -0.0201  0.1026
  322MPD2    C3 4890   0.745   2.616  13.440 -0.4038  0.3388  0.1338
  322MPD2    C4 4891   0.622   2.691  13.454  0.1969  0.1464 -0.5573
  322MPD2    C5 4892   0.622   2.800  13.533  0.9764 -0.0588  0.1833
  322MPD2     H 4893   0.933   2.589  13.521 -0.1164  0.3594 -1.4084
  322MPD2    H1 4894   0.532   2.671  13.396 -0.7773  1.5249  0.4664
  322MPD2    H2 4895   0.719   2.917  13.688  0.5883 -0.9688  1.2993
  322MPD2    H3 4896   0.530   2.856  13.546 -0.1564 -1.3040 -2.4765
  322MPD2     N 4897   0.753   2.492  13.368 -0.5191  0.0812  0.3510
  322MPD2    H5 4898   0.837   2.439  13.349  0.3302  0.8625  1.9144
  322MPD2    N1 4899   0.946   2.808  13.683  0.1076 -0.1257 -0.3289
  322MPD2    H7 4900   0.925   2.882  13.749  0.2172  1.4918 -2.0785
  323TMC3    C1 4901   1.104   2.778  13.824 -0.0867  0.6227 -0.0768
  323TMC3    C2 4902   1.203   2.860  13.857  0.4884  0.9700 -0.3922
  323TMC3    C3 4903   1.234   2.879  13.989  0.4650  0.1106  0.1740
  323TMC3    C4 4904   1.028   2.710  13.917 -0.2989  0.8066 -0.6543
  323TMC3    C5 4905   1.057   2.734  14.048  0.1015 -0.4899 -0.4870
  323TMC3    C6 4906   1.168   2.810  14.084 -0.5932  0.1880  0.7503
  323TMC3     C 4907   1.070   2.757  13.691  0.1761  0.3911  0.5222
  323TMC3     O 4908   1.125   2.670  13.625  0.1926  0.2821 -0.0570
  323TMC3     H 4909   1.247   2.918  13.777  1.4993  0.8523  0.0818
  323TMC3    H1 4910   0.956   2.635  13.886 -0.9167  1.3693 -0.5724
  323TMC3    H2 4911   1.198   2.831  14.186  0.3472  0.3419  0.4472
  323TMC3    C7 4912   0.998   2.647  14.145 -0.3771  0.1806  0.0911
  323TMC3    C8 4913   1.328   2.974  14.038  0.1212 -0.4395 -0.2487
  323TMC3    O1 4914   0.929   2.558  14.098 -0.0577  0.4317  0.0629
  323TMC3    O2 4915   1.406   2.943  14.129  0.1372  0.4366  0.2249
  324MPD2     C 4916   2.319   3.984  14.764  0.5983 -0.2035  0.4109
  324MPD2    C1 4917   2.398   3.978  14.650  0.2241  0.3791 -0.4197
  324MPD2    C2 4918   2.343   3.941  14.524 -0.4331  0.5530 -0.4398
  324MPD2    C3 4919   2.205   3.909  14.515 -0.2586 -1.0022 -0.1546
  324MPD2    C4 4920   2.131   3.918  14.630  0.2029 -1.0537 -0.0319
  324MPD2    C5 4921   2.196   3.942  14.752 -0.1542 -0.1376  0.4022
  324MPD2     H 4922   2.406   3.939  14.436 -2.0965 -1.8354 -1.5632
  324MPD2    H1 4923   2.024   3.902  14.633 -0.0709  0.5527 -1.0492
  324MPD2    H2 4924   2.352   4.014  14.863  0.2399  2.3285 -0.2549
  324MPD2    H3 4925   2.136   3.959  14.841  0.8143  1.6492  0.7327
  324MPD2     N 4926   2.133   3.870  14.397 -0.4687  0.6118 -0.1780
  324MPD2    H5 4927   2.038   3.837  14.406  0.1401 -1.2315 -0.4033
  324MPD2    N1 4928   2.531   4.032  14.654  0.0395  0.8960 -0.3125
  324MPD2    H7 4929   2.580   4.053  14.567 -0.3216 -1.7794 -1.1503
  325TMC3    C1 4930   2.057   3.903  14.181 -0.9429  0.6158  0.1854
  325TMC3    C2 4931   1.977   3.798  14.168 -0.4207 -1.1938 -0.9318
  325TMC3    C3 4932   1.873   3.810  14.079  0.6380 -0.5494  0.3118
  325TMC3    C4 4933   2.035   4.023  14.117 -0.5042 -0.1500  0.6487
  325TMC3    C5 4934   1.923   4.033  14.043 -0.6282 -0.8023  0.2705
  325TMC3    C6 4935   1.835   3.928  14.021 -0.5714  0.7035 -0.3366
  325TMC3     C 4936   2.170   3.916  14.274 -0.5451 -0.8340  0.2514
  325TMC3     O 4937   2.265   3.980  14.234 -0.0459  0.0236 -0.0444
  325TMC3     H 4938   2.010   3.697  14.190  2.1011 -0.5328 -1.6297
  325TMC3    H1 4939   2.098   4.106  14.147 -1.1697  0.4976  0.2530
  325TMC3    H2 4940   1.750   3.948  13.957 -0.8814  0.3218 -0.0420
  325TMC3    C7 4941   1.860   4.163  14.045 -0.4660 -0.0151  0.1296
  325TMC3    C8 4942   1.819   3.690  14.029  0.3868 -0.1149  0.3124
  325TMC3    O1 4943   1.934   4.260  14.024  0.0178  0.5375 -0.0792
  325TMC3    O2 4944   1.884   3.587  14.046 -0.3909  0.8701 -0.3602
  326MPD2     C 4945   3.557   0.279  10.900  0.2850  0.0303 -0.1184
  326MPD2    C1 4946   3.546   0.373  10.799  0.4936 -0.8293  0.6888
  326MPD2    C2 4947   3.641   0.475  10.801 -0.4354  0.1090 -0.7910
  326MPD2    C3 4948   3.736   0.480  10.904  0.2740  0.2805  0.0503
  326MPD2    C4 4949   3.739   0.381  11.001  0.1541  0.1639 -0.6506
  326MPD2    C5 4950   3.655   0.274  10.989 -0.1354  1.0300  0.5191
  326MPD2     H 4951   3.628   0.555  10.728 -2.1846 -0.7316 -1.4091
  326MPD2    H1 4952   3.810   0.383  11.083  0.9015  2.3231 -1.3552
  326MPD2    H2 4953   3.492   0.192  10.897  0.8380 -0.5207  3.1156
  326MPD2    H3 4954   3.659   0.195  11.063  2.7605  1.5753  0.9526
  326MPD2     N 4955   3.835   0.586  10.901 -0.1807  0.4299  0.0207
  326MPD2    H5 4956   3.896   0.588  10.982 -1.4743 -0.1869  1.0011
  326MPD2    N1 4957   3.446   0.381  10.701 -0.6948 -0.5869 -0.0305
  326MPD2    H7 4958   3.446   0.471  10.653  2.3510 -0.5380  0.0837
  327TMC3    C1 4959   3.283   0.292  10.548  0.1543  0.5681 -0.8855
  327TMC3    C2 4960   3.208   0.404  10.555 -0.1795  0.3885 -0.3986
  327TMC3    C3 4961   3.195   0.473  10.429  0.0868  1.3775 -0.5466
  327TMC3    C4 4962   3.344   0.240  10.435  0.5217  0.0719  0.2215
  327TMC3    C5 4963   3.334   0.314  10.322 -0.0820  0.7400  0.0935
  327TMC3    C6 4964   3.253   0.424  10.315  0.0010  0.6267 -0.5376
  327TMC3     C 4965   3.362   0.272  10.667  0.2958 -0.7185 -0.0563
  327TMC3     O 4966   3.367   0.157  10.708  0.2767  0.1144  0.2752
  327TMC3     H 4967   3.183   0.447  10.651 -2.7466  0.2120 -1.0053
  327TMC3    H1 4968   3.401   0.149  10.449 -2.0303 -1.4335  0.6813
  327TMC3    H2 4969   3.264   0.484  10.226  1.0763  2.3389  0.7528
  327TMC3    C7 4970   3.460   0.330  10.248 -0.0173 -0.2785  0.1764
  327TMC3    C8 4971   3.137   0.605  10.432 -0.4445  0.7048  0.1680
  327TMC3    O1 4972   3.452   0.360  10.130 -0.5830 -0.0155 -0.2053
  327TMC3    O2 4973   3.187   0.677  10.344  0.2790  0.1571 -0.3752
  328MPD2     C 4974   0.972   4.713  16.846  0.1145  0.5025 -0.1367
  328MPD2    C1 4975   0.860   4.728  16.756  0.3644  0.3029 -0.4558
  328MPD2    C2 4976   0.838   0.114  16.700  0.4118 -0.3439 -0.2480
  328MPD2    C3 4977   0.927   0.223  16.722  0.4741  0.0858  0.3541
  328MPD2    C4 4978   1.036   0.206  16.807 -0.2525  0.6218 -0.2905
  328MPD2    C5 4979   1.056   0.089  16.871 -0.8417 -0.3313 -0.6810
  328MPD2     H 4980   0.749   0.130  16.640  0.6782  1.8466 -0.0744
  328MPD2    H1 4981   1.088   0.295  16.840 -0.0573  0.1576  0.6246
  328MPD2    H2 4982   0.995   4.622  16.901 -4.2824 -1.5348 -1.5714
  328MPD2    H3 4983   1.147   0.087  16.930 -1.0567  0.5026 -0.3371
  328MPD2     N 4984   0.907   0.352  16.671 -0.1778  0.2011 -0.2117
  328MPD2    H5 4985   0.961   0.430  16.707 -0.8388  1.0187 -0.9689
  328MPD2    N1 4986   0.773   4.621  16.720  0.9251  0.2424  0.9019
  328MPD2    H7 4987   0.695   4.637  16.658  1.1333  0.6678  0.7499
  329TMC3    C1 4988   0.703   4.390  16.705 -0.4206  0.2797 -0.6691
  329TMC3    C2 4989   0.570   4.433  16.704  0.2191  0.1009  0.2204
  329TMC3    C3 4990   0.472   4.335  16.678 -0.0824 -0.5158  0.6437
  329TMC3    C4 4991   0.735   4.258  16.686  0.5300  0.0663  0.0712
  329TMC3    C5 4992   0.648   4.184  16.621  0.8690 -0.4177 -1.1550
  329TMC3    C6 4993   0.509   4.210  16.623  0.3355 -1.0187  0.6332
  329TMC3     C 4994   0.805   4.488  16.746 -0.1079 -0.6118 -0.5214
  329TMC3     O 4995   0.909   4.438  16.792  0.0741  0.1372  0.1214
  329TMC3     H 4996   0.557   4.539  16.723  0.3565  0.2786 -0.6767
  329TMC3    H1 4997   0.842   4.239  16.678  0.4596 -0.8161  1.2874
  329TMC3    H2 4998   0.438   4.137  16.587  1.1194 -0.6602 -1.6203
  329TMC3    C7 4999   0.699   4.066  16.553 -0.4873 -0.8178 -0.8889
  329TMC3    C8 5000   0.335   4.361  16.720 -0.6454 -0.0306 -0.6677
  329TMC3    O1 5001   0.809   4.030  16.588  0.0444  0.3025  0.2150
  329TMC3    O2 5002   0.245   4.299  16.658 -0.0980  0.6822 -0.0765
  330TMC3    C1 5003   3.964   4.235   9.564  0.1285 -0.7490  0.6641
  330TMC3    C2 5004   3.853   4.179   9.510 -0.4258  0.2408 -0.4804
  330TMC3    C3 5005   3.814   4.055   9.545 -0.2600  0.2083 -0.0505
  330TMC3    C4 5006   4.026   4.173   9.668  0.4746 -0.1309  0.1404
  330TMC3    C5 5007   3.984   4.051   9.697  0.0351  0.6373 -0.0313
  330TMC3    C6 5008   3.887   3.984   9.629 -0.2425 -0.7952  0.5179
  330TMC3     C 5009   3.972   4.379   9.573  0.0778 -0.3800 -0.3781
  330TMC3     O 5010   4.062   4.433   9.637  0.6314  0.0245 -0.2200
  330TMC3     H 5011   3.783   4.230   9.445 -0.4590  0.3195 -0.3840
  330TMC3    H1 5012   4.101   4.223   9.729  1.4315 -1.9668  0.4573
  330TMC3    H2 5013   3.876   3.877   9.634  0.6986 -0.9368 -0.4268
  330TMC3    C7 5014   4.072   3.970   9.780 -0.1427  0.1971  0.0376
  330TMC3    C8 5015   3.702   3.997   9.463  0.5874  0.4886 -0.1794
  330TMC3    O1 5016   4.187   4.009   9.792 -0.0442 -0.4958  0.0300
  330TMC3    O2 5017   3.672   4.062   9.367  0.0717 -0.5972  0.4023
  331MPD2     C 5018   2.297   3.568  12.558 -0.1487 -0.7010  0.6202
  331MPD2    C1 5019   2.202   3.507  12.480  0.1659  0.1660  0.1707
  331MPD2    C2 5020   2.202   3.367  12.485 -0.4553 -0.2191 -0.1157
  331MPD2    C3 5021   2.288   3.292  12.562 -0.0384 -0.0851  0.9523
  331MPD2    C4 5022   2.385   3.359  12.645  0.2338  0.2574  0.0384
  331MPD2    C5 5023   2.384   3.496  12.639 -0.6294 -0.2905  0.1060
  331MPD2     H 5024   2.136   3.313  12.418 -1.4702  0.4347  0.3617
  331MPD2    H1 5025   2.457   3.295  12.696 -0.3593 -0.0864  0.4357
  331MPD2    H2 5026   2.298   3.676  12.568  1.2124 -0.7685  1.1693
  331MPD2    H3 5027   2.445   3.556  12.705 -1.2952  1.1419 -0.5706
  331MPD2     N 5028   2.298   3.153  12.546 -0.2749  0.4792  0.7231
  331MPD2    H5 5029   2.370   3.105  12.600 -0.4677 -2.6503 -1.8406
  331MPD2    N1 5030   2.106   3.581  12.421 -0.6265  0.0409 -0.4789
  331MPD2    H7 5031   2.128   3.680  12.418  2.3557 -0.5450  1.7883
  332TMC3    C1 5032   2.303   2.951  12.427 -0.3564 -0.2591  0.2620
  332TMC3    C2 5033   2.290   2.910  12.296  0.2676  0.1730  0.1052
  332TMC3    C3 5034   2.354   2.793  12.265  0.4335 -0.3418  0.3825
  332TMC3    C4 5035   2.366   2.879  12.526  0.4092  1.0183  0.4365
  332TMC3    C5 5036   2.433   2.768  12.482  0.5166  0.2845 -0.4937
  332TMC3    C6 5037   2.428   2.725  12.351  0.2038 -0.3140  0.9382
  332TMC3     C 5038   2.237   3.078  12.450  0.0607  0.3702  0.4779
  332TMC3     O 5039   2.140   3.102  12.383 -0.0076  0.2713  0.2144
  332TMC3     H 5040   2.228   2.962  12.224 -1.3523  0.0881  1.4546
  332TMC3    H1 5041   2.349   2.902  12.631  1.2059  0.5288  0.6729
  332TMC3    H2 5042   2.470   2.632  12.315  1.2269  1.0044 -1.3312
  332TMC3    C7 5043   2.513   2.680  12.570 -0.3050 -0.2250 -0.0496
  332TMC3    C8 5044   2.343   2.735  12.127 -0.0962  1.2802  0.4744
  332TMC3    O1 5045   2.532   2.565  12.533  0.2182  0.1132 -0.6759
  332TMC3    O2 5046   2.388   2.624  12.113 -0.4317  0.1329  0.1493
  333MPD2     C 5047   2.030   3.632  11.019  0.9417  0.6781  0.4793
  333MPD2    C1 5048   2.066   3.506  10.985  0.7476 -0.4227 -0.5268
  333MPD2    C2 5049   1.985   3.401  11.011  0.2204  0.3205 -0.7578
  333MPD2    C3 5050   1.872   3.418  11.088 -0.0345 -0.1602 -0.2738
  333MPD2    C4 5051   1.838   3.550  11.128  0.0510 -0.2532 -0.2611
  333MPD2    C5 5052   1.917   3.653  11.091  0.6612  0.6589  0.6660
  333MPD2     H 5053   2.005   3.302  10.972  0.1743 -0.6804  1.7991
  333MPD2    H1 5054   1.762   3.568  11.203  0.6128  0.3324  0.1639
  333MPD2    H2 5055   2.082   3.724  10.995 -0.7613  1.8305  1.3123
  333MPD2    H3 5056   1.876   3.748  11.123 -0.0624  1.3822 -2.3523
  333MPD2     N 5057   1.797   3.303  11.129 -0.4261 -0.5152  0.8227
  333MPD2    H5 5058   1.828   3.221  11.077 -1.5972 -1.1077  1.0415
  333MPD2    N1 5059   2.189   3.500  10.908  0.7030 -0.1128 -0.7476
  333MPD2    H7 5060   2.236   3.586  10.886  0.2276  0.3679  0.0936
  334TMC3    C1 5061   2.376   3.412  10.803  0.8310 -0.2579  0.0587
  334TMC3    C2 5062   2.496   3.368  10.845 -0.1767  0.5799  0.2445
  334TMC3    C3 5063   2.604   3.395  10.764  0.0874  0.1473 -0.2037
  334TMC3    C4 5064   2.360   3.496  10.689  0.0988  0.5812  0.4198
  334TMC3    C5 5065   2.475   3.513  10.611  0.3024  0.8878 -0.0651
  334TMC3    C6 5066   2.602   3.474  10.656 -0.0257 -0.1794 -0.6400
  334TMC3     C 5067   2.260   3.385  10.885 -0.5113 -0.9195 -0.1478
  334TMC3     O 5068   2.236   3.266  10.910  0.1122 -0.2148  0.0819
  334TMC3     H 5069   2.500   3.309  10.936 -0.9718 -0.0064 -0.1053
  334TMC3    H1 5070   2.264   3.530  10.652 -0.2833 -2.4843 -1.3675
  334TMC3    H2 5071   2.683   3.482  10.585  0.1925  1.1570 -0.2555
  334TMC3    C7 5072   2.457   3.599  10.495  0.3660 -0.3449 -0.1459
  334TMC3    C8 5073   2.730   3.362  10.820  0.4926  0.2882 -0.4248
  334TMC3    O1 5074   2.347   3.608  10.444 -0.1927 -0.5501  0.7454
  334TMC3    O2 5075   2.728   3.266  10.896 -0.4829 -0.0645 -0.5507
  335TMC3    C1 5076   1.725   0.453  17.268  0.1637  0.4804 -0.3391
  335TMC3    C2 5077   1.647   0.383  17.181 -0.2092 -0.0339  0.5118
  335TMC3    C3 5078   1.708   0.316  17.080 -0.6727  0.0046 -0.5225
  335TMC3    C4 5079   1.860   0.453  17.260 -0.2166  0.6464  0.3400
  335TMC3    C5 5080   1.920   0.387  17.154  0.0709 -0.0511  0.2960
  335TMC3    C6 5081   1.844   0.314  17.067 -0.0330  0.0403 -0.1265
  335TMC3     C 5082   1.669   0.521  17.393  0.0037 -0.6333  0.3050
  335TMC3     O 5083   1.575   0.599  17.385  0.4059 -0.0501  0.0766
  335TMC3     H 5084   1.541   0.405  17.179  0.2614  2.1148 -1.6101
  335TMC3    H1 5085   1.913   0.514  17.332 -0.7200 -0.5532  1.7241
  335TMC3    H2 5086   1.888   0.253  16.989  0.3451  1.3388 -0.9326
  335TMC3    C7 5087   2.061   0.363  17.158  0.2693  0.2139  0.1020
  335TMC3    C8 5088   1.624   0.236  16.989 -0.4099 -0.0784  0.5762
  335TMC3    O1 5089   2.104   0.275  17.083 -0.0689 -0.2372 -0.3853
  335TMC3    O2 5090   1.507   0.221  17.027  0.0587 -0.1004 -0.2431
  336MPD2     C 5091   0.957   2.615  16.036 -1.0076  0.1673 -0.0427
  336MPD2    C1 5092   1.024   2.562  15.927 -0.2829 -0.2247 -0.6125
  336MPD2    C2 5093   1.060   2.428  15.926  0.3585 -0.4971  0.2885
  336MPD2    C3 5094   1.017   2.343  16.033  0.0222 -0.3066 -0.5281
  336MPD2    C4 5095   0.957   2.407  16.139 -0.4682 -0.1791  0.5453
  336MPD2    C5 5096   0.935   2.539  16.146 -0.5369 -0.2187  0.3506
  336MPD2     H 5097   1.098   2.391  15.832  1.0820  1.3415 -0.1543
  336MPD2    H1 5098   0.922   2.342  16.218 -0.0862 -0.2461  0.6608
  336MPD2    H2 5099   0.934   2.720  16.054 -0.5311  0.0226  1.3863
  336MPD2    H3 5100   0.885   2.584  16.231 -1.1221  0.9731 -0.6197
  336MPD2     N 5101   1.038   2.207  16.052  0.0496 -0.3305 -0.6219
  336MPD2    H5 5102   0.992   2.165  16.133 -0.0306 -1.3370 -1.1875
  336MPD2    N1 5103   1.052   2.651  15.817 -0.5169 -0.0886  0.1503
  336MPD2    H7 5104   1.084   2.605  15.732 -2.5933 -1.8734  0.3255
  337TMC3    C1 5105   1.039   2.861  15.705  0.4823  0.2275  0.8759
  337TMC3    C2 5106   0.945   2.814  15.614  0.5991  1.0721 -0.2666
  337TMC3    C3 5107   0.895   2.896  15.513  0.4868  0.1546  1.1335
  337TMC3    C4 5108   1.075   2.991  15.710 -0.3056  0.1473 -0.9400
  337TMC3    C5 5109   1.022   3.075  15.613 -0.0807  0.4621  0.6223
  337TMC3    C6 5110   0.935   3.026  15.520 -0.0038  0.0121  0.5364
  337TMC3     C 5111   1.048   2.792  15.833 -0.0829 -0.4063 -0.2960
  337TMC3     O 5112   1.061   2.858  15.931 -0.3903 -0.7283 -0.3792
  337TMC3     H 5113   0.913   2.710  15.614 -0.9209  1.5400  0.7606
  337TMC3    H1 5114   1.148   3.013  15.787 -1.7258  0.2558  0.3753
  337TMC3    H2 5115   0.884   3.096  15.454 -0.1273 -0.0342  0.5824
  337TMC3    C7 5116   1.019   3.214  15.654  0.7610  0.0332  0.1120
  337TMC3    C8 5117   0.749   2.882  15.492  0.1537 -0.4544  0.0042
  337TMC3    O1 5118   1.044   3.247  15.768 -0.1470 -0.0946 -0.3257
  337TMC3    O2 5119   0.677   2.815  15.568 -0.3287  0.3752 -0.1376
  338MPD2     C 5120   1.477   2.473   1.204 -0.8575 -0.3267  0.6782
  338MPD2    C1 5121   1.471   2.391   1.096 -0.4164  0.6618 -0.1105
  338MPD2    C2 5122   1.362   2.396   1.011 -0.3219  0.9292  0.1545
  338MPD2    C3 5123   1.248   2.474   1.048  0.1795  0.3523 -0.7128
  338MPD2    C4 5124   1.248   2.534   1.169  0.2277  0.0235 -0.0576
  338MPD2    C5 5125   1.364   2.544   1.239  0.4687 -0.3131 -0.5020
  338MPD2     H 5126   1.373   2.325   0.930 -0.3892  1.1838 -0.0782
  338MPD2    H1 5127   1.164   2.590   1.208  1.4671  2.0414 -0.2883
  338MPD2    H2 5128   1.566   2.490   1.264 -1.7981 -0.6834  2.1779
  338MPD2    H3 5129   1.369   2.604   1.329  0.4539 -0.2298 -0.5571
  338MPD2     N 5130   1.139   2.475   0.962  0.1037  0.0728  0.6333
  338MPD2    H5 5131   1.134   2.410   0.885  1.2136 -0.0122  0.6242
  338MPD2    N1 5132   1.576   2.304   1.065  0.1211  0.0507 -0.3313
  338MPD2    H7 5133   1.558   2.253   0.979  1.3224  0.5651 -0.8863
  339TMC3    C1 5134   0.913   2.515   0.893  0.2359 -0.1048  0.1125
  339TMC3    C2 5135   0.795   2.548   0.945  0.0932  0.1650  0.1799
  339TMC3    C3 5136   0.686   2.463   0.938 -0.5071 -0.6130 -0.3425
  339TMC3    C4 5137   0.925   2.404   0.817 -0.4664 -0.0751  0.2699
  339TMC3    C5 5138   0.824   2.313   0.816 -0.0442  0.3803 -0.4183
  339TMC3    C6 5139   0.702   2.336   0.883 -0.1504  0.3100 -0.0124
  339TMC3     C 5140   1.028   2.557   0.977 -0.3917  0.7811  0.8961
  339TMC3     O 5141   1.019   2.662   1.042 -0.4239  0.0789  0.3871
  339TMC3     H 5142   0.793   2.638   1.005  0.0829  0.9911 -1.0835
  339TMC3    H1 5143   1.014   2.393   0.755 -0.9925 -0.0419 -0.4976
  339TMC3    H2 5144   0.618   2.267   0.880 -0.0712  0.1048  2.6295
  339TMC3    C7 5145   0.852   2.209   0.721  0.1520 -0.2122 -0.6758
  339TMC3    C8 5146   0.572   2.508   1.021  0.4104  0.4942 -0.1299
  339TMC3    O1 5147   0.969   2.184   0.695  0.1020  0.5950  0.7180
  339TMC3    O2 5148   0.559   2.634   1.021 -0.6549  0.3359  0.3653
  340MPD2     C 5149   1.927   4.592  10.373 -0.7652  0.1521 -0.4505
  340MPD2    C1 5150   2.025   4.578  10.274 -0.0280  0.9468 -0.2441
  340MPD2    C2 5151   2.133   4.662  10.274 -1.4513  0.2917 -0.5709
  340MPD2    C3 5152   2.151   0.016  10.379  0.0222  0.0721  0.3668
  340MPD2    C4 5153   2.050   0.019  10.477 -0.6347 -0.5737  1.1506
  340MPD2    C5 5154   1.934   4.683  10.473  0.4648  0.1052  0.3805
  340MPD2     H 5155   2.214   4.661  10.202 -0.3070 -0.2356  0.7452
  340MPD2    H1 5156   2.066   0.093  10.555 -0.5300 -0.9537  1.4887
  340MPD2    H2 5157   1.832   4.540  10.373  0.9002 -2.9996  2.4423
  340MPD2    H3 5158   1.858   4.700  10.548  2.1898  1.0606  1.9010
  340MPD2     N 5159   2.270   0.086  10.406  0.4795  0.1481 -0.3402
  340MPD2    H5 5160   2.280   0.135  10.494 -1.5733 -1.7223  0.9269
  340MPD2    N1 5161   1.995   4.493  10.171  0.0343  0.5349 -0.1063
  340MPD2    H7 5162   1.898   4.463  10.177  0.6564 -1.3521  0.2878
  341TMC3    C1 5163   2.003   4.393   9.966 -0.2863  0.0048  0.2606
  341TMC3    C2 5164   1.877   4.349   9.990  0.1831  0.7879 -0.7829
  341TMC3    C3 5165   1.817   4.274   9.896 -0.0524 -0.4529  0.0972
  341TMC3    C4 5166   2.073   4.360   9.852  0.1684  0.7874 -0.2340
  341TMC3    C5 5167   2.008   4.277   9.763  0.3205 -0.1897  0.7053
  341TMC3    C6 5168   1.879   4.238   9.783  0.2141 -0.1413  0.6540
  341TMC3     C 5169   2.076   4.471  10.061  0.4346  0.1534  0.0048
  341TMC3     O 5170   2.191   4.492  10.029  0.0410 -0.7106 -0.1183
  341TMC3     H 5171   1.822   4.370  10.081  1.3973  1.2299 -0.1492
  341TMC3    H1 5172   2.181   4.371   9.846  0.3064  1.0335  2.6023
  341TMC3    H2 5173   1.821   4.186   9.707 -1.2075 -1.8320  2.8906
  341TMC3    C7 5174   2.082   4.255   9.635 -0.1402  0.0981  0.1719
  341TMC3    C8 5175   1.694   4.203   9.922  0.3751 -0.2175  0.0145
  341TMC3    O1 5176   2.189   4.312   9.621 -0.4621 -0.2090  0.0650
  341TMC3    O2 5177   1.665   4.093   9.874  0.5169  0.7064 -0.4890
  342MPD2     C 5178   4.491   2.886   0.125 -0.0902 -0.6984  0.3363
  342MPD2    C1 5179   4.501   2.909  17.742 -0.9449  0.7583  0.0790
  342MPD2    C2 5180   4.569   3.022  17.704  0.0817  0.0502 -0.2902
  342MPD2    C3 5181   4.610   3.121   0.041 -0.0284 -0.9240 -0.2181
  342MPD2    C4 5182   4.608   3.086   0.178 -0.2138  0.9169 -0.0795
  342MPD2    C5 5183   4.548   2.973   0.218  0.4373 -0.3611  0.0526
  342MPD2     H 5184   4.582   3.033  17.597  0.5521  2.7445  0.0350
  342MPD2    H1 5185   4.663   3.151   0.246 -2.9985  2.3864  0.7651
  342MPD2    H2 5186   4.432   2.801   0.158 -3.8400  1.9847  0.5373
  342MPD2    H3 5187   4.548   2.946   0.323  1.2580 -0.2165  0.0971
  342MPD2     N 5188   4.659   3.251   0.001 -0.5160  0.0464  0.1610
  342MPD2    H5 5189   4.675   3.311   0.082 -3.5580  0.2545  0.6149
  342MPD2    N1 5190   4.438   2.831  17.636  0.3420  0.1514 -0.0146
  342MPD2    H7 5191   4.425   2.871  17.543 -0.5846 -2.1440 -0.8785
  343TMC3    C1 5192   4.374   2.646  17.516  0.2143 -0.1500 -0.4735
  343TMC3    C2 5193   4.422   2.700  17.393 -0.3841 -0.0493  0.1400
  343TMC3    C3 5194   4.398   2.631  17.279  0.1704 -0.2028  0.3056
  343TMC3    C4 5195   4.301   2.528  17.522 -0.1642 -0.7500 -0.4233
  343TMC3    C5 5196   4.280   2.463  17.402 -0.4595 -0.0073  0.7562
  343TMC3    C6 5197   4.319   2.520  17.278  0.0430  0.2391 -0.8942
  343TMC3     C 5198   4.412   2.701  17.648 -0.1038 -0.5938 -0.2818
  343TMC3     O 5199   4.412   2.628  17.745  0.5490 -0.4382  0.2203
  343TMC3     H 5200   4.511   2.762  17.397  0.6026 -1.5233  1.1444
  343TMC3    H1 5201   4.263   2.489  17.616 -0.2056  0.0832 -0.0971
  343TMC3    H2 5202   4.288   2.483  17.182  0.9589 -0.6818 -0.8430
  343TMC3    C7 5203   4.205   2.339  17.393  0.3206  1.0248 -0.2194
  343TMC3    C8 5204   4.468   2.669  17.160  0.2599  0.1157  0.7004
  343TMC3    O1 5205   4.147   2.327  17.283  0.5221 -0.2375 -0.1936
  343TMC3    O2 5206   4.498   2.788  17.140  0.2111 -0.0983 -0.1904
  344MPD2     C 5207   1.125   2.318  11.361  0.8924  0.7288 -0.0864
  344MPD2    C1 5208   1.016   2.348  11.285 -0.2235 -0.2736 -0.0816
  344MPD2    C2 5209   1.028   2.390  11.157  0.3553 -0.2891 -0.4997
  344MPD2    C3 5210   1.157   2.396  11.098  0.2665  0.7825  0.4220
  344MPD2    C4 5211   1.269   2.383  11.185 -0.6456 -0.0771 -0.5077
  344MPD2    C5 5212   1.251   2.335  11.314  0.0792  0.1025  1.8606
  344MPD2     H 5213   0.943   2.421  11.097  0.0492  0.6196  0.3893
  344MPD2    H1 5214   1.367   2.393  11.140 -0.4736 -2.8741 -0.7237
  344MPD2    H2 5215   1.113   2.298  11.467  0.3925  0.9111 -0.1079
  344MPD2    H3 5216   1.338   2.316  11.377 -0.1412  2.1389  2.7832
  344MPD2     N 5217   1.178   2.430  10.962 -0.3207  0.3529  0.0361
  344MPD2    H5 5218   1.266   2.475  10.940 -0.3126  0.1916 -0.2575
  344MPD2    N1 5219   0.884   2.335  11.338  0.4429 -0.2739  0.0521
  344MPD2    H7 5220   0.810   2.357  11.272  0.5813  2.4971  0.8246
  345TMC3    C1 5221   1.106   2.493  10.732  0.6690 -0.7856 -0.9408
  345TMC3    C2 5222   1.181   2.612  10.741  0.0668  0.8070  0.2480
  345TMC3    C3 5223   1.183   2.695  10.635  1.2691 -0.0935 -0.5955
  345TMC3    C4 5224   1.025   2.460  10.627  1.0085  0.2111  0.3793
  345TMC3    C5 5225   1.046   2.541  10.517  0.0291 -0.1123 -0.5810
  345TMC3    C6 5226   1.131   2.655  10.515 -0.0779  0.4726 -0.3435
  345TMC3     C 5227   1.084   2.425  10.863 -0.3704  0.5300 -0.8011
  345TMC3     O 5228   0.971   2.378  10.878  0.0050 -0.2364  0.0183
  345TMC3     H 5229   1.219   2.647  10.836 -0.0536  0.4184  0.4390
  345TMC3    H1 5230   0.960   2.374  10.637  0.1994  0.6169 -1.3322
  345TMC3    H2 5231   1.130   2.734  10.441 -0.8404  0.1792 -0.6451
  345TMC3    C7 5232   0.928   2.572  10.428  0.3785  0.9757  0.4716
  345TMC3    C8 5233   1.266   2.818  10.635 -0.4163 -0.0687 -0.1652
  345TMC3    O1 5234   0.943   2.640  10.329  0.1948 -0.4649  0.1003
  345TMC3    O2 5235   1.301   2.863  10.528 -0.5077  0.5430 -0.1975
  346MPD2     C 5236   0.758   3.897  13.461 -0.1852 -0.5652 -0.5697
  346MPD2    C1 5237   0.863   3.991  13.460 -0.5637 -0.1498  0.0606
  346MPD2    C2 5238   0.902   4.052  13.579  0.4975 -0.1673  0.6003
  346MPD2    C3 5239   0.833   4.022  13.694  0.7506  0.4709  0.7667
  346MPD2    C4 5240   0.727   3.938  13.696 -0.2895 -0.4938 -0.2236
  346MPD2    C5 5241   0.696   3.871  13.576  0.0397  0.5196  0.0037
  346MPD2     H 5242   0.995   4.109  13.577  0.2470  0.2471  0.8560
  346MPD2    H1 5243   0.674   3.914  13.787 -2.5560  4.0140 -0.3514
  346MPD2    H2 5244   0.725   3.853  13.368  2.5274 -0.3769 -1.5997
  346MPD2    H3 5245   0.619   3.795  13.583  0.4902 -0.0835 -1.5373
  346MPD2     N 5246   0.878   4.085  13.813  0.0445 -0.2232 -0.8797
  346MPD2    H5 5247   0.967   4.135  13.809  0.1195 -0.3551 -0.8668
  346MPD2    N1 5248   0.941   4.016  13.342 -0.2365  0.0763  0.4762
  346MPD2    H7 5249   1.025   4.071  13.348 -0.5337  0.5766  0.0782
  347TMC3    C1 5250   0.883   4.170  14.039 -0.1422  0.1947  0.4907
  347TMC3    C2 5251   1.022   4.174  14.035  0.3313  0.3506 -0.0293
  347TMC3    C3 5252   1.084   4.205  14.156 -0.0841 -0.5784 -0.3631
  347TMC3    C4 5253   0.812   4.189  14.160 -0.2465  0.6611 -0.3472
  347TMC3    C5 5254   0.883   4.232  14.269  0.0615  0.4908 -0.2417
  347TMC3    C6 5255   1.022   4.230  14.279 -0.2820  0.7988 -0.1649
  347TMC3     C 5256   0.808   4.103  13.928 -0.2219 -0.2263 -0.5075
  347TMC3     O 5257   0.695   4.068  13.952  0.1596 -0.0407  0.4250
  347TMC3     H 5258   1.079   4.134  13.952 -0.9491 -1.6193  0.0171
  347TMC3    H1 5259   0.704   4.184  14.157 -0.1436 -0.1213 -2.2806
  347TMC3    H2 5260   1.084   4.248  14.367 -0.5076  1.2701 -0.1011
  347TMC3    C7 5261   0.811   4.255  14.392 -0.0520 -0.3900 -0.7638
  347TMC3    C8 5262   1.226   4.190  14.156 -0.4121  0.6028  0.0908
  347TMC3    O1 5263   0.881   4.279  14.488 -0.5769  0.0719  0.5184
  347TMC3    O2 5264   1.282   4.127  14.246 -0.4505 -0.0626 -0.0408
  348MPD2     C 5265   4.286   4.122  11.870 -0.4139 -0.0745  0.0025
  348MPD2    C1 5266   4.225   4.078  11.753 -0.0904  0.6302 -0.0855
  348MPD2    C2 5267   4.232   4.153  11.634 -0.0805 -0.6273 -0.0642
  348MPD2    C3 5268   4.305   4.273  11.634 -0.1558 -0.7797 -0.0646
  348MPD2    C4 5269   4.364   4.315  11.753  0.2127 -0.8378 -0.2622
  348MPD2    C5 5270   4.363   4.237  11.870  0.0878 -0.0512 -0.4639
  348MPD2     H 5271   4.192   4.107  11.544 -0.5883  0.4766 -0.4093
  348MPD2    H1 5272   4.421   4.407  11.763 -0.5829 -0.3593 -0.1435
  348MPD2    H2 5273   4.282   4.078  11.969 -1.6661  1.8353  0.7790
  348MPD2    H3 5274   4.413   4.275  11.959  0.3233 -3.8869  1.0427
  348MPD2     N 5275   4.297   4.347  11.517 -0.3138 -0.2155  0.2348
  348MPD2    H5 5276   4.251   4.302  11.438 -0.8645  0.2805  0.2721
  348MPD2    N1 5277   4.167   3.952  11.758  0.5631  0.3395  0.0637
  348MPD2    H7 5278   4.132   3.920  11.668  0.6597  0.0745  0.1202
  349TMC3    C1 5279   4.142   3.727  11.828 -0.4829 -0.9622  0.3467
  349TMC3    C2 5280   4.208   3.627  11.897 -0.0517 -0.0188  0.2439
  349TMC3    C3 5281   4.144   3.508  11.902  0.0314 -0.8384  0.3855
  349TMC3    C4 5282   4.026   3.709  11.763  0.2260  0.8162 -0.1878
  349TMC3    C5 5283   3.968   3.583  11.765 -0.1960 -0.1902 -0.0719
  349TMC3    C6 5284   4.025   3.481  11.835 -0.0842 -0.2170  0.4742
  349TMC3     C 5285   4.185   3.859  11.858  0.6210 -0.1157 -0.1873
  349TMC3     O 5286   4.254   3.855  11.957  0.2656  0.3077  0.7816
  349TMC3     H 5287   4.302   3.641  11.949 -0.7511 -0.2843  1.5796
  349TMC3    H1 5288   3.980   3.800  11.725  0.7509  0.0804 -2.5837
  349TMC3    H2 5289   3.975   3.385  11.823  1.7991 -0.8021 -2.8608
  349TMC3    C7 5290   3.857   3.564  11.675 -0.4949 -0.4203  0.4648
  349TMC3    C8 5291   4.214   3.392  11.955 -0.0574  0.3084  0.2256
  349TMC3    O1 5292   3.777   3.485  11.712  0.1671  0.2947  0.3030
  349TMC3    O2 5293   4.333   3.391  11.938 -0.3921 -0.1713 -0.4896
  350MPD2     C 5294   3.517   2.657  10.456 -0.7154 -0.3595 -0.3855
  350MPD2    C1 5295   3.460   2.530  10.445 -0.2560  0.8214 -0.2857
  350MPD2    C2 5296   3.454   2.454  10.556 -0.3827  0.1085  0.3669
  350MPD2    C3 5297   3.502   2.498  10.679  0.5111 -0.0430  0.1840
  350MPD2    C4 5298   3.540   2.631  10.687 -0.3176  0.5897  0.8089
  350MPD2    C5 5299   3.540   2.709  10.581 -0.4763  0.3800  0.0291
  350MPD2     H 5300   3.413   2.354  10.548  2.2624 -1.0894  1.8383
  350MPD2    H1 5301   3.577   2.677  10.778 -0.0499 -1.9187  1.9790
  350MPD2    H2 5302   3.532   2.724  10.373 -0.2523 -0.8177 -0.6686
  350MPD2    H3 5303   3.564   2.813  10.594 -0.6236  0.4117  0.0523
  350MPD2     N 5304   3.500   2.414  10.794  0.5149 -0.2436 -0.2536
  350MPD2    H5 5305   3.445   2.329  10.797  1.4705 -0.8814 -0.7750
  350MPD2    N1 5306   3.409   2.470  10.326 -0.1435  0.3445  0.2670
  350MPD2    H7 5307   3.358   2.384  10.343 -1.2449  0.7148 -1.2459
  351TMC3    C1 5308   3.356   2.454  10.088 -0.1213 -0.3014 -0.8005
  351TMC3    C2 5309   3.344   2.315  10.098 -0.2329  0.0085  0.1430
  351TMC3    C3 5310   3.289   2.248   9.995  0.3648 -0.2252  0.3101
  351TMC3    C4 5311   3.327   2.523   9.975  0.3494 -0.3070 -0.4676
  351TMC3    C5 5312   3.280   2.453   9.873  0.3075  0.2008 -0.2453
  351TMC3    C6 5313   3.265   2.315   9.877  0.0032  0.0308 -0.0716
  351TMC3     C 5314   3.418   2.526  10.201  0.2876  0.6233 -0.4187
  351TMC3     O 5315   3.457   2.640  10.176 -0.2809  0.1438  0.1480
  351TMC3     H 5316   3.369   2.266  10.192  0.9660  0.9639  0.3166
  351TMC3    H1 5317   3.356   2.626   9.960 -1.2448  0.4548  1.5653
  351TMC3    H2 5318   3.216   2.264   9.794 -0.3107  2.5314 -1.4280
  351TMC3    C7 5319   3.285   2.529   9.745  0.3876 -0.1811 -0.2356
  351TMC3    C8 5320   3.331   2.110   9.960  0.4939  0.7284 -1.2915
  351TMC3    O1 5321   3.269   2.650   9.753  0.0213  0.3636  0.6434
  351TMC3    O2 5322   3.349   2.084   9.843 -0.3630  0.1984  0.2615
  352MPD2     C 5323   0.807   4.572   0.987 -0.6320  0.0513  0.1370
  352MPD2    C1 5324   0.814   4.477   0.892 -0.4620  0.1511 -0.0331
  352MPD2    C2 5325   0.773   4.346   0.926 -0.0503  0.0705 -0.8956
  352MPD2    C3 5326   0.752   4.314   1.062 -0.2191  0.1652  0.6844
  352MPD2    C4 5327   0.755   4.408   1.155  0.9850 -0.2691 -0.0930
  352MPD2    C5 5328   0.780   4.537   1.119 -0.3205 -0.4994  0.5554
  352MPD2     H 5329   0.756   4.279   0.843  0.6173 -2.1433  0.7726
  352MPD2    H1 5330   0.744   4.385   1.260  0.1995  0.0030 -0.1192
  352MPD2    H2 5331   0.821   4.679   0.971  0.5801 -0.1961 -0.4430
  352MPD2    H3 5332   0.794   4.612   1.196 -1.3200 -2.1116  2.3225
  352MPD2     N 5333   0.713   4.184   1.101  0.1287  0.6699  0.1628
  352MPD2    H5 5334   0.735   4.160   1.197 -0.1588  0.2692  0.1262
  352MPD2    N1 5335   0.848   4.524   0.763  0.9640 -0.6885  0.4941
  352MPD2    H7 5336   0.847   4.624   0.747 -0.9788 -0.8461 -0.4207
  353TMC3    C1 5337   0.649   3.958   1.083  0.3459 -0.3579  0.2320
  353TMC3    C2 5338   0.746   3.901   1.156 -0.2363 -0.2250 -0.2547
  353TMC3    C3 5339   0.779   3.768   1.139 -0.4041 -0.8205 -0.2621
  353TMC3    C4 5340   0.569   3.874   1.003  0.7868 -0.6160  0.2680
  353TMC3    C5 5341   0.598   3.736   0.998 -0.4992 -0.6002  0.5965
  353TMC3    C6 5342   0.704   3.684   1.063  0.5037 -0.0999  0.3938
  353TMC3     C 5343   0.669   4.087   1.017 -0.0813 -0.2111 -0.7769
  353TMC3     O 5344   0.621   4.099   0.905  0.2898  0.2096  0.4198
  353TMC3     H 5345   0.818   3.962   1.208 -0.8733  0.1837  0.1480
  353TMC3    H1 5346   0.497   3.913   0.933 -0.3664 -0.7231  1.3926
  353TMC3    H2 5347   0.732   3.581   1.044  1.2191 -0.1553  1.7528
  353TMC3    C7 5348   0.539   3.660   0.889  0.6394 -0.8767  0.4700
  353TMC3    C8 5349   0.911   3.729   1.187  0.1387  0.5595  0.3922
  353TMC3    O1 5350   0.604   3.560   0.853 -0.3941 -0.4953 -0.3544
  353TMC3    O2 5351   0.959   3.803   1.272  0.8307 -0.0180  0.3683
  354TMC3    C1 5352   3.893   4.621  13.281 -0.1758 -0.1253  0.2390
  354TMC3    C2 5353   3.811   4.698  13.206 -0.4488  0.6049  0.2316
  354TMC3    C3 5354   3.866   0.036  13.104 -0.7256 -0.2012  0.0491
  354TMC3    C4 5355   4.024   4.613  13.255 -0.1973  0.4702  0.4694
  354TMC3    C5 5356   4.077   4.677  13.143  0.6884  1.0143  0.0104
  354TMC3    C6 5357   3.996   0.021  13.068 -0.7183  0.2415  0.6757
  354TMC3     C 5358   3.835   4.583  13.410 -0.1365 -0.6503  0.3498
  354TMC3     O 5359   3.720   4.618  13.432  0.0969  0.2320 -0.2348
  354TMC3     H 5360   3.705   4.697  13.227 -0.0364 -0.8976  2.2131
  354TMC3    H1 5361   4.090   4.562  13.325  0.2575  1.8638  1.0552
  354TMC3    H2 5362   4.032   0.058  12.972 -0.5010  1.0990  1.0899
  354TMC3    C7 5363   4.215   4.662  13.117  0.4406  0.5319  0.4564
  354TMC3    C8 5364   3.792   0.147  13.049  0.1731  0.5597  0.7671
  354TMC3    O1 5365   4.268   4.561  13.160 -0.2688 -0.1704  0.2079
  354TMC3    O2 5366   3.836   0.192  12.942 -0.3098  0.3624  0.2244
  355MPD2     C 5367   3.575   1.215  11.692 -0.9475  0.0053  1.6959
  355MPD2    C1 5368   3.654   1.300  11.627 -0.2729  0.5876 -0.6795
  355MPD2    C2 5369   3.783   1.317  11.663  0.5308 -0.2208  0.2123
  355MPD2    C3 5370   3.826   1.243  11.773  0.2317 -0.6591  0.1297
  355MPD2    C4 5371   3.752   1.153  11.837 -0.0350  0.1971 -0.6080
  355MPD2    C5 5372   3.622   1.134  11.791 -0.0788 -0.5730  0.0354
  355MPD2     H 5373   3.856   1.372  11.605  0.3209  0.5104  0.6434
  355MPD2    H1 5374   3.788   1.086  11.915 -0.7748 -0.5098 -0.8662
  355MPD2    H2 5375   3.468   1.211  11.672 -0.6779  0.0969  0.2777
  355MPD2    H3 5376   3.561   1.051  11.826 -0.5278  0.2169  1.1249
  355MPD2     N 5377   3.959   1.249  11.816 -0.6985  0.1916  0.3309
  355MPD2    H5 5378   3.993   1.184  11.886  1.9497  0.8677 -0.3112
  355MPD2    N1 5379   3.588   1.361  11.514 -0.1500 -0.1934 -0.1472
  355MPD2    H7 5380   3.495   1.326  11.493  0.1625 -1.5300  0.6510
  356TMC3    C1 5381   4.191   1.304  11.813  0.1496 -0.2011 -0.3512
  356TMC3    C2 5382   4.298   1.357  11.744 -0.5074 -0.2522 -0.2610
  356TMC3    C3 5383   4.408   1.396  11.811 -0.1173 -0.2178 -0.0010
  356TMC3    C4 5384   4.192   1.288  11.953  0.2213 -0.2221 -1.3629
  356TMC3    C5 5385   4.308   1.333  12.016  0.1878 -0.5294 -0.1484
  356TMC3    C6 5386   4.421   1.384  11.946  0.3185 -0.0441 -0.9521
  356TMC3     C 5387   4.061   1.315  11.745 -0.3881 -0.3344  0.1707
  356TMC3     O 5388   4.068   1.347  11.628 -0.2472 -0.1147  0.4229
  356TMC3     H 5389   4.294   1.388  11.641 -2.1120  0.4738  0.0286
  356TMC3    H1 5390   4.108   1.249  12.010  1.1052  2.2329  1.6390
  356TMC3    H2 5391   4.501   1.412  12.013 -1.8696  3.1313  0.3442
  356TMC3    C7 5392   4.302   1.333  12.168 -0.1579  0.7517  0.2208
  356TMC3    C8 5393   4.503   1.462  11.728  0.9162 -0.0526 -0.2992
  356TMC3    O1 5394   4.236   1.247  12.222  0.9566  0.2809 -0.4896
  356TMC3    O2 5395   4.509   1.428  11.611  0.1575 -0.2205 -0.7226
  357MPD2     C 5396   2.793   0.837   0.864  0.0347 -0.6031 -0.2791
  357MPD2    C1 5397   2.860   0.869   0.975 -0.1216  0.4390 -0.2787
  357MPD2    C2 5398   2.793   0.860   1.096 -0.1742  0.3043 -0.4632
  357MPD2    C3 5399   2.663   0.833   1.101 -0.1127 -0.0001  0.0259
  357MPD2    C4 5400   2.593   0.813   0.986  0.7164  0.0308  0.1098
  357MPD2    C5 5401   2.664   0.811   0.870 -0.4115 -0.2916  0.2467
  357MPD2     H 5402   2.852   0.891   1.181  0.5889  0.3005 -0.9855
  357MPD2    H1 5403   2.489   0.784   0.992  0.9858 -0.6439  1.8089
  357MPD2    H2 5404   2.840   0.824   0.767 -0.8103 -2.8592 -0.3713
  357MPD2    H3 5405   2.596   0.786   0.790  0.3263  1.6060 -1.0026
  357MPD2     N 5406   2.594   0.831   1.225 -0.7619  0.1936 -0.4192
  357MPD2    H5 5407   2.493   0.824   1.229 -0.5180 -1.9549  1.7469
  357MPD2    N1 5408   2.992   0.908   0.965  0.3743 -0.4853 -0.0270
  357MPD2    H7 5409   3.024   0.922   0.869  0.9883 -0.2974  0.2087
  358TMC3    C1 5410   3.214   0.969   1.011 -0.0088  0.0610  0.0199
  358TMC3    C2 5411   3.230   1.002   0.879  0.3646  0.6376  0.2417
  358TMC3    C3 5412   3.361   1.006   0.830  0.4876  0.1526 -0.5065
  358TMC3    C4 5413   3.325   0.940   1.087  0.2114  0.5144  0.1986
  358TMC3    C5 5414   3.452   0.929   1.027  0.5029  0.1228 -0.2922
  358TMC3    C6 5415   3.471   0.953   0.896  0.8962 -0.2428 -0.1780
  358TMC3     C 5416   3.084   0.938   1.065 -0.1187  0.4260 -0.1487
  358TMC3     O 5417   3.077   0.913   1.182 -0.5690 -0.1413  0.5283
  358TMC3     H 5418   3.154   1.056   0.823  0.4039 -0.6241 -1.0304
  358TMC3    H1 5419   3.310   0.911   1.190 -1.6673 -0.2331 -0.2873
  358TMC3    H2 5420   3.571   0.985   0.868  0.4976  2.4164  1.4520
  358TMC3    C7 5421   3.573   0.887   1.102  0.2772 -0.1159  0.3447
  358TMC3    C8 5422   3.377   0.982   0.684 -0.1720 -0.1351  0.1858
  358TMC3    O1 5423   3.677   0.875   1.041 -0.4505 -0.6449  0.3620
  358TMC3    O2 5424   3.268   0.966   0.624 -0.0431 -0.3365  1.1215
  359MPD2     C 5425   3.834   4.098  12.192  0.3098  0.5476 -0.1960
  359MPD2    C1 5426   3.770   4.180  12.097  0.0459 -0.2066 -0.1448
  359MPD2    C2 5427   3.631   4.164  12.080 -0.0573  0.7099 -0.0683
  359MPD2    C3 5428   3.556   4.067  12.151  0.4700 -0.3036  0.4606
  359MPD2    C4 5429   3.625   3.979  12.226 -0.0509 -0.5511  0.0074
  359MPD2    C5 5430   3.761   3.993  12.248 -0.2001  0.1348 -0.3228
  359MPD2     H 5431   3.582   4.233  12.013  0.6894  2.3409  1.0692
  359MPD2    H1 5432   3.561   3.900  12.265  1.2843 -1.4644  0.3525
  359MPD2    H2 5433   3.936   4.106  12.226 -0.1000 -2.7180  1.8182
  359MPD2    H3 5434   3.810   3.921  12.313  0.0932  0.8898  0.3014
  359MPD2     N 5435   3.418   4.066  12.138 -0.5323 -0.3868  0.8451
  359MPD2    H5 5436   3.377   3.989  12.190 -2.8452 -0.0574 -0.4665
  359MPD2    N1 5437   3.835   4.287  12.026  0.0739 -0.1150 -0.2264
  359MPD2    H7 5438   3.786   4.343  11.957  0.8546  1.0320  0.1479
  360TMC3    C1 5439   3.997   4.410  11.929  0.3251  0.2595 -0.3101
  360TMC3    C2 5440   4.091   4.508  11.952  0.0040 -0.2514  0.5188
  360TMC3    C3 5441   4.139   4.576  11.850 -0.1204 -0.7683  0.0878
  360TMC3    C4 5442   3.947   4.392  11.801 -0.1423 -0.0221  0.0102
  360TMC3    C5 5443   3.990   4.478  11.696 -0.5742 -0.2142  0.1523
  360TMC3    C6 5444   4.095   4.569  11.717  0.2824 -0.2545  0.0386
  360TMC3     C 5445   3.968   4.306  12.026  0.6595 -0.2231  0.4775
  360TMC3     O 5446   4.055   4.255  12.094  0.2086 -0.2896  0.1132
  360TMC3     H 5447   4.156   4.497  12.038  2.2585  0.1072 -1.1337
  360TMC3    H1 5448   3.880   4.310  11.778 -0.2895  0.2404 -0.5074
  360TMC3    H2 5449   4.137   4.642  11.649  0.4172  0.2692  0.6808
  360TMC3    C7 5450   3.941   4.452  11.559  0.2135 -0.2132  0.2970
  360TMC3    C8 5451   4.218   4.689  11.890 -0.0715 -0.7209  0.2694
  360TMC3    O1 5452   3.883   4.348  11.538 -0.5382  0.3476 -0.0518
  360TMC3    O2 5453   4.191   4.737  12.000  0.1773  0.2113 -0.5111
  361MPD2     C 5454   0.599   3.270  16.691  0.1248 -0.2168  0.0753
  361MPD2    C1 5455   0.634   3.381  16.767  0.3572 -0.3528  0.2288
  361MPD2    C2 5456   0.720   3.359  16.871  0.8166 -0.7385  0.3904
  361MPD2    C3 5457   0.774   3.239  16.907 -0.5521 -0.2236 -0.6196
  361MPD2    C4 5458   0.764   3.131  16.818  0.3122 -0.3514  0.2697
  361MPD2    C5 5459   0.671   3.152  16.711 -0.7316 -0.2344  0.2945
  361MPD2     H 5460   0.758   3.444  16.927  0.6917 -0.1444 -0.4283
  361MPD2    H1 5461   0.827   3.043  16.824  0.4035 -0.3935 -1.4913
  361MPD2    H2 5462   0.526   3.270  16.611  1.3874 -0.7806 -1.0831
  361MPD2    H3 5463   0.655   3.075  16.636  0.2008 -2.0938  2.0072
  361MPD2     N 5464   0.860   3.229  17.017 -0.3324 -0.1645  0.0508
  361MPD2    H5 5465   0.909   3.316  17.034 -0.3029  0.1812 -1.9116
  361MPD2    N1 5466   0.585   3.512  16.736  0.0712 -0.4028  0.3627
  361MPD2    H7 5467   0.618   3.587  16.795 -2.9609  1.2126 -0.0363
  362TMC3    C1 5468   0.471   3.686  16.616  0.0609  0.6455  0.3860
  362TMC3    C2 5469   0.466   3.755  16.735 -0.4645  0.2867  0.0316
  362TMC3    C3 5470   0.384   3.858  16.751 -0.2533 -0.1259 -0.1619
  362TMC3    C4 5471   0.386   3.726  16.514 -0.1473 -0.2660  0.0568
  362TMC3    C5 5472   0.321   3.842  16.530 -0.2858 -0.0130  0.4930
  362TMC3    C6 5473   0.308   3.898  16.651  0.0485  0.3907  0.0423
  362TMC3     C 5474   0.514   3.548  16.620 -0.2827 -0.0747 -0.3494
  362TMC3     O 5475   0.456   3.483  16.532  0.6403  0.5630 -0.2205
  362TMC3     H 5476   0.523   3.716  16.818 -1.7387  0.4147  0.9769
  362TMC3    H1 5477   0.389   3.670  16.421 -2.3807 -2.8036  1.5127
  362TMC3    H2 5478   0.250   3.990  16.651 -1.5653 -0.6178 -1.9556
  362TMC3    C7 5479   0.280   3.925  16.418  0.7944  0.1209  0.2765
  362TMC3    C8 5480   0.419   3.954  16.853  0.1053 -0.3023  0.3099
  362TMC3    O1 5481   0.243   4.039  16.443  0.1241  0.1170 -0.0053
  362TMC3    O2 5482   0.532   3.954  16.900  0.1547 -0.7124  0.0599
  363TMC3    C1 5483   3.910   1.722   9.556 -0.8943 -0.3545 -0.0373
  363TMC3    C2 5484   4.011   1.683   9.638  0.7890  0.0295  0.2391
  363TMC3    C3 5485   4.025   1.752   9.756  0.1315  0.3602  0.0331
  363TMC3    C4 5486   3.822   1.814   9.591  0.2512  0.9363 -0.7585
  363TMC3    C5 5487   3.838   1.875   9.712  0.4859 -0.7137 -1.0628
  363TMC3    C6 5488   3.936   1.849   9.798 -1.1824  0.3360 -0.4003
  363TMC3     C 5489   3.900   1.663   9.421 -0.1498 -0.1676 -0.2959
  363TMC3     O 5490   3.978   1.570   9.399 -0.9316  0.3093 -0.0435
  363TMC3     H 5491   4.066   1.590   9.622  0.4168 -0.2681  0.7288
  363TMC3    H1 5492   3.739   1.846   9.529  0.7287 -1.1162 -2.4532
  363TMC3    H2 5493   3.955   1.901   9.891  0.9814 -2.8531  0.9299
  363TMC3    C7 5494   3.792   2.012   9.712 -0.3184  0.3592 -0.5628
  363TMC3    C8 5495   4.129   1.718   9.853 -0.5749 -0.1597  0.2612
  363TMC3    O1 5496   3.805   2.077   9.611 -0.2995 -0.7153 -0.3254
  363TMC3    O2 5497   4.123   1.761   9.968  0.6753 -0.5701 -0.7302
  364MPD2     C 5498   2.903   1.015  10.659 -0.3988 -0.3528  0.0373
  364MPD2    C1 5499   2.975   1.011  10.543 -0.2745  0.5266 -0.1801
  364MPD2    C2 5500   3.031   0.890  10.504 -0.3434  0.3853  0.0597
  364MPD2    C3 5501   3.020   0.777  10.582 -0.0185 -0.4434 -0.3861
  364MPD2    C4 5502   2.955   0.786  10.701  0.3850 -0.0123 -0.0199
  364MPD2    C5 5503   2.891   0.904  10.739  0.0201  0.4355  0.6073
  364MPD2     H 5504   3.087   0.885  10.412 -0.5793 -0.6119 -0.0273
  364MPD2    H1 5505   2.953   0.701  10.768  0.6510 -0.3181 -0.3933
  364MPD2    H2 5506   2.858   1.108  10.691  0.4500  0.3833 -0.9146
  364MPD2    H3 5507   2.825   0.901  10.825 -2.0264 -0.8698 -0.9822
  364MPD2     N 5508   3.063   0.640  10.546 -0.0903  0.4184  0.1275
  364MPD2    H5 5509   3.026   0.570  10.610 -2.2801  0.4500 -1.1311
  364MPD2    N1 5510   2.990   1.129  10.473 -0.4914 -0.3852 -0.4409
  364MPD2    H7 5511   2.968   1.212  10.528 -0.8967 -1.6356  1.2724
  365TMC3    C1 5512   3.074   1.294  10.316 -0.2118 -0.7731 -0.0405
  365TMC3    C2 5513   3.100   1.319  10.187  0.2826  0.4101  0.1623
  365TMC3    C3 5514   3.117   1.450  10.152  0.0592  0.0485  0.2174
  365TMC3    C4 5515   3.061   1.389  10.408 -0.1128  0.2485  0.6823
  365TMC3    C5 5516   3.084   1.522  10.369 -0.2332  0.3809 -0.2590
  365TMC3    C6 5517   3.103   1.557  10.237  0.6254  0.0517 -0.0857
  365TMC3     C 5518   3.042   1.153  10.348  0.3747 -0.1925 -0.8424
  365TMC3     O 5519   3.093   1.072  10.271  0.1930 -0.1612 -0.0878
  365TMC3     H 5520   3.114   1.241  10.114 -1.6540 -1.6233  1.9280
  365TMC3    H1 5521   3.033   1.363  10.510 -0.6115  1.1380  0.7703
  365TMC3    H2 5522   3.114   1.659  10.201  2.3298  0.4708  1.6032
  365TMC3    C7 5523   3.064   1.633  10.459 -0.4840 -0.1085  0.3699
  365TMC3    C8 5524   3.136   1.482  10.012  0.6947  0.7233 -0.3536
  365TMC3    O1 5525   3.074   1.746  10.411 -0.2635  0.2823 -0.1270
  365TMC3    O2 5526   3.069   1.572   9.970  0.0816 -0.0017  0.9198
  366MPD2     C 5527   0.964   1.592  14.870 -0.3259 -0.3659 -0.2506
  366MPD2    C1 5528   1.048   1.687  14.930 -0.1413 -0.5769  0.7246
  366MPD2    C2 5529   1.155   1.636  14.994 -0.2727  0.3228  0.1032
  366MPD2    C3 5530   1.180   1.504  15.018  0.2475  0.0711  0.5036
  366MPD2    C4 5531   1.094   1.407  14.959  0.6292 -0.3558 -0.7681
  366MPD2    C5 5532   0.983   1.456  14.896  0.1187 -0.3723 -0.5508
  366MPD2     H 5533   1.219   1.706  15.048 -1.6584  0.5773  1.4041
  366MPD2    H1 5534   1.108   1.300  14.970  0.2000 -0.0549  2.5686
  366MPD2    H2 5535   0.872   1.621  14.821 -0.0057  1.3005  0.1539
  366MPD2    H3 5536   0.909   1.390  14.855  0.3112 -0.9829  0.0870
  366MPD2     N 5537   1.296   1.479  15.100 -0.3448  0.0552 -0.2426
  366MPD2    H5 5538   1.331   1.564  15.143 -2.3075  1.7288 -1.8765
  366MPD2    N1 5539   1.033   1.829  14.919  0.0697  0.3375  0.1835
  366MPD2    H7 5540   1.115   1.880  14.951 -1.0462  1.1272  1.7948
  367TMC3    C1 5541   0.921   2.028  14.893  0.3912  0.1633  0.2331
  367TMC3    C2 5542   1.026   2.085  14.962 -0.5554 -0.3908 -0.2880
  367TMC3    C3 5543   1.009   2.212  14.999  0.3195 -0.0540 -0.1006
  367TMC3    C4 5544   0.803   2.083  14.854  0.1318 -0.3151 -1.2242
  367TMC3    C5 5545   0.794   2.213  14.882 -0.6310  0.6905  0.4340
  367TMC3    C6 5546   0.890   2.269  14.966 -0.4929 -0.0169 -0.1983
  367TMC3     C 5547   0.921   1.890  14.879 -0.1337  0.2162 -0.1870
  367TMC3     O 5548   0.821   1.835  14.828 -0.7450  0.4779  0.1602
  367TMC3     H 5549   1.116   2.031  14.989 -1.4682 -0.6891  2.1790
  367TMC3    H1 5550   0.722   2.034  14.801  0.4404 -0.9832 -1.0742
  367TMC3    H2 5551   0.870   2.373  14.991 -1.4994 -0.0490 -0.8653
  367TMC3    C7 5552   0.724   2.303  14.794  0.3361 -0.2416  0.3833
  367TMC3    C8 5553   1.078   2.265  15.116  0.4160 -0.5111  0.4272
  367TMC3    O1 5554   0.747   2.424  14.814  0.2934 -0.5296  0.1918
  367TMC3    O2 5555   1.136   2.181  15.181 -0.2615 -0.4227 -0.2012
  368MPD2     C 5556   2.953   3.630  13.350 -0.5875 -0.0008 -0.6947
  368MPD2    C1 5557   2.985   3.740  13.276  0.1299 -0.5641 -0.2558
  368MPD2    C2 5558   3.117   3.794  13.263  0.1229  0.6380 -0.0747
  368MPD2    C3 5559   3.222   3.727  13.324  0.3856  0.1467 -0.0619
  368MPD2    C4 5560   3.187   3.612  13.384  0.1783  0.0120 -0.2269
  368MPD2    C5 5561   3.062   3.563  13.403 -0.0689 -0.1405  0.2309
  368MPD2     H 5562   3.131   3.884  13.203 -0.5923  0.0793 -1.0779
  368MPD2    H1 5563   3.273   3.560  13.425 -0.6424  0.7976  2.4964
  368MPD2    H2 5564   2.852   3.595  13.366 -0.1376 -0.7868  0.4345
  368MPD2    H3 5565   3.048   3.477  13.469 -1.6818  0.4179  0.6270
  368MPD2     N 5566   3.356   3.763  13.310  0.3097  0.5310  0.0731
  368MPD2    H5 5567   3.428   3.692  13.310  0.0202  0.2315 -0.6325
  368MPD2    N1 5568   2.873   3.792  13.211 -0.3671  0.3090  0.0373
  368MPD2    H7 5569   2.784   3.756  13.242  1.2748 -0.9584  3.3257
  369TMC3    C1 5570   2.736   3.958  13.101  0.3240 -0.3486 -0.3577
  369TMC3    C2 5571   2.733   4.057  13.000 -0.7241 -0.8801 -0.1899
  369TMC3    C3 5572   2.615   4.084  12.931 -0.2001  0.4353 -0.0243
  369TMC3    C4 5573   2.619   3.901  13.141 -0.2519  0.3028  0.0504
  369TMC3    C5 5574   2.504   3.936  13.072  0.9814  0.6981  0.8188
  369TMC3    C6 5575   2.497   4.025  12.967  0.4279 -0.0496 -1.0966
  369TMC3     C 5576   2.865   3.896  13.121  0.4667  0.1963 -0.0280
  369TMC3     O 5577   2.962   3.950  13.071  0.2382  0.1821  0.2393
  369TMC3     H 5578   2.827   4.104  12.974 -1.5497  0.9816  0.1706
  369TMC3    H1 5579   2.618   3.829  13.222 -1.8625 -0.7108 -0.8661
  369TMC3    H2 5580   2.405   4.055  12.919 -0.9662 -1.8593  0.4257
  369TMC3    C7 5581   2.377   3.869  13.109 -0.6253 -0.1858 -0.0997
  369TMC3    C8 5582   2.604   4.174  12.818 -0.0429 -0.1592 -0.7668
  369TMC3    O1 5583   2.375   3.802  13.213  0.5881  0.2722 -0.0748
  369TMC3    O2 5584   2.507   4.167  12.745  0.0432  0.3777  0.0417
  370TMC3    C1 5585   2.063   4.399  16.141  1.1961 -0.4557 -0.0234
  370TMC3    C2 5586   1.972   4.361  16.229 -0.7536  0.3522 -0.2609
  370TMC3    C3 5587   1.906   4.243  16.206 -0.5624  1.2888 -0.2511
  370TMC3    C4 5588   2.089   4.335  16.024  0.4437  0.1487  0.5265
  370TMC3    C5 5589   2.014   4.224  15.995  0.5671  0.3286 -0.3281
  370TMC3    C6 5590   1.938   4.168  16.094  0.4852  0.2655  0.4664
  370TMC3     C 5591   2.152   4.500  16.196 -0.1080  0.3093  0.4069
  370TMC3     O 5592   2.136   4.532  16.311  0.4741  0.5702 -0.2330
  370TMC3     H 5593   1.970   4.393  16.332  1.6122  0.2973 -0.2199
  370TMC3    H1 5594   2.149   4.374  15.942 -2.2129  2.0366 -0.5345
  370TMC3    H2 5595   1.884   4.074  16.082 -1.1314  0.7379  4.1883
  370TMC3    C7 5596   2.071   4.144  15.883  0.3861  0.0367  0.2527
  370TMC3    C8 5597   1.834   4.173  16.307  0.2100  0.0712 -0.2101
  370TMC3    O1 5598   2.100   4.201  15.780  0.1444  0.1233 -0.4500
  370TMC3    O2 5599   1.841   4.050  16.314 -0.3076  0.8115  0.1079
  371TMC3    C1 5600   2.979   2.577  15.389 -0.1592 -0.6857  0.1650
  371TMC3    C2 5601   2.913   2.578  15.511 -0.0293 -0.2930  0.0454
  371TMC3    C3 5602   2.913   2.691  15.584  0.2875 -0.0984 -0.0900
  371TMC3    C4 5603   3.038   2.694  15.338 -0.4960 -0.4249  0.1220
  371TMC3    C5 5604   3.042   2.805  15.421  0.0303  0.0734  0.3710
  371TMC3    C6 5605   2.979   2.806  15.543  0.2763  0.5566 -0.2951
  371TMC3     C 5606   2.996   2.457  15.308  0.1019  0.5147 -0.3759
  371TMC3     O 5607   3.046   2.468  15.195  0.3957 -0.6228  0.7141
  371TMC3     H 5608   2.859   2.491  15.545 -0.6766  0.1688  0.2157
  371TMC3    H1 5609   3.076   2.704  15.237  0.6030  0.0370  0.5708
  371TMC3    H2 5610   2.970   2.899  15.597 -2.9162  0.4075 -0.5626
  371TMC3    C7 5611   3.137   2.910  15.394 -0.3454  1.2005 -0.8586
  371TMC3    C8 5612   2.848   2.679  15.717 -0.0619  0.2979  0.4433
  371TMC3    O1 5613   3.121   3.018  15.454 -0.0945 -0.2681 -0.5977
  371TMC3    O2 5614   2.848   2.566  15.761 -0.3725 -0.0863  0.4982
  372MPD2     C 5615   2.569   3.714  13.633  0.4371 -0.0147  0.1975
  372MPD2    C1 5616   2.697   3.710  13.693  0.2745  0.5229  0.2397
  372MPD2    C2 5617   2.712   3.615  13.797  0.0332 -0.5808  0.2507
  372MPD2    C3 5618   2.629   3.513  13.823 -0.8226  0.4488  0.2490
  372MPD2    C4 5619   2.502   3.523  13.764 -0.9523  0.3313  0.5299
  372MPD2    C5 5620   2.475   3.622  13.670  0.0248 -0.0815 -0.0916
  372MPD2     H 5621   2.805   3.606  13.853 -0.5106 -0.2854  1.1920
  372MPD2    H1 5622   2.421   3.452  13.780 -0.1448 -0.1944  2.2410
  372MPD2    H2 5623   2.546   3.793  13.562  2.1868  1.3093  1.0723
  372MPD2    H3 5624   2.378   3.626  13.623  0.2938  0.1195 -0.6348
  372MPD2     N 5625   2.669   3.413  13.911  0.0337  0.0523  0.1727
  372MPD2    H5 5626   2.762   3.418  13.952 -0.9907 -1.4780  2.6961
  372MPD2    N1 5627   2.801   3.801  13.659  0.3085  0.2994  0.2928
  372MPD2    H7 5628   2.888   3.790  13.710  0.6178 -1.5918 -0.6317
  373TMC3    C1 5629   2.636   3.232  14.052  0.4195  0.7126 -0.5686
  373TMC3    C2 5630   2.604   3.243  14.180  0.2738  0.3534 -0.0968
  373TMC3    C3 5631   2.677   3.173  14.277  0.3464 -0.6333 -0.0973
  373TMC3    C4 5632   2.746   3.164  14.009 -0.6224 -0.2713  0.5306
  373TMC3    C5 5633   2.817   3.088  14.100 -0.1205 -0.0732  0.2960
  373TMC3    C6 5634   2.782   3.094  14.236  0.8314  0.3043  0.6421
  373TMC3     C 5635   2.573   3.326  13.967 -0.0958  0.1934  0.0521
  373TMC3     O 5636   2.452   3.322  13.963  0.0253 -0.6469  0.1486
  373TMC3     H 5637   2.511   3.291  14.209  1.6726  2.8012  0.3129
  373TMC3    H1 5638   2.760   3.151  13.903 -1.3941  0.0083  0.3930
  373TMC3    H2 5639   2.839   3.042  14.313 -0.0886  2.3060  2.6767
  373TMC3    C7 5640   2.903   2.985  14.045  0.6364 -0.3044  0.0856
  373TMC3    C8 5641   2.713   3.251  14.396 -0.3070 -0.4302  0.3955
  373TMC3    O1 5642   2.898   2.971  13.924  0.1684 -0.1031  0.1579
  373TMC3    O2 5643   2.834   3.256  14.415 -0.6341  0.2545 -0.4295
  374TMC3    C1 5644   3.107   3.839   9.819 -0.6741 -0.0235  0.7577
  374TMC3    C2 5645   3.200   3.938   9.788  0.3454  0.4669 -0.1229
  374TMC3    C3 5646   3.224   3.965   9.657  0.3224  1.0261  0.8480
  374TMC3    C4 5647   3.039   3.770   9.727 -0.0546 -0.1470 -0.1880
  374TMC3    C5 5648   3.069   3.797   9.595 -0.8722  0.1095 -0.2019
  374TMC3    C6 5649   3.158   3.897   9.556  0.4678  0.0216 -0.0704
  374TMC3     C 5650   3.092   3.794   9.958 -0.2814 -0.2293  0.0668
  374TMC3     O 5651   3.183   3.843  10.025  0.6061 -0.4582 -0.0872
  374TMC3     H 5652   3.245   3.995   9.869 -0.1865 -0.7526  1.0332
  374TMC3    H1 5653   2.973   3.686   9.746 -0.8034  1.2331  3.1580
  374TMC3    H2 5654   3.172   3.924   9.451 -1.3792  1.2105 -0.0043
  374TMC3    C7 5655   2.990   3.716   9.498  0.6224  0.6812  0.2334
  374TMC3    C8 5656   3.314   4.075   9.633  0.4653  0.0317 -0.0568
  374TMC3    O1 5657   2.898   3.643   9.538  0.0327 -0.4513 -0.1069
  374TMC3    O2 5658   3.305   4.125   9.520  0.0600  0.2672  0.6334
  375MPD2     C 5659   3.243   4.412  17.247 -0.2206 -0.3231  1.0571
  375MPD2    C1 5660   3.229   4.467  17.123  0.2140 -0.2003  0.3910
  375MPD2    C2 5661   3.318   4.432  17.023 -0.2632 -0.4216 -0.5265
  375MPD2    C3 5662   3.419   4.337  17.042  0.2898  0.2683 -0.5213
  375MPD2    C4 5663   3.420   4.277  17.167 -0.1882  0.0057  0.4600
  375MPD2    C5 5664   3.337   4.314  17.267 -0.4949 -0.0009  0.3535
  375MPD2     H 5665   3.309   4.472  16.923  1.4705  0.2361 -0.4219
  375MPD2    H1 5666   3.497   4.204  17.187  0.1297 -0.1610 -1.3128
  375MPD2    H2 5667   3.177   4.428  17.331  0.2155 -1.2399  1.5660
  375MPD2    H3 5668   3.335   4.265  17.364  1.9761 -1.6127 -0.4009
  375MPD2     N 5669   3.505   4.293  16.940 -0.3619 -0.2112 -0.0897
  375MPD2    H5 5670   3.580   4.232  16.972  0.8723  1.0797 -0.5053
  375MPD2    N1 5671   3.129   4.562  17.082 -0.9207  0.3967  0.0492
  375MPD2    H7 5672   3.125   4.587  16.984 -1.0051 -1.1065 -0.3296
  376TMC3    C1 5673   3.607   4.266  16.726 -0.3537  0.3305  0.0227
  376TMC3    C2 5674   3.738   4.255  16.777  0.5784 -0.0546  0.1569
  376TMC3    C3 5675   3.830   4.215  16.690  0.4311  0.2871 -0.3502
  376TMC3    C4 5676   3.582   4.260  16.592  0.1739 -0.3334  0.6867
  376TMC3    C5 5677   3.681   4.221  16.509 -0.7607  0.0267  0.0809
  376TMC3    C6 5678   3.801   4.198  16.560  0.0783 -0.1355 -0.1486
  376TMC3     C 5679   3.493   4.315  16.804 -0.4375 -0.3277 -0.6074
  376TMC3     O 5680   3.401   4.371  16.747 -0.0911 -0.1315 -0.6018
  376TMC3     H 5681   3.761   4.291  16.877 -0.8568  1.3801 -0.0296
  376TMC3    H1 5682   3.486   4.292  16.552  1.7862  0.5841 -2.4616
  376TMC3    H2 5683   3.886   4.163  16.502  0.5661 -0.6275  0.8651
  376TMC3    C7 5684   3.659   4.229  16.366 -0.6609 -0.0950  0.3048
  376TMC3    C8 5685   3.971   4.219  16.712  1.0067  0.1478  0.7332
  376TMC3    O1 5686   3.573   4.302  16.322 -0.5944 -0.6230 -0.6968
  376TMC3    O2 5687   4.005   4.190  16.824 -0.2428 -0.2331 -0.1640
  377MPD2     C 5688   1.559   3.808  12.389 -0.5175 -0.5995  0.1086
  377MPD2    C1 5689   1.656   3.878  12.459 -0.5084 -0.5950 -0.0405
  377MPD2    C2 5690   1.684   3.826  12.584 -0.7741  0.3336 -0.2082
  377MPD2    C3 5691   1.606   3.721  12.645 -1.1796  0.4119 -0.1416
  377MPD2    C4 5692   1.516   3.649  12.566  0.7959 -0.1066 -0.6998
  377MPD2    C5 5693   1.499   3.695  12.438 -0.3505  0.5087  0.5073
  377MPD2     H 5694   1.747   3.892  12.644 -1.9153  0.3659  0.9537
  377MPD2    H1 5695   1.452   3.574  12.609  0.7387  1.2605  1.5684
  377MPD2    H2 5696   1.534   3.841  12.289  0.5239 -0.1334  0.0068
  377MPD2    H3 5697   1.429   3.640  12.376  1.8115 -4.0368  2.0397
  377MPD2     N 5698   1.632   3.675  12.773  0.0574 -0.4861 -0.2577
  377MPD2    H5 5699   1.585   3.590  12.801 -1.2977  1.0664  2.1878
  377MPD2    N1 5700   1.732   3.979  12.393 -0.2625  0.1406  0.6304
  377MPD2    H7 5701   1.724   3.996  12.293 -0.9897  1.0932  0.8490
  378TMC3    C1 5702   1.881   4.285  12.154  0.0237  0.1458 -0.2894
  378TMC3    C2 5703   1.822   4.232  12.270 -0.0094 -0.4228  0.1888
  378TMC3    C3 5704   1.896   4.141  12.343  0.6102  0.1883  0.6217
  378TMC3    C4 5705   2.006   4.266  12.122 -0.0245  0.1811 -0.1562
  378TMC3    C5 5706   2.080   4.192  12.205 -0.3205 -0.3575  0.5951
  378TMC3    C6 5707   2.028   4.131  12.316  1.0617  0.2897 -0.7136
  378TMC3     C 5708   1.777   4.310  12.054 -0.4476 -0.2614 -0.1154
  378TMC3     O 5709   1.674   4.364  12.098  0.4884 -0.4866  0.4047
  378TMC3     H 5710   1.722   4.252  12.306  1.6600  4.5263  1.9683
  378TMC3    H1 5711   2.054   4.315  12.039 -0.0723  1.6664  0.6879
  378TMC3    H2 5712   2.093   4.068  12.376 -0.5028 -0.4410  0.2353
  378TMC3    C7 5713   2.222   4.173  12.184  0.5973 -0.0652  0.0661
  378TMC3    C8 5714   1.838   4.046  12.436  0.7523 -0.2231  0.2765
  378TMC3    O1 5715   2.272   4.154  12.292 -0.1089  0.5567  0.0320
  378TMC3    O2 5716   1.895   4.048  12.546 -0.4205  0.2778 -0.0302
  379MPD2     C 5717   1.890   2.460  16.027 -0.0543 -0.3144 -0.3113
  379MPD2    C1 5718   1.784   2.394  16.086 -0.1753 -0.4286  0.3588
  379MPD2    C2 5719   1.817   2.314  16.196  0.2010  1.7785  0.3318
  379MPD2    C3 5720   1.944   2.297  16.241 -0.2228 -0.5996 -0.6680
  379MPD2    C4 5721   2.041   2.376  16.190  0.4470 -0.8276 -0.3106
  379MPD2    C5 5722   2.016   2.453  16.075 -0.3552 -0.1060  0.0004
  379MPD2     H 5723   1.754   2.234  16.234 -0.4819  2.9780  1.6858
  379MPD2    H1 5724   2.133   2.396  16.245  0.5285 -0.5868 -0.5362
  379MPD2    H2 5725   1.888   2.515  15.933  0.2145 -1.7176 -1.1449
  379MPD2    H3 5726   2.096   2.516  16.038 -0.0283 -1.0739 -0.9399
  379MPD2     N 5727   1.976   2.218  16.348 -0.0992 -0.1059  0.5071
  379MPD2    H5 5728   2.072   2.203  16.376  0.7127 -0.9636 -2.8276
  379MPD2    N1 5729   1.658   2.391  16.020  0.3229 -0.0812 -0.5120
  379MPD2    H7 5730   1.657   2.448  15.937  0.1200 -0.6105 -0.8717
  380TMC3    C1 5731   1.474   2.277  15.941  0.0459 -0.2823 -0.3555
  380TMC3    C2 5732   1.503   2.161  15.880  0.0003  0.0770 -0.6366
  380TMC3    C3 5733   1.481   2.153  15.742 -0.0226 -1.0550 -0.4835
  380TMC3    C4 5734   1.431   2.384  15.878  0.6636  0.2117  0.5677
  380TMC3    C5 5735   1.405   2.376  15.742 -0.0373 -0.4863  0.2215
  380TMC3    C6 5736   1.426   2.259  15.671  0.4489 -0.2440 -0.2825
  380TMC3     C 5737   1.552   2.305  16.060  0.1023  0.4538  0.4128
  380TMC3     O 5738   1.537   2.242  16.166  0.3383  0.1172  0.3983
  380TMC3     H 5739   1.544   2.074  15.928 -0.2725 -0.3968 -1.2567
  380TMC3    H1 5740   1.401   2.469  15.938 -1.6937 -0.5554  0.4722
  380TMC3    H2 5741   1.405   2.250  15.565 -0.2362 -1.1481 -0.0717
  380TMC3    C7 5742   1.331   2.480  15.670 -0.1012 -0.0127 -0.7204
  380TMC3    C8 5743   1.565   2.062  15.656 -0.3176 -0.6120 -0.3089
  380TMC3    O1 5744   1.341   2.593  15.713 -0.4193  0.2093 -0.1750
  380TMC3    O2 5745   1.536   2.063  15.535  0.3462  0.0744 -0.1563
  381TMC3    C1 5746   1.925   3.557  16.077  0.3387 -0.2918 -0.6170
  381TMC3    C2 5747   2.022   3.636  16.133 -0.5888 -0.4139  0.2392
  381TMC3    C3 5748   1.986   3.724  16.233  0.0157 -0.2157 -0.1075
  381TMC3    C4 5749   1.794   3.562  16.120  0.1948 -0.3727  0.0943
  381TMC3    C5 5750   1.765   3.662  16.210 -0.0631 -0.4408  0.3859
  381TMC3    C6 5751   1.855   3.751  16.269  0.2310  0.5542  0.1005
  381TMC3     C 5752   1.976   3.427  16.039 -0.2734 -0.6306  0.5274
  381TMC3     O 5753   1.917   3.324  16.078  0.0151  0.0923  0.0632
  381TMC3     H 5754   2.127   3.620  16.114 -0.3717 -0.8166  1.7427
  381TMC3    H1 5755   1.726   3.488  16.079 -0.4079 -0.7373  1.7560
  381TMC3    H2 5756   1.832   3.814  16.354  1.2042  0.0956  0.6932
  381TMC3    C7 5757   1.633   3.646  16.270  0.2116  0.2200  0.4617
  381TMC3    C8 5758   2.100   3.788  16.299  0.1378  0.3380 -0.1544
  381TMC3    O1 5759   1.580   3.533  16.270 -1.1793 -0.0077 -0.6156
  381TMC3    O2 5760   2.207   3.728  16.290 -0.1030  0.5377  0.2363
  382MPD2     C 5761   1.322   1.110  16.813  0.3016 -0.0620  0.1798
  382MPD2    C1 5762   1.314   1.099  16.948  0.6165 -0.3560  0.8827
  382MPD2    C2 5763   1.244   0.985  16.991 -0.5783  0.5255  0.6414
  382MPD2    C3 5764   1.224   0.878  16.905  0.3509  0.3140  0.6489
  382MPD2    C4 5765   1.247   0.888  16.770  0.5786  0.1576 -0.1312
  382MPD2    C5 5766   1.294   1.009  16.721  0.3489 -0.3269  0.0741
  382MPD2     H 5767   1.214   0.979  17.095 -1.3387 -4.1413  0.1928
  382MPD2    H1 5768   1.217   0.809  16.703 -0.6408 -0.5776  1.2874
  382MPD2    H2 5769   1.347   1.206  16.768  1.1802 -0.4476 -0.1584
  382MPD2    H3 5770   1.304   1.014  16.613 -1.1330 -1.3342 -0.1061
  382MPD2     N 5771   1.157   0.762  16.951  0.4676  0.0298  0.5121
  382MPD2    H5 5772   1.109   0.706  16.882  2.4684  1.2978 -1.9197
  382MPD2    N1 5773   1.350   1.198  17.043  0.3159 -0.0430 -0.5890
  382MPD2    H7 5774   1.330   1.191  17.142 -0.0436 -0.1339 -0.6699
  383TMC3    C1 5775   1.086   0.598  17.104 -0.6492  0.6890  0.1883
  383TMC3    C2 5776   0.964   0.570  17.037  0.4548  0.0287 -0.0905
  383TMC3    C3 5777   0.925   0.443  17.030 -0.3435  0.2099  0.0606
  383TMC3    C4 5778   1.175   0.499  17.142 -0.8499  0.7549 -0.0155
  383TMC3    C5 5779   1.123   0.372  17.140 -0.3355  0.1970  0.3177
  383TMC3    C6 5780   0.995   0.345  17.086  0.4794  0.9994  0.3215
  383TMC3     C 5781   1.153   0.732  17.084  0.2163 -0.5329 -0.0457
  383TMC3     O 5782   1.233   0.769  17.171  0.0249 -0.4510 -0.3762
  383TMC3     H 5783   0.899   0.647  16.996  0.6559  0.2405 -0.0175
  383TMC3    H1 5784   1.268   0.539  17.180  0.0169 -0.2622 -1.0863
  383TMC3    H2 5785   0.954   0.245  17.096  0.5872  0.8693 -0.5538
  383TMC3    C7 5786   1.207   0.268  17.187  0.2470  0.1521  0.1286
  383TMC3    C8 5787   0.778   0.421  17.012 -0.3961  1.0109  0.1305
  383TMC3    O1 5788   1.191   0.153  17.152 -0.9754 -0.7451 -0.3218
  383TMC3    O2 5789   0.712   0.519  17.023  0.6536  0.5276 -0.7137
  384MPD2     C 5790   3.046   1.812  11.830 -0.5359  0.2830  0.5289
  384MPD2    C1 5791   3.120   1.900  11.910 -0.2773 -0.2114 -0.4461
  384MPD2    C2 5792   3.255   1.875  11.932  0.6726 -0.1117  0.0814
  384MPD2    C3 5793   3.320   1.782  11.854 -0.0909 -0.0538  0.4587
  384MPD2    C4 5794   3.256   1.710  11.762  0.6459  1.1652  0.0608
  384MPD2    C5 5795   3.120   1.721  11.758  0.0875 -0.2435 -0.6762
  384MPD2     H 5796   3.317   1.924  12.008  0.7129  2.1665 -1.4170
  384MPD2    H1 5797   3.309   1.639  11.700 -1.0604  0.1340 -0.2471
  384MPD2    H2 5798   2.939   1.804  11.816 -0.8855  0.9205  2.9665
  384MPD2    H3 5799   3.076   1.652  11.687 -1.3532 -0.2270  0.2059
  384MPD2     N 5800   3.461   1.767  11.876  0.0623 -0.0598 -0.2492
  384MPD2    H5 5801   3.494   1.818  11.958 -1.9787 -0.5315  0.8459
  384MPD2    N1 5802   3.050   1.988  11.994 -0.4374 -0.2537 -0.7220
  384MPD2    H7 5803   3.115   2.035  12.056 -1.2260 -3.0713  2.2561
  385TMC3    C1 5804   3.643   1.625  11.931  0.2501  0.1001 -0.0432
  385TMC3    C2 5805   3.634   1.495  11.953  0.4211 -0.5223 -0.0429
  385TMC3    C3 5806   3.581   1.440  12.063  0.3804 -0.4939 -0.0249
  385TMC3    C4 5807   3.629   1.705  12.038 -0.4180  0.0877 -0.0220
  385TMC3    C5 5808   3.584   1.651  12.158  0.3903  0.2059  0.2479
  385TMC3    C6 5809   3.564   1.513  12.177 -0.3112 -0.1836 -0.0597
  385TMC3     C 5810   3.537   1.658  11.839  0.7045 -0.2283 -0.5152
  385TMC3     O 5811   3.500   1.563  11.776  0.1120 -0.0498  0.2976
  385TMC3     H 5812   3.663   1.429  11.872  0.3372 -2.4490  1.4881
  385TMC3    H1 5813   3.657   1.810  12.028 -1.4356  0.6423  2.7004
  385TMC3    H2 5814   3.495   1.475  12.252  0.7837  0.4048  1.2408
  385TMC3    C7 5815   3.500   1.742  12.234 -0.1850 -0.4984  0.3499
  385TMC3    C8 5816   3.472   1.344  12.042 -0.3612 -0.6899 -0.2424
  385TMC3    O1 5817   3.476   1.848  12.178 -0.1931  0.6754  0.4088
  385TMC3    O2 5818   3.453   1.257  12.131  0.3326  0.4181  0.0419
  386TMC3    C1 5819   3.340   4.295  11.502 -0.4418 -0.5751 -0.1954
  386TMC3    C2 5820   3.353   4.317  11.370  0.7223  0.7806  0.3597
  386TMC3    C3 5821   3.281   4.417  11.308  0.8413  0.6074  0.3180
  386TMC3    C4 5822   3.265   4.384  11.579 -0.1609  0.3250 -0.0508
  386TMC3    C5 5823   3.186   4.470  11.512  0.5288  0.7208 -1.3430
  386TMC3    C6 5824   3.196   4.493  11.378  0.4118  0.1685  0.3312
  386TMC3     C 5825   3.452   4.235  11.566 -0.5182 -0.6770 -0.5925
  386TMC3     O 5826   3.567   4.267  11.535 -0.1139 -0.1674 -0.4285
  386TMC3     H 5827   3.431   4.261  11.320  0.4391  1.4270 -0.8015
  386TMC3    H1 5828   3.251   4.361  11.684 -0.6724  0.9157  0.0058
  386TMC3    H2 5829   3.159   4.585  11.334  0.4147  0.0889  0.1638
  386TMC3    C7 5830   3.103   4.561  11.587 -0.1092 -0.2921  0.3088
  386TMC3    C8 5831   3.286   4.436  11.162  0.5307  0.4953 -0.2027
  386TMC3    O1 5832   3.093   4.550  11.709 -0.3108  0.2830 -0.0336
  386TMC3    O2 5833   3.196   4.505  11.116  0.3314  0.6536  0.0010
  387MPD2     C 5834   0.190   3.804   9.853 -0.0709 -0.2552  0.0080
  387MPD2    C1 5835   0.325   3.788   9.831 -0.4862 -0.7369  0.4312
  387MPD2    C2 5836   0.379   3.660   9.840  0.0315  0.6427 -0.1780
  387MPD2    C3 5837   0.299   3.548   9.878 -0.4031  0.0377 -0.6519
  387MPD2    C4 5838   0.168   3.563   9.901  0.5095 -0.6071  0.1402
  387MPD2    C5 5839   0.119   3.692   9.887  0.0374  0.5490 -0.4930
  387MPD2     H 5840   0.485   3.642   9.829 -0.1545 -0.1133 -0.6940
  387MPD2    H1 5841   0.102   3.484   9.935 -1.7680  1.1365 -0.2408
  387MPD2    H2 5842   0.136   3.898   9.857  1.2271  0.3778  2.8592
  387MPD2    H3 5843   0.016   3.704   9.919  0.2055  1.2414 -0.2213
  387MPD2     N 5844   0.365   3.423   9.886 -0.1045  0.0822 -0.4842
  387MPD2    H5 5845   0.459   3.419   9.848  1.2286 -2.1181  3.1093
  387MPD2    N1 5846   0.416   3.896   9.842  0.1290 -0.1011  0.2319
  387MPD2    H7 5847   0.511   3.863   9.828  0.1502 -1.0010  2.5687
  388TMC3    C1 5848   0.500   4.095   9.920  0.0545 -1.1110 -0.2196
  388TMC3    C2 5849   0.538   4.208   9.856 -0.2208 -0.2841 -0.3421
  388TMC3    C3 5850   0.672   4.246   9.870 -0.8449 -0.4954 -0.1949
  388TMC3    C4 5851   0.567   4.030  10.011 -0.0422  0.0293  0.0469
  388TMC3    C5 5852   0.692   4.084  10.040 -0.4778 -0.5822 -0.8536
  388TMC3    C6 5853   0.744   4.191   9.968  0.3894  0.2033 -0.2792
  388TMC3     C 5854   0.387   4.027   9.872  0.0266  0.7185  0.9363
  388TMC3     O 5855   0.282   4.089   9.884  0.3725 -0.3280 -0.1866
  388TMC3     H 5856   0.475   4.247   9.776 -0.6933 -0.7278 -0.1860
  388TMC3    H1 5857   0.525   3.946  10.067 -0.9593 -0.2751 -1.0807
  388TMC3    H2 5858   0.844   4.232   9.982 -0.3979  1.4993  1.6533
  388TMC3    C7 5859   0.793   4.005  10.119  0.2557  0.1612 -0.2115
  388TMC3    C8 5860   0.719   4.371   9.815  0.0270  0.4455  0.2592
  388TMC3    O1 5861   0.910   4.042  10.124 -0.2116  0.3753 -0.0842
  388TMC3    O2 5862   0.828   4.419   9.838 -0.3111  0.4430  0.3260
  389MPD2     C 5863   4.483   3.250  11.457  0.1259  0.0447 -0.7177
  389MPD2    C1 5864   4.500   3.148  11.366 -0.0948  1.3504  0.3289
  389MPD2    C2 5865   4.493   3.017  11.398 -0.1608  0.1820  0.7491
  389MPD2    C3 5866   4.521   2.985  11.532  0.0966 -0.5272  0.5673
  389MPD2    C4 5867   4.504   3.090  11.621  0.7969 -0.5404  0.8366
  389MPD2    C5 5868   4.480   3.220  11.587 -0.5473  0.5133  0.0314
  389MPD2     H 5869   4.486   2.928  11.335  1.4111  0.8400 -0.3493
  389MPD2    H1 5870   4.500   3.072  11.728  0.6972 -1.5630  0.6565
  389MPD2    H2 5871   4.456   3.353  11.435 -1.5348  0.1450  1.7187
  389MPD2    H3 5872   4.464   3.293  11.666  1.7461 -0.0071  0.9786
  389MPD2     N 5873   4.517   2.860  11.589 -0.0677  0.2632  0.2187
  389MPD2    H5 5874   4.547   2.853  11.686 -1.6862 -0.7107  0.6582
  389MPD2    N1 5875   4.505   3.182  11.230 -0.0849  0.1658 -0.8337
  389MPD2    H7 5876   4.503   3.279  11.201  1.9440 -0.4166 -2.9272
  390TMC3    C1 5877   4.494   2.622  11.610  0.4984  0.0470  0.9338
  390TMC3    C2 5878   4.433   2.509  11.570  0.4702 -0.5253 -0.5591
  390TMC3    C3 5879   4.395   2.418  11.669  0.3144  0.0983 -0.6432
  390TMC3    C4 5880   4.555   2.634  11.729 -0.5270  0.1269 -0.0863
  390TMC3    C5 5881   4.526   2.532  11.823  0.1776  0.0007 -0.7923
  390TMC3    C6 5882   4.448   2.423  11.797  0.0628  0.1963  0.1861
  390TMC3     C 5883   4.467   2.743  11.534 -0.4336 -0.1195 -0.6080
  390TMC3     O 5884   4.411   2.726  11.425  0.1354 -0.3923 -0.3671
  390TMC3     H 5885   4.375   2.494  11.479 -3.8375  2.2399  1.7376
  390TMC3    H1 5886   4.603   2.724  11.764 -0.1685 -0.1709  0.1793
  390TMC3    H2 5887   4.435   2.337  11.862  2.0710 -0.8755 -0.8205
  390TMC3    C7 5888   4.574   2.543  11.960 -0.1017  0.7349  0.5537
  390TMC3    C8 5889   4.302   2.306  11.651  0.1612  0.2193  1.0262
  390TMC3    O1 5890   4.652   2.631  11.988 -0.5358  1.0784  0.0596
  390TMC3    O2 5891   4.283   2.269  11.538  0.1762  0.2656 -0.1537
  391MPD2     C 5892   3.916   4.192  11.024 -0.1633  0.6195  0.4534
  391MPD2    C1 5893   4.022   4.265  10.974 -0.0628 -0.5003  0.1078
  391MPD2    C2 5894   4.041   4.284  10.834  0.4936  0.5328 -0.4281
  391MPD2    C3 5895   3.957   4.223  10.748 -0.5109 -0.4350 -0.4570
  391MPD2    C4 5896   3.859   4.141  10.801 -0.6758 -0.9459  0.3027
  391MPD2    C5 5897   3.838   4.133  10.934 -0.1184  0.2453 -0.8168
  391MPD2     H 5898   4.109   4.352  10.784  0.3276  1.2402  0.2918
  391MPD2    H1 5899   3.789   4.092  10.734 -0.5162 -0.7923  0.0204
  391MPD2    H2 5900   3.897   4.179  11.130  0.4163  1.5387  0.6744
  391MPD2    H3 5901   3.753   4.072  10.963  1.0860 -0.6574  0.8567
  391MPD2     N 5902   3.969   4.253  10.610 -0.3756  0.1669 -0.2980
  391MPD2    H5 5903   4.050   4.303  10.575 -0.9453  2.4312  1.6623
  391MPD2    N1 5904   4.098   4.328  11.070 -0.1300  0.2493  0.1219
  391MPD2    H7 5905   4.063   4.323  11.165  0.7345  1.0575  0.4877
  392TMC3    C1 5906   3.929   4.243  10.378  0.0673  0.8529  0.1612
  392TMC3    C2 5907   3.870   4.164  10.272 -0.1045 -0.1517  0.0431
  392TMC3    C3 5908   3.913   4.188  10.148 -0.2806  0.6116  0.1653
  392TMC3    C4 5909   4.035   4.331  10.363 -0.5541  0.3861 -0.1942
  392TMC3    C5 5910   4.073   4.335  10.226 -0.1684 -0.3773 -0.1139
  392TMC3    C6 5911   4.023   4.262  10.121 -0.7311 -0.7913 -0.3817
  392TMC3     C 5912   3.888   4.201  10.508  0.0284 -0.3198 -1.3151
  392TMC3     O 5913   3.781   4.146  10.515 -0.2706 -0.0597 -0.4064
  392TMC3     H 5914   3.785   4.100  10.293 -0.4619  0.1148 -0.5756
  392TMC3    H1 5915   4.085   4.399  10.431  2.7808 -1.8483 -0.4014
  392TMC3    H2 5916   4.051   4.266  10.016  1.3614  1.0443  0.2313
  392TMC3    C7 5917   4.171   4.437  10.189  0.5963  0.8220  0.4511
  392TMC3    C8 5918   3.819   4.146  10.038 -0.7427  0.5204  0.3070
  392TMC3    O1 5919   4.177   4.540  10.251 -0.2393  0.2543  0.0570
  392TMC3    O2 5920   3.740   4.055  10.060  0.1539  0.1599 -0.1915
  393TMC3    C1 5921   2.477   2.099  10.932 -0.1470  0.2583 -0.4710
  393TMC3    C2 5922   2.345   2.092  10.975 -0.7564 -1.0725 -0.7653
  393TMC3    C3 5923   2.330   2.032  11.100  0.0363 -0.3709  0.4070
  393TMC3    C4 5924   2.585   2.058  11.002 -0.1113  0.7880 -0.0997
  393TMC3    C5 5925   2.566   2.002  11.128  0.1961 -0.0576 -0.6593
  393TMC3    C6 5926   2.437   1.988  11.171  1.4049  0.9719  0.1846
  393TMC3     C 5927   2.502   2.162  10.800  0.0563 -0.0686  0.3166
  393TMC3     O 5928   2.418   2.165  10.712  0.8647  0.2382  0.4716
  393TMC3     H 5929   2.268   2.129  10.908 -0.6523  1.2614  0.3853
  393TMC3    H1 5930   2.679   2.042  10.949  0.5786  1.3115  0.9727
  393TMC3    H2 5931   2.414   1.938  11.264  1.1662 -1.7593 -1.3731
  393TMC3    C7 5932   2.669   1.947  11.208 -0.0900 -0.2452 -0.1239
  393TMC3    C8 5933   2.232   2.091  11.186 -0.7273 -0.3766  0.7432
  393TMC3    O1 5934   2.630   1.882  11.304  0.0999  0.6967 -0.2469
  393TMC3    O2 5935   2.281   2.122  11.297  0.7672  0.0416  0.1487
  394TMC3    C1 5936   4.570   3.189  11.002 -0.5483  0.2972  0.2792
  394TMC3    C2 5937   4.570   3.127  10.877 -0.1107  0.2334 -0.2438
  394TMC3    C3 5938   4.607   3.209  10.769  1.4001 -0.4288  0.5351
  394TMC3    C4 5939   4.624   3.317  11.018  0.4149  0.1256 -0.3460
  394TMC3    C5 5940   4.664   3.387  10.913  0.0798  0.3026  0.1477
  394TMC3    C6 5941   4.648   3.338  10.783 -0.3247 -0.0574  0.0825
  394TMC3     C 5942   4.526   3.108  11.121  0.7795 -0.3766  0.0579
  394TMC3     O 5943   4.521   2.989  11.101  0.4106  0.7679 -0.5590
  394TMC3     H 5944   4.547   3.022  10.871  0.3757  0.1853 -1.4221
  394TMC3    H1 5945   4.633   3.359  11.118  1.5691 -0.5035 -0.1960
  394TMC3    H2 5946   4.682   3.387  10.693  2.0926 -0.6664  0.6682
  394TMC3    C7 5947   0.037   3.481  10.926  0.1098  0.3504 -0.3713
  394TMC3    C8 5948   4.573   3.175  10.636 -0.5881  0.2516  0.4843
  394TMC3    O1 5949   0.060   3.555  10.831 -0.0993 -0.4082  0.6263
  394TMC3    O2 5950   4.534   3.265  10.562 -0.0793  0.5624  0.3148
  395TMC3    C1 5951   4.374   4.209  14.760 -1.2513 -0.0699 -0.1694
  395TMC3    C2 5952   4.322   4.151  14.641  0.7137 -0.0847  0.0782
  395TMC3    C3 5953   4.345   4.228  14.526 -0.0043  0.1395  1.3812
  395TMC3    C4 5954   4.446   4.331  14.765 -0.2557 -0.8609 -0.0190
  395TMC3    C5 5955   4.462   4.395  14.644 -0.6907 -0.3382  0.3083
  395TMC3    C6 5956   4.415   4.341  14.527  0.5524  0.2044 -0.2826
  395TMC3     C 5957   4.348   4.129  14.881  0.0642 -0.1361  0.6969
  395TMC3     O 5958   4.322   4.013  14.854  0.3171  0.4964 -0.1604
  395TMC3     H 5959   4.281   4.051  14.632 -0.1970  0.6002 -3.4227
  395TMC3    H1 5960   4.472   4.376  14.860  0.2397  1.7330 -1.3789
  395TMC3    H2 5961   4.437   4.391  14.433 -3.3857 -0.7052 -1.6714
  395TMC3    C7 5962   4.534   4.522  14.646  0.4224 -0.4293 -0.3066
  395TMC3    C8 5963   4.275   4.196  14.397 -0.8726 -0.0126 -0.6793
  395TMC3    O1 5964   4.604   4.547  14.740  0.0941 -0.4075  0.2056
  395TMC3    O2 5965   4.294   4.270  14.302  0.0838  0.1145  0.0592
  396MPD2     C 5966   3.818   0.760  16.843  0.5314  0.2686  0.0366
  396MPD2    C1 5967   3.888   0.857  16.922  0.1392  0.0515 -0.6668
  396MPD2    C2 5968   3.900   0.989  16.877 -0.0680  0.1869 -0.8954
  396MPD2    C3 5969   3.840   1.022  16.752  0.4594  1.0259 -0.9426
  396MPD2    C4 5970   3.769   0.929  16.683 -0.6619 -0.7217 -0.1561
  396MPD2    C5 5971   3.759   0.804  16.726 -0.2417  0.4282 -0.3652
  396MPD2     H 5972   3.947   1.070  16.932 -0.5191 -0.5148  0.5281
  396MPD2    H1 5973   3.712   0.951  16.593 -1.5989  0.1142  0.6486
  396MPD2    H2 5974   3.798   0.661  16.881  4.1286 -0.4949 -0.0922
  396MPD2    H3 5975   3.714   0.723  16.669  0.5242 -0.3181  0.1011
  396MPD2     N 5976   3.882   1.145  16.696 -0.2192 -0.4092  0.0960
  396MPD2    H5 5977   3.953   1.200  16.744 -3.4302  3.2769  0.6672
  396MPD2    N1 5978   3.944   0.807  17.045  0.3852  0.2730 -0.5749
  396MPD2    H7 5979   3.940   0.706  17.053  0.7776  0.2830 -0.2462
  397TMC3    C1 5980   4.080   0.789  17.230 -1.0797  0.5123  0.4699
  397TMC3    C2 5981   4.194   0.745  17.167  0.5592  0.7776 -0.6114
  397TMC3    C3 5982   4.201   0.620  17.110 -0.5927  0.0539 -0.4695
  397TMC3    C4 5983   3.980   0.694  17.259 -0.0904 -0.1465 -0.5100
  397TMC3    C5 5984   4.003   0.565  17.215  0.1267  0.2749  0.2577
  397TMC3    C6 5985   4.102   0.527  17.134  0.9261  0.3078 -0.6222
  397TMC3     C 5986   4.016   0.879  17.140 -0.4138  0.2495 -0.1232
  397TMC3     O 5987   4.074   0.983  17.131 -0.1556 -0.6344  0.2656
  397TMC3     H 5988   4.252   0.825  17.122  1.7870  0.3396  0.1804
  397TMC3    H1 5989   3.891   0.723  17.313  0.2395  0.7992 -0.4651
  397TMC3    H2 5990   4.110   0.423  17.104  1.4612  0.0594  0.3579
  397TMC3    C7 5991   3.909   0.463  17.254 -0.6191  0.2232 -0.1986
  397TMC3    C8 5992   4.258   0.641  16.977  0.5770  0.5879 -0.0876
  397TMC3    O1 5993   3.856   0.393  17.167  0.4397  0.4038 -0.7995
  397TMC3    O2 5994   4.205   0.590  16.879  0.0762 -0.5152  0.3801
  398MPD2     C 5995   2.240   2.345  17.665 -1.1078 -0.8698  0.2625
  398MPD2    C1 5996   2.301   2.247  17.741  1.0634  0.9627 -0.6280
  398MPD2    C2 5997   2.435   2.246   0.001  0.1512 -0.5839  0.6537
  398MPD2    C3 5998   2.512   2.341  17.688  0.2062 -0.2746  0.1373
  398MPD2    C4 5999   2.453   2.437  17.607  0.6097 -0.1080  0.1139
  398MPD2    C5 6000   2.313   2.439  17.599  0.2735 -0.3607 -0.5174
  398MPD2     H 6001   2.495   2.178   0.062  2.2141 -0.6798 -1.4778
  398MPD2    H1 6002   2.507   2.511  17.549  0.6058  1.9886  2.7723
  398MPD2    H2 6003   2.133   2.358  17.660 -0.8949  0.4089 -0.8777
  398MPD2    H3 6004   2.269   2.524  17.547  0.6751  1.2670  1.8079
  398MPD2     N 6005   2.651   2.322  17.697 -0.4570  0.0810 -0.1507
  398MPD2    H5 6006   2.679   2.233  17.738 -1.3524  1.2284  2.9907
  398MPD2    N1 6007   2.235   2.147   0.067 -0.4927  0.3818  0.3273
  398MPD2    H7 6008   2.293   2.089   0.127 -1.6532 -0.5312  0.5633
  399TMC3    C1 6009   2.069   1.991   0.117  0.3842 -0.2770 -0.0158
  399TMC3    C2 6010   2.110   1.992   0.247 -0.0921 -0.2804 -0.9827
  399TMC3    C3 6011   2.086   1.885   0.325  0.6148  0.6137 -0.0786
  399TMC3    C4 6012   2.030   1.878   0.060 -0.2422 -0.3085 -0.1762
  399TMC3    C5 6013   2.026   1.767   0.136 -0.2070 -0.1657  0.0074
  399TMC3    C6 6014   2.039   1.771   0.269  0.1941  0.6932 -0.7538
  399TMC3     C 6015   2.112   2.099   0.029 -0.1467  0.0620  0.5564
  399TMC3     O 6016   2.040   2.122  17.679  0.2426  0.2366 -0.2772
  399TMC3     H 6017   2.147   2.085   0.290 -0.8707 -0.4174  0.0025
  399TMC3    H1 6018   2.000   1.877  17.705  1.2291 -0.6687 -0.6021
  399TMC3    H2 6019   2.039   1.677   0.324  0.6133  0.6722 -0.7860
  399TMC3    C7 6020   1.972   1.640   0.092 -0.2335 -0.5078  0.4153
  399TMC3    C8 6021   2.127   1.890   0.461 -0.4281 -0.4916  0.4823
  399TMC3    O1 6022   1.972   1.547   0.174 -0.4236 -0.3312  0.2140
  399TMC3    O2 6023   2.180   1.789   0.510 -0.1875  0.5080 -0.4993
  400TMC3    C1 6024   0.819   0.530  16.547  0.7174  0.1226  0.1249
  400TMC3    C2 6025   0.720   0.555  16.462  0.3293  0.6044 -0.8392
  400TMC3    C3 6026   0.625   0.649  16.493 -0.3657  0.7258  0.9105
  400TMC3    C4 6027   0.828   0.601  16.657  0.0552 -0.6471 -0.3276
  400TMC3    C5 6028   0.731   0.690  16.694  0.6676 -0.0817  0.4502
  400TMC3    C6 6029   0.633   0.715  16.611 -0.4954  0.5235  0.7681
  400TMC3     C 6030   0.824   0.390  16.568 -0.6665  0.1133  1.2441
  400TMC3     O 6031   0.754   0.315  16.502  0.0557  0.6135  0.6461
  400TMC3     H 6032   0.711   0.506  16.365 -0.8090 -2.3216  0.7445
  400TMC3    H1 6033   0.904   0.581  16.732 -2.3954 -1.9451  1.7756
  400TMC3    H2 6034   0.569   0.802  16.622 -0.9176  0.6840 -2.8581
  400TMC3    C7 6035   0.785   0.809  16.762 -0.1979  0.0569  0.8675
  400TMC3    C8 6036   0.488   0.622  16.456  0.6015  0.2842  0.1433
  400TMC3    O1 6037   0.906   0.801  16.776 -0.8412 -0.2649 -0.3940
  400TMC3    O2 6038   0.406   0.714  16.463  0.4512 -0.0775  0.3496
  401MPD2     C 6039   3.770   3.806   0.381  0.0382  0.6096  0.5989
  401MPD2    C1 6040   3.807   3.707   0.473 -0.1679  0.0378 -0.3694
  401MPD2    C2 6041   3.777   3.575   0.447  0.0355  0.6492 -0.5352
  401MPD2    C3 6042   3.732   3.532   0.329 -0.8017  0.1731  0.1529
  401MPD2    C4 6043   3.685   3.633   0.245 -0.0208 -0.2963  0.5806
  401MPD2    C5 6044   3.698   3.768   0.271  0.1046  0.8813 -0.0278
  401MPD2     H 6045   3.800   3.500   0.522 -0.7638  2.5686  1.6253
  401MPD2    H1 6046   3.648   3.598   0.149  2.6381 -0.4570 -0.3691
  401MPD2    H2 6047   3.803   3.909   0.381 -2.0775  1.2875 -0.6641
  401MPD2    H3 6048   3.669   3.841   0.196  2.0657  0.7405 -0.9183
  401MPD2     N 6049   3.699   3.396   0.296 -0.2377  0.3423 -0.4595
  401MPD2    H5 6050   3.719   3.327   0.368 -0.4245 -1.8958 -2.5343
  401MPD2    N1 6051   3.868   3.739   0.594  0.0503  0.2922 -0.1134
  401MPD2    H7 6052   3.898   3.665   0.657 -0.6693 -0.7308 -0.9508
  402TMC3    C1 6053   3.661   3.204   0.187 -0.3267 -0.5953  0.0165
  402TMC3    C2 6054   3.597   3.154   0.300 -0.1842 -0.0576  0.0066
  402TMC3    C3 6055   3.573   3.022   0.317 -0.4724  0.9058 -0.6650
  402TMC3    C4 6056   3.704   3.111   0.095 -0.0227 -0.4641 -0.0103
  402TMC3    C5 6057   3.685   2.976   0.118 -0.4858 -0.1411  0.2473
  402TMC3    C6 6058   3.622   2.929   0.227 -0.4831 -0.5143 -0.1544
  402TMC3     C 6059   3.693   3.344   0.173 -0.5356 -0.1246 -0.5891
  402TMC3     O 6060   3.736   3.390   0.068 -0.0135  0.0382 -0.2007
  402TMC3     H 6061   3.569   3.224   0.378  1.7196 -0.2603  0.8703
  402TMC3    H1 6062   3.748   3.142   0.002  0.5436 -1.4216 -0.0572
  402TMC3    H2 6063   3.616   2.822   0.246 -1.7825 -0.3240  0.4461
  402TMC3    C7 6064   3.779   2.886   0.061  0.3685 -0.1860 -0.5256
  402TMC3    C8 6065   3.579   2.977   0.451  0.3547  0.0366 -0.4546
  402TMC3    O1 6066   3.797   2.888  17.689 -0.8956 -0.3816 -0.5114
  402TMC3    O2 6067   3.630   2.866   0.459  0.0887 -0.0258  0.1423
  403MPD2     C 6068   2.495   1.905  13.058  0.0244 -0.6353 -0.0020
  403MPD2    C1 6069   2.409   1.890  13.165  0.1680 -0.6558 -0.5417
  403MPD2    C2 6070   2.452   1.898  13.294 -0.1235  0.3249  0.4734
  403MPD2    C3 6071   2.583   1.919  13.323  1.0146 -0.0421  0.0595
  403MPD2    C4 6072   2.674   1.921  13.219 -0.2590  0.2724  0.1164
  403MPD2    C5 6073   2.629   1.933  13.089 -0.0195  0.2816 -0.6377
  403MPD2     H 6074   2.390   1.879  13.381 -0.1264  1.1546  0.6601
  403MPD2    H1 6075   2.778   1.941  13.239 -0.3021  0.6122 -0.0162
  403MPD2    H2 6076   2.473   1.897  12.952  1.2587 -0.7778 -0.2509
  403MPD2    H3 6077   2.702   1.937  13.009 -0.8212  0.4149 -1.3639
  403MPD2     N 6078   2.615   1.923  13.459  0.7944 -0.5306 -0.2978
  403MPD2    H5 6079   2.543   1.934  13.530  0.1482  0.4854 -1.1112
  403MPD2    N1 6080   2.271   1.855  13.139 -0.1106 -0.3233 -0.3269
  403MPD2    H7 6081   2.239   1.849  13.043 -1.1062 -1.6773  0.0828
  404TMC3    C1 6082   2.055   1.825  13.172 -0.6598  0.6871 -0.7614
  404TMC3    C2 6083   2.006   1.699  13.221  0.4812  0.1019 -0.1086
  404TMC3    C3 6084   1.966   1.602  13.131 -0.0467  0.3375 -0.2924
  404TMC3    C4 6085   2.053   1.845  13.036 -0.2838  0.3680 -0.3490
  404TMC3    C5 6086   2.009   1.745  12.957  0.0882  0.2637  0.2263
  404TMC3    C6 6087   1.954   1.625  12.998 -0.4569  0.6909 -0.7706
  404TMC3     C 6088   2.171   1.862  13.233  0.3180  0.3246  0.0611
  404TMC3     O 6089   2.165   1.873  13.355 -0.0964 -0.3953  0.2621
  404TMC3     H 6090   2.040   1.672  13.321  0.7277  0.4952 -0.0832
  404TMC3    H1 6091   2.072   1.944  12.998  0.7636  0.6970  1.0177
  404TMC3    H2 6092   1.936   1.544  12.929  1.5558 -1.1599  0.9028
  404TMC3    C7 6093   2.075   1.745  12.826  0.0013 -0.6820 -0.0524
  404TMC3    C8 6094   1.966   1.460  13.169  0.3455  0.1028 -0.0482
  404TMC3    O1 6095   2.191   1.778  12.823  1.2245 -0.4640 -0.2701
  404TMC3    O2 6096   1.972   1.373  13.085  0.0793  0.2047 -0.2971
  405MPD2     C 6097   2.212   2.203  14.582 -0.4801 -1.1769  0.4167
  405MPD2    C1 6098   2.280   2.100  14.521  0.2206 -0.5249 -0.6161
  405MPD2    C2 6099   2.257   2.084  14.381  0.1260 -0.1630 -0.8060
  405MPD2    C3 6100   2.176   2.166  14.313 -0.3620  0.3793 -0.0696
  405MPD2    C4 6101   2.106   2.264  14.378 -1.0684  0.0768  0.8447
  405MPD2    C5 6102   2.133   2.282  14.507 -0.0439 -0.5195 -0.1479
  405MPD2     H 6103   2.301   1.999  14.331  0.1033  1.0049 -2.8095
  405MPD2    H1 6104   2.045   2.336  14.325  1.0967  0.9171 -0.4939
  405MPD2    H2 6105   2.228   2.227  14.687 -1.2468  0.6253  0.1210
  405MPD2    H3 6106   2.079   2.361  14.559  0.9718  0.1684 -0.1272
  405MPD2     N 6107   2.146   2.134  14.177 -0.6091  0.2517  0.8175
  405MPD2    H5 6108   2.197   2.055  14.140 -0.4283  0.3263  0.9064
  405MPD2    N1 6109   2.347   2.002  14.602  0.6741 -0.6398 -0.3610
  405MPD2    H7 6110   2.323   2.018  14.699  0.4630  1.1538 -0.7045
  406TMC3    C1 6111   1.847   2.187  13.822 -0.0575 -0.7245 -0.1112
  406TMC3    C2 6112   1.810   2.057  13.846  0.3017  0.5299 -0.0746
  406TMC3    C3 6113   1.899   1.974  13.909 -0.4041 -0.4723  0.1098
  406TMC3    C4 6114   1.958   2.242  13.885  0.5355 -0.2709 -0.1140
  406TMC3    C5 6115   2.041   2.160  13.951 -0.2276  0.0234 -0.6445
  406TMC3    C6 6116   2.017   2.027  13.958  0.2325  0.1455 -0.4087
  406TMC3     C 6117   1.735   2.278  13.807  0.3038  0.0661 -0.1899
  406TMC3     O 6118   1.729   2.376  13.736  0.1435  0.3212  0.0380
  406TMC3     H 6119   1.715   2.021  13.809  0.6969 -0.3630 -0.2234
  406TMC3    H1 6120   1.969   2.349  13.879  1.7059 -0.2874  1.6896
  406TMC3    H2 6121   2.093   1.958  13.994 -0.4205  0.0101  0.7274
  406TMC3    C7 6122   2.058   2.209  14.091 -0.3882  0.0451 -0.4768
  406TMC3    C8 6123   1.832   1.888  13.999 -1.0091  0.2775  0.5134
  406TMC3    O1 6124   1.991   2.305  14.130  0.4061 -0.1278 -0.1346
  406TMC3    O2 6125   1.712   1.915  14.019  0.1788 -0.6072  0.1569
  407MPD2     C 6126   4.520   4.685   9.778 -0.3028 -0.3107  0.0384
  407MPD2    C1 6127   4.636   4.613   9.784  0.4763 -0.4160 -0.1394
  407MPD2    C2 6128   0.009   4.671   9.841 -0.1670  0.2652  0.4858
  407MPD2    C3 6129   4.737   0.073   9.878 -0.8360  0.0390  0.0244
  407MPD2    C4 6130   4.615   0.145   9.866  0.2674  0.3078 -0.1254
  407MPD2    C5 6131   4.507   0.077   9.820 -0.5365 -0.3002  0.9895
  407MPD2     H 6132   0.097   4.608   9.845  0.0586  0.5212 -0.5589
  407MPD2    H1 6133   4.616   0.252   9.881 -1.4194  0.4399 -0.9194
  407MPD2    H2 6134   4.432   4.649   9.727  0.0470 -1.2977  0.1349
  407MPD2    H3 6135   4.411   0.124   9.804  0.4905  1.6773  0.6456
  407MPD2     N 6136   0.109   0.148   9.931  0.2529  0.2110  0.2259
  407MPD2    H5 6137   0.089   0.245   9.956 -0.4404 -0.4479  2.2235
  407MPD2    N1 6138   4.645   4.480   9.735  0.8154  0.0978 -0.2397
  407MPD2    H7 6139   4.730   4.426   9.742  0.8618  0.2004 -0.0018
  408TMC3    C1 6140   4.581   4.274   9.626 -0.3796  0.6246  0.0196
  408TMC3    C2 6141   4.708   4.222   9.615 -0.0551 -0.2655  0.0281
  408TMC3    C3 6142   4.722   4.094   9.567 -0.3153 -0.2460  0.0736
  408TMC3    C4 6143   4.474   4.196   9.612  0.0843  0.3762 -0.5607
  408TMC3    C5 6144   4.490   4.069   9.556 -0.1210  0.5587  0.1724
  408TMC3    C6 6145   4.614   4.013   9.542 -0.0227 -0.3056  0.5930
  408TMC3     C 6146   4.546   4.411   9.670 -0.1380  0.8083 -0.0658
  408TMC3     O 6147   4.436   4.451   9.629 -0.1449 -0.2991 -0.1488
  408TMC3     H 6148   0.049   4.296   9.619  0.4074 -0.8253  1.3049
  408TMC3    H1 6149   4.379   4.233   9.648  0.1562 -0.6622  0.6752
  408TMC3    H2 6150   4.636   3.911   9.511  1.1257  0.7365 -2.0226
  408TMC3    C7 6151   4.378   4.000   9.489 -0.2280 -0.5321 -0.7295
  408TMC3    C8 6152   0.111   4.025   9.555 -0.0525 -0.2426 -0.1174
  408TMC3    O1 6153   4.384   3.876   9.474 -0.0857 -0.2497  0.5659
  408TMC3    O2 6154   0.122   3.907   9.518  0.3357 -0.4103  0.1200
  409MPD2     C 6155   4.281   4.737  16.774 -0.2878  0.4479  0.2651
  409MPD2    C1 6156   4.354   0.046  16.883  0.2821  0.2994  0.0667
  409MPD2    C2 6157   4.411   0.170  16.885  0.0834  0.3830  0.8342
  409MPD2    C3 6158   4.395   0.252  16.774  0.3000  0.0264 -0.2074
  409MPD2    C4 6159   4.320   0.208  16.665  0.3339 -1.0392  0.4461
  409MPD2    C5 6160   4.270   0.081  16.666 -0.1111  0.8083  0.1414
  409MPD2     H 6161   4.460   0.196  16.978  0.8689  1.2748  0.1688
  409MPD2    H1 6162   4.306   0.273  16.579  3.1289  1.3003  1.7710
  409MPD2    H2 6163   4.233   4.640  16.769  1.3496 -0.4654  2.5153
  409MPD2    H3 6164   4.218   0.036  16.582 -1.5481 -0.7667  1.8884
  409MPD2     N 6165   4.464   0.372  16.762 -0.3266 -0.4414 -0.6482
  409MPD2    H5 6166   4.454   0.421  16.674  0.6225  1.7682  0.4832
  409MPD2    N1 6167   4.367   4.708  17.007 -0.6280 -0.1587  0.4582
  409MPD2    H7 6168   4.431   0.013  17.072 -1.4472 -0.9927  1.8287
  410TMC3    C1 6169   4.645   0.521  16.792 -0.1971  1.1712  0.2532
  410TMC3    C2 6170   0.032   0.522  16.843 -0.3861 -0.2126  0.5265
  410TMC3    C3 6171   0.131   0.573  16.763 -1.2587 -0.0076  0.2067
  410TMC3    C4 6172   4.618   0.556  16.664  0.1997  0.4593 -0.2004
  410TMC3    C5 6173   4.721   0.598  16.584  0.2690  0.3523 -0.2835
  410TMC3    C6 6174   0.100   0.628  16.638 -0.2496  0.7740 -0.6531
  410TMC3     C 6175   4.556   0.421  16.850 -0.1828  0.3373  0.6283
  410TMC3     O 6176   4.587   0.375  16.959 -0.4040  0.1426 -0.3359
  410TMC3     H 6177   0.056   0.490  16.944  0.6493 -2.2592 -0.3731
  410TMC3    H1 6178   4.519   0.556  16.620  0.0597 -1.6481  0.1286
  410TMC3    H2 6179   0.186   0.662  16.581  1.2705 -0.7982  0.6999
  410TMC3    C7 6180   4.688   0.652  16.456  0.4123  0.0227 -0.3884
  410TMC3    C8 6181   0.263   0.523  16.797  0.1800 -0.9919 -0.2309
  410TMC3    O1 6182   4.589   0.609  16.401  0.4784  0.2957  0.0583
  410TMC3    O2 6183   0.355   0.604  16.776 -0.1870 -0.7927 -0.3951
  411MPD2     C 6184   4.137   0.299  14.613  0.1126 -0.3452 -0.3732
  411MPD2    C1 6185   4.165   0.375  14.500 -0.7085  0.4143 -0.0785
  411MPD2    C2 6186   4.139   0.328  14.368  0.2568 -0.0704  0.0724
  411MPD2    C3 6187   4.086   0.197  14.354 -0.0130 -0.9705 -0.3770
  411MPD2    C4 6188   4.079   0.116  14.468 -0.5787 -0.2270 -0.1237
  411MPD2    C5 6189   4.103   0.167  14.593 -1.1086 -0.0479  0.3562
  411MPD2     H 6190   4.164   0.375  14.273 -0.3204  1.2034  0.5508
  411MPD2    H1 6191   4.035   0.017  14.469 -0.2863 -0.3855 -1.7358
  411MPD2    H2 6192   4.163   0.328  14.714 -0.9496 -0.2437 -0.1218
  411MPD2    H3 6193   4.077   0.099  14.673  0.1974  4.7836  4.9237
  411MPD2     N 6194   4.038   0.147  14.231 -0.1283 -0.4793  0.0733
  411MPD2    H5 6195   4.013   0.049  14.218  0.5282 -0.6516  0.1295
  411MPD2    N1 6196   4.232   0.495  14.535 -0.3699  0.7087  0.0908
  411MPD2    H7 6197   4.228   0.512  14.635  0.2376 -0.4980  0.3157
  412TMC3    C1 6198   3.961   0.157  14.006  0.1065 -0.0199  0.2498
  412TMC3    C2 6199   3.854   0.224  13.954 -0.5866 -0.0552  0.3621
  412TMC3    C3 6200   3.799   0.174  13.836 -0.2378 -0.7982  0.3388
  412TMC3    C4 6201   4.024   0.043  13.958  0.2714  0.9274  0.2871
  412TMC3    C5 6202   3.974   4.736  13.843 -0.0825 -0.3160  0.3016
  412TMC3    C6 6203   3.862   0.064  13.787 -0.2679  0.0857  0.3537
  412TMC3     C 6204   4.021   0.228  14.118  0.6690  0.5239  0.1256
  412TMC3     O 6205   4.007   0.352  14.113 -0.2416 -0.3691  0.0068
  412TMC3     H 6206   3.811   0.311  14.000 -1.3711  1.0205 -2.4080
  412TMC3    H1 6207   4.121   0.008  13.993 -0.2268  1.3908  2.1462
  412TMC3    H2 6208   3.814   0.011  13.706 -0.3306  1.2477 -0.3693
  412TMC3    C7 6209   4.077   4.718  13.744 -0.0984 -0.2654  0.5027
  412TMC3    C8 6210   3.798   0.282  13.747  0.3913  1.1859  0.6960
  412TMC3    O1 6211   4.171   4.645  13.764  0.7255 -0.3033  0.1915
  412TMC3    O2 6212   3.902   0.301  13.684  0.2106 -0.0200 -0.2270
  413MPD2     C 6213   1.350   3.208  15.641 -0.2960  0.3651  0.4980
  413MPD2    C1 6214   1.363   3.276  15.523  0.3289  0.3328 -0.5247
  413MPD2    C2 6215   1.464   3.227  15.438 -0.4988 -0.5958 -0.3791
  413MPD2    C3 6216   1.537   3.112  15.459  0.1289  0.0494  0.7726
  413MPD2    C4 6217   1.507   3.037  15.570  0.1858 -0.0533 -0.5710
  413MPD2    C5 6218   1.424   3.093  15.660 -0.0606  0.3109  0.4409
  413MPD2     H 6219   1.501   3.297  15.365  1.7675  0.3501  1.6837
  413MPD2    H1 6220   1.566   2.949  15.594  0.6877  1.1151  2.5571
  413MPD2    H2 6221   1.282   3.239  15.719  0.2163  0.9594  0.7077
  413MPD2    H3 6222   1.425   3.043  15.757 -0.0195  1.9860  1.3086
  413MPD2     N 6223   1.647   3.076  15.378  0.4932 -0.1148 -0.2003
  413MPD2    H5 6224   1.672   3.140  15.303  3.7087  0.9852  1.8444
  413MPD2    N1 6225   1.291   3.393  15.505  0.2306  0.0380  0.8308
  413MPD2    H7 6226   1.263   3.447  15.586  1.6844  0.5272  1.0120
  414TMC3    C1 6227   1.839   2.959  15.304 -0.1866  0.6333  0.0008
  414TMC3    C2 6228   1.902   2.839  15.305  0.5418 -0.3487 -0.3626
  414TMC3    C3 6229   2.003   2.816  15.213 -0.6657 -0.1030 -0.4728
  414TMC3    C4 6230   1.882   3.066  15.224 -0.4769 -0.4100  0.0203
  414TMC3    C5 6231   1.993   3.045  15.151 -0.3522 -0.2427  0.6872
  414TMC3    C6 6232   2.050   2.918  15.138 -0.3610 -0.5164  0.3893
  414TMC3     C 6233   1.743   2.983  15.413 -0.8669  0.7843  0.5785
  414TMC3     O 6234   1.765   2.910  15.511  0.2491 -0.6338 -0.6823
  414TMC3     H 6235   1.852   2.758  15.357  0.8972  0.6664  1.5950
  414TMC3    H1 6236   1.838   3.165  15.235 -0.6448 -0.8320  2.9732
  414TMC3    H2 6237   2.131   2.899  15.068  0.7293  0.4751  1.3716
  414TMC3    C7 6238   2.052   3.165  15.090  0.1928 -0.2489 -0.3664
  414TMC3    C8 6239   2.051   2.680  15.196  0.5776  0.0804 -0.1972
  414TMC3    O1 6240   1.983   3.267  15.073  0.7050  0.2330  0.0851
  414TMC3    O2 6241   2.008   2.586  15.258 -0.0520  0.1306  0.1416
  415TMC3    C1 6242   1.974   0.838  10.248  0.4578  0.9403  0.4143
  415TMC3    C2 6243   2.035   0.929  10.165 -0.4803 -0.4173  0.1777
  415TMC3    C3 6244   2.073   0.879  10.043 -0.4163 -0.6129  0.2724
  415TMC3    C4 6245   1.937   0.710  10.209  0.5291  0.4172 -0.2823
  415TMC3    C5 6246   1.963   0.678  10.079 -0.4673  0.3978 -0.0532
  415TMC3    C6 6247   2.044   0.751   9.998  0.0951 -0.5706 -0.1368
  415TMC3     C 6248   1.931   0.874  10.376  0.4840  0.0735  0.0224
  415TMC3     O 6249   1.834   0.809  10.419  0.3769 -0.0913 -0.6378
  415TMC3     H 6250   2.055   1.030  10.197 -0.6219  0.7030 -3.3482
  415TMC3    H1 6251   1.896   0.635  10.275  0.8830  1.0432  0.6575
  415TMC3    H2 6252   2.057   0.731   9.893 -3.7280 -0.5644 -0.5737
  415TMC3    C7 6253   1.888   0.578  10.004  0.4265 -0.3084 -0.5250
  415TMC3    C8 6254   2.098   0.985   9.941  0.9884 -0.3445 -0.4265
  415TMC3    O1 6255   1.939   0.530   9.906 -0.4283 -0.3877  0.1804
  415TMC3    O2 6256   2.043   0.972   9.834  0.0552 -0.1808  0.8653
  416MPD2     C 6257   4.359   0.925  11.254 -0.4927 -0.1786  0.0684
  416MPD2    C1 6258   4.290   0.832  11.316 -0.2407 -0.0806  0.0290
  416MPD2    C2 6259   4.277   0.709  11.256 -0.2605  0.3225  0.6595
  416MPD2    C3 6260   4.326   0.691  11.128 -0.0070  0.5769 -0.3294
  416MPD2    C4 6261   4.407   0.779  11.065 -0.2856  0.6385 -0.6099
  416MPD2    C5 6262   4.421   0.901  11.133  0.2230  0.2349 -0.0219
  416MPD2     H 6263   4.214   0.630  11.295  2.8372 -2.5000 -0.0760
  416MPD2    H1 6264   4.446   0.774  10.964  0.2961  0.3199 -0.3692
  416MPD2    H2 6265   4.377   1.021  11.301 -0.2733 -0.6540  0.9510
  416MPD2    H3 6266   4.483   0.980  11.093 -1.8376  1.0045 -1.6630
  416MPD2     N 6267   4.282   0.576  11.056  0.1798  0.4486  0.4856
  416MPD2    H5 6268   4.228   0.509  11.109  0.6620 -0.7776 -0.5704
  416MPD2    N1 6269   4.206   0.872  11.419 -0.1184 -0.6046  0.3420
  416MPD2    H7 6270   4.199   0.971  11.441  1.6121 -0.6770  1.2484
  417TMC3    C1 6271   3.998   0.850  11.551 -0.4069  0.4232 -0.3864
  417TMC3    C2 6272   3.934   0.767  11.638 -0.0559 -0.1421 -0.2582
  417TMC3    C3 6273   3.800   0.779  11.641  0.5641  0.0617 -0.5810
  417TMC3    C4 6274   3.932   0.945  11.481 -0.6436 -0.3549 -0.3854
  417TMC3    C5 6275   3.796   0.950  11.497 -0.0815  0.0761 -1.0718
  417TMC3    C6 6276   3.732   0.876  11.575  0.1662  0.6215  0.6102
  417TMC3     C 6277   4.124   0.790  11.495 -1.0595 -0.4958  0.4489
  417TMC3     O 6278   4.127   0.665  11.501 -0.4924 -1.0062  0.1099
  417TMC3     H 6279   3.987   0.695  11.700 -1.3595  0.5395  1.6311
  417TMC3    H1 6280   3.983   0.995  11.399  1.4706  1.2912  1.9199
  417TMC3    H2 6281   3.628   0.895  11.595 -0.3385 -1.3627 -0.1278
  417TMC3    C7 6282   3.723   1.035  11.396  0.3100 -0.0178  0.2110
  417TMC3    C8 6283   3.749   0.725  11.764 -0.2823 -0.6723  0.3636
  417TMC3    O1 6284   3.789   1.117  11.328  0.0715 -0.0498  0.6941
  417TMC3    O2 6285   3.696   0.805  11.837  0.8121 -0.4462 -0.3702
  418TMC3    C1 6286   3.061   2.244  17.609  0.0253 -0.4452  0.0663
  418TMC3    C2 6287   2.963   2.332  17.595  0.4501 -0.5029  0.7758
  418TMC3    C3 6288   2.876   2.361  17.699  0.2073 -0.3585  0.1718
  418TMC3    C4 6289   3.074   2.170  17.725 -0.2157  0.3549  0.4661
  418TMC3    C5 6290   2.997   2.206   0.081 -0.0523  0.1334 -0.2528
  418TMC3    C6 6291   2.892   2.297   0.066  0.4922  0.2422 -0.2762
  418TMC3     C 6292   3.113   2.185  17.483 -0.4591  0.0492  0.3264
  418TMC3     O 6293   3.112   2.260  17.386 -0.5113  0.6848 -0.6889
  418TMC3     H 6294   2.943   2.376  17.498 -0.2531 -3.0023 -0.2104
  418TMC3    H1 6295   3.151   2.096  17.748  2.0018  2.5985  0.3082
  418TMC3    H2 6296   2.828   2.325   0.150  1.1580 -1.5056  0.8264
  418TMC3    C7 6297   2.976   2.102   0.181 -0.6606 -0.0837  0.5861
  418TMC3    C8 6298   2.748   2.410  17.658 -0.2950  0.2696 -0.5298
  418TMC3    O1 6299   2.862   2.077   0.225  0.1378  0.6524 -0.2590
  418TMC3    O2 6300   2.747   2.512  17.588  0.0749 -0.2387  1.0140
  419MPD2     C 6301   1.692   0.285  12.639  0.3959  0.8226  0.1091
  419MPD2    C1 6302   1.625   0.399  12.582 -0.2848  0.2856  0.1899
  419MPD2    C2 6303   1.567   0.484  12.664 -0.6172  0.2250  0.3541
  419MPD2    C3 6304   1.588   0.482  12.802 -0.5001  0.1743  0.7880
  419MPD2    C4 6305   1.660   0.380  12.855  0.5258 -0.4053 -0.2866
  419MPD2    C5 6306   1.709   0.283  12.771  0.1338 -0.2876  0.0200
  419MPD2     H 6307   1.504   0.562  12.622 -1.5618  0.6598  2.5715
  419MPD2    H1 6308   1.678   0.376  12.962  0.5366 -1.0247 -0.3151
  419MPD2    H2 6309   1.713   0.199  12.576  0.5071  0.8569  0.0999
  419MPD2    H3 6310   1.778   0.213  12.817  0.8068 -0.4756 -1.2881
  419MPD2     N 6311   1.523   0.590  12.871 -0.9081  0.6769  0.2956
  419MPD2    H5 6312   1.457   0.642  12.815 -1.1359 -2.3771 -2.2550
  419MPD2    N1 6313   1.594   0.409  12.449  0.5122  0.1008  0.0792
  419MPD2    H7 6314   1.513   0.462  12.418 -0.2845 -2.5967 -2.4804
  420TMC3    C1 6315   1.425   0.715  13.055 -0.2763 -0.3272 -1.1929
  420TMC3    C2 6316   1.348   0.777  12.956 -1.0576  0.1694 -0.2133
  420TMC3    C3 6317   1.227   0.827  12.998  0.4489  0.3044  0.3376
  420TMC3    C4 6318   1.395   0.716  13.189  0.6441 -0.3170  0.1141
  420TMC3    C5 6319   1.267   0.765  13.215  0.2786 -0.5238  0.3040
  420TMC3    C6 6320   1.188   0.820  13.127  0.9448 -0.8268  0.0713
  420TMC3     C 6321   1.520   0.615  13.007  0.0891 -0.3843  0.3864
  420TMC3     O 6322   1.571   0.543  13.090  0.2358 -0.0607  0.6501
  420TMC3     H 6323   1.376   0.789  12.852 -0.6581 -1.6344 -0.3169
  420TMC3    H1 6324   1.460   0.668  13.261  0.2198 -0.1357  0.6203
  420TMC3    H2 6325   1.095   0.869  13.155 -0.3613 -1.6340 -2.7625
  420TMC3    C7 6326   1.204   0.697  13.322 -0.3420  0.0645  0.3304
  420TMC3    C8 6327   1.157   0.918  12.907 -0.6746 -0.0063  0.0489
  420TMC3    O1 6328   1.229   0.575  13.336  0.5099 -0.4973  0.5805
  420TMC3    O2 6329   1.037   0.927  12.922  0.7821 -0.1982  0.4281
  421TMC3    C1 6330   2.719   1.886  13.646  0.3968  0.6569 -0.0024
  421TMC3    C2 6331   2.645   1.980  13.714 -0.1099  0.4618  0.2452
  421TMC3    C3 6332   2.632   1.967  13.852 -0.5895 -0.3216  0.6104
  421TMC3    C4 6333   2.764   1.767  13.701 -0.3066 -0.5222  0.6212
  421TMC3    C5 6334   2.733   1.748  13.833  0.3807 -0.6921  0.0208
  421TMC3    C6 6335   2.675   1.848  13.910  0.9050 -0.6700 -0.0832
  421TMC3     C 6336   2.735   1.894  13.503 -0.0806 -0.3987  0.3026
  421TMC3     O 6337   2.839   1.858  13.445 -0.3200  0.1312  0.3302
  421TMC3     H 6338   2.618   2.075  13.670 -0.2684 -0.2478 -1.1953
  421TMC3    H1 6339   2.832   1.709  13.639  0.5640  1.7931 -0.6013
  421TMC3    H2 6340   2.663   1.832  14.016 -0.3890  0.3099 -0.0816
  421TMC3    C7 6341   2.828   1.672  13.908  0.6002  0.5029 -0.5280
  421TMC3    C8 6342   2.571   2.066  13.939 -0.3790 -0.0084 -0.6419
  421TMC3    O1 6343   2.941   1.677  13.866 -0.0866 -0.2649 -0.1734
  421TMC3    O2 6344   2.591   2.053  14.061 -0.6116  0.1983  0.1445
  422TMC3    C1 6345   0.275   3.595  12.517  0.8230 -0.5803 -0.9058
  422TMC3    C2 6346   0.266   3.601  12.656 -0.2033  0.4928 -0.8034
  422TMC3    C3 6347   0.150   3.583  12.723  0.2230  0.2989  0.1623
  422TMC3    C4 6348   0.161   3.571  12.443  0.0716  0.1459  0.2271
  422TMC3    C5 6349   0.055   3.517  12.517  0.5478 -0.1448  0.9130
  422TMC3    C6 6350   0.039   3.540  12.651 -0.2965 -0.3260 -0.1252
  422TMC3     C 6351   0.399   3.637  12.458 -0.0036 -0.3397  0.3657
  422TMC3     O 6352   0.490   3.668  12.535 -0.0061  0.5044 -0.3378
  422TMC3     H 6353   0.354   3.631  12.712 -0.7255  1.6146 -0.5927
  422TMC3    H1 6354   0.156   3.546  12.337  0.0371  3.1662 -0.4675
  422TMC3    H2 6355   4.690   3.517  12.712 -1.0561  1.3886 -0.5421
  422TMC3    C7 6356   4.681   3.464  12.436 -0.1233 -0.9792  0.3678
  422TMC3    C8 6357   0.121   3.697  12.810  0.3230  0.0487 -0.4422
  422TMC3    O1 6358   4.669   3.480  12.314  0.1373 -0.1528 -0.4951
  422TMC3    O2 6359   0.217   3.750  12.862 -0.3540  0.3746 -0.2876
  423MPD2     C 6360   0.915   4.076   0.092  0.2417 -0.6452  0.0744
  423MPD2    C1 6361   0.989   4.192   0.083  0.1143 -0.4056 -0.1775
  423MPD2    C2 6362   1.068   4.217  17.722  0.5803 -0.7343 -0.1881
  423MPD2    C3 6363   1.069   4.131  17.616 -0.1963  0.4941 -0.1310
  423MPD2    C4 6364   0.992   4.016  17.619  0.7346  0.3148  1.0000
  423MPD2    C5 6365   0.923   3.989  17.738  0.4462  0.4541  0.0867
  423MPD2     H 6366   1.119   4.312  17.715 -0.2872 -0.2180  0.6415
  423MPD2    H1 6367   0.997   3.936  17.546 -1.5493 -0.3117  1.5445
  423MPD2    H2 6368   0.854   4.046   0.176  0.3476  0.0753  0.4104
  423MPD2    H3 6369   0.887   3.890   0.015  2.0969 -0.5351 -1.3854
  423MPD2     N 6370   1.143   4.151  17.495  0.2495 -0.1535 -0.0205
  423MPD2    H5 6371   1.127   4.074  17.431  3.8200 -1.8582  1.1458
  423MPD2    N1 6372   0.963   4.288   0.189 -0.1214  0.0364 -0.5419
  423MPD2    H7 6373   0.924   4.252   0.276 -0.9494 -0.2953 -1.0526
  424TMC3    C1 6374   0.977   4.498   0.313 -0.1126  0.1551 -0.2670
  424TMC3    C2 6375   0.949   4.441   0.431  0.4472 -0.6110  0.2686
  424TMC3    C3 6376   0.933   4.517   0.543  0.0792 -0.2473 -0.7268
  424TMC3    C4 6377   0.973   4.632   0.305 -0.5414 -0.0184  0.3151
  424TMC3    C5 6378   0.961   4.707   0.422  0.5780 -0.6770 -0.3377
  424TMC3    C6 6379   0.943   4.651   0.553  0.0175  0.1527  0.3271
  424TMC3     C 6380   0.993   4.425   0.188  0.0317  0.0950  0.0534
  424TMC3     O 6381   1.026   4.490   0.088 -0.2183  0.0451 -0.0194
  424TMC3     H 6382   0.963   4.334   0.440 -1.1009 -0.6350  2.3528
  424TMC3    H1 6383   0.991   4.690   0.215  0.6421  2.5616  2.2122
  424TMC3    H2 6384   0.937   4.719   0.637  1.9871  1.3494 -0.5008
  424TMC3    C7 6385   0.945   0.113   0.395 -0.4663 -0.5200  0.5070
  424TMC3    C8 6386   0.894   4.443   0.665 -0.0612 -0.8146 -0.4673
  424TMC3    O1 6387   0.978   0.149   0.283  0.3018  0.0708  0.0883
  424TMC3    O2 6388   0.912   4.322   0.670  0.2114  0.0106 -0.8150
  425MPD2     C 6389   0.187   3.543  16.905 -0.5024  0.1092 -0.2945
  425MPD2    C1 6390   0.223   3.430  16.978  1.2069 -0.2266 -0.5821
  425MPD2    C2 6391   0.201   3.435  17.117  0.4260 -0.1765 -0.6703
  425MPD2    C3 6392   0.156   3.548  17.184  0.1396  0.0744  0.2526
  425MPD2    C4 6393   0.138   3.663  17.107  0.4311 -0.4308 -0.3684
  425MPD2    C5 6394   0.149   3.656  16.964  0.4939  0.0573  0.0299
  425MPD2     H 6395   0.199   3.341  17.171  0.3624  0.6377  0.7628
  425MPD2    H1 6396   0.113   3.757  17.155  1.2059 -0.5460  0.2572
  425MPD2    H2 6397   0.186   3.530  16.797 -2.3813  1.2685 -0.4118
  425MPD2    H3 6398   0.126   3.749  16.912 -0.8488  0.2262  0.9429
  425MPD2     N 6399   0.122   3.554  17.318 -0.4150 -0.0349  0.1847
  425MPD2    H5 6400   0.119   3.460  17.356 -0.9772 -0.5978 -1.2871
  425MPD2    N1 6401   0.250   3.304  16.915 -0.1877  0.1412 -0.5017
  425MPD2    H7 6402   0.248   3.293  16.814 -0.1958 -1.6118 -0.3153
  426TMC3    C1 6403   0.344   3.091  16.901  0.4301 -0.3060 -0.3089
  426TMC3    C2 6404   0.263   3.057  16.793  0.1251  0.8335  0.0311
  426TMC3    C3 6405   0.296   2.940  16.729 -0.3905 -0.3763 -0.3762
  426TMC3    C4 6406   0.455   3.021  16.935 -0.9835  0.5947 -0.2813
  426TMC3    C5 6407   0.478   2.910  16.860  0.3353 -0.4106 -0.7856
  426TMC3    C6 6408   0.400   2.863  16.764 -0.5710  0.2134 -0.1782
  426TMC3     C 6409   0.304   3.197  16.987  0.5296 -0.5637 -0.0740
  426TMC3     O 6410   0.344   3.185  17.104  0.2706  0.2152 -0.1099
  426TMC3     H 6411   0.180   3.119  16.762 -1.1758 -0.6955  0.4343
  426TMC3    H1 6412   0.530   3.056  17.005 -1.8409  1.1592  0.3515
  426TMC3    H2 6413   0.431   2.777  16.705  0.7467 -0.0072  0.8355
  426TMC3    C7 6414   0.557   2.813  16.931  0.4725  0.0568  0.4371
  426TMC3    C8 6415   0.212   2.880  16.621 -0.4926 -0.0921 -0.0312
  426TMC3    O1 6416   0.629   2.742  16.865 -0.0028 -0.3364 -0.2382
  426TMC3    O2 6417   0.222   2.762  16.595  0.0295 -0.0406 -0.2719
  427MPD2     C 6418   3.893   0.580  14.684 -0.2441 -0.0072 -0.6821
  427MPD2    C1 6419   3.859   0.551  14.812 -0.4151  0.8823  0.2578
  427MPD2    C2 6420   3.731   0.568  14.846 -0.5193  0.6553 -0.1614
  427MPD2    C3 6421   3.625   0.587  14.760 -0.4681  0.8533  0.0554
  427MPD2    C4 6422   3.659   0.619  14.632  0.2263 -0.5445 -0.6518
  427MPD2    C5 6423   3.790   0.619  14.598  0.0118 -0.5236  0.1549
  427MPD2     H 6424   3.713   0.555  14.953  0.0038  0.4003 -0.1037
  427MPD2    H1 6425   3.584   0.648  14.559  0.4509  0.9799 -0.2914
  427MPD2    H2 6426   3.995   0.575  14.647  0.5284  0.4850  1.3630
  427MPD2    H3 6427   3.819   0.630  14.494 -2.9845  1.0259 -0.5205
  427MPD2     N 6428   3.486   0.596  14.790 -0.0420 -0.2015 -0.2488
  427MPD2    H5 6429   3.414   0.600  14.719 -1.2620 -2.0671  0.8731
  427MPD2    N1 6430   3.944   0.500  14.916 -0.6085  0.2289 -0.3099
  427MPD2    H7 6431   3.903   0.473  15.005  1.0904 -1.2220  0.0335
  428TMC3    C1 6432   4.142   0.472  15.030 -0.0072  0.0183  0.5547
  428TMC3    C2 6433   4.087   0.373  15.103 -0.7286 -0.6726  0.6795
  428TMC3    C3 6434   4.144   0.366  15.228  0.1916  0.0380  0.5788
  428TMC3    C4 6435   4.258   0.536  15.061 -0.6345  0.6362  0.0946
  428TMC3    C5 6436   4.320   0.509  15.180 -0.3831 -0.1780 -0.0777
  428TMC3    C6 6437   4.254   0.431  15.272 -0.3421  0.7272  0.7335
  428TMC3     C 6438   4.079   0.523  14.913  0.4165  0.4931  0.9092
  428TMC3     O 6439   4.155   0.532  14.818 -0.3755 -0.6970 -0.5698
  428TMC3     H 6440   3.992   0.326  15.080 -0.3297 -0.9982 -0.3016
  428TMC3    H1 6441   4.290   0.608  14.987 -3.4136  0.6645 -1.0730
  428TMC3    H2 6442   4.309   0.381  15.351  1.2321  0.8707 -0.2718
  428TMC3    C7 6443   4.450   0.562  15.216  0.0780 -0.5863  0.5078
  428TMC3    C8 6444   4.066   0.298  15.325 -0.6315 -0.6040 -0.4612
  428TMC3    O1 6445   4.481   0.560  15.331 -0.5119 -0.4342  0.8937
  428TMC3    O2 6446   4.033   0.181  15.300 -0.0947 -0.6884 -0.6743
  429MPD2     C 6447   4.574   0.952  17.334  0.1301  0.1882 -0.5819
  429MPD2    C1 6448   4.695   0.957  17.410  0.0393  0.2601 -0.0111
  429MPD2    C2 6449   0.039   1.067  17.390 -0.6055 -0.0149  0.2695
  429MPD2    C3 6450   0.012   1.156  17.291 -0.0931  0.8148 -0.6626
  429MPD2    C4 6451   4.631   1.145  17.218  0.6826  0.2372  0.1068
  429MPD2    C5 6452   4.553   1.038  17.230  0.0198  0.2622 -0.1268
  429MPD2     H 6453   0.119   1.090  17.459 -0.2772  0.1520 -0.1667
  429MPD2    H1 6454   4.600   1.222  17.148  2.9907  1.2405  0.2071
  429MPD2    H2 6455   4.506   0.869  17.352 -0.4363  0.7944  0.0649
  429MPD2    H3 6456   4.462   1.052  17.172 -0.3604 -1.3973  0.0668
  429MPD2     N 6457   0.108   1.260  17.263  0.1917 -0.9053  0.1121
  429MPD2    H5 6458   0.183   1.261  17.331  2.0398  0.0443 -1.9615
  429MPD2    N1 6459   4.725   0.849  17.497  0.1276 -0.6460  0.1293
  429MPD2    H7 6460   4.670   0.764  17.500 -3.2637  1.3840 -4.5706
  430TMC3    C1 6461   0.213   1.438  17.153  0.1665  1.1549  0.9082
  430TMC3    C2 6462   0.202   1.553  17.075 -0.1476 -0.6921 -0.8020
  430TMC3    C3 6463   0.323   1.612  17.042 -1.2624  0.4292  0.2358
  430TMC3    C4 6464   0.333   1.377  17.177 -0.2526  0.8661 -0.1416
  430TMC3    C5 6465   0.446   1.451  17.174 -0.2699 -0.2596  0.3785
  430TMC3    C6 6466   0.438   1.568  17.098 -0.3600  0.6908  0.1096
  430TMC3     C 6467   0.102   1.357  17.162  0.0473  0.2002 -0.0692
  430TMC3     O 6468   0.026   1.368  17.070 -0.3176  0.0307  0.1061
  430TMC3     H 6469   0.109   1.582  17.029 -0.9975  1.4855  2.2776
  430TMC3    H1 6470   0.345   1.277  17.214  0.3184  0.9667 -0.0462
  430TMC3    H2 6471   0.532   1.621  17.084 -0.5614  0.9450 -0.2553
  430TMC3    C7 6472   0.570   1.383  17.156 -1.1868  0.2335 -0.2320
  430TMC3    C8 6473   0.335   1.655  16.905 -0.2527  0.3434 -0.2130
  430TMC3    O1 6474   0.671   1.424  17.212 -0.3646 -0.8574  0.0210
  430TMC3    O2 6475   0.447   1.644  16.847 -0.0243  0.5079 -0.0644
  431MPD2     C 6476   1.161   1.041  12.265 -0.5017 -0.2813  0.3094
  431MPD2    C1 6477   1.271   1.032  12.180 -0.2685  0.4526  0.8521
  431MPD2    C2 6478   1.310   0.905  12.133 -0.3301 -0.3131 -0.8175
  431MPD2    C3 6479   1.251   0.786  12.185  0.1277 -0.5888 -0.1486
  431MPD2    C4 6480   1.151   0.809  12.276  0.6001  0.7105  0.7069
  431MPD2    C5 6481   1.108   0.930  12.318 -0.0413  0.7672 -0.3668
  431MPD2     H 6482   1.394   0.896  12.065  0.7375 -0.5780  0.5223
  431MPD2    H1 6483   1.097   0.718  12.300  0.4188  0.8631  0.8739
  431MPD2    H2 6484   1.120   1.136  12.297 -1.4990 -0.4809 -0.3728
  431MPD2    H3 6485   1.013   0.935  12.371  0.5464  1.1444  0.6325
  431MPD2     N 6486   1.304   0.656  12.162  0.2418 -0.0854 -0.1447
  431MPD2    H5 6487   1.271   0.582  12.223 -2.0725  1.0752  0.0288
  431MPD2    N1 6488   1.356   1.141  12.141 -0.1577  0.4349 -0.2383
  431MPD2    H7 6489   1.431   1.121  12.075 -1.9352 -1.7050 -1.5913
  432TMC3    C1 6490   1.467   0.498  12.085  0.4215  0.2119 -0.3510
  432TMC3    C2 6491   1.520   0.448  11.974  0.2707 -1.2929  0.3279
  432TMC3    C3 6492   1.612   0.354  11.991  0.0141 -0.0092 -0.7106
  432TMC3    C4 6493   1.503   0.469  12.209 -0.1195 -0.3632 -0.5324
  432TMC3    C5 6494   1.598   0.375  12.226  0.1204  0.4512 -0.3927
  432TMC3    C6 6495   1.654   0.316  12.117 -0.5038  0.4157  0.1127
  432TMC3     C 6496   1.398   0.624  12.066  0.0014  0.3386 -0.0319
  432TMC3     O 6497   1.426   0.682  11.965 -0.1902  0.1670  0.3206
  432TMC3     H 6498   1.492   0.477  11.874 -1.8936 -0.5132  1.1752
  432TMC3    H1 6499   1.461   0.529  12.289  0.0061 -0.8895 -0.0695
  432TMC3    H2 6500   1.727   0.237  12.134 -1.4858 -0.4246  0.4182
  432TMC3    C7 6501   1.669   0.355  12.353 -0.2690  0.3190 -0.1754
  432TMC3    C8 6502   1.689   0.309  11.870  0.9604 -0.4795  0.6947
  432TMC3    O1 6503   1.790   0.328  12.350  0.2117 -0.1436  0.5696
  432TMC3    O2 6504   1.624   0.326  11.768  0.7217  0.1782  0.3317
  433MPD2     C 6505   0.158   0.132  10.587  0.2902 -0.2306  0.0199
  433MPD2    C1 6506   0.159   0.024  10.672 -0.1585 -0.2428 -0.1909
  433MPD2    C2 6507   0.155   0.045  10.811  0.9747 -0.4303 -0.1992
  433MPD2    C3 6508   0.166   0.175  10.863 -1.0634  0.3223 -0.4819
  433MPD2    C4 6509   0.176   0.280  10.777 -0.4418  0.1796 -1.2086
  433MPD2    C5 6510   0.174   0.258  10.642 -0.5144 -0.9294  0.5336
  433MPD2     H 6511   0.164   4.698  10.877 -1.0322 -1.2872 -1.0085
  433MPD2    H1 6512   0.182   0.381  10.816  3.6608 -0.3663 -0.3278
  433MPD2    H2 6513   0.138   0.120  10.482 -0.5107  0.8890  0.0392
  433MPD2    H3 6514   0.169   0.340  10.572  1.0270 -2.1215 -0.9598
  433MPD2     N 6515   0.176   0.187  11.005  0.2989  0.0997  0.1815
  433MPD2    H5 6516   0.165   0.101  11.057 -2.2380  0.6526  0.5445
  433MPD2    N1 6517   0.174   4.631  10.623  0.5851 -0.3049  0.6017
  433MPD2    H7 6518   0.206   4.563  10.692  2.8912 -0.8047 -0.9661
  434TMC3    C1 6519   0.211   4.458  10.468  0.2097  0.2169 -0.6077
  434TMC3    C2 6520   0.303   4.411  10.561  0.0916 -0.6656 -0.0838
  434TMC3    C3 6521   0.299   4.276  10.583 -0.1743 -0.1529  0.4567
  434TMC3    C4 6522   0.120   4.376  10.401  0.8299  0.5056  0.1714
  434TMC3    C5 6523   0.119   4.245  10.435  0.4596  0.0048  0.0075
  434TMC3    C6 6524   0.221   4.186  10.515 -0.1274 -0.0016  0.1337
  434TMC3     C 6525   0.150   4.587  10.493  0.5463 -0.1525 -0.5916
  434TMC3     O 6526   0.097   4.643  10.398  0.2186 -0.8157 -0.3072
  434TMC3     H 6527   0.386   4.467  10.600 -0.5209  0.5347 -0.5153
  434TMC3    H1 6528   0.046   4.405  10.328 -0.4079  0.0825  1.2501
  434TMC3    H2 6529   0.218   4.079  10.529  0.3220  0.0416  0.5695
  434TMC3    C7 6530   0.018   4.163  10.370 -0.4474  0.2963 -0.5686
  434TMC3    C8 6531   0.380   4.227  10.693 -0.3211 -0.0070  0.6119
  434TMC3    O1 6532   0.008   4.173  10.247  0.0810 -0.2328  0.0654
  434TMC3    O2 6533   0.441   4.300  10.773 -0.2398 -0.0642  0.0271
  435MPD2     C 6534   2.299   4.227  15.329  0.2265 -0.1606 -0.1533
  435MPD2    C1 6535   2.269   4.258  15.457  0.4790 -0.3533  0.5509
  435MPD2    C2 6536   2.345   4.214  15.565 -0.0037  0.2432  0.2745
  435MPD2    C3 6537   2.460   4.139  15.544 -0.1420  0.1009  0.3500
  435MPD2    C4 6538   2.499   4.123  15.409 -0.4784  0.3065  0.5849
  435MPD2    C5 6539   2.415   4.162  15.306 -0.7227  1.0256  0.7473
  435MPD2     H 6540   2.316   4.230  15.668 -0.4588 -1.4933  0.4107
  435MPD2    H1 6541   2.592   4.070  15.391 -0.7860 -0.3182  0.8573
  435MPD2    H2 6542   2.245   4.256  15.240 -1.2624  3.1979  1.8352
  435MPD2    H3 6543   2.453   4.150  15.205  0.6503 -1.2842  1.5454
  435MPD2     N 6544   2.522   4.089  15.659  1.0020 -0.0158 -0.0358
  435MPD2    H5 6545   2.487   4.118  15.750  1.0503 -1.9447  0.6146
  435MPD2    N1 6546   2.150   4.334  15.493  0.5034  0.6477 -0.2407
  435MPD2    H7 6547   2.137   4.339  15.594  3.7466 -0.8020  0.2614
  436TMC3    C1 6548   1.850   4.540  15.665  0.6837  0.6711  0.2271
  436TMC3    C2 6549   1.950   4.461  15.610  0.4551  0.0256  0.4941
  436TMC3    C3 6550   1.962   4.465  15.475  0.6247  0.3816  0.0737
  436TMC3    C4 6551   1.768   4.619  15.584  0.0682 -0.1387 -0.1296
  436TMC3    C5 6552   1.779   4.611  15.449 -0.6339 -0.2881  0.1875
  436TMC3    C6 6553   1.885   4.545  15.393 -0.5342  0.0884 -0.5632
  436TMC3     C 6554   1.877   4.589  15.799  0.7761 -0.7115 -0.5194
  436TMC3     O 6555   1.994   4.581  15.836 -0.4691  0.0107 -0.1391
  436TMC3     H 6556   2.022   4.412  15.675  0.2951 -0.9790 -0.1042
  436TMC3    H1 6557   1.685   4.669  15.633  0.4390 -0.9287  1.3084
  436TMC3    H2 6558   1.904   4.545  15.286  1.7554 -1.0051 -0.1532
  436TMC3    C7 6559   1.750   4.733  15.370  0.9639 -0.1581 -0.1689
  436TMC3    C8 6560   2.062   4.384  15.403  0.0935 -0.0108 -0.3931
  436TMC3    O1 6561   1.840   0.035  15.298  0.1650 -0.1722  0.2467
  436TMC3    O2 6562   2.062   4.389  15.277  0.2375  0.1202 -0.4919
  437TMC3    C1 6563   1.159   2.045  11.772  0.3163  1.2228  0.9983
  437TMC3    C2 6564   1.079   2.021  11.666 -0.3825 -0.6858 -0.0463
  437TMC3    C3 6565   1.152   1.969  11.561 -0.3785 -0.7302  0.0562
  437TMC3    C4 6566   1.291   2.006  11.796  0.3740 -0.6292  0.5538
  437TMC3    C5 6567   1.343   1.946  11.694 -0.0954 -0.6346  0.1610
  437TMC3    C6 6568   1.283   1.933  11.570 -0.2927  0.0890 -0.3743
  437TMC3     C 6569   1.102   2.125  11.880  0.0569 -0.2546  0.2718
  437TMC3     O 6570   1.147   2.111  11.993  0.8822 -0.3072  0.4251
  437TMC3     H 6571   0.977   2.054  11.655  0.3699  1.2617 -1.1685
  437TMC3    H1 6572   1.335   2.029  11.893  3.1940 -0.7614 -0.6949
  437TMC3    H2 6573   1.319   1.864  11.495  0.5716  1.6623 -1.4291
  437TMC3    C7 6574   1.470   1.875  11.710  0.1520  0.3388 -0.0552
  437TMC3    C8 6575   1.109   1.991  11.425 -0.2508  0.5987 -0.0265
  437TMC3    O1 6576   1.523   1.827  11.609 -0.4428  0.0351 -0.0191
  437TMC3    O2 6577   1.190   1.997  11.337  0.2526 -0.1709  0.1646
  438MPD2     C 6578   2.738   2.333  16.325  0.3375  0.4178 -0.3071
  438MPD2    C1 6579   2.809   2.236  16.385  0.2482  0.1067  0.2163
  438MPD2    C2 6580   2.781   2.191  16.510 -0.7324 -0.0531  0.1511
  438MPD2    C3 6581   2.697   2.259  16.586  0.0175  0.1238  0.0746
  438MPD2    C4 6582   2.618   2.362  16.533  0.3098 -0.3600 -0.5412
  438MPD2    C5 6583   2.638   2.393  16.398 -0.1810 -0.4888 -0.6133
  438MPD2     H 6584   2.848   2.121  16.558 -1.4114 -1.3059 -0.7163
  438MPD2    H1 6585   2.548   2.418  16.595 -0.6729 -0.4868 -1.5371
  438MPD2    H2 6586   2.757   2.363  16.222 -1.2569 -2.1735 -1.3407
  438MPD2    H3 6587   2.586   2.478  16.357 -0.4741 -0.8149 -0.9158
  438MPD2     N 6588   2.670   2.220  16.725  0.6045 -0.1497  0.3024
  438MPD2    H5 6589   2.607   2.284  16.772  2.5044  1.1861  1.0222
  438MPD2    N1 6590   2.928   2.192  16.327  0.3587  0.0064 -0.5742
  438MPD2    H7 6591   2.987   2.126  16.377  1.2602  1.8178  0.7483
  439TMC3    C1 6592   3.118   2.166  16.198 -0.3546 -0.0234  0.0024
  439TMC3    C2 6593   3.145   2.111  16.073 -0.4085 -0.5085  0.0007
  439TMC3    C3 6594   3.244   2.025  16.061 -0.0153 -0.0168  0.1904
  439TMC3    C4 6595   3.189   2.140  16.310 -0.5233 -0.2246 -0.1781
  439TMC3    C5 6596   3.292   2.049  16.291  0.1157 -0.2459  0.0575
  439TMC3    C6 6597   3.312   1.985  16.173  0.5845 -0.1182 -0.1533
  439TMC3     C 6598   2.990   2.235  16.208  0.0545  0.0346 -0.4568
  439TMC3     O 6599   2.953   2.323  16.132  0.4977 -0.3409 -1.1702
  439TMC3     H 6600   3.077   2.136  15.993 -2.1892 -0.6636  1.4761
  439TMC3    H1 6601   3.162   2.192  16.401  0.9892  2.4017 -1.2271
  439TMC3    H2 6602   3.399   1.922  16.167  1.3974  0.9261  0.5391
  439TMC3    C7 6603   3.385   2.021  16.398 -0.2651  0.0645  1.1437
  439TMC3    C8 6604   3.312   1.986  15.936  0.3790 -0.3608 -0.0416
  439TMC3    O1 6605   3.441   1.912  16.397 -0.3351  0.4844  0.4730
  439TMC3    O2 6606   3.405   1.909  15.949  0.3376  0.3760  0.3562
  440MPD2     C 6607   1.690   2.497  14.457  0.1254  0.2346 -0.0064
  440MPD2    C1 6608   1.695   2.516  14.592  0.0985 -0.5556 -0.2081
  440MPD2    C2 6609   1.712   2.399  14.670 -0.5868 -1.0194  0.2804
  440MPD2    C3 6610   1.740   2.276  14.614  0.1093  0.3012 -0.1432
  440MPD2    C4 6611   1.746   2.268  14.479  0.4655  0.1219  0.4002
  440MPD2    C5 6612   1.713   2.374  14.404  0.5014  0.0024 -0.3440
  440MPD2     H 6613   1.715   2.411  14.778 -0.9272 -1.4740  0.3369
  440MPD2    H1 6614   1.780   2.176  14.432 -0.7446  0.3171 -0.8464
  440MPD2    H2 6615   1.661   2.578  14.392 -1.2676  0.0941  0.4289
  440MPD2    H3 6616   1.715   2.357  14.297  0.3030 -0.8162 -0.2175
  440MPD2     N 6617   1.770   2.160  14.684 -0.2593 -0.5538 -0.2029
  440MPD2    H5 6618   1.822   2.083  14.643  0.2141 -0.0174 -0.6069
  440MPD2    N1 6619   1.667   2.638  14.656  0.2289  0.0579  0.3849
  440MPD2    H7 6620   1.685   2.646  14.756  0.4528 -0.4559  0.3844
  441TMC3    C1 6621   1.816   2.040  14.880  0.8453 -0.2954 -0.2578
  441TMC3    C2 6622   1.947   2.031  14.843  0.4414  0.3741  0.1099
  441TMC3    C3 6623   2.043   2.009  14.937 -0.0691 -0.0133  0.3880
  441TMC3    C4 6624   1.783   2.000  15.005 -0.4165 -0.1814 -0.0078
  441TMC3    C5 6625   1.878   1.952  15.086  0.1443 -0.1019  0.5803
  441TMC3    C6 6626   2.009   1.983  15.055 -0.1346 -0.1302 -0.1824
  441TMC3     C 6627   1.738   2.145  14.817 -0.0734  0.6385 -0.1591
  441TMC3     O 6628   1.640   2.187  14.878  0.0193  0.0591 -0.1687
  441TMC3     H 6629   1.991   2.062  14.749 -0.6583 -0.2960 -0.6227
  441TMC3    H1 6630   1.677   2.010  15.022  0.0943  2.5822  1.5280
  441TMC3    H2 6631   2.084   1.974  15.132 -0.7831 -1.1778  0.3184
  441TMC3    C7 6632   1.838   1.938  15.217 -0.0014  0.2237 -0.2867
  441TMC3    C8 6633   2.156   2.105  14.922 -0.2700  0.6869  0.4209
  441TMC3    O1 6634   1.714   1.957  15.237  0.2356 -0.0896 -0.3379
  441TMC3    O2 6635   2.248   2.070  14.851  0.0276  0.3043  0.4044
  442MPD2     C 6636   0.231   3.425  15.987 -0.1377 -0.0094  0.1063
  442MPD2    C1 6637   0.101   3.412  16.027 -0.2696 -0.7914  0.7496
  442MPD2    C2 6638   0.031   3.303  15.982  0.5266 -0.2975  0.2291
  442MPD2    C3 6639   0.083   3.221  15.883  0.0734  0.7470  0.3367
  442MPD2    C4 6640   0.210   3.244  15.836  0.3166  0.3035 -0.1180
  442MPD2    C5 6641   0.287   3.346  15.885  0.1041  0.5725  0.1651
  442MPD2     H 6642   4.674   3.275  16.027 -0.4915  0.9848 -1.0952
  442MPD2    H1 6643   0.257   3.178  15.765 -0.1517  0.5660 -0.6684
  442MPD2    H2 6644   0.293   3.510  16.012 -0.6441  0.3638  0.0698
  442MPD2    H3 6645   0.388   3.352  15.847  0.2387 -0.1764  0.3899
  442MPD2     N 6646   0.026   3.107  15.831 -0.3314  0.1794  0.3793
  442MPD2    H5 6647   0.078   3.060  15.758 -1.2221 -0.1515 -0.0478
  442MPD2    N1 6648   0.047   3.484  16.135  0.0379 -0.1851 -0.2120
  442MPD2    H7 6649   4.688   3.455  16.150 -0.7545  3.0618  0.9612
  443TMC3    C1 6650   0.011   3.634  16.308  0.5570  0.8515 -0.2708
  443TMC3    C2 6651   4.649   3.696  16.246 -0.2112 -0.5132  0.6354
  443TMC3    C3 6652   4.544   3.755  16.319 -0.3591  0.4069 -0.1423
  443TMC3    C4 6653   0.023   3.636  16.442 -0.7934  0.1013  0.8472
  443TMC3    C5 6654   4.666   3.702  16.514  0.0808  0.1431  0.6554
  443TMC3    C6 6655   4.551   3.761  16.452 -0.0410 -0.0293 -0.0603
  443TMC3     C 6656   0.108   3.562  16.228 -0.0355 -0.4369 -0.0397
  443TMC3     O 6657   0.229   3.566  16.251 -0.1580  0.1354  0.2948
  443TMC3     H 6658   4.631   3.685  16.140 -0.7413 -0.6025  0.7357
  443TMC3    H1 6659   0.108   3.593  16.494  0.1806  1.0526  0.0586
  443TMC3    H2 6660   4.471   3.801  16.514  0.7875  0.0475  0.9703
  443TMC3    C7 6661   4.638   3.621  16.634  0.4061 -0.1264 -0.0103
  443TMC3    C8 6662   4.416   3.788  16.257  0.2736  1.3466 -0.5429
  443TMC3    O1 6663   4.711   3.520  16.640 -0.1458 -0.8754 -0.4029
  443TMC3    O2 6664   4.344   3.848  16.335 -0.2994  1.0817 -0.3995
  444MPD2     C 6665   4.592   2.655  16.888 -0.8713  0.5953 -0.4664
  444MPD2    C1 6666   4.575   2.546  16.972  0.1108 -0.3617  0.2976
  444MPD2    C2 6667   4.635   2.430  16.933 -0.1834 -0.8719 -0.1989
  444MPD2    C3 6668   4.716   2.428  16.824 -0.5134 -0.0872  1.0143
  444MPD2    C4 6669   4.718   2.529  16.735  0.7704  0.2354 -0.4223
  444MPD2    C5 6670   4.654   2.641  16.765  0.8972  0.4865  0.6268
  444MPD2     H 6671   4.633   2.338  16.989  2.4767 -2.0903 -2.1184
  444MPD2    H1 6672   0.032   2.533  16.640 -1.3410  2.9654 -1.4520
  444MPD2    H2 6673   4.550   2.749  16.920 -2.3012 -0.6431  1.2839
  444MPD2    H3 6674   4.660   2.731  16.704 -0.1467 -0.4466 -0.8432
  444MPD2     N 6675   0.070   2.322  16.823 -0.6686 -0.5755  0.0581
  444MPD2    H5 6676   0.058   2.256  16.900 -0.0364  0.5778  1.1645
  444MPD2    N1 6677   4.512   2.554  17.099 -0.5246 -0.4820  0.2813
  444MPD2    H7 6678   4.500   2.467  17.149 -1.7645 -0.5165 -0.0602
  445TMC3    C1 6679   0.266   2.205  16.788  0.0916 -0.8244 -0.2201
  445TMC3    C2 6680   0.260   2.154  16.916  0.2268 -0.4057  0.4612
  445TMC3    C3 6681   0.337   2.049  16.954 -0.0896 -0.5426 -0.8393
  445TMC3    C4 6682   0.354   2.148  16.695 -0.0715  0.1506  1.4190
  445TMC3    C5 6683   0.432   2.045  16.736 -0.0123 -0.0594 -0.3573
  445TMC3    C6 6684   0.428   1.995  16.866 -0.1310  0.2536 -0.3704
  445TMC3     C 6685   0.174   2.306  16.739 -0.5647  0.4728  0.3546
  445TMC3     O 6686   0.206   2.372  16.639  0.3530  0.5122 -0.5902
  445TMC3     H 6687   0.196   2.199  16.992  1.3758  0.2266  1.0509
  445TMC3    H1 6688   0.355   2.184  16.592  0.1159 -0.4373  1.2142
  445TMC3    H2 6689   0.490   1.907  16.883  0.4192  0.9589  1.2953
  445TMC3    C7 6690   0.517   1.999  16.638 -0.5855  1.0473  0.5409
  445TMC3    C8 6691   0.324   2.000  17.091  0.0022 -0.0959  0.4143
  445TMC3    O1 6692   0.551   2.082  16.552 -0.1270 -0.0358  0.3523
  445TMC3    O2 6693   0.218   2.018  17.146  0.2434  0.7840  0.0232
  446MPD2     C 6694   0.218   4.343  11.316  0.3957  0.3592 -0.5003
  446MPD2    C1 6695   0.200   4.286  11.194  0.1550 -0.3433  0.5368
  446MPD2    C2 6696   0.304   4.302  11.109  0.0230 -0.1954 -0.6087
  446MPD2    C3 6697   0.426   4.367  11.144  0.5872  0.6055 -0.5322
  446MPD2    C4 6698   0.442   4.405  11.276 -0.2044 -0.5940 -0.6648
  446MPD2    C5 6699   0.339   4.401  11.357 -0.4664 -0.6160 -0.0171
  446MPD2     H 6700   0.297   4.272  11.005 -0.9762  0.3535 -0.7040
  446MPD2    H1 6701   0.530   4.456  11.315 -1.0742  1.8660 -1.9023
  446MPD2    H2 6702   0.149   4.327  11.398 -2.1278 -0.9606 -2.8789
  446MPD2    H3 6703   0.351   4.430  11.461 -1.2504  0.4021 -0.2075
  446MPD2     N 6704   0.534   4.371  11.049  0.1917  0.1225  0.4707
  446MPD2    H5 6705   0.508   4.356  10.952  1.9736 -0.4238  0.0720
  446MPD2    N1 6706   0.067   4.235  11.166  0.6718 -0.3309 -0.6657
  446MPD2    H7 6707   4.736   4.254  11.238  0.6050 -3.5579  0.1435
  447TMC3    C1 6708   0.751   4.361  10.960 -0.2802  0.2848 -0.6151
  447TMC3    C2 6709   0.702   4.414  10.847  0.5660 -1.1160  0.4573
  447TMC3    C3 6710   0.743   4.369  10.730 -0.9253 -0.1553  0.5332
  447TMC3    C4 6711   0.840   4.258  10.966  0.4743  0.1659  0.0031
  447TMC3    C5 6712   0.867   4.212  10.846 -0.7468 -0.5099 -0.0502
  447TMC3    C6 6713   0.829   4.259  10.726  0.0067  0.0923 -0.3646
  447TMC3     C 6714   0.670   4.389  11.080 -0.2221 -0.5017 -0.1650
  447TMC3     O 6715   0.721   4.397  11.191 -0.2965  0.5036 -0.1314
  447TMC3     H 6716   0.639   4.502  10.853  3.3605  0.8889  0.5213
  447TMC3    H1 6717   0.868   4.216  11.062 -1.3395 -0.5274  0.2463
  447TMC3    H2 6718   0.859   4.204  10.638  0.2554  1.3841 -1.0788
  447TMC3    C7 6719   0.952   4.105  10.847 -0.2701  0.0437  0.4431
  447TMC3    C8 6720   0.733   4.465  10.619 -0.4284 -0.3027  0.8619
  447TMC3    O1 6721   1.015   4.077  10.746 -0.1720  0.7378 -0.5104
  447TMC3    O2 6722   0.659   4.555  10.645  0.0187 -0.1209 -0.4190
  448TMC3    C1 6723   2.800   3.663  16.891 -0.1804  0.3784 -0.6233
  448TMC3    C2 6724   2.778   3.572  16.793  0.2420 -0.4059  1.1223
  448TMC3    C3 6725   2.797   3.440  16.827 -0.2528  0.0682  0.1743
  448TMC3    C4 6726   2.831   3.632  17.018 -0.2550  0.3849 -0.2266
  448TMC3    C5 6727   2.818   3.501  17.049  0.1755 -1.3204  0.2514
  448TMC3    C6 6728   2.812   3.398  16.956 -0.1933  0.0419  0.0507
  448TMC3     C 6729   2.798   3.811  16.851  0.1874  0.5361 -0.9288
  448TMC3     O 6730   2.772   3.836  16.733  0.2042 -0.0102 -0.3484
  448TMC3     H 6731   2.749   3.591  16.691  0.3012 -0.8124  1.0293
  448TMC3    H1 6732   2.850   3.704  17.096  1.6014  2.0751 -2.2583
  448TMC3    H2 6733   2.827   3.294  16.983  2.0939 -0.3807 -2.7480
  448TMC3    C7 6734   2.887   3.469  17.172  0.4571  0.2666 -0.0083
  448TMC3    C8 6735   2.826   3.344  16.724  0.0751 -0.2888  0.1795
  448TMC3    O1 6736   2.965   3.548  17.223  0.5749  0.4362  0.1902
  448TMC3    O2 6737   2.790   3.231  16.757  0.1446 -0.0663  0.5000
  449MPD2     C 6738   4.632   1.806  13.837  0.2711 -0.4177 -0.1562
  449MPD2    C1 6739   4.524   1.855  13.774  0.1178  0.1616  0.0721
  449MPD2    C2 6740   4.399   1.848  13.831 -0.2727 -0.2797  1.3198
  449MPD2    C3 6741   4.385   1.768  13.944 -0.0217  0.5477 -0.3864
  449MPD2    C4 6742   4.494   1.696  13.993 -0.4744 -0.4759  0.2406
  449MPD2    C5 6743   4.620   1.724  13.948  0.1650 -0.1164  0.1400
  449MPD2     H 6744   4.315   1.904  13.793 -0.2631 -0.5131  0.9499
  449MPD2    H1 6745   4.488   1.631  14.079  0.0232 -1.6941 -0.6461
  449MPD2    H2 6746   4.734   1.828  13.809  0.2802  0.5875  0.6696
  449MPD2    H3 6747   4.711   1.691  13.997  0.3930  0.7667  0.2991
  449MPD2     N 6748   4.254   1.758  14.000 -1.0058 -0.1540  0.1703
  449MPD2    H5 6749   4.185   1.821  13.960 -0.6849  0.2997  0.3255
  449MPD2    N1 6750   4.537   1.943  13.664 -0.4349 -0.6693  0.6778
  449MPD2    H7 6751   4.449   1.963  13.618 -0.0966 -0.3968  0.1456
  450TMC3    C1 6752   4.614   2.063  13.480 -0.5355  0.3837 -0.0894
  450TMC3    C2 6753   4.642   2.003  13.363 -0.1436 -0.3795  0.0742
  450TMC3    C3 6754   4.542   1.992  13.276  0.3975 -0.2818 -0.1076
  450TMC3    C4 6755   4.497   2.130  13.499  0.3825 -0.6843  0.4996
  450TMC3    C5 6756   4.391   2.115  13.414 -0.6773  0.2545  0.2959
  450TMC3    C6 6757   4.414   2.031  13.296  0.1865 -0.0962 -0.7812
  450TMC3     C 6758   4.649   1.981  13.602 -0.3462  0.1454  0.3117
  450TMC3     O 6759   0.027   1.957  13.630 -0.3172  0.2198  0.6153
  450TMC3     H 6760   4.732   1.943  13.350 -0.8021 -1.2156 -0.6120
  450TMC3    H1 6761   4.484   2.186  13.591  3.6485  0.8777  0.0032
  450TMC3    H2 6762   4.331   2.007  13.230 -0.5516  0.7170 -0.1370
  450TMC3    C7 6763   4.284   2.073  13.496  0.2449 -0.3950 -0.2099
  450TMC3    C8 6764   4.573   1.922  13.151  0.2481  0.2148  0.7137
  450TMC3    O1 6765   4.290   1.958  13.545  0.0286  0.3476  0.3979
  450TMC3    O2 6766   4.485   1.853  13.101  0.3303 -0.1027  0.1916
  451MPD2     C 6767   1.237   1.820   1.421  0.7571 -0.2134 -0.7049
  451MPD2    C1 6768   1.202   1.743   1.315 -0.1639 -0.5127 -0.4467
  451MPD2    C2 6769   1.298   1.661   1.262  1.2316  0.0838  0.7182
  451MPD2    C3 6770   1.420   1.636   1.325 -0.5360  0.3652  0.1384
  451MPD2    C4 6771   1.450   1.711   1.441  0.3878  0.1774 -0.0580
  451MPD2    C5 6772   1.361   1.806   1.476  0.3017 -0.0144 -0.0200
  451MPD2     H 6773   1.277   1.617   1.165  1.1885 -0.7482  1.1083
  451MPD2    H1 6774   1.543   1.690   1.492  0.0302 -0.3122  0.3999
  451MPD2    H2 6775   1.169   1.890   1.468 -1.3999 -2.5722 -0.2997
  451MPD2    H3 6776   1.381   1.887   1.546 -1.9684  1.3204 -0.8878
  451MPD2     N 6777   1.505   1.525   1.289  0.1224  0.1939 -0.4958
  451MPD2    H5 6778   1.597   1.535   1.331  0.7897 -3.4538 -1.0939
  451MPD2    N1 6779   1.082   1.747   1.242  0.1241  0.0567 -0.4041
  451MPD2    H7 6780   1.056   1.681   1.170 -0.1077  2.1501 -2.2328
  452TMC3    C1 6781   1.351   1.368   1.180 -0.0967  0.5226  0.5278
  452TMC3    C2 6782   1.243   1.374   1.272  1.0035  1.2077 -0.2816
  452TMC3    C3 6783   1.124   1.312   1.230 -0.0702 -0.3354  0.0691
  452TMC3    C4 6784   1.335   1.303   1.057 -0.0076 -0.4708  0.3332
  452TMC3    C5 6785   1.212   1.260   1.016  0.3287 -0.3368  0.1989
  452TMC3    C6 6786   1.106   1.255   1.104  0.7482  0.1401  0.0856
  452TMC3     C 6787   1.485   1.419   1.206  1.0589 -0.2831  0.2105
  452TMC3     O 6788   1.571   1.353   1.153 -0.3189  0.1562  0.3574
  452TMC3     H 6789   1.260   1.411   1.373  1.0915 -2.7345  1.1557
  452TMC3    H1 6790   1.420   1.310   0.989 -0.2688 -3.5466 -0.3479
  452TMC3    H2 6791   1.005   1.234   1.071  1.3530 -0.0230 -1.6687
  452TMC3    C7 6792   1.210   1.194   0.887  0.4212  0.7283 -0.4926
  452TMC3    C8 6793   1.003   1.343   1.308 -0.3000  0.4685  0.3656
  452TMC3    O1 6794   1.306   1.218   0.815  0.7351  0.5614 -0.2339
  452TMC3    O2 6795   0.900   1.288   1.276 -0.4415  0.4172 -0.3686
  453TMC3    C1 6796   2.501   3.077  11.682  0.3000  0.9127  0.0181
  453TMC3    C2 6797   2.461   2.982  11.587  0.6953 -0.3633  0.4072
  453TMC3    C3 6798   2.442   3.034  11.462 -0.4111  0.7084 -0.2015
  453TMC3    C4 6799   2.524   3.208  11.647 -0.2699 -0.5833 -0.1208
  453TMC3    C5 6800   2.521   3.247  11.521  1.1123  0.6421 -0.1308
  453TMC3    C6 6801   2.476   3.160  11.427 -0.7749  0.2531 -0.8322
  453TMC3     C 6802   2.517   3.040  11.818 -0.1760  0.0799 -0.1895
  453TMC3     O 6803   2.544   2.921  11.824  0.6873 -0.2417  0.0356
  453TMC3     H 6804   2.429   2.885  11.626  2.5712 -0.6928  1.1293
  453TMC3    H1 6805   2.557   3.284  11.717 -0.9862 -0.6117  0.2548
  453TMC3    H2 6806   2.463   3.182  11.322  1.3420 -2.6214 -1.6736
  453TMC3    C7 6807   2.600   3.368  11.471  0.3155 -0.3325 -0.0666
  453TMC3    C8 6808   2.394   2.947  11.359 -0.2795  0.4528  0.1936
  453TMC3    O1 6809   2.691   3.407  11.542  0.6396 -0.0473  0.0143
  453TMC3    O2 6810   2.338   2.993  11.261  0.4550 -0.3231 -0.7404
  454MPD2     C 6811   0.679   2.469  15.846 -0.0637  0.0689 -0.4214
  454MPD2    C1 6812   0.600   2.464  15.739 -0.2051 -0.0060 -0.2806
  454MPD2    C2 6813   0.466   2.459  15.766  0.9921 -0.2453 -0.6983
  454MPD2    C3 6814   0.414   2.465  15.901  0.7795 -0.2006  0.3862
  454MPD2    C4 6815   0.503   2.473  16.004  0.1076 -0.0726 -0.0455
  454MPD2    C5 6816   0.635   2.473  15.976  0.0316 -0.6422  0.3350
  454MPD2     H 6817   0.398   2.445  15.683 -0.0118  0.5103  0.0134
  454MPD2    H1 6818   0.475   2.477  16.108 -0.7439 -0.3243 -0.2646
  454MPD2    H2 6819   0.785   2.461  15.822 -0.3339 -3.5236 -0.3836
  454MPD2    H3 6820   0.704   2.488  16.058  0.5402  0.9269 -0.3692
  454MPD2     N 6821   0.279   2.472  15.937 -0.2374  0.7089  0.2266
  454MPD2    H5 6822   0.270   2.495  16.035 -0.8418 -1.0044  0.5634
  454MPD2    N1 6823   0.641   2.457  15.612  0.0822 -0.5240  0.1106
  454MPD2    H7 6824   0.569   2.454  15.541  0.2335 -3.3123  0.0708
  455TMC3    C1 6825   0.056   2.436  15.919 -0.1492  0.0913 -0.0357
  455TMC3    C2 6826   0.039   2.520  16.030  0.2913 -0.4982 -0.1130
  455TMC3    C3 6827   0.002   2.460  16.146 -0.3065  1.2506  0.4488
  455TMC3    C4 6828   0.032   2.301  15.925 -0.6780 -0.1523 -0.2484
  455TMC3    C5 6829   4.730   2.249  16.046  0.5616 -0.6753 -0.0358
  455TMC3    C6 6830   4.727   2.326  16.155 -0.3387  0.3731  0.1443
  455TMC3     C 6831   0.175   2.467  15.849  0.0286  0.0515  0.3668
  455TMC3     O 6832   0.180   2.434  15.734  0.3384  0.4356 -0.5593
  455TMC3     H 6833   0.078   2.621  16.030 -2.3806  0.5319  1.7522
  455TMC3    H1 6834   0.064   2.238  15.843  0.6869 -0.0082  0.1777
  455TMC3    H2 6835   4.693   2.286  16.250  0.9181 -1.5401 -0.2164
  455TMC3    C7 6836   0.055   2.115  16.055  0.4151 -0.4737 -0.0498
  455TMC3    C8 6837   4.717   2.550  16.259 -0.1135 -0.3713  0.4101
  455TMC3    O1 6838   0.036   2.034  15.964 -0.2625 -0.5176 -0.2420
  455TMC3    O2 6839   0.009   2.510  16.367 -0.4376  0.1797  0.6159
  456MPD2     C 6840   3.372   2.422  15.696 -0.5354 -0.5225 -0.3742
  456MPD2    C1 6841   3.417   2.364  15.811  0.1278  0.2483 -0.2955
  456MPD2    C2 6842   3.365   2.405  15.938 -0.2601  0.1141 -0.8146
  456MPD2    C3 6843   3.251   2.481  15.943  0.0066  0.6102  0.6455
  456MPD2    C4 6844   3.202   2.536  15.828 -0.4337 -0.4008  0.5856
  456MPD2    C5 6845   3.265   2.509  15.703 -0.0883 -0.2317 -0.1414
  456MPD2     H 6846   3.422   2.378  16.026 -0.9765 -1.1405 -0.7387
  456MPD2    H1 6847   3.121   2.608  15.833  0.8809  1.1002  0.2173
  456MPD2    H2 6848   3.420   2.409  15.600  0.1611  0.3468 -0.1430
  456MPD2    H3 6849   3.229   2.559  15.614  2.4146  0.1430 -0.9436
  456MPD2     N 6850   3.200   2.514  16.078  0.2757 -0.2578  0.1746
  456MPD2    H5 6851   3.235   2.453  16.152  1.0935  0.5311  0.4472
  456MPD2    N1 6852   3.531   2.287  15.807 -0.4512 -0.7288 -0.3814
  456MPD2    H7 6853   3.571   2.287  15.713 -2.7537 -0.8445 -1.3752
  457TMC3    C1 6854   3.063   2.624  16.248  0.7124 -0.2652 -0.4943
  457TMC3    C2 6855   2.987   2.741  16.269 -0.1382 -0.1252  0.3012
  457TMC3    C3 6856   2.920   2.755  16.378 -0.0487 -0.5212  0.1438
  457TMC3    C4 6857   3.078   2.527  16.345 -0.8119 -0.0119  0.3397
  457TMC3    C5 6858   3.008   2.554  16.459  0.3392 -0.0128 -0.5517
  457TMC3    C6 6859   2.926   2.661  16.474  0.2910  0.5947 -0.4994
  457TMC3     C 6860   3.102   2.605  16.104 -0.3348 -0.2291 -0.3104
  457TMC3     O 6861   3.074   2.703  16.031  0.2772 -0.3707 -0.3137
  457TMC3     H 6862   2.971   2.812  16.189 -1.6093  0.3760  1.0388
  457TMC3    H1 6863   3.122   2.430  16.324 -0.0578  0.8012 -1.7877
  457TMC3    H2 6864   2.859   2.663  16.559 -0.5615 -1.3134 -1.1219
  457TMC3    C7 6865   3.072   2.520  16.584 -0.2159  0.1559 -0.5975
  457TMC3    C8 6866   2.912   2.894  16.430  0.4047 -0.3280 -0.0211
  457TMC3    O1 6867   3.131   2.414  16.595  0.4305 -0.1178  0.1797
  457TMC3    O2 6868   2.916   2.912  16.550 -0.0391 -0.1973  0.1091
  458MPD2     C 6869   1.886   1.814  11.994 -0.5653  0.1563  0.7727
  458MPD2    C1 6870   1.784   1.845  12.078 -0.0048  0.5268  0.3726
  458MPD2    C2 6871   1.657   1.848  12.029  0.5390  0.3222  0.1511
  458MPD2    C3 6872   1.628   1.821  11.898 -0.0112  0.1574  0.0710
  458MPD2    C4 6873   1.734   1.781  11.816  0.0179  0.2280 -0.5056
  458MPD2    C5 6874   1.863   1.788  11.862  0.9455 -0.1235 -0.8835
  458MPD2     H 6875   1.568   1.868  12.089 -1.0612  0.8828 -2.3833
  458MPD2    H1 6876   1.729   1.761  11.709  0.4585 -0.1973 -0.4451
  458MPD2    H2 6877   1.987   1.839  12.027  0.1387 -1.3260 -0.2489
  458MPD2    H3 6878   1.943   1.774  11.790  0.5968 -0.2064 -1.2551
  458MPD2     N 6879   1.502   1.861  11.843  0.1684  0.0970  0.3093
  458MPD2    H5 6880   1.432   1.891  11.910  1.3175 -2.1875  2.5139
  458MPD2    N1 6881   1.821   1.883  12.207 -0.6013  0.4531  0.5917
  458MPD2    H7 6882   1.919   1.887  12.235 -0.3321 -2.4353  0.0488
  459TMC3    C1 6883   1.789   1.987  12.417 -0.2181 -0.4560  0.4663
  459TMC3    C2 6884   1.921   2.026  12.411 -0.7320  0.0427 -0.0550
  459TMC3    C3 6885   1.979   2.049  12.532  0.1599 -0.3503 -0.8464
  459TMC3    C4 6886   1.721   1.979  12.532 -0.7837  0.0123 -0.1962
  459TMC3    C5 6887   1.784   2.003  12.654  0.4828 -0.0627 -0.6015
  459TMC3    C6 6888   1.920   2.028  12.652  0.2281  0.8915  0.6862
  459TMC3     C 6889   1.730   1.927  12.304  0.3287 -0.2338 -0.1036
  459TMC3     O 6890   1.607   1.937  12.302  0.1641  0.3528  0.3554
  459TMC3     H 6891   1.967   2.049  12.316 -0.0268 -0.8368  0.0702
  459TMC3    H1 6892   1.619   1.941  12.532 -1.2998  1.3982 -1.2702
  459TMC3    H2 6893   1.980   2.050  12.740  0.4935 -1.7141  1.1605
  459TMC3    C7 6894   1.734   1.932  12.774 -0.0351 -0.4059  0.4166
  459TMC3    C8 6895   2.125   2.084  12.530  0.4607  0.3663 -0.2005
  459TMC3    O1 6896   1.672   1.829  12.750 -0.6081 -0.4902 -0.0473
  459TMC3    O2 6897   2.184   2.054  12.426  0.0217  0.4669 -0.4501
  460MPD2     C 6898   0.945   4.534  10.331  0.0247 -0.5833 -0.2862
  460MPD2    C1 6899   0.837   4.544  10.409  1.0788  0.5607  0.3934
  460MPD2    C2 6900   0.747   4.647  10.382 -0.2440 -0.0649  1.0749
  460MPD2    C3 6901   0.764   4.736  10.277  0.0120 -0.3679  0.0266
  460MPD2    C4 6902   0.876   4.726  10.204 -0.3282 -0.3107 -0.2573
  460MPD2    C5 6903   0.965   4.625  10.226  0.6737 -0.4205 -0.2929
  460MPD2     H 6904   0.648   4.636  10.426 -0.6537 -0.4463  0.0539
  460MPD2    H1 6905   0.906   0.056  10.126 -0.7729 -1.5101 -1.4640
  460MPD2    H2 6906   1.011   4.448  10.343  0.7711 -0.0548 -0.6443
  460MPD2    H3 6907   1.047   4.619  10.156  1.7893  0.7480  0.9238
  460MPD2     N 6908   0.653   0.079  10.234  0.5775 -0.2495  0.1445
  460MPD2    H5 6909   0.564   0.088  10.282 -0.0505  0.3650 -1.1281
  460MPD2    N1 6910   0.822   4.447  10.514 -0.5968 -0.2662  0.8181
  460MPD2    H7 6911   0.879   4.363  10.508 -1.1259 -0.5265 -0.5663
  461TMC3    C1 6912   0.535   0.222  10.101  0.2800 -0.7153  0.3702
  461TMC3    C2 6913   0.433   0.137  10.087 -0.3173 -0.0007  0.1409
  461TMC3    C3 6914   0.326   0.184  10.013  0.2074 -0.2921 -0.6975
  461TMC3    C4 6915   0.541   0.345  10.048  0.6639 -0.0172 -0.5170
  461TMC3    C5 6916   0.440   0.378   9.963  0.5679  0.1282  0.3850
  461TMC3    C6 6917   0.327   0.305   9.947 -0.0957 -0.0691  0.1496
  461TMC3     C 6918   0.664   0.174  10.137 -0.2806  0.6754 -0.3534
  461TMC3     O 6919   0.754   0.215  10.068 -0.2699  0.2938  0.0251
  461TMC3     H 6920   0.442   0.035  10.124 -2.1786 -0.1528  0.1631
  461TMC3    H1 6921   0.631   0.403  10.064  0.6187 -0.7721  2.4530
  461TMC3    H2 6922   0.248   0.341   9.882  0.5934 -1.8481 -1.6727
  461TMC3    C7 6923   0.434   0.513   9.904 -0.0753 -0.3412  0.0387
  461TMC3    C8 6924   0.225   0.087   9.987  0.2705  0.0160 -0.4939
  461TMC3    O1 6925   0.342   0.536   9.828 -0.1470  0.4198 -1.1170
  461TMC3    O2 6926   0.244   4.705  10.022  0.2714  0.8008 -0.1449
  462TMC3    C1 6927   0.163   0.414  17.303 -1.0555 -0.3578 -0.0519
  462TMC3    C2 6928   0.082   0.325  17.236 -0.1753  0.2928  0.2169
  462TMC3    C3 6929   0.079   0.196  17.279  0.3044  0.4721 -0.0668
  462TMC3    C4 6930   0.239   0.381  17.410  0.3219 -0.4772  0.3107
  462TMC3    C5 6931   0.238   0.244  17.447 -0.4682  0.7213  0.1656
  462TMC3    C6 6932   0.171   0.155  17.375 -0.2480  0.4713 -0.9974
  462TMC3     C 6933   0.144   0.551  17.255  0.1819 -0.5287  0.0395
  462TMC3     O 6934   0.071   0.572  17.159 -0.2634 -0.3258 -0.3785
  462TMC3     H 6935   0.015   0.350  17.155  0.7737 -2.4138 -1.4141
  462TMC3    H1 6936   0.303   0.448  17.467  0.3364 -0.6407  0.4839
  462TMC3    H2 6937   0.155   0.054  17.411 -0.4796  0.9319  0.1804
  462TMC3    C7 6938   0.296   0.204  17.586  0.7208  0.3908 -0.4569
  462TMC3    C8 6939   0.026   0.112  17.175  0.2206 -0.0922 -0.5446
  462TMC3    O1 6940   0.290   0.082  17.600  0.4020 -0.0760 -0.1158
  462TMC3    O2 6941   4.651   0.127  17.137  0.3232  0.2410 -0.3372
  463MPD2     C 6942   1.260   3.859   1.713  0.0195 -0.1614  0.3373
  463MPD2    C1 6943   1.162   3.872   1.615  0.6405 -0.1471  0.2895
  463MPD2    C2 6944   1.138   3.994   1.556 -0.0685  0.3659 -0.3712
  463MPD2    C3 6945   1.224   4.102   1.577  0.3725 -0.2398  0.8819
  463MPD2    C4 6946   1.329   4.081   1.664 -0.2897 -0.0683 -1.2357
  463MPD2    C5 6947   1.334   3.968   1.744  0.4209 -0.4906 -1.3389
  463MPD2     H 6948   1.047   4.006   1.499  0.2961  1.0061 -0.8089
  463MPD2    H1 6949   1.402   4.157   1.691 -2.5530  1.2607  1.1072
  463MPD2    H2 6950   1.255   3.772   1.778 -0.0569 -0.3533  0.0725
  463MPD2    H3 6951   1.398   3.962   1.831 -2.4889  1.3500  0.9528
  463MPD2     N 6952   1.211   4.221   1.511 -0.4922  0.1413  0.2179
  463MPD2    H5 6953   1.271   4.297   1.542 -4.0655  3.0202  0.0422
  463MPD2    N1 6954   1.061   3.777   1.593  0.4414 -0.2722  0.5382
  463MPD2    H7 6955   0.985   3.821   1.542  0.9774  2.5139  2.1587
  464TMC3    C1 6956   0.936   3.576   1.605 -0.3563 -0.0703 -0.2043
  464TMC3    C2 6957   0.825   3.642   1.564 -0.5738  0.0867  0.0956
  464TMC3    C3 6958   0.727   3.574   1.505 -0.4156 -0.1332  0.3887
  464TMC3    C4 6959   0.946   3.439   1.586  0.1924  0.4183  0.6552
  464TMC3    C5 6960   0.845   3.376   1.510 -0.6528 -0.7941  0.0102
  464TMC3    C6 6961   0.737   3.444   1.461 -0.5466 -0.3199  1.2762
  464TMC3     C 6962   1.058   3.648   1.638 -0.3296  0.4693  0.0149
  464TMC3     O 6963   1.152   3.580   1.687  0.0008  0.6112  0.0637
  464TMC3     H 6964   0.803   3.743   1.595 -1.1346  0.4258 -1.3923
  464TMC3    H1 6965   1.043   3.392   1.603 -0.5080 -0.7315  1.4323
  464TMC3    H2 6966   0.674   3.401   1.384  0.9672  1.2547 -0.8401
  464TMC3    C7 6967   0.888   3.259   1.454 -0.2423 -0.5760  0.5988
  464TMC3    C8 6968   0.632   3.655   1.433  0.3582  0.0965  0.2271
  464TMC3    O1 6969   1.008   3.230   1.442  0.1733 -0.2721 -0.1200
  464TMC3    O2 6970   0.637   3.776   1.445  0.0034 -0.0520 -0.0828
  465MPD2     C 6971   2.250   2.155  16.747 -0.0579 -0.0716 -0.4872
  465MPD2    C1 6972   2.159   2.235  16.814  0.2055  0.0520  0.2793
  465MPD2    C2 6973   2.113   2.345  16.755  0.3771 -0.3365 -0.7954
  465MPD2    C3 6974   2.163   2.387  16.631  0.6089  0.2912 -0.2950
  465MPD2    C4 6975   2.257   2.305  16.571  0.0708  0.2115  0.1526
  465MPD2    C5 6976   2.296   2.193  16.626 -0.2397  0.2571 -0.3960
  465MPD2     H 6977   2.038   2.407  16.802  0.1468  0.2213 -1.8918
  465MPD2    H1 6978   2.308   2.329  16.479 -3.6889 -1.0740 -2.2515
  465MPD2    H2 6979   2.287   2.060  16.785  0.9106  0.4721 -0.0656
  465MPD2    H3 6980   2.367   2.133  16.570  0.3900 -0.6863  1.4165
  465MPD2     N 6981   2.118   2.512  16.570  0.8756  0.0718 -0.2807
  465MPD2    H5 6982   2.050   2.568  16.620  1.2643  0.1933  0.1108
  465MPD2    N1 6983   2.100   2.199  16.933 -0.3583 -0.8059  0.3457
  465MPD2    H7 6984   2.022   2.253  16.970 -1.7753 -2.6385  0.0202
  466TMC3    C1 6985   1.890   2.737  16.325  0.3682 -0.8377 -0.7018
  466TMC3    C2 6986   1.948   2.852  16.280 -0.0173  0.1094 -0.4121
  466TMC3    C3 6987   2.087   2.871  16.292  0.5269 -0.4297  0.2463
  466TMC3    C4 6988   1.956   2.651  16.402 -0.0259 -0.7651  0.3065
  466TMC3    C5 6989   2.094   2.667  16.404  0.8622  0.6692 -0.9940
  466TMC3    C6 6990   2.165   2.770  16.347  0.8024  1.3705 -0.1757
  466TMC3     C 6991   1.760   2.697  16.275  0.3935 -0.6131 -0.9385
  466TMC3     O 6992   1.678   2.631  16.336 -0.2761  0.4746 -0.2266
  466TMC3     H 6993   1.888   2.924  16.227 -0.3835  0.6866  0.7884
  466TMC3    H1 6994   1.911   2.556  16.428 -3.4668  1.1519  1.3375
  466TMC3    H2 6995   2.270   2.780  16.373  0.4953  0.4018  1.4235
  466TMC3    C7 6996   2.175   2.562  16.456 -0.2138  0.5631 -0.6145
  466TMC3    C8 6997   2.124   3.010  16.323 -0.8728  0.1425  0.0806
  466TMC3    O1 6998   2.277   2.535  16.388 -0.0463 -0.2794  0.3657
  466TMC3    O2 6999   2.240   3.039  16.307  0.1281 -0.5812  0.2721
  467TMC3    C1 7000   3.194   1.154  14.045  0.3890  0.0296 -0.0919
  467TMC3    C2 7001   3.125   1.259  13.993  0.0709 -0.6238  0.7224
  467TMC3    C3 7002   3.005   1.232  13.929 -1.1516  0.3598 -0.6938
  467TMC3    C4 7003   3.138   1.029  14.055 -0.2162  0.2262  0.3207
  467TMC3    C5 7004   3.010   1.005  13.994  0.1080  0.5539 -0.8012
  467TMC3    C6 7005   2.945   1.109  13.938  0.1118 -0.5165  0.2025
  467TMC3     C 7006   3.339   1.161  14.033  0.3517 -0.1061  0.4164
  467TMC3     O 7007   3.402   1.244  14.095 -0.4034 -0.0197 -0.2630
  467TMC3     H 7008   3.170   1.357  13.998  0.6063 -0.8263 -0.0918
  467TMC3    H1 7009   3.195   0.945  14.093 -2.8109 -0.7677  1.9501
  467TMC3    H2 7010   2.853   1.089  13.884 -0.7753 -0.1344  1.5740
  467TMC3    C7 7011   2.943   0.892  14.055  0.0535 -0.0235 -0.0686
  467TMC3    C8 7012   3.011   1.283  13.794 -0.5379  0.5075 -0.3209
  467TMC3    O1 7013   2.995   0.824  14.145 -0.3780 -0.3083  0.7227
  467TMC3    O2 7014   3.050   1.397  13.774 -0.3295 -0.3639 -0.0468
  468MPD2     C 7015   2.590   3.977  10.176 -0.0931  0.5324 -0.1456
  468MPD2    C1 7016   2.673   3.980  10.285 -0.1084  0.7200 -0.2350
  468MPD2    C2 7017   2.668   3.875  10.374  0.2022 -0.0323  0.2561
  468MPD2    C3 7018   2.573   3.771  10.363 -0.0362  0.5569 -0.3810
  468MPD2    C4 7019   2.483   3.783  10.262  0.5158  0.4782 -1.1438
  468MPD2    C5 7020   2.493   3.877  10.166  0.1044 -0.7876 -0.1258
  468MPD2     H 7021   2.728   3.879  10.464 -1.6252  3.4395  1.3249
  468MPD2    H1 7022   2.395   3.720  10.254 -1.2276  2.7341  0.5567
  468MPD2    H2 7023   2.589   4.053  10.098 -2.0860  1.4568  0.8026
  468MPD2    H3 7024   2.429   3.896  10.080  2.0496 -1.4991 -1.7264
  468MPD2     N 7025   2.563   3.672  10.465 -0.6656  0.1891  0.5462
  468MPD2    H5 7026   2.644   3.667  10.527  0.8430 -2.3592 -1.6415
  468MPD2    N1 7027   2.753   4.093  10.322  0.0502  0.0124 -0.3018
  468MPD2    H7 7028   2.818   4.076  10.398 -0.6253 -0.5579  0.1609
  469TMC3    C1 7029   2.821   4.318  10.340  0.0588 -0.7371 -0.2453
  469TMC3    C2 7030   2.948   4.294  10.384  0.7922  0.4560  0.3006
  469TMC3    C3 7031   2.989   4.350  10.503  0.0689  0.4228  0.0150
  469TMC3    C4 7032   2.745   4.408  10.404  0.0217 -0.2185 -0.4075
  469TMC3    C5 7033   2.791   4.470  10.521 -0.2473 -0.6065 -0.1954
  469TMC3    C6 7034   2.915   4.443  10.571 -0.3684 -0.5231  0.1621
  469TMC3     C 7035   2.753   4.212  10.261 -0.3092  0.8144 -0.2171
  469TMC3     O 7036   2.672   4.251  10.177 -0.3887 -0.0039  0.5471
  469TMC3     H 7037   3.011   4.218  10.341  2.3405  0.1707  3.0726
  469TMC3    H1 7038   2.639   4.423  10.383 -0.6385 -0.4601  2.6176
  469TMC3    H2 7039   2.952   4.482  10.665 -0.7188 -4.0275  1.7607
  469TMC3    C7 7040   2.693   4.550  10.597  0.6928  0.4094  0.5576
  469TMC3    C8 7041   3.127   4.327  10.546  0.6963  0.4363  0.4578
  469TMC3    O1 7042   2.577   4.557  10.554  0.6151 -0.1514 -0.3591
  469TMC3    O2 7043   3.198   4.299  10.452  0.2916 -0.1704  0.5565
  470TMC3    C1 7044   4.408   0.482   0.404  0.0793 -0.0032 -0.4594
  470TMC3    C2 7045   4.497   0.554   0.482 -1.0074  0.0056 -0.5540
  470TMC3    C3 7046   4.497   0.546   0.617 -0.0773 -0.0269 -0.4470
  470TMC3    C4 7047   4.326   0.386   0.457 -0.3332  0.4383  0.4848
  470TMC3    C5 7048   4.331   0.385   0.594 -0.0494 -0.0546 -0.5197
  470TMC3    C6 7049   4.414   0.460   0.675 -0.5053  0.6418 -0.0814
  470TMC3     C 7050   4.408   0.495   0.262 -0.1650 -0.2297 -0.0141
  470TMC3     O 7051   4.513   0.526   0.205 -0.2038  0.1297 -0.7092
  470TMC3     H 7052   4.533   0.644   0.433  1.4049 -1.2514 -1.1078
  470TMC3    H1 7053   4.257   0.324   0.401  0.7303 -0.6671  0.4025
  470TMC3    H2 7054   4.425   0.443   0.782 -0.0420  2.3723  0.1369
  470TMC3    C7 7055   4.249   0.278   0.652 -0.0146  0.3175  0.3133
  470TMC3    C8 7056   4.559   0.645   0.700 -0.0305  1.0761  0.3982
  470TMC3    O1 7057   4.164   0.227   0.578  0.4050 -0.2709 -0.6728
  470TMC3    O2 7058   4.546   0.645   0.822 -0.0765  0.3841 -0.4332
  471MPD2     C 7059   0.120   1.792  16.464 -0.1500 -0.1536  0.0718
  471MPD2    C1 7060   0.206   1.689  16.490  0.5974  0.2044  0.3431
  471MPD2    C2 7061   0.246   1.674  16.621  0.3479 -0.1441  0.5298
  471MPD2    C3 7062   0.195   1.751  16.720 -0.1379  0.3255  0.6338
  471MPD2    C4 7063   0.115   1.858  16.697  0.3062  0.7169  0.0771
  471MPD2    C5 7064   0.071   1.871  16.567 -0.9007  0.0469 -0.0606
  471MPD2     H 7065   0.302   1.587  16.653 -1.1970 -1.3842 -0.0940
  471MPD2    H1 7066   0.077   1.937  16.760 -2.0740 -0.6597  0.4019
  471MPD2    H2 7067   0.094   1.824  16.364  2.4094 -0.4432 -0.6933
  471MPD2    H3 7068   0.009   1.957  16.543 -2.6507 -1.1129  0.3153
  471MPD2     N 7069   0.222   1.718  16.857 -0.2697 -0.3423 -0.5851
  471MPD2    H5 7070   0.157   1.747  16.930 -1.2834  0.5602 -1.8415
  471MPD2    N1 7071   0.242   1.606  16.383 -0.3089  0.0604  0.3232
  471MPD2    H7 7072   0.195   1.617  16.294  2.1338  1.3476 -0.8274
  472TMC3    C1 7073   0.352   1.441  16.266 -0.4744  0.0322  0.4354
  472TMC3    C2 7074   0.325   1.500  16.143  0.4433  0.3876 -0.2290
  472TMC3    C3 7075   0.336   1.420  16.035 -0.7400  0.0911 -0.7300
  472TMC3    C4 7076   0.397   1.312  16.270  0.4119  0.0935  0.1976
  472TMC3    C5 7077   0.389   1.230  16.161 -0.0716  0.1448 -0.8938
  472TMC3    C6 7078   0.362   1.288  16.036  0.5294 -0.0265  0.7195
  472TMC3     C 7079   0.333   1.505  16.395 -0.2632 -0.1220  0.0522
  472TMC3     O 7080   0.370   1.448  16.494 -0.2015  0.5223  0.2233
  472TMC3     H 7081   0.304   1.606  16.137 -0.5090  0.0522 -2.7118
  472TMC3    H1 7082   0.402   1.262  16.366  0.7332 -1.4405 -0.6192
  472TMC3    H2 7083   0.365   1.228  15.945 -2.2102 -0.7212  1.0967
  472TMC3    C7 7084   0.336   1.100  16.200 -0.2601  0.1604 -0.2887
  472TMC3    C8 7085   0.218   1.438  15.954 -0.3311  0.5240 -0.3566
  472TMC3    O1 7086   0.359   1.048  16.302  0.3754  0.1566 -0.6009
  472TMC3    O2 7087   0.218   1.485  15.841 -0.3551 -0.5777  0.4061
  473MPD2     C 7088   0.505   3.148  13.735 -0.8823  0.4505  0.0078
  473MPD2    C1 7089   0.428   3.251  13.678 -0.3512  0.5154  0.3127
  473MPD2    C2 7090   0.430   3.378  13.740  0.3850  0.1528 -0.0128
  473MPD2    C3 7091   0.532   3.403  13.834  0.5464  0.0423  0.5182
  473MPD2    C4 7092   0.610   3.297  13.879 -0.4344  0.1587 -0.2609
  473MPD2    C5 7093   0.590   3.170  13.837  0.1283 -0.4388  0.3440
  473MPD2     H 7094   0.359   3.452  13.703  1.5091  1.5773  0.6691
  473MPD2    H1 7095   0.688   3.318  13.951 -2.9684  1.9680  1.9824
  473MPD2    H2 7096   0.500   3.048  13.694  1.6270 -0.2076  1.3171
  473MPD2    H3 7097   0.653   3.092  13.876  0.6676  1.3460  3.0561
  473MPD2     N 7098   0.563   3.523  13.904 -0.4103 -0.6414  0.5116
  473MPD2    H5 7099   0.646   3.521  13.962  1.8473  1.4923 -2.6520
  473MPD2    N1 7100   0.343   3.232  13.568  0.0679 -0.1989 -0.0134
  473MPD2    H7 7101   0.299   3.314  13.528  0.7707  0.7220  1.0870
  474TMC3    C1 7102   0.523   3.716  14.016  0.7139 -0.8866 -0.6249
  474TMC3    C2 7103   0.437   3.817  14.048  0.7622  0.4282  0.6001
  474TMC3    C3 7104   0.475   3.916  14.138 -0.5049 -0.4624  0.5451
  474TMC3    C4 7105   0.648   3.704  14.072  0.1979 -0.3642  0.6095
  474TMC3    C5 7106   0.672   3.799  14.175 -0.3638 -0.1275 -0.2375
  474TMC3    C6 7107   0.593   3.911  14.205  0.4883  0.2363  0.2244
  474TMC3     C 7108   0.481   3.637  13.905 -0.4523 -0.4622  0.8033
  474TMC3     O 7109   0.379   3.662  13.841 -0.3177 -0.0260  0.0218
  474TMC3     H 7110   0.336   3.830  14.009  0.5132  2.9061  2.0375
  474TMC3    H1 7111   0.714   3.622  14.046 -1.1208 -1.5583  1.0619
  474TMC3    H2 7112   0.609   3.980  14.287  0.4327  1.1027 -0.4946
  474TMC3    C7 7113   0.805   3.797  14.240  0.2812  0.2819 -0.4278
  474TMC3    C8 7114   0.395   4.032  14.171 -0.5340 -0.0183  0.0889
  474TMC3    O1 7115   0.894   3.743  14.175  0.1511  0.6877 -0.0882
  474TMC3    O2 7116   0.449   4.124  14.235 -0.2878  0.0267 -0.4252
  475MPD2     C 7117   3.148   1.915  11.399  0.0498 -0.7346 -0.2420
  475MPD2    C1 7118   3.147   2.017  11.305 -0.4332 -0.2754  0.1683
  475MPD2    C2 7119   3.033   2.048  11.233  0.2375  0.3303 -0.4289
  475MPD2    C3 7120   2.916   1.973  11.247  0.2694  0.1963  0.8635
  475MPD2    C4 7121   2.923   1.880  11.349  0.6541 -0.1290  0.2135
  475MPD2    C5 7122   3.033   1.852  11.426  0.9885  1.2632 -0.1661
  475MPD2     H 7123   3.040   2.122  11.154  0.4219  1.1154  0.3367
  475MPD2    H1 7124   2.842   1.812  11.371 -0.4537  2.3375  3.7631
  475MPD2    H2 7125   3.236   1.882  11.453 -0.4737 -0.2390  0.9301
  475MPD2    H3 7126   3.019   1.767  11.493 -1.2702  1.4797 -0.3606
  475MPD2     N 7127   2.798   1.994  11.171 -0.0717 -0.0335  0.2494
  475MPD2    H5 7128   2.810   2.065  11.100  0.1364  0.7996  1.1202
  475MPD2    N1 7129   3.271   2.070  11.264  0.1117  0.3608 -0.5691
  475MPD2    H7 7130   3.350   2.039  11.320 -0.1078  1.4768  0.3616
  476TMC3    C1 7131   3.423   2.211  11.141 -0.2428  0.0279  0.8091
  476TMC3    C2 7132   3.461   2.254  11.017  0.5342 -0.8234  0.0315
  476TMC3    C3 7133   3.550   2.364  11.018 -0.1238 -0.2205 -0.3877
  476TMC3    C4 7134   3.473   2.263  11.264 -0.0034  0.7463 -0.3181
  476TMC3    C5 7135   3.552   2.371  11.251  0.1977  0.4089 -0.4341
  476TMC3    C6 7136   3.594   2.420  11.130  0.6735 -0.1429 -0.3058
  476TMC3     C 7137   3.297   2.133  11.142 -0.2688 -0.5111 -0.1685
  476TMC3     O 7138   3.233   2.143  11.035 -0.5615  0.5237 -0.1398
  476TMC3     H 7139   3.424   2.208  10.926 -2.3857  0.6718  0.4673
  476TMC3    H1 7140   3.444   2.231  11.363  0.9379 -0.1758 -0.3386
  476TMC3    H2 7141   3.664   2.502  11.116  0.8212  0.1448  2.1497
  476TMC3    C7 7142   3.558   2.455  11.366 -0.1920  0.1451 -0.5786
  476TMC3    C8 7143   3.589   2.431  10.895 -0.0304  0.6140 -0.1976
  476TMC3    O1 7144   3.488   2.421  11.458  0.2524 -0.0047  0.6583
  476TMC3    O2 7145   3.696   2.493  10.900 -0.4829  0.6272 -0.4227
  477MPD2     C 7146   1.216   4.007  11.866  0.1820  0.6512  0.9490
  477MPD2    C1 7147   1.140   3.931  11.787  0.7785  0.7678  0.1791
  477MPD2    C2 7148   1.096   3.806  11.841 -0.0080 -0.0731 -0.4960
  477MPD2    C3 7149   1.128   3.765  11.973  0.5251  0.3211  0.2920
  477MPD2    C4 7150   1.214   3.840  12.046 -0.2516  0.1789 -0.1099
  477MPD2    C5 7151   1.257   3.963  11.992  0.4805 -0.0302 -0.1097
  477MPD2     H 7152   1.041   3.741  11.775 -0.9510  0.0674  0.1410
  477MPD2    H1 7153   1.253   3.810  12.142  1.5910 -1.1621 -1.2631
  477MPD2    H2 7154   1.247   4.107  11.839  1.0904  0.7195  2.2902
  477MPD2    H3 7155   1.337   4.016  12.042  0.4145 -1.6431  1.6909
  477MPD2     N 7156   1.088   3.637  12.016 -0.5876  0.3463  0.2179
  477MPD2    H5 7157   1.043   3.583  11.942 -1.1891 -0.9413  1.5206
  477MPD2    N1 7158   1.096   3.977  11.655  0.2680  0.9229  0.3899
  477MPD2    H7 7159   1.127   4.067  11.621 -0.1877  1.2833  0.9243
  478TMC3    C1 7160   0.962   3.990  11.455  0.3532 -0.0330  0.3448
  478TMC3    C2 7161   0.959   4.128  11.480  0.4296  0.2063  0.5243
  478TMC3    C3 7162   0.854   4.202  11.435 -0.2184  0.0083  0.0810
  478TMC3    C4 7163   0.870   3.936  11.373 -0.0823  0.9208 -0.2071
  478TMC3    C5 7164   0.769   4.019  11.328  0.4321  0.0636 -0.4994
  478TMC3    C6 7165   0.762   4.152  11.350  0.2045  0.3302 -0.5154
  478TMC3     C 7166   1.022   3.905  11.560  0.8606 -0.4792 -0.2311
  478TMC3     O 7167   0.984   3.788  11.571  0.5176  0.0554  0.1869
  478TMC3     H 7168   1.021   4.177  11.555 -0.0722  0.1332  0.9878
  478TMC3    H1 7169   0.857   3.828  11.366 -1.5112  1.0588  0.2468
  478TMC3    H2 7170   0.665   4.200  11.340  0.5546  0.7249 -1.9852
  478TMC3    C7 7171   0.669   3.951  11.246  0.3546  0.5604  0.2480
  478TMC3    C8 7172   0.794   4.282  11.544 -0.5164  0.1308  0.0226
  478TMC3    O1 7173   0.660   3.828  11.259  0.1851 -0.0115 -0.0630
  478TMC3    O2 7174   0.803   4.228  11.652 -0.3834 -0.6934 -0.0003
  479MPD2     C 7175   4.654   0.803  15.005  0.0237 -0.2904  0.1225
  479MPD2    C1 7176   4.606   0.742  15.120 -0.0230 -0.8974  0.1937
  479MPD2    C2 7177   4.655   0.796  15.240  0.1599 -0.3942  0.5557
  479MPD2    C3 7178   0.001   0.908  15.249  0.1460  0.6020 -0.3221
  479MPD2    C4 7179   0.042   0.957  15.133 -0.0801 -0.6318  0.1003
  479MPD2    C5 7180   0.000   0.907  15.015 -0.3141  0.4453 -0.2837
  479MPD2     H 7181   4.624   0.749  15.332  0.9073  0.3622  1.1888
  479MPD2    H1 7182   0.115   1.037  15.127 -0.5811 -0.0300  1.8311
  479MPD2    H2 7183   4.638   0.765  14.905  2.5887  1.9694 -1.1129
  479MPD2    H3 7184   0.040   0.946  14.922 -0.1020 -1.4286 -0.9766
  479MPD2     N 7185   0.049   0.970  15.370  0.0321 -0.5738  0.3956
  479MPD2    H5 7186   0.121   1.041  15.357 -2.0547  1.5545  0.4154
  479MPD2    N1 7187   4.505   0.640  15.112  0.0982 -0.0379  0.0246
  479MPD2    H7 7188   4.484   0.616  15.016 -1.6154  4.1490 -0.6936
  480TMC3    C1 7189   4.491   0.820  15.697 -0.3081 -0.2100 -0.7358
  480TMC3    C2 7190   4.375   0.860  15.631 -0.1767 -0.7243 -0.3512
  480TMC3    C3 7191   4.381   0.925  15.511  0.1832 -0.4800 -0.1287
  480TMC3    C4 7192   4.611   0.840  15.645 -0.1069  0.1480 -0.2691
  480TMC3    C5 7193   4.614   0.905  15.525  0.3403 -0.2249  0.0067
  480TMC3    C6 7194   4.505   0.951  15.455 -0.7058  0.1190 -0.0435
  480TMC3     C 7195   4.476   0.708  15.781 -0.2354  0.5859 -0.1783
  480TMC3     O 7196   4.565   0.626  15.769  0.0743  0.6917 -0.2196
  480TMC3     H 7197   4.279   0.827  15.669 -0.9369  0.4779 -1.2275
  480TMC3    H1 7198   4.705   0.799  15.682 -0.2486  0.9007  0.9239
  480TMC3    H2 7199   4.522   1.006  15.364  1.6124 -1.2642 -0.4317
  480TMC3    C7 7200   0.007   0.948  15.500  0.6738 -0.4070  0.3216
  480TMC3    C8 7201   4.274   0.900  15.418 -0.1147  0.0080  0.2067
  480TMC3    O1 7202   0.081   0.960  15.597  0.2830 -0.2650  0.5522
  480TMC3    O2 7203   4.162   0.878  15.464  0.0472  0.0711 -1.0182
  481MPD2     C 7204   1.456   0.032  13.758 -0.3599  0.1581  0.0974
  481MPD2    C1 7205   1.363   4.725  13.850 -0.2986  0.8652 -0.3194
  481MPD2    C2 7206   1.404   4.693  13.979 -0.6283 -0.2716 -0.2295
  481MPD2    C3 7207   1.540   4.695  14.007 -0.3481  0.3153 -0.1719
  481MPD2    C4 7208   1.634   4.730  13.911  0.2979  0.1225  0.3401
  481MPD2    C5 7209   1.591   0.034  13.787  0.7212 -0.0051 -0.6467
  481MPD2     H 7210   1.335   4.669  14.059  0.0041  2.3760  1.0845
  481MPD2    H1 7211   1.740   4.728  13.930 -0.0617  1.2718  2.3463
  481MPD2    H2 7212   1.425   0.065  13.659 -0.0520  0.2615  0.0361
  481MPD2    H3 7213   1.659   0.083  13.719  1.9215  1.1951  1.4384
  481MPD2     N 7214   1.597   4.672  14.136 -0.2580  0.1303  0.0176
  481MPD2    H5 7215   1.698   4.663  14.135 -0.2592  0.4892 -2.4550
  481MPD2    N1 7216   1.229   4.729  13.806 -0.4348 -0.2766  0.9905
  481MPD2    H7 7217   1.213   0.014  13.708  3.7147 -3.5834 -0.4894
  482TMC3    C1 7218   1.009   0.052  13.831 -0.4147  0.3952  0.2959
  482TMC3    C2 7219   0.989   4.723  13.712 -0.4431  0.1208 -0.0539
  482TMC3    C3 7220   0.903   0.043  13.618  0.6519 -0.6983  0.4055
  482TMC3    C4 7221   0.950   0.170  13.858  0.2619 -0.0553 -0.5077
  482TMC3    C5 7222   0.860   0.221  13.763  0.8533 -0.7901 -0.1131
  482TMC3    C6 7223   0.844   0.162  13.641 -0.0255  0.2324  0.8829
  482TMC3     C 7224   1.128   0.013  13.898  0.2671  0.2662 -0.3394
  482TMC3     O 7225   1.125   0.021  14.023 -0.3442  0.2264  0.6362
  482TMC3     H 7226   1.029   4.623  13.698 -2.8833 -0.5952 -1.9842
  482TMC3    H1 7227   0.962   0.219  13.954  2.2700 -0.4038 -0.5734
  482TMC3    H2 7228   0.780   0.214  13.571  2.7305  2.3166 -0.0907
  482TMC3    C7 7229   0.843   0.363  13.770  0.0291  0.2166 -0.0990
  482TMC3    C8 7230   0.860   4.685  13.522  0.2929 -0.0923  1.1960
  482TMC3    O1 7231   0.832   0.408  13.884  0.2005 -0.1568  0.0366
  482TMC3    O2 7232   0.948   4.599  13.486 -0.2683 -0.1869  0.4129
  483TMC3    C1 7233   4.014   3.857   0.734 -0.1791  0.0610 -0.6238
  483TMC3    C2 7234   4.094   3.965   0.736 -0.2535  0.5485 -0.4393
  483TMC3    C3 7235   4.204   3.954   0.817 -0.6550  0.5179 -0.0089
  483TMC3    C4 7236   4.060   3.735   0.788  0.0630 -0.2995 -0.2554
  483TMC3    C5 7237   4.177   3.727   0.861 -0.0614 -0.2357  0.0117
  483TMC3    C6 7238   4.251   3.844   0.880  0.1957 -0.3716  0.0997
  483TMC3     C 7239   3.909   3.862   0.629  0.3180  0.4983  0.6535
  483TMC3     O 7240   3.874   3.972   0.597  0.5716 -0.1881  0.4494
  483TMC3     H 7241   4.067   4.061   0.695  3.2761  0.6686 -2.4532
  483TMC3    H1 7242   3.986   3.655   0.783 -1.0741  1.0003 -3.3979
  483TMC3    H2 7243   4.351   3.856   0.920  0.1479  0.3332  0.0062
  483TMC3    C7 7244   4.230   3.599   0.889 -0.0539  0.1528 -0.1477
  483TMC3    C8 7245   4.291   4.064   0.811  0.4642  0.9048  0.0066
  483TMC3    O1 7246   4.170   3.517   0.822 -0.0253  0.1296 -0.0463
  483TMC3    O2 7247   4.299   4.115   0.703 -0.0596 -0.1823 -0.0041
  484MPD2     C 7248   2.355   2.181  12.790  0.0290 -0.6556 -0.2360
  484MPD2    C1 7249   2.319   2.147  12.667  0.0760  0.1151  0.0694
  484MPD2    C2 7250   2.417   2.143  12.570 -0.0424 -0.3215  0.4530
  484MPD2    C3 7251   2.546   2.177  12.599  0.7887 -0.4589  0.5311
  484MPD2    C4 7252   2.578   2.224  12.723  0.0782 -0.0068 -0.4067
  484MPD2    C5 7253   2.477   2.238  12.818  0.7288  0.0541  0.4701
  484MPD2     H 7254   2.401   2.110  12.468  1.3467  1.3781 -0.3135
  484MPD2    H1 7255   2.680   2.249  12.749 -0.1941 -0.3477  1.0044
  484MPD2    H2 7256   2.276   2.200  12.861  0.3596 -0.0118 -0.0389
  484MPD2    H3 7257   2.505   2.266  12.919 -2.7091  2.5397  0.7452
  484MPD2     N 7258   2.659   2.157  12.519 -0.1783 -0.2607  0.3752
  484MPD2    H5 7259   2.751   2.186  12.550 -0.0149  0.0345 -0.3736
  484MPD2    N1 7260   2.178   2.121  12.650  0.1094  0.1776 -0.5917
  484MPD2    H7 7261   2.110   2.143  12.722  0.3193  0.1746 -0.3956
  485TMC3    C1 7262   2.781   2.092  12.328  0.0009  0.2455  0.4081
  485TMC3    C2 7263   2.896   2.112  12.396  0.4837 -0.4601  0.3498
  485TMC3    C3 7264   3.014   2.128  12.329 -0.8128 -0.1388  0.6070
  485TMC3    C4 7265   2.785   2.080  12.193  0.6308 -0.2380 -0.3457
  485TMC3    C5 7266   2.901   2.100  12.128 -0.3350  0.3774 -0.7417
  485TMC3    C6 7267   3.022   2.129  12.194 -0.3137 -0.2780  0.0494
  485TMC3     C 7268   2.652   2.096  12.397  0.1490  0.1557  0.2525
  485TMC3     O 7269   2.556   2.057  12.333  0.6301  0.1003 -0.0038
  485TMC3     H 7270   2.895   2.120  12.504  1.9837 -3.1289  0.5536
  485TMC3    H1 7271   2.695   2.055  12.138 -0.1651 -1.3413  1.4384
  485TMC3    H2 7272   3.115   2.164  12.152 -0.5871 -0.2379 -0.5175
  485TMC3    C7 7273   2.920   2.014  12.012 -0.3509  0.2232 -0.1608
  485TMC3    C8 7274   3.132   2.077  12.397  0.0450 -0.4223 -0.2284
  485TMC3    O1 7275   2.827   1.956  11.961 -0.3015 -0.3593 -0.0492
  485TMC3    O2 7276   3.240   2.091  12.338  0.0830 -0.0536  0.4279
  486MPD2     C 7277   4.123   0.422  12.487  0.0553  0.1101  0.4066
  486MPD2    C1 7278   4.211   0.530  12.468  0.1550  0.1583 -0.1629
  486MPD2    C2 7279   4.152   0.656  12.456  0.0750  0.2520 -0.0495
  486MPD2    C3 7280   4.016   0.675  12.483  0.5983 -0.2717  0.3210
  486MPD2    C4 7281   3.938   0.567  12.504  0.2755 -0.0936 -0.2841
  486MPD2    C5 7282   3.991   0.445  12.506 -0.2849 -0.3562 -0.4729
  486MPD2     H 7283   4.210   0.737  12.413 -0.3720 -1.3033 -3.5821
  486MPD2    H1 7284   3.830   0.576  12.505  0.4263  1.4293  1.9057
  486MPD2    H2 7285   4.155   0.318  12.487  1.5264  0.5577 -1.5815
  486MPD2    H3 7286   3.925   0.359  12.515  0.6723 -1.0555 -0.1636
  486MPD2     N 7287   3.958   0.804  12.466  0.0151  0.7081  0.1497
  486MPD2    H5 7288   3.999   0.879  12.412  0.1611  0.8940  0.5229
  486MPD2    N1 7289   4.352   0.497  12.457 -0.1344 -0.6347 -0.0751
  486MPD2    H7 7290   4.378   0.400  12.445 -1.6067 -1.3440  2.5286
  487TMC3    C1 7291   4.585   0.530  12.480 -0.0886 -1.0385  0.0077
  487TMC3    C2 7292   4.594   0.398  12.522 -0.4318  0.2592  0.1937
  487TMC3    C3 7293   4.709   0.354  12.580  1.0452  0.4925  0.1326
  487TMC3    C4 7294   4.680   0.624  12.520 -0.5909  0.5665  0.1498
  487TMC3    C5 7295   0.053   0.574  12.582 -0.1555 -0.1541  0.3225
  487TMC3    C6 7296   0.074   0.440  12.605  0.2597  0.0788 -0.3147
  487TMC3     C 7297   4.450   0.591  12.477  1.1573 -0.4713  0.2465
  487TMC3     O 7298   4.437   0.712  12.507 -0.5148 -0.0719  0.7058
  487TMC3     H 7299   4.524   0.321  12.493  0.5461 -0.0627 -1.3034
  487TMC3    H1 7300   4.675   0.727  12.488  0.2937  0.9390  1.2016
  487TMC3    H2 7301   0.163   0.416  12.662 -0.8764 -1.3585  0.8351
  487TMC3    C7 7302   0.082   0.655  12.700  0.5115 -0.3254  0.2658
  487TMC3    C8 7303   4.702   0.242  12.679  0.1588 -0.0569 -0.2590
  487TMC3    O1 7304   0.192   0.659  12.754 -0.1851  0.5477  0.2846
  487TMC3    O2 7305   0.071   0.188  12.700  0.1876 -0.0091  0.4453
  488MPD2     C 7306   4.103   2.680  16.033  0.7349  0.5856  0.5768
  488MPD2    C1 7307   4.141   2.812  16.058 -1.1435 -0.0177  0.5641
  488MPD2    C2 7308   4.198   2.846  16.173 -0.5282  0.3273 -0.0550
  488MPD2    C3 7309   4.210   2.749  16.277 -0.5699 -0.7231  0.3799
  488MPD2    C4 7310   4.174   2.618  16.251 -0.7089 -0.1138  0.2268
  488MPD2    C5 7311   4.120   2.583  16.126  0.5099  0.9270  0.5756
  488MPD2     H 7312   4.228   2.946  16.201  0.3896  0.5869 -1.9455
  488MPD2    H1 7313   4.187   2.537  16.321 -1.3664  0.3793  0.9094
  488MPD2    H2 7314   4.061   2.648  15.938  0.9285  1.5692  0.1529
  488MPD2    H3 7315   4.105   2.479  16.099  1.1401  1.0862 -0.3684
  488MPD2     N 7316   4.269   2.785  16.395  0.1790 -0.2136  0.5145
  488MPD2    H5 7317   4.301   2.880  16.413 -0.6550  0.0561  0.5832
  488MPD2    N1 7318   4.126   2.909  15.957  0.1972  0.0151 -0.6875
  488MPD2    H7 7319   4.129   3.005  15.990  0.3690 -0.4645  0.6667
  489TMC3    C1 7320   4.312   2.790  16.622  0.0661  0.3288  0.4744
  489TMC3    C2 7321   4.319   2.931  16.612  0.6385  0.2668 -0.0352
  489TMC3    C3 7322   4.318   3.004  16.725 -0.1229 -0.1548  0.4585
  489TMC3    C4 7323   4.290   2.727  16.744 -0.3017 -0.6143  0.6438
  489TMC3    C5 7324   4.292   2.804  16.855  0.3092 -0.1570  0.6037
  489TMC3    C6 7325   4.313   2.941  16.843 -0.1686 -0.2325  0.4147
  489TMC3     C 7326   4.271   2.713  16.512  0.3930 -0.2526  0.3530
  489TMC3     O 7327   4.260   2.592  16.527  0.2402  0.5304 -0.1015
  489TMC3     H 7328   4.347   2.976  16.518  2.7326  1.1477  0.9913
  489TMC3    H1 7329   4.268   2.621  16.749 -2.8796  0.0166  2.7610
  489TMC3    H2 7330   4.339   2.994  16.934 -0.6886  1.1770 -0.2582
  489TMC3    C7 7331   4.206   2.752  16.963  0.8746  0.3609 -0.4327
  489TMC3    C8 7332   4.362   3.140  16.717 -0.0611 -0.2826  0.3590
  489TMC3    O1 7333   4.176   2.634  16.957 -0.1637 -0.7040  0.3136
  489TMC3    O2 7334   4.412   3.173  16.611  0.6170  0.4550 -0.0333
  490MPD2     C 7335   0.086   2.337  17.242 -0.0814 -0.6571  0.1327
  490MPD2    C1 7336   0.058   2.234  17.323 -0.4793  0.6419 -0.1153
  490MPD2    C2 7337   0.156   2.182  17.404  0.3409  0.1848  0.2403
  490MPD2    C3 7338   0.288   2.226  17.402 -0.0124  0.0236  0.8921
  490MPD2    C4 7339   0.320   2.317  17.302  0.4182  0.7651  0.1882
  490MPD2    C5 7340   0.217   2.373  17.229 -0.1163  0.0401  0.2776
  490MPD2     H 7341   0.131   2.107  17.479  0.0116 -0.0833 -0.1378
  490MPD2    H1 7342   0.421   2.354  17.295  0.3245  1.0563  0.3870
  490MPD2    H2 7343   0.011   2.394  17.188  1.5797  1.4687  0.0457
  490MPD2    H3 7344   0.246   2.452  17.161 -2.6621  0.2906 -0.5371
  490MPD2     N 7345   0.389   2.177  17.490  0.1106  0.0433 -0.0527
  490MPD2    H5 7346   0.487   2.199  17.471 -0.2023  0.5079 -1.1137
  490MPD2    N1 7347   4.670   2.176  17.330  0.4634  0.0779  0.3992
  490MPD2    H7 7348   4.680   2.086  17.376 -0.9946  0.0124  0.6030
  491TMC3    C1 7349   4.458   2.098  17.289 -0.3311 -0.6532  0.2052
  491TMC3    C2 7350   4.487   2.008  17.392  0.9036  0.3346  0.0148
  491TMC3    C3 7351   4.451   1.880  17.370  0.2505  0.0239 -0.4442
  491TMC3    C4 7352   4.392   2.059  17.179 -0.3572  0.9556 -0.1962
  491TMC3    C5 7353   4.350   1.926  17.167  0.3682 -0.8238 -0.0428
  491TMC3    C6 7354   4.369   1.835  17.268 -0.1264 -0.3336 -0.5146
  491TMC3     C 7355   4.556   2.202  17.260  0.1351 -0.0343  0.1441
  491TMC3     O 7356   4.529   2.293  17.184  0.2912 -0.3131 -0.4009
  491TMC3     H 7357   4.545   2.041  17.477 -2.2362 -1.1517  2.7016
  491TMC3    H1 7358   4.399   2.127  17.095  0.2501  1.9878  0.6833
  491TMC3    H2 7359   4.312   1.743  17.263 -1.4561  0.4407  0.3907
  491TMC3    C7 7360   4.247   1.895  17.076 -0.1268  1.0097 -0.1881
  491TMC3    C8 7361   4.482   1.797  17.485 -0.2703  0.1552 -0.7803
  491TMC3    O1 7362   4.222   1.777  17.061  0.7778  0.4296 -0.2165
  491TMC3    O2 7363   4.510   1.852  17.587  0.1506  0.4156  0.0509
  492MPD2     C 7364   0.481   2.339  12.034  0.5864  0.2822 -0.4989
  492MPD2    C1 7365   0.460   2.234  11.945 -0.0075 -0.9633  0.3786
  492MPD2    C2 7366   0.411   2.121  11.993 -0.7085  0.2813  0.8165
  492MPD2    C3 7367   0.397   2.098  12.125  1.0306  0.3159 -0.5944
  492MPD2    C4 7368   0.421   2.200  12.216  0.5573  0.5634  0.2353
  492MPD2    C5 7369   0.463   2.324  12.167 -0.2022  0.5498 -0.1620
  492MPD2     H 7370   0.378   2.047  11.921  0.7184  0.5216 -0.0827
  492MPD2    H1 7371   0.403   2.187  12.322 -0.9486 -2.3968 -0.3781
  492MPD2    H2 7372   0.517   2.433  11.994 -0.2170 -0.0111 -1.9213
  492MPD2    H3 7373   0.484   2.413  12.225  2.8106 -0.2567 -0.0425
  492MPD2     N 7374   0.346   1.977  12.182 -0.1011  0.4043  0.2852
  492MPD2    H5 7375   0.343   1.972  12.283  0.1362  1.2950  0.3312
  492MPD2    N1 7376   0.482   2.250  11.805 -0.3093 -0.1612 -0.6989
  492MPD2    H7 7377   0.533   2.335  11.783 -2.0792  1.4401  1.4707
  493TMC3    C1 7378   0.507   2.217  11.574 -0.2038 -0.6230 -0.3753
  493TMC3    C2 7379   0.627   2.279  11.577  1.5539 -0.2256  0.0144
  493TMC3    C3 7380   0.698   2.282  11.461 -0.8525 -0.3045  0.9984
  493TMC3    C4 7381   0.454   2.162  11.455 -0.3870 -0.0661  0.0006
  493TMC3    C5 7382   0.521   2.183  11.337 -0.5398  0.6768 -0.2723
  493TMC3    C6 7383   0.643   2.240  11.338  0.0408 -0.2017  0.5157
  493TMC3     C 7384   0.433   2.179  11.699 -0.2859 -0.0569  0.7859
  493TMC3     O 7385   0.357   2.079  11.692 -0.5197  0.4327  0.0185
  493TMC3     H 7386   0.676   2.306  11.670  0.0870  0.1684  0.6631
  493TMC3    H1 7387   0.360   2.109  11.446  0.9638 -2.7027  1.2695
  493TMC3    H2 7388   0.700   2.224  11.247  0.0495 -1.4156  0.7447
  493TMC3    C7 7389   0.469   2.152  11.210  0.4101  0.0672 -0.3625
  493TMC3    C8 7390   0.844   2.288  11.462  0.3113 -0.0070 -0.0398
  493TMC3    O1 7391   0.499   2.226  11.117 -0.1320 -0.3021 -0.2055
  493TMC3    O2 7392   0.902   2.254  11.562  0.0061  0.1002  0.3958
  494TMC3    C1 7393   0.561   4.169   0.049  0.2430  0.4535  1.1405
  494TMC3    C2 7394   0.520   4.039   0.029  0.0421  0.6826  0.1209
  494TMC3    C3 7395   0.554   3.976  17.662 -0.2236  0.4350 -0.1602
  494TMC3    C4 7396   0.634   4.235  17.696 -0.0180  0.2851 -0.2162
  494TMC3    C5 7397   0.666   4.167  17.581 -0.1872  0.1297 -0.3963
  494TMC3    C6 7398   0.629   4.039  17.565  0.7356  0.2724  0.1356
  494TMC3     C 7399   0.554   4.216   0.187  0.3242  0.0385  0.6671
  494TMC3     O 7400   0.537   4.141   0.278  0.1422  0.1118 -0.2298
  494TMC3     H 7401   0.472   3.987   0.111  2.1072  1.3403  1.7337
  494TMC3    H1 7402   0.672   4.334  17.718 -0.5277  0.6862 -1.1232
  494TMC3    H2 7403   0.650   3.982  17.475  0.3164  2.3013 -1.2400
  494TMC3    C7 7404   0.763   4.222  17.484 -0.3974  0.3097  0.4220
  494TMC3    C8 7405   0.534   3.834  17.667 -0.3898  0.7037 -0.0166
  494TMC3    O1 7406   0.775   4.163  17.377  0.1428  0.2173 -0.1510
  494TMC3    O2 7407   0.540   3.785   0.031  0.1483 -0.1654  0.1067
  495TMC3    C1 7408   4.343   0.706  14.487  0.2401 -0.2051 -0.5464
  495TMC3    C2 7409   4.396   0.783  14.392  0.0417 -0.1583 -0.1765
  495TMC3    C3 7410   4.468   0.895  14.433  0.6102 -1.1319 -0.1967
  495TMC3    C4 7411   4.351   0.739  14.621  0.6546  0.3130  0.6674
  495TMC3    C5 7412   4.406   0.858  14.659 -0.1181  0.0607  0.2743
  495TMC3    C6 7413   4.468   0.934  14.568  0.0704 -0.1524  0.9878
  495TMC3     C 7414   4.287   0.580  14.444  0.3977 -0.1981  0.1146
  495TMC3     O 7415   4.301   0.550  14.329 -0.3068 -0.3654 -0.2619
  495TMC3     H 7416   4.409   0.752  14.289 -0.5934 -0.6368 -0.1177
  495TMC3    H1 7417   4.280   0.685  14.683 -1.7075  0.0066 -2.2749
  495TMC3    H2 7418   4.497   1.036  14.590  0.0210  0.4361 -1.7080
  495TMC3    C7 7419   4.369   0.902  14.788 -0.2974 -1.0902 -0.1061
  495TMC3    C8 7420   4.455   1.010  14.349  0.5792 -0.0318 -0.1916
  495TMC3    O1 7421   4.435   0.977  14.857 -0.0327  0.1378  0.6248
  495TMC3    O2 7422   4.554   1.053  14.301 -0.1254 -0.2337  0.0024
  496MPD2     C 7423   1.685   0.819  15.280  0.3108  0.6871  0.0927
  496MPD2    C1 7424   1.628   0.784  15.164  1.0864 -0.4202  0.7846
  496MPD2    C2 7425   1.503   0.836  15.133 -0.1436 -0.3269  0.4908
  496MPD2    C3 7426   1.443   0.928  15.216  0.3175  0.2139  0.1782
  496MPD2    C4 7427   1.511   0.970  15.332 -0.0699  0.0881 -0.3667
  496MPD2    C5 7428   1.626   0.910  15.361  0.0168 -0.5556  0.2459
  496MPD2     H 7429   1.443   0.793  15.054 -2.7407  1.1694  1.6656
  496MPD2    H1 7430   1.459   1.029  15.407 -0.5933 -1.5025  0.5298
  496MPD2    H2 7431   1.781   0.783  15.316  0.1137 -0.8902 -0.9235
  496MPD2    H3 7432   1.671   0.937  15.456 -1.3071 -0.0358  0.7203
  496MPD2     N 7433   1.309   0.971  15.200  0.1897  0.0806  0.0570
  496MPD2    H5 7434   1.271   1.016  15.283  1.0405  0.6068  0.1642
  496MPD2    N1 7435   1.704   0.696  15.083  0.3337  0.3823  0.3170
  496MPD2    H7 7436   1.796   0.662  15.110  0.2369 -0.2470 -0.1490
  497TMC3    C1 7437   1.077   0.953  15.146  0.2902 -0.4632  0.1311
  497TMC3    C2 7438   0.992   0.855  15.096 -0.4726 -0.6162  0.6898
  497TMC3    C3 7439   0.933   0.766  15.176  0.2819  0.6827 -0.0430
  497TMC3    C4 7440   1.069   0.974  15.279  0.4953 -0.4652  0.9276
  497TMC3    C5 7441   1.002   0.883  15.357 -0.0073 -0.0875 -0.6608
  497TMC3    C6 7442   0.942   0.764  15.313 -0.2883  0.1641  1.0925
  497TMC3     C 7443   1.218   0.939  15.102 -0.1549 -0.1360 -0.8735
  497TMC3     O 7444   1.232   0.879  14.996  0.0716  1.1673 -0.0821
  497TMC3     H 7445   0.991   0.836  14.989  1.3556 -3.3858  1.1575
  497TMC3    H1 7446   1.118   1.057  15.329  0.6883  0.3124 -0.5651
  497TMC3    H2 7447   0.897   0.688  15.376 -0.5491 -0.8532 -0.3153
  497TMC3    C7 7448   1.053   0.894  15.489  0.3073 -0.4975  0.1993
  497TMC3    C8 7449   0.835   0.673  15.116 -0.0818  1.1297 -0.1893
  497TMC3    O1 7450   1.031   1.000  15.545  0.3397  0.3713  0.6099
  497TMC3    O2 7451   0.781   0.707  15.013  0.2854 -0.0284 -0.3181
  498MPD2     C 7452   2.177   1.476   9.820 -0.4889 -0.2780 -0.1814
  498MPD2    C1 7453   2.223   1.455   9.949  0.0560 -0.4646  0.3047
  498MPD2    C2 7454   2.207   1.337  10.007 -0.5386 -0.2797 -0.4396
  498MPD2    C3 7455   2.147   1.230   9.934 -0.8052  0.0517 -0.3069
  498MPD2    C4 7456   2.111   1.252   9.804 -0.1889 -0.2636 -0.5067
  498MPD2    C5 7457   2.123   1.374   9.746 -0.1292  0.4766  0.5783
  498MPD2     H 7458   2.245   1.305  10.104 -1.8819 -2.0862 -0.5044
  498MPD2    H1 7459   2.068   1.176   9.739  1.0117 -0.4817 -1.0437
  498MPD2    H2 7460   2.183   1.568   9.761  1.7649 -1.0458 -1.1464
  498MPD2    H3 7461   2.100   1.383   9.641 -0.8049  1.6033  0.8279
  498MPD2     N 7462   2.149   1.102   9.989 -0.5042  0.2897 -0.2396
  498MPD2    H5 7463   2.196   1.090  10.078 -1.7332  0.3773  0.4191
  498MPD2    N1 7464   2.287   1.559  10.029 -0.3463  0.8068 -0.4964
  498MPD2    H7 7465   2.326   1.534  10.119 -0.6177  2.1041 -0.0188
  499TMC3    C1 7466   2.382   1.766  10.078  0.0833  0.7170  0.2093
  499TMC3    C2 7467   2.372   1.741  10.215  0.5011 -0.2630 -0.1981
  499TMC3    C3 7468   2.447   1.823  10.294 -0.1606 -0.1183  0.2538
  499TMC3    C4 7469   2.444   1.878  10.024 -0.0780  0.2133  0.0337
  499TMC3    C5 7470   2.520   1.953  10.106 -0.4308  0.1614  0.2766
  499TMC3    C6 7471   2.519   1.930  10.241  0.6277 -0.1595 -0.0487
  499TMC3     C 7472   2.308   1.689   9.982 -0.5605 -0.3447  0.7052
  499TMC3     O 7473   2.290   1.740   9.873 -0.3930 -0.8712 -0.0320
  499TMC3     H 7474   2.313   1.658  10.252 -0.9120  0.4439 -0.8893
  499TMC3    H1 7475   2.439   1.894   9.917  4.1324 -2.5162 -0.6030
  499TMC3    H2 7476   2.568   1.995  10.312 -0.3369 -1.2709  1.6148
  499TMC3    C7 7477   2.598   2.069  10.054  0.3281 -0.0031 -0.7475
  499TMC3    C8 7478   2.448   1.797  10.439 -0.1354  0.4253  0.5251
  499TMC3    O1 7479   2.589   2.100   9.937  0.0495 -0.9568  0.2719
  499TMC3    O2 7480   2.346   1.743  10.481  0.3138 -0.2145  0.0902
  500MPD2     C 7481   4.242   3.021  10.655 -0.2359  0.6040 -0.9383
  500MPD2    C1 7482   4.211   3.146  10.599 -1.5496  0.1465 -0.5747
  500MPD2    C2 7483   4.155   3.156  10.472 -0.1875  0.0995 -0.5059
  500MPD2    C3 7484   4.116   3.034  10.418 -0.3801  0.2766  0.0633
  500MPD2    C4 7485   4.143   2.908  10.471 -0.5183  0.1948  0.3457
  500MPD2    C5 7486   4.203   2.907  10.590  0.5244  0.2913  0.4479
  500MPD2     H 7487   4.128   3.255  10.436 -0.0335  0.4179  0.2395
  500MPD2    H1 7488   4.113   2.816  10.423  0.0321 -0.7867  1.8649
  500MPD2    H2 7489   4.290   3.007  10.751  0.0275 -2.0987 -1.4570
  500MPD2    H3 7490   4.242   2.814  10.631  0.7993  0.5120  0.6843
  500MPD2     N 7491   4.029   3.032  10.308  0.1295 -0.3068  0.0683
  500MPD2    H5 7492   3.983   2.942  10.299  1.3975 -0.9401 -0.1515
  500MPD2    N1 7493   4.232   3.262  10.678  0.0072  0.1231  0.0139
  500MPD2    H7 7494   4.219   3.352  10.634 -0.5475  0.0991  0.1255
  501TMC3    C1 7495   4.282   3.405  10.855 -0.4147 -0.1369  0.6677
  501TMC3    C2 7496   4.319   3.498  10.758 -0.1181 -0.4626 -0.3728
  501TMC3    C3 7497   4.344   3.625  10.805  0.0186 -0.2819  1.1716
  501TMC3    C4 7498   4.286   3.429  10.987 -0.8634  0.1924  0.1501
  501TMC3    C5 7499   4.322   3.553  11.026 -0.7280 -0.3201  0.0028
  501TMC3    C6 7500   4.358   3.654  10.933 -0.9555  0.1436 -0.2292
  501TMC3     C 7501   4.259   3.267  10.815 -0.4938  0.7849 -0.1558
  501TMC3     O 7502   4.257   3.186  10.912  0.6031  0.6993 -0.2743
  501TMC3     H 7503   4.314   3.490  10.650  1.5055 -2.9924 -0.2663
  501TMC3    H1 7504   4.252   3.357  11.061  0.2834 -0.1272  0.3712
  501TMC3    H2 7505   4.365   3.757  10.967  2.0327  0.0072 -0.4469
  501TMC3    C7 7506   4.418   3.554  11.141  0.0235  0.3389  0.6719
  501TMC3    C8 7507   4.429   3.717  10.724 -0.0427  0.3253 -0.3369
  501TMC3    O1 7508   4.428   3.449  11.213  0.2750  0.7139  0.0854
  501TMC3    O2 7509   4.525   3.764  10.786  0.1643 -0.7480  0.0607
  502TMC3    C1 7510   3.717   1.351  14.579  0.2267 -0.2309  0.4037
  502TMC3    C2 7511   3.738   1.483  14.546  0.5674 -0.8202  0.1340
  502TMC3    C3 7512   3.646   1.579  14.586  0.3708  0.1180 -0.0704
  502TMC3    C4 7513   3.602   1.319  14.646 -0.6306 -0.1203 -0.4786
  502TMC3    C5 7514   3.509   1.415  14.680 -0.1318  0.3523 -0.3968
  502TMC3    C6 7515   3.530   1.546  14.652 -0.3195  0.6674 -0.2053
  502TMC3     C 7516   3.830   1.305  14.652 -0.0081  0.3639  0.1997
  502TMC3     O 7517   3.930   1.284  14.587 -0.0426 -0.3150 -0.0693
  502TMC3     H 7518   3.832   1.503  14.495 -1.4561  3.5191 -1.9357
  502TMC3    H1 7519   3.580   1.214  14.662 -0.5256 -0.1825 -0.7502
  502TMC3    H2 7520   3.476   1.633  14.687  0.7372  1.5893 -0.8411
  502TMC3    C7 7521   3.473   1.399  14.820  0.2884  0.8098 -0.7316
  502TMC3    C8 7522   3.703   1.707  14.608  0.4329  0.4728  0.5697
  502TMC3    O1 7523   3.547   1.319  14.882  0.1091  0.2488  0.7113
  502TMC3    O2 7524   3.624   1.798  14.581 -0.0683  0.3757  0.6750
  503MPD2     C 7525   1.176   2.791  17.734  0.0016  0.3916  0.6708
  503MPD2    C1 7526   1.237   2.760  17.612 -0.2820  0.4036  0.3859
  503MPD2    C2 7527   1.303   2.640  17.600 -0.3347  0.3051 -0.6277
  503MPD2    C3 7528   1.308   2.553  17.707 -0.2259 -0.0148 -0.3965
  503MPD2    C4 7529   1.245   2.581   0.072  0.7438  0.1678  0.5537
  503MPD2    C5 7530   1.175   2.699   0.087  0.1935  0.1296  0.0303
  503MPD2     H 7531   1.354   2.611  17.509  1.5075 -0.5399  0.6664
  503MPD2    H1 7532   1.249   2.501   0.145 -2.1454 -1.4747 -1.0825
  503MPD2    H2 7533   1.136   2.890   0.006  2.4480  1.9011 -1.7591
  503MPD2    H3 7534   1.129   2.733   0.179 -2.0551  0.4980 -1.2279
  503MPD2     N 7535   1.383   2.436  17.681  0.0365 -0.1457  0.1991
  503MPD2    H5 7536   1.420   2.439  17.587 -3.3004  1.3686 -1.0776
  503MPD2    N1 7537   1.222   2.843  17.504 -0.2353 -0.1007  0.2911
  503MPD2    H7 7538   1.283   2.836  17.424 -1.5270  0.7565 -0.7700
  504TMC3    C1 7539   1.507   2.238  17.714  0.7209  0.3187 -0.6090
  504TMC3    C2 7540   1.550   2.149   0.051  0.1217 -0.4166  0.2566
  504TMC3    C3 7541   1.634   2.054  17.748 -0.6840 -0.9573  0.4086
  504TMC3    C4 7542   1.516   2.221  17.578 -0.2367 -0.2673  0.1547
  504TMC3    C5 7543   1.577   2.111  17.534 -0.5911  1.0572  0.1007
  504TMC3    C6 7544   1.652   2.032  17.617 -0.6135  0.3765 -0.4417
  504TMC3     C 7545   1.416   2.338   0.024  0.4386  0.0966 -0.3639
  504TMC3     O 7546   1.382   2.335   0.144 -0.1857 -0.4861  0.0259
  504TMC3     H 7547   1.528   2.164   0.156 -0.9569  0.8593 -0.1502
  504TMC3    H1 7548   1.466   2.280  17.502 -1.8168 -2.5523 -0.5835
  504TMC3    H2 7549   1.734   1.967  17.589 -0.9752  0.0323 -0.6821
  504TMC3    C7 7550   1.583   2.091  17.387 -0.1247  0.6871  1.1189
  504TMC3    C8 7551   1.679   1.943   0.087 -0.2174 -0.3785  0.6413
  504TMC3    O1 7552   1.562   2.189  17.318 -0.2310 -0.5505  0.4033
  504TMC3    O2 7553   1.683   1.834   0.035  0.3613  0.3231  0.2141
  505MPD2     C 7554   1.091   1.009  10.155  0.9799 -0.9580  0.6910
  505MPD2    C1 7555   1.076   0.904  10.246  0.4497 -0.2673  0.8064
  505MPD2    C2 7556   1.108   0.932  10.377 -0.0019  0.2016 -0.2062
  505MPD2    C3 7557   1.159   1.049  10.417 -0.0567 -0.2993  0.4569
  505MPD2    C4 7558   1.178   1.152  10.339  0.2375 -0.3650  0.5510
  505MPD2    C5 7559   1.136   1.133  10.201 -0.0391  0.5726  1.1490
  505MPD2     H 7560   1.088   0.857  10.452  0.7997 -0.2250 -0.4218
  505MPD2    H1 7561   1.210   1.251  10.369 -0.8182  0.0906  0.1370
  505MPD2    H2 7562   1.063   1.002  10.050  1.6238  1.0441  0.3866
  505MPD2    H3 7563   1.146   1.217  10.132 -2.3496  2.0329  2.5610
  505MPD2     N 7564   1.194   1.046  10.554  0.2508 -0.0413 -0.1510
  505MPD2    H5 7565   1.169   0.962  10.606  1.3168  0.9806  1.9806
  505MPD2    N1 7566   1.027   0.785  10.203  0.1629 -0.6073 -0.3894
  505MPD2    H7 7567   1.012   0.773  10.103 -1.2917 -2.7691  0.0926
  506TMC3    C1 7568   0.971   0.561  10.227  0.0149  0.0157  1.0306
  506TMC3    C2 7569   1.072   0.513  10.148  1.0472 -0.6204 -0.2852
  506TMC3    C3 7570   1.093   0.381  10.129 -0.5242  0.7753  0.1031
  506TMC3    C4 7571   0.916   0.465  10.308  0.1063  0.3803  0.4117
  506TMC3    C5 7572   0.950   0.326  10.308 -0.3130  0.7357  0.7444
  506TMC3    C6 7573   1.038   0.291  10.214 -0.4111 -0.1665  0.5655
  506TMC3     C 7574   0.992   0.684  10.291 -0.0598  0.5469  0.0706
  506TMC3     O 7575   0.991   0.675  10.412  0.1772 -0.0367 -0.2679
  506TMC3     H 7576   1.128   0.582  10.085  1.2610  0.2406  0.8485
  506TMC3    H1 7577   0.840   0.502  10.376 -1.2096 -1.2658 -0.1622
  506TMC3    H2 7578   1.070   0.189  10.201  1.8604  0.5774  0.1977
  506TMC3    C7 7579   1.010   0.288  10.432 -0.1270  0.4244 -0.6229
  506TMC3    C8 7580   1.205   0.331  10.051 -0.0500 -0.2456 -0.0990
  506TMC3    O1 7581   1.056   0.176  10.446  0.2636 -0.0705  0.6034
  506TMC3    O2 7582   1.187   0.230   9.982  0.4839  0.3173 -0.6214
  507TMC3    C1 7583   2.268   1.695  14.845 -0.0943  0.8274  0.6234
  507TMC3    C2 7584   2.202   1.591  14.784  0.6168 -0.3385 -0.0853
  507TMC3    C3 7585   2.228   1.576  14.649  0.3372 -0.0549 -0.3086
  507TMC3    C4 7586   2.347   1.784  14.783  0.4773  0.3514 -0.7194
  507TMC3    C5 7587   2.363   1.765  14.649  0.3330  0.0175  0.1959
  507TMC3    C6 7588   2.313   1.661  14.576 -0.0568  0.5234 -0.4753
  507TMC3     C 7589   2.255   1.725  14.986  0.9412  0.1280  0.0500
  507TMC3     O 7590   2.347   1.786  15.042 -0.2875  0.2851 -0.6415
  507TMC3     H 7591   2.132   1.526  14.834 -1.5628  2.0059 -0.0662
  507TMC3    H1 7592   2.385   1.872  14.833 -1.4350  1.2883 -0.9194
  507TMC3    H2 7593   2.329   1.656  14.469  1.1989  0.0357 -0.2690
  507TMC3    C7 7594   2.391   1.876  14.560 -0.2749 -0.7289  0.7539
  507TMC3    C8 7595   2.102   1.551  14.584 -1.4476 -0.4998 -0.6137
  507TMC3    O1 7596   2.433   1.848  14.449  0.0947  0.0459  0.6331
  507TMC3    O2 7597   2.018   1.483  14.640  0.1489 -0.7251  0.4137
  508MPD2     C 7598   3.854   4.034  16.128 -0.1064 -0.0778  0.2052
  508MPD2    C1 7599   3.776   4.143  16.174 -0.6529 -0.7677  0.2449
  508MPD2    C2 7600   3.741   4.245  16.084 -0.0809  0.0166 -0.2004
  508MPD2    C3 7601   3.778   4.237  15.949  0.1533 -0.1801 -0.1313
  508MPD2    C4 7602   3.857   4.130  15.910 -0.0648 -0.2482  0.5063
  508MPD2    C5 7603   3.903   4.038  16.002 -0.4153  0.0950  0.3270
  508MPD2     H 7604   3.680   4.328  16.117  1.5307  1.6895 -1.3686
  508MPD2    H1 7605   3.898   4.148  15.811  0.7362 -1.1696  0.6703
  508MPD2    H2 7606   3.892   3.962  16.200 -2.2704 -1.4751 -0.0309
  508MPD2    H3 7607   3.978   3.966  15.969 -1.3493 -0.6314 -0.2264
  508MPD2     N 7608   3.734   4.346  15.873 -0.8158  0.1395  0.3585
  508MPD2    H5 7609   3.692   4.424  15.924 -0.5317 -1.4932  3.1199
  508MPD2    N1 7610   3.748   4.144  16.306  0.1520 -0.7761  0.4764
  508MPD2    H7 7611   3.813   4.096  16.367 -0.0567 -1.1751  0.3858
  509TMC3    C1 7612   3.543   4.614  15.580 -0.0455  0.1401  0.0148
  509TMC3    C2 7613   3.572   4.733  15.646 -0.3038 -0.1161  0.2396
  509TMC3    C3 7614   3.670   4.711  15.741 -0.5902  0.2497 -0.0513
  509TMC3    C4 7615   3.603   4.496  15.597 -0.8944 -0.3032  0.4377
  509TMC3    C5 7616   3.696   4.483  15.695 -0.1734 -0.3481 -0.1930
  509TMC3    C6 7617   3.726   4.592  15.772  0.0439  0.0379  0.1313
  509TMC3     C 7618   3.416   4.594  15.508 -0.0758  0.2624  0.2576
  509TMC3     O 7619   3.361   4.489  15.540  0.6644  0.1159  0.0775
  509TMC3     H 7620   3.511   0.085  15.642 -2.5282 -1.7632 -2.8618
  509TMC3    H1 7621   3.567   4.407  15.547  0.9411 -0.4970 -0.5345
  509TMC3    H2 7622   3.808   4.580  15.841  0.3562  1.8314  0.0751
  509TMC3    C7 7623   3.731   4.351  15.735 -0.3209 -0.4526 -0.2700
  509TMC3    C8 7624   3.702   0.077  15.837  0.4168 -0.7470  0.4253
  509TMC3    O1 7625   3.734   4.251  15.660  0.1520 -0.1736  0.0796
  509TMC3    O2 7626   3.730   0.027  15.944 -0.3265 -0.3234  0.4515
  510MPD2     C 7627   1.019   1.277  14.227  0.1599  1.1140 -0.2819
  510MPD2    C1 7628   1.089   1.231  14.341  0.6460 -0.0141  0.1969
  510MPD2    C2 7629   1.212   1.176  14.306 -0.0995  0.0820  0.5620
  510MPD2    C3 7630   1.277   1.202  14.191 -0.4193  0.8252  0.0593
  510MPD2    C4 7631   1.220   1.273  14.091  0.4430 -0.7227 -0.1274
  510MPD2    C5 7632   1.086   1.309  14.113 -0.1851  0.5546 -0.0518
  510MPD2     H 7633   1.268   1.118  14.379  0.1592  0.6231  0.7893
  510MPD2    H1 7634   1.261   1.281  13.991 -1.1110  1.1163 -0.6089
  510MPD2    H2 7635   0.915   1.306  14.232 -0.2900 -0.8054  1.3848
  510MPD2    H3 7636   1.042   1.350  14.023 -1.1579  2.4570  1.3031
  510MPD2     N 7637   1.405   1.142  14.159  0.1570  0.0216  0.1497
  510MPD2    H5 7638   1.444   1.083  14.231 -2.5103 -1.5908  0.2622
  510MPD2    N1 7639   1.019   1.203  14.457  0.0372  0.2336  0.3249
  510MPD2    H7 7640   0.918   1.209  14.453  0.3057  3.8077 -1.4487
  511TMC3    C1 7641   0.950   1.088  14.645  0.2123  0.1353 -0.1093
  511TMC3    C2 7642   0.943   1.123  14.778  0.3597 -0.0590  0.0700
  511TMC3    C3 7643   0.841   1.071  14.851 -0.3081 -0.0700 -1.0390
  511TMC3    C4 7644   0.865   1.002  14.584 -0.8492 -0.2642 -0.8544
  511TMC3    C5 7645   0.781   0.937  14.672 -0.8864  0.5460 -0.1979
  511TMC3    C6 7646   0.757   0.975  14.801 -0.1272  0.4395  0.6269
  511TMC3     C 7647   1.064   1.141  14.573  0.7010 -0.6966  0.3632
  511TMC3     O 7648   1.172   1.131  14.632  0.2859  0.1057 -0.5111
  511TMC3     H 7649   1.017   1.189  14.823  1.1445 -1.6362  1.0868
  511TMC3    H1 7650   0.880   0.963  14.484  1.3688 -1.2558 -0.1478
  511TMC3    H2 7651   0.660   0.948  14.841  0.8768 -1.2110  1.9718
  511TMC3    C7 7652   0.699   0.830  14.608  0.0273 -0.7929 -0.6484
  511TMC3    C8 7653   0.809   1.116  14.987  0.1853  0.2662  0.1728
  511TMC3    O1 7654   0.672   0.840  14.488  0.0437 -0.0535  0.4316
  511TMC3    O2 7655   0.855   1.222  15.022  0.1836  0.5112 -0.0575
  512TMC3    C1 7656   4.447   0.581  13.634 -0.1555  0.0093 -0.4034
  512TMC3    C2 7657   4.540   0.551  13.726 -0.1440 -1.0652 -0.2437
  512TMC3    C3 7658   4.643   0.468  13.705 -0.0391 -0.5207  0.0836
  512TMC3    C4 7659   4.456   0.516  13.513  0.1817  0.1524  0.4795
  512TMC3    C5 7660   4.559   0.437  13.484 -0.2409  0.4405  0.2175
  512TMC3    C6 7661   4.656   0.419  13.580 -0.3485 -0.3767 -0.8290
  512TMC3     C 7662   4.426   0.725  13.616 -0.6818 -0.0838 -0.0988
  512TMC3     O 7663   4.524   0.793  13.645  0.1212 -0.3194  0.2096
  512TMC3     H 7664   4.540   0.603  13.821  1.5758  0.7644 -1.2342
  512TMC3    H1 7665   4.388   0.543  13.433  1.3466 -1.1070 -0.9440
  512TMC3    H2 7666   0.004   0.360  13.549  1.1558  1.1779  0.3481
  512TMC3    C7 7667   4.594   0.416  13.345  0.2697 -0.7317  0.4370
  512TMC3    C8 7668   0.031   0.506  13.764 -0.0833 -0.0546  0.1327
  512TMC3    O1 7669   4.535   0.485  13.262 -0.0118 -0.3315  0.0737
  512TMC3    O2 7670   0.110   0.422  13.806 -0.4335 -0.1997 -0.6743
  513MPD2     C 7671   2.637   1.613  13.053  0.1897  0.2995  0.2316
  513MPD2    C1 7672   2.546   1.513  13.033  0.3791 -0.0724  0.1603
  513MPD2    C2 7673   2.532   1.410  13.121 -0.4698 -0.0163 -0.3497
  513MPD2    C3 7674   2.615   1.407  13.231  0.8048 -0.7274 -0.2366
  513MPD2    C4 7675   2.707   1.503  13.251  0.0740 -0.0969  0.5165
  513MPD2    C5 7676   2.713   1.610  13.164 -0.5448  0.8364  0.0862
  513MPD2     H 7677   2.464   1.326  13.111 -0.8956  0.1991  0.7204
  513MPD2    H1 7678   2.780   1.501  13.331 -1.9291 -0.1107  2.3302
  513MPD2    H2 7679   2.649   1.700  12.990 -1.0530 -0.5424 -1.1786
  513MPD2    H3 7680   2.781   1.689  13.193  0.8677  0.4062 -2.1397
  513MPD2     N 7681   2.603   1.300  13.317  0.3019 -0.4494 -0.4339
  513MPD2    H5 7682   2.517   1.249  13.304 -1.3649  1.6192  2.2595
  513MPD2    N1 7683   2.473   1.522  12.917  0.4288 -0.2507 -0.9530
  513MPD2    H7 7684   2.479   1.605  12.859 -1.6363 -0.5004 -1.5068
  514TMC3    C1 7685   2.312   1.451  12.763 -0.6336  0.2177  0.7692
  514TMC3    C2 7686   2.398   1.417  12.664  0.1133  0.1473 -0.0560
  514TMC3    C3 7687   2.365   1.339  12.558 -0.1092  0.0899 -0.1063
  514TMC3    C4 7688   2.187   1.402  12.761  0.4035  0.0191 -0.5924
  514TMC3    C5 7689   2.146   1.322  12.658  0.0612  0.3089 -0.0527
  514TMC3    C6 7690   2.234   1.297  12.556  0.7173 -0.2181  0.3364
  514TMC3     C 7691   2.374   1.434  12.890  0.2863  0.0135  0.4480
  514TMC3     O 7692   2.304   1.370  12.965  0.4806  0.3772 -0.1623
  514TMC3     H 7693   2.502   1.446  12.670  0.8781 -2.0076 -2.5321
  514TMC3    H1 7694   2.118   1.418  12.843  2.6796 -1.1167  1.5222
  514TMC3    H2 7695   2.195   1.237  12.475 -0.7684  0.4730  0.5464
  514TMC3    C7 7696   2.097   1.193  12.715  0.2226 -0.3314  1.2496
  514TMC3    C8 7697   2.460   1.231  12.529 -0.8171  0.0281  0.3352
  514TMC3    O1 7698   2.036   1.118  12.634  0.3132  0.5734 -0.3088
  514TMC3    O2 7699   2.538   1.220  12.623  0.2643 -0.3960 -0.1120
  515MPD2     C 7700   4.725   2.293  14.606 -0.5579  0.1398  0.2781
  515MPD2    C1 7701   0.034   2.336  14.485  0.8541 -0.9789 -0.0013
  515MPD2    C2 7702   0.050   2.472  14.475  0.4580  0.1779  0.6587
  515MPD2    C3 7703   0.049   2.559  14.575  0.0459 -0.5201 -0.4299
  515MPD2    C4 7704   0.017   2.513  14.695 -0.8093  0.3076 -0.4114
  515MPD2    C5 7705   4.726   2.377  14.712  0.6579 -0.3395 -0.1584
  515MPD2     H 7706   0.084   2.503  14.377  1.7265 -1.0366  0.7092
  515MPD2    H1 7707   0.015   2.573  14.785  2.0531 -0.2979  0.0505
  515MPD2    H2 7708   4.701   2.190  14.630 -0.3110 -0.4105 -1.8182
  515MPD2    H3 7709   4.692   2.342  14.808  3.4249  1.3771  1.4514
  515MPD2     N 7710   0.094   2.692  14.568 -0.3299  0.3635  0.2300
  515MPD2    H5 7711   0.075   2.747  14.651 -1.4186  0.8559 -0.3518
  515MPD2    N1 7712   0.033   2.242  14.376 -0.0340  0.1993 -0.7159
  515MPD2    H7 7713   0.014   2.274  14.282  0.4576 -0.1640 -0.9360
  516TMC3    C1 7714   0.011   2.020  14.297 -0.4893 -0.3432  0.1193
  516TMC3    C2 7715   4.661   2.061  14.209  0.0418  0.4176 -0.0193
  516TMC3    C3 7716   4.546   1.996  14.191  0.1588  0.9573 -0.0743
  516TMC3    C4 7717   4.730   1.898  14.345 -0.1886  0.2953  0.9225
  516TMC3    C5 7718   4.617   1.821  14.334  0.1830  0.2519  0.3230
  516TMC3    C6 7719   4.512   1.882  14.269 -0.2583 -0.1957  0.0655
  516TMC3     C 7720   0.059   2.110  14.400  1.2625  1.0987  0.1582
  516TMC3     O 7721   0.097   2.056  14.504  0.1540  0.7118 -0.0407
  516TMC3     H 7722   4.665   2.159  14.162  0.7974  0.4028  0.0104
  516TMC3    H1 7723   0.074   1.847  14.395  0.0627  0.7061  0.9274
  516TMC3    H2 7724   4.419   1.831  14.250 -0.6359  0.6967 -0.5409
  516TMC3    C7 7725   4.585   1.705  14.421  0.8211 -1.0137  0.1929
  516TMC3    C8 7726   4.436   2.050  14.105  0.4330 -0.4375 -0.2358
  516TMC3    O1 7727   4.685   1.660  14.481  0.3373 -0.8959  0.1324
  516TMC3    O2 7728   4.321   2.031  14.137 -0.1160 -0.2905  0.1438
  517MPD2     C 7729   0.320   3.773   0.334  0.2987  0.7139  0.1680
  517MPD2    C1 7730   0.247   3.841   0.241 -0.5292 -0.4548 -0.0250
  517MPD2    C2 7731   0.215   3.979   0.260  0.3978  0.3237 -0.5412
  517MPD2    C3 7732   0.259   4.043   0.376  0.1734  0.1811 -0.1348
  517MPD2    C4 7733   0.328   3.967   0.463 -0.2607  0.0469 -0.6386
  517MPD2    C5 7734   0.353   3.838   0.447 -0.5576  0.4832 -0.3149
  517MPD2     H 7735   0.165   4.031   0.179 -1.0910 -0.6414 -0.2513
  517MPD2    H1 7736   0.362   4.003   0.559  0.0774 -3.0329  0.3884
  517MPD2    H2 7737   0.348   3.668   0.330  2.1808  1.2452 -0.7699
  517MPD2    H3 7738   0.403   3.787   0.528  0.9798 -2.1770 -2.8997
  517MPD2     N 7739   0.224   4.174   0.417  0.7112  0.2459 -0.3919
  517MPD2    H5 7740   0.258   4.202   0.508  0.8855  1.2849 -0.7727
  517MPD2    N1 7741   0.185   3.781   0.134  0.2252  0.0163 -0.2574
  517MPD2    H7 7742   0.120   3.834   0.077 -1.1179 -2.4924 -1.0367
  518TMC3    C1 7743   0.121   3.603  17.738 -0.9705  0.2456 -0.0895
  518TMC3    C2 7744   0.065   3.478  17.742  0.6826  0.1051 -0.3501
  518TMC3    C3 7745   4.736   3.433  17.633  0.3332  0.3654 -0.6411
  518TMC3    C4 7746   0.122   3.683  17.626  0.4340 -0.1237  0.6054
  518TMC3    C5 7747   0.056   3.627  17.522  0.3457 -0.1161 -0.0497
  518TMC3    C6 7748   4.734   3.504  17.523  0.5068  0.9313  0.4597
  518TMC3     C 7749   0.188   3.647   0.109  0.1537  0.6979  0.2638
  518TMC3     O 7750   0.249   3.551   0.160  0.2391 -0.0366  0.5612
  518TMC3     H 7751   0.073   3.418   0.082  1.7963  0.0702 -0.4672
  518TMC3    H1 7752   0.167   3.781  17.617 -2.1929  0.9933 -0.3434
  518TMC3    H2 7753   4.671   3.477  17.439  1.0363 -1.1745  0.7556
  518TMC3    C7 7754   0.103   3.666  17.398  0.3712 -0.4164  0.1596
  518TMC3    C8 7755   4.672   3.305  17.625  0.0319 -0.3129  0.8909
  518TMC3    O1 7756   0.144   3.780  17.379  0.0517 -0.1358  0.1098
  518TMC3    O2 7757   4.635   3.262  17.514  0.0156  0.0324  0.1853
  519MPD2     C 7758   0.741   1.881  14.140 -0.5476 -0.6149  0.1791
  519MPD2    C1 7759   0.860   1.945  14.137 -0.4380 -0.9609  0.3057
  519MPD2    C2 7760   0.977   1.874  14.158 -0.3982 -0.4933  0.3541
  519MPD2    C3 7761   0.974   1.737  14.163  0.4368 -0.2132  0.2583
  519MPD2    C4 7762   0.853   1.674  14.173  0.4444  0.4718 -0.6608
  519MPD2    C5 7763   0.736   1.748  14.165  0.5222 -0.1534  0.5640
  519MPD2     H 7764   1.072   1.928  14.156 -1.3362  1.0557 -2.1610
  519MPD2    H1 7765   0.851   1.567  14.193  2.6909  0.6885  0.7650
  519MPD2    H2 7766   0.650   1.940  14.128 -0.4585 -0.8141 -1.5168
  519MPD2    H3 7767   0.640   1.699  14.165 -0.2301  1.3371  0.8097
  519MPD2     N 7768   1.092   1.661  14.164 -0.4874  0.4340 -0.3646
  519MPD2    H5 7769   1.082   1.562  14.140  2.3896 -0.1215  0.7344
  519MPD2    N1 7770   0.864   2.085  14.109  0.0560 -0.2969 -0.2246
  519MPD2    H7 7771   0.783   2.123  14.062  0.1093 -0.2550 -0.2827
  520TMC3    C1 7772   1.306   1.616  14.088 -0.7377 -0.5746  0.1049
  520TMC3    C2 7773   1.280   1.638  13.950 -0.0188 -0.0783 -0.1240
  520TMC3    C3 7774   1.393   1.610  13.865  0.5642  0.6301  0.4966
  520TMC3    C4 7775   1.426   1.572  14.136  0.2727  0.0756  0.2607
  520TMC3    C5 7776   1.525   1.541  14.046  0.0959  0.3438  0.5795
  520TMC3    C6 7777   1.511   1.563  13.911  0.4261 -0.5060  0.2350
  520TMC3     C 7778   1.225   1.700  14.172  0.5912  0.1668  0.5339
  520TMC3     O 7779   1.271   1.800  14.228 -0.1512 -0.0064 -0.2011
  520TMC3     H 7780   1.184   1.667  13.908  0.4639  0.9483 -0.5341
  520TMC3    H1 7781   1.449   1.570  14.242 -0.4502 -0.4244  0.4069
  520TMC3    H2 7782   1.590   1.555  13.838  0.8837 -1.6598  0.8479
  520TMC3    C7 7783   1.643   1.478  14.101 -0.0945 -0.5169 -0.2331
  520TMC3    C8 7784   1.395   1.660  13.729 -0.0825 -0.7430 -0.2494
  520TMC3    O1 7785   1.641   1.403  14.197  0.2703 -0.1687 -0.1365
  520TMC3    O2 7786   1.480   1.612  13.654 -0.1988  0.1567  0.1209
  521MPD2     C 7787   2.320   0.505  17.391  0.4847  0.3980  0.4859
  521MPD2    C1 7788   2.274   0.431  17.281 -0.7665  0.4674  0.7013
  521MPD2    C2 7789   2.365   0.343  17.214 -0.0842  0.1328 -0.8865
  521MPD2    C3 7790   2.495   0.330  17.256  0.9336 -0.2144 -0.0614
  521MPD2    C4 7791   2.539   0.409  17.361 -0.4336 -0.0949  0.5080
  521MPD2    C5 7792   2.458   0.495  17.426  0.5738  0.4732 -0.4195
  521MPD2     H 7793   2.341   0.284  17.126  0.5066  1.0755 -1.6761
  521MPD2    H1 7794   2.642   0.410  17.395 -0.6330  3.4090  0.9325
  521MPD2    H2 7795   2.260   0.571  17.453 -1.7025 -1.5354  0.4127
  521MPD2    H3 7796   2.491   0.537  17.520  1.1039  0.5002 -0.6133
  521MPD2     N 7797   2.583   0.238  17.191  0.0015  0.8245 -0.0585
  521MPD2    H5 7798   2.548   0.183  17.113 -1.4101 -0.7015  1.6316
  521MPD2    N1 7799   2.133   0.440  17.256 -0.1771  0.6243  0.0858
  521MPD2    H7 7800   2.094   0.516  17.312 -0.9156  0.0776  0.3148
  522TMC3    C1 7801   2.765   0.118  17.133  0.2121  0.1023 -0.9149
  522TMC3    C2 7802   2.849   0.036  17.191 -0.0362  0.2409  0.0822
  522TMC3    C3 7803   2.933   4.704  17.110 -0.1075  0.6880  0.0652
  522TMC3    C4 7804   2.753   0.143  17.001 -0.8834 -0.2297  0.0145
  522TMC3    C5 7805   2.837   0.057  16.924 -0.4281  0.1448  0.1529
  522TMC3    C6 7806   2.925   4.707  16.978 -0.5007 -0.3954  0.0981
  522TMC3     C 7807   2.708   0.208  17.230  0.7633 -0.1412 -0.3245
  522TMC3     O 7808   2.783   0.262  17.312  0.5701  0.0368  0.1428
  522TMC3     H 7809   2.869   0.030  17.297 -2.1225  2.2151  0.5831
  522TMC3    H1 7810   2.720   0.238  16.963  0.6832  0.1681 -0.3630
  522TMC3    H2 7811   2.984   4.644  16.913 -0.9306 -0.4299 -0.2626
  522TMC3    C7 7812   2.845   0.078  16.781  0.1121  0.3578 -0.5286
  522TMC3    C8 7813   3.043   4.624  17.173 -0.2347 -0.4444 -1.1583
  522TMC3    O1 7814   2.946   0.025  16.732 -0.7141 -0.4230  0.0367
  522TMC3    O2 7815   3.030   4.601  17.292  0.0949 -0.0692  0.1430
  523MPD2     C 7816   0.650   0.801   9.982  0.0225  0.2585  0.0966
  523MPD2    C1 7817   0.544   0.736   9.924 -0.0516 -0.5902 -0.4756
  523MPD2    C2 7818   0.461   0.807   9.834  0.6251 -0.0335 -0.2659
  523MPD2    C3 7819   0.474   0.944   9.821 -0.3005  0.6728 -0.3252
  523MPD2    C4 7820   0.580   1.002   9.880  0.6112  0.0667  0.4500
  523MPD2    C5 7821   0.676   0.932   9.952 -0.3831  0.6214 -0.2016
  523MPD2     H 7822   0.373   0.755   9.796  0.3675  0.7477 -0.7477
  523MPD2    H1 7823   0.606   1.106   9.863 -0.7786  0.0281 -1.8073
  523MPD2    H2 7824   0.722   0.745  10.041  0.4973 -0.5028 -1.2056
  523MPD2    H3 7825   0.770   0.972   9.988 -1.0628  0.4034  1.8048
  523MPD2     N 7826   0.388   1.026   9.742 -0.4753 -0.2924 -0.2565
  523MPD2    H5 7827   0.403   1.127   9.747 -0.8836 -0.3376  1.6562
  523MPD2    N1 7828   0.535   0.597   9.949 -0.1541  0.4149  0.0502
  523MPD2    H7 7829   0.599   0.561  10.020 -0.2865 -0.7994 -0.4403
  524TMC3    C1 7830   0.203   1.080   9.604 -0.0693 -0.3099  0.2397
  524TMC3    C2 7831   0.135   1.044   9.500 -0.8150  0.3268 -0.3849
  524TMC3    C3 7832   0.007   1.070   9.504  0.1664 -0.0198  0.0645
  524TMC3    C4 7833   0.160   1.170   9.701 -0.3921 -0.3055  0.8201
  524TMC3    C5 7834   0.039   1.218   9.682 -0.4666  0.2370  0.3356
  524TMC3    C6 7835   4.693   1.174   9.578 -0.1937 -0.1985  0.4549
  524TMC3     C 7836   0.302   0.982   9.643  0.2315  0.3358 -0.2082
  524TMC3     O 7837   0.296   0.867   9.597 -0.5144 -0.5224 -0.0256
  524TMC3     H 7838   0.166   0.963   9.436 -2.4661 -0.0159 -0.7651
  524TMC3    H1 7839   0.237   1.193   9.774 -0.0697  1.8660 -0.2111
  524TMC3    H2 7840   4.589   1.204   9.568  0.2313  0.8015 -0.9825
  524TMC3    C7 7841   4.722   1.293   9.793 -0.2857 -0.4233 -0.1219
  524TMC3    C8 7842   4.653   1.001   9.419 -0.1982  0.1503  0.6783
  524TMC3    O1 7843   0.039   1.286   9.904 -0.2794 -0.0186  0.1530
  524TMC3    O2 7844   4.539   1.046   9.412 -0.0526 -0.2273 -0.1694
  525MPD2     C 7845   2.592   1.364  14.529  0.2258 -0.4388  0.2095
  525MPD2    C1 7846   2.715   1.380  14.587 -0.2185 -0.3728 -0.1482
  525MPD2    C2 7847   2.780   1.499  14.556  0.3744 -0.9822  0.2573
  525MPD2    C3 7848   2.730   1.597  14.470  0.2798 -0.9578  0.0240
  525MPD2    C4 7849   2.612   1.564  14.410  0.0283 -0.0422  0.6735
  525MPD2    C5 7850   2.543   1.458  14.448 -0.1121 -0.1111 -0.0193
  525MPD2     H 7851   2.879   1.509  14.599 -0.0010  0.0032  0.8870
  525MPD2    H1 7852   2.566   1.643  14.352  1.5675 -1.1661 -2.0651
  525MPD2    H2 7853   2.531   1.283  14.568 -0.4333  0.4303  0.9852
  525MPD2    H3 7854   2.438   1.453  14.420  0.1220  0.6185 -1.0134
  525MPD2     N 7855   2.786   1.727  14.456 -0.2233 -0.4827 -0.3839
  525MPD2    H5 7856   2.747   1.785  14.383 -1.1074  0.5823  0.9487
  525MPD2    N1 7857   2.773   1.289  14.672 -0.5168 -0.3188 -0.6956
  525MPD2    H7 7858   2.862   1.311  14.716 -0.7055 -1.6687  0.3417
  526TMC3    C1 7859   2.817   1.120  14.830  0.9473 -0.1245 -0.7406
  526TMC3    C2 7860   2.772   1.119  14.963 -0.1412  0.3242 -0.9087
  526TMC3    C3 7861   2.865   1.112  15.066 -0.4332  0.1453  0.2224
  526TMC3    C4 7862   2.951   1.104  14.803 -0.1197 -0.8988  0.5080
  526TMC3    C5 7863   3.037   1.098  14.908  0.4276 -0.1285 -0.2314
  526TMC3    C6 7864   2.996   1.099  15.039  0.3826 -0.4092 -0.0048
  526TMC3     C 7865   2.724   1.165  14.727 -0.2880 -0.4853  0.5635
  526TMC3     O 7866   2.608   1.122  14.718  0.7098 -0.1222 -0.2291
  526TMC3     H 7867   2.667   1.132  14.985 -0.1057  0.6282 -0.9131
  526TMC3    H1 7868   2.985   1.092  14.701 -1.2500  0.5786 -0.0442
  526TMC3    H2 7869   3.062   1.082  15.124  1.2163  0.5293 -0.4768
  526TMC3    C7 7870   3.181   1.053  14.889  0.0638  0.2664 -0.3562
  526TMC3    C8 7871   2.826   1.155  15.204  0.2788  0.3896 -0.5997
  526TMC3    O1 7872   3.223   1.000  14.987 -0.6118 -0.3995  0.3354
  526TMC3    O2 7873   2.922   1.165  15.282  0.0312 -0.0855  0.4371
  527MPD2     C 7874   0.719   0.569   0.456  0.1748 -0.2796  0.1767
  527MPD2    C1 7875   0.663   0.478   0.547 -0.9383  0.0436 -0.1259
  527MPD2    C2 7876   0.709   0.348   0.564 -0.2319  0.5087 -0.2453
  527MPD2    C3 7877   0.815   0.308   0.484 -0.7098 -1.0754 -0.0197
  527MPD2    C4 7878   0.871   0.399   0.399 -0.5205 -0.0356 -0.3493
  527MPD2    C5 7879   0.829   0.532   0.388 -0.2848  0.1893  0.0399
  527MPD2     H 7880   0.663   0.282   0.637 -2.8607 -1.1712 -3.4549
  527MPD2    H1 7881   0.968   0.377   0.356  0.1068  0.9272  0.5502
  527MPD2    H2 7882   0.689   0.671   0.434  0.3755 -0.4239 -0.7737
  527MPD2    H3 7883   0.882   0.607   0.331 -2.0175  0.0875 -1.6850
  527MPD2     N 7884   0.865   0.177   0.492 -0.3422  0.6695  0.2226
  527MPD2    H5 7885   0.827   0.123   0.569 -0.7773 -1.1595 -1.2758
  527MPD2    N1 7886   0.540   0.506   0.616 -0.9141  0.1380 -0.2437
  527MPD2    H7 7887   0.498   0.426   0.662 -0.8645 -0.4227 -1.1669
  528TMC3    C1 7888   0.348   0.633   0.677 -0.2874 -0.8954 -0.0571
  528TMC3    C2 7889   0.314   0.723   0.771 -0.0678  0.2371  0.5320
  528TMC3    C3 7890   0.212   0.692   0.863 -0.2420  0.0735  0.2263
  528TMC3    C4 7891   0.275   0.519   0.657  0.1996 -0.0278 -0.4458
  528TMC3    C5 7892   0.173   0.500   0.744 -0.0653  0.7448 -0.0852
  528TMC3    C6 7893   0.152   0.569   0.857 -0.1273  0.4149 -0.3837
  528TMC3     C 7894   0.486   0.632   0.622  0.5952  0.0327 -0.4714
  528TMC3     O 7895   0.537   0.744   0.604 -0.1938  0.4674 -0.4413
  528TMC3     H 7896   0.360   0.820   0.778 -0.7137  0.4716  1.5294
  528TMC3    H1 7897   0.296   0.445   0.581  3.0768 -2.4076  2.7127
  528TMC3    H2 7898   0.071   0.534   0.920  0.7280 -0.0249  0.4593
  528TMC3    C7 7899   0.098   0.377   0.723  0.0444  0.0516  0.6329
  528TMC3    C8 7900   0.195   0.778   0.975 -0.0060 -0.3222 -0.3009
  528TMC3    O1 7901   0.071   0.320   0.827  0.6223 -0.2246  0.3823
  528TMC3    O2 7902   0.282   0.860   1.004 -0.3804 -0.3696 -0.6658
  529MPD2     C 7903   2.419   2.223   0.525  0.6762  0.4214  0.1478
  529MPD2    C1 7904   2.551   2.231   0.482  0.1148  0.3735  0.4646
  529MPD2    C2 7905   2.581   2.327   0.388  0.4836 -0.6923  0.2840
  529MPD2    C3 7906   2.485   2.421   0.354  0.0283  0.2013 -0.1684
  529MPD2    C4 7907   2.355   2.398   0.394 -0.2115  0.5409 -0.2599
  529MPD2    C5 7908   2.317   2.293   0.472  0.7142  0.2130 -0.1186
  529MPD2     H 7909   2.684   2.337   0.354  0.3332  1.1551  0.4175
  529MPD2    H1 7910   2.270   2.458   0.365  0.4053  1.7551  0.4611
  529MPD2    H2 7911   2.388   2.142   0.590  2.1402 -1.1799 -1.1183
  529MPD2    H3 7912   2.213   2.282   0.501  0.4733 -1.4045 -1.6270
  529MPD2     N 7913   2.498   2.536   0.276 -0.2397 -0.1869 -0.7902
  529MPD2    H5 7914   2.410   2.581   0.253  0.1577 -0.6478 -3.2314
  529MPD2    N1 7915   2.651   2.143   0.521 -0.1873  0.1225 -0.1531
  529MPD2    H7 7916   2.747   2.162   0.491  0.4258 -1.8845  0.5308
  530TMC3    C1 7917   2.758   2.004   0.666 -0.3835  0.0404  0.4594
  530TMC3    C2 7918   2.879   2.053   0.624  0.0405 -0.2329 -0.7101
  530TMC3    C3 7919   2.984   2.034   0.712 -0.7569  0.0128 -0.1851
  530TMC3    C4 7920   2.744   1.934   0.786 -0.1749  0.6424 -0.1496
  530TMC3    C5 7921   2.850   1.922   0.865  0.4127  0.6206  0.2157
  530TMC3    C6 7922   2.974   1.972   0.835 -0.3260  0.0755  0.1646
  530TMC3     C 7923   2.635   2.042   0.607  0.3428 -0.3242 -0.0193
  530TMC3     O 7924   2.536   1.987   0.652  0.4317  0.1499 -0.3702
  530TMC3     H 7925   2.903   2.096   0.527 -1.1036 -1.3705 -1.4879
  530TMC3    H1 7926   2.649   1.889   0.816 -0.2657  2.1546  1.8784
  530TMC3    H2 7927   3.048   1.985   0.912  0.6869  0.5335 -0.8927
  530TMC3    C7 7928   2.827   1.919   1.008  0.1764 -0.1168  0.0401
  530TMC3    C8 7929   3.104   2.110   0.683 -0.1260 -0.1166  0.3739
  530TMC3    O1 7930   2.907   1.856   1.078 -0.2222 -0.3085  0.9959
  530TMC3    O2 7931   3.075   2.214   0.622  0.2130 -0.6683  0.0759
  531MPD2     C 7932   2.135   0.847  13.091 -0.1467 -0.5809  0.2071
  531MPD2    C1 7933   2.210   0.959  13.123 -0.4140 -0.0118 -0.3957
  531MPD2    C2 7934   2.199   1.065  13.039 -0.0258  0.3417 -0.1335
  531MPD2    C3 7935   2.132   1.058  12.920 -0.0108  0.7786  0.0805
  531MPD2    C4 7936   2.064   0.943  12.885 -0.0400 -0.4110  0.1071
  531MPD2    C5 7937   2.070   0.843  12.971  0.8324  0.0842  0.7798
  531MPD2     H 7938   2.248   1.159  13.062  0.7124  0.2169 -1.2492
  531MPD2    H1 7939   2.011   0.933  12.791  0.8186 -3.5690 -0.0378
  531MPD2    H2 7940   2.148   0.757  13.151 -0.5119  0.4223  1.7856
  531MPD2    H3 7941   2.041   0.748  12.927  1.0937  0.5261 -0.3482
  531MPD2     N 7942   2.143   1.175  12.841  0.1975  0.5744  0.1309
  531MPD2    H5 7943   2.200   1.251  12.876  1.5311  0.5151 -1.9080
  531MPD2    N1 7944   2.298   0.939  13.229  0.3928  0.1629 -0.6250
  531MPD2    H7 7945   2.318   0.842  13.253  0.0199  0.6958  1.7803
  532TMC3    C1 7946   2.451   1.005  13.381  0.1203 -0.6367  0.3009
  532TMC3    C2 7947   2.509   1.119  13.438 -1.0622 -0.8088 -0.7442
  532TMC3    C3 7948   2.642   1.125  13.464  0.7960  0.4690  0.4415
  532TMC3    C4 7949   2.525   0.893  13.356  0.3893  0.4077  0.2628
  532TMC3    C5 7950   2.659   0.904  13.382  0.2885  0.0660  1.0123
  532TMC3    C6 7951   2.719   1.014  13.446  0.9785 -0.2936 -0.3135
  532TMC3     C 7952   2.365   1.045  13.278 -0.5300  0.1286  0.9763
  532TMC3     O 7953   2.358   1.165  13.248 -0.3696 -0.0354 -0.5079
  532TMC3     H 7954   2.447   1.200  13.476 -1.2991 -1.7664  0.8791
  532TMC3    H1 7955   2.477   0.803  13.321 -0.0614  0.4013  0.9038
  532TMC3    H2 7956   2.827   1.024  13.445  0.8682  0.6919 -1.3765
  532TMC3    C7 7957   2.741   0.787  13.364  0.3134  0.5187  0.6252
  532TMC3    C8 7958   2.694   1.249  13.402 -0.2535  0.5462 -0.6088
  532TMC3    O1 7959   2.847   0.783  13.425  0.5552 -0.9100  0.1839
  532TMC3    O2 7960   2.810   1.278  13.432 -0.3097 -0.5581  0.6809
  533TMC3    C1 7961   2.903   1.916  14.492 -0.3886  0.2786  0.6082
  533TMC3    C2 7962   3.024   1.972  14.532 -0.3923  0.4619  0.7764
  533TMC3    C3 7963   3.032   2.055  14.631 -0.4323 -0.2579 -0.1678
  533TMC3    C4 7964   2.790   1.971  14.545  0.1917  0.0602 -0.5573
  533TMC3    C5 7965   2.800   2.070  14.639  0.4509 -0.3852 -0.7045
  533TMC3    C6 7966   2.919   2.120  14.674 -0.0532 -0.3294  0.8480
  533TMC3     C 7967   2.899   1.780  14.521  0.3508  0.1550 -0.0128
  533TMC3     O 7968   2.969   1.740  14.614  0.0336 -0.4030  0.3199
  533TMC3     H 7969   3.118   1.933  14.495 -0.5387 -0.2668  1.1787
  533TMC3    H1 7970   2.690   1.931  14.533  0.4929 -0.5665 -0.9426
  533TMC3    H2 7971   2.926   2.179  14.765  0.6092 -1.2480  1.3977
  533TMC3    C7 7972   2.713   2.051  14.756  0.1980  0.1075  0.5391
  533TMC3    C8 7973   3.158   2.133  14.638  0.3882 -0.6231  0.5179
  533TMC3    O1 7974   2.658   1.939  14.771 -0.1419  0.0821 -0.2825
  533TMC3    O2 7975   3.268   2.081  14.645  0.2249  0.1761  0.4222
  534MPD2     C 7976   0.895   2.983   1.336 -0.6092 -0.0964  0.3787
  534MPD2    C1 7977   0.783   3.067   1.337  0.5514 -0.4006  0.1086
  534MPD2    C2 7978   0.658   3.018   1.297  0.1158  0.1589  0.2661
  534MPD2    C3 7979   0.647   2.901   1.231 -0.4104 -0.0958 -0.3510
  534MPD2    C4 7980   0.752   2.819   1.218 -0.6958  0.6997  0.2948
  534MPD2    C5 7981   0.872   2.856   1.277 -0.4234 -0.8639  0.1143
  534MPD2     H 7982   0.567   3.077   1.305  1.2236  1.7200  1.4709
  534MPD2    H1 7983   0.741   2.715   1.190 -1.4056  0.2610  2.2002
  534MPD2    H2 7984   0.991   3.006   1.382 -1.3603 -0.8667  2.3178
  534MPD2    H3 7985   0.942   2.773   1.277 -0.2656 -0.7321 -1.4237
  534MPD2     N 7986   0.530   2.865   1.159 -0.4616 -0.3359  0.3495
  534MPD2    H5 7987   0.537   2.782   1.100  1.9120 -0.2780  0.5328
  534MPD2    N1 7988   0.776   3.187   1.410 -0.7745  0.0356  0.4076
  534MPD2    H7 7989   0.685   3.229   1.418 -0.3418  1.2878 -1.3492
  535TMC3    C1 7990   0.318   2.859   1.074 -0.1698 -0.1791 -0.3011
  535TMC3    C2 7991   0.184   2.855   1.109 -0.5702  0.8407  0.6438
  535TMC3    C3 7992   0.095   2.855   1.005 -0.3389  0.0964  0.1222
  535TMC3    C4 7993   0.354   2.870   0.941  0.5131 -0.3798  0.0470
  535TMC3    C5 7994   0.261   2.859   0.844  0.3622  0.8470  0.2977
  535TMC3    C6 7995   0.128   2.845   0.873 -0.2759  0.2725  0.5722
  535TMC3     C 7996   0.408   2.924   1.167  0.0074 -0.2594 -0.1056
  535TMC3     O 7997   0.360   2.970   1.267  0.6405 -0.4501  0.1511
  535TMC3     H 7998   0.161   2.837   1.213 -2.3052  2.0470  0.4659
  535TMC3    H1 7999   0.458   2.884   0.914 -0.2012  3.8824 -0.5427
  535TMC3    H2 8000   0.048   2.849   0.800 -1.1328  0.9421  1.5520
  535TMC3    C7 8001   0.316   2.850   0.713 -0.6062  0.0560  0.7598
  535TMC3    C8 8002   4.693   2.873   1.035  0.1164  0.3701 -0.2649
  535TMC3    O1 8003   0.415   2.779   0.708 -0.5034 -0.5978  0.1176
  535TMC3    O2 8004   4.616   2.868   0.941  1.0712 -0.3891 -0.1611
  536MPD2     C 8005   4.217   1.735  16.124  0.7210 -0.2619 -0.0284
  536MPD2    C1 8006   4.110   1.650  16.107  0.3253 -0.1519 -0.0543
  536MPD2    C2 8007   4.068   1.612  15.975 -0.0161 -0.1314 -0.7433
  536MPD2    C3 8008   4.133   1.674  15.867  0.2538 -0.4572 -0.9796
  536MPD2    C4 8009   4.239   1.750  15.886  0.5630 -0.5560 -0.4110
  536MPD2    C5 8010   4.276   1.780  16.012  0.0070  0.2708  0.6422
  536MPD2     H 8011   3.986   1.542  15.968  1.5163 -2.0345  0.4224
  536MPD2    H1 8012   4.278   1.801  15.798  1.2524 -1.2821 -0.5314
  536MPD2    H2 8013   4.243   1.768  16.223 -0.8912  1.3541 -0.1533
  536MPD2    H3 8014   4.364   1.841  16.029  0.4669 -0.7932  2.0726
  536MPD2     N 8015   4.091   1.660  15.736  0.2859 -0.5328 -0.3271
  536MPD2    H5 8016   4.140   1.717  15.667  0.6250  0.1989  0.5249
  536MPD2    N1 8017   4.047   1.596  16.217  0.1811 -0.0258  0.2573
  536MPD2    H7 8018   4.074   1.641  16.304 -2.9837  0.5999  0.8989
  537TMC3    C1 8019   3.908   1.472  16.361 -0.4216  0.4944 -0.2769
  537TMC3    C2 8020   3.913   1.573  16.444 -0.0514  0.0448 -0.4853
  537TMC3    C3 8021   3.918   1.546  16.583 -0.1151 -0.1864 -0.1764
  537TMC3    C4 8022   3.891   1.342  16.403 -0.4266  0.2678 -0.1672
  537TMC3    C5 8023   3.899   1.318  16.534  0.7551  0.3655 -0.3188
  537TMC3    C6 8024   3.909   1.419  16.624 -0.1119 -0.5331  0.1847
  537TMC3     C 8025   3.949   1.497  16.223  0.3018  0.4759  0.6133
  537TMC3     O 8026   3.895   1.422  16.139 -0.5080 -0.2402 -0.0303
  537TMC3     H 8027   3.908   1.679  16.418 -0.7830  0.6504  2.0865
  537TMC3    H1 8028   3.885   1.264  16.329 -0.3056  0.5888 -0.5139
  537TMC3    H2 8029   3.923   1.397  16.730  0.9291  2.1123  0.6100
  537TMC3    C7 8030   3.844   1.191  16.575  0.2434  0.2965  0.4940
  537TMC3    C8 8031   3.984   1.644  16.666 -0.5469  0.4589  0.1143
  537TMC3    O1 8032   3.767   1.139  16.497  0.0137 -0.7383  0.2008
  537TMC3    O2 8033   4.045   1.603  16.765  0.4847 -0.2702  0.2214
  538TMC3    C1 8034   0.842   0.247  10.926  0.6457  0.0459  0.0415
  538TMC3    C2 8035   0.902   0.126  10.895  0.0879  0.1368  0.0143
  538TMC3    C3 8036   0.901   0.076  10.771 -0.1286  0.3227 -0.6097
  538TMC3    C4 8037   0.777   0.317  10.823  0.0570 -0.0824  0.1598
  538TMC3    C5 8038   0.780   0.256  10.700  0.2979  0.1477 -0.4367
  538TMC3    C6 8039   0.843   0.141  10.667 -0.2767  0.1971 -0.3692
  538TMC3     C 8040   0.849   0.311  11.061  0.1758  0.0897 -0.3109
  538TMC3     O 8041   0.804   0.426  11.067 -0.6157  0.6420 -0.2898
  538TMC3     H 8042   0.947   0.069  10.976 -0.4277  1.3501  1.1735
  538TMC3    H1 8043   0.731   0.414  10.843 -1.4165 -0.7868  0.1536
  538TMC3    H2 8044   0.818   0.076  10.584  2.3872 -1.5091  0.1521
  538TMC3    C7 8045   0.685   0.297  10.598 -0.9645  0.6538 -0.1804
  538TMC3    C8 8046   0.960   4.685  10.739  0.0475 -0.1328  0.4894
  538TMC3    O1 8047   0.638   0.206  10.533 -0.5089 -0.1135  0.1542
  538TMC3    O2 8048   0.963   4.613  10.838  0.0960  0.2057  0.4235
  539MPD2     C 8049   0.621   4.452  11.701 -0.0087 -0.4107 -0.0941
  539MPD2    C1 8050   0.664   4.493  11.571  0.0728  0.2622  0.2774
  539MPD2    C2 8051   0.621   4.610  11.515 -1.1102  0.1134  0.2831
  539MPD2    C3 8052   0.525   4.681  11.582  0.2239 -0.6069 -0.2494
  539MPD2    C4 8053   0.503   4.649  11.712  0.0025 -0.0852 -0.6259
  539MPD2    C5 8054   0.547   4.537  11.774  0.2829  0.1241  0.4239
  539MPD2     H 8055   0.660   4.641  11.419  0.0969 -1.1646  0.3606
  539MPD2    H1 8056   0.429   4.697  11.775  2.7357  1.4621  1.4030
  539MPD2    H2 8057   0.657   4.360  11.743  0.9311 -0.1611 -0.3451
  539MPD2    H3 8058   0.511   4.513  11.873  3.2224 -0.9757  1.2158
  539MPD2     N 8059   0.439   0.041  11.527 -1.0979 -1.0519  0.3623
  539MPD2    H5 8060   0.371   0.088  11.587 -0.2396  1.0695 -0.2989
  539MPD2    N1 8061   0.732   4.399  11.494  1.0706 -0.9459  0.0853
  539MPD2    H7 8062   0.745   4.424  11.397 -0.5015  1.4995  0.4892
  540TMC3    C1 8063   0.325   0.152  11.372 -0.0372 -0.1846 -0.4242
  540TMC3    C2 8064   0.323   0.217  11.256  0.2681 -0.3430 -0.5801
  540TMC3    C3 8065   0.203   0.264  11.220 -0.3019  0.0191 -0.4456
  540TMC3    C4 8066   0.216   0.148  11.457 -0.3738 -0.8583  0.3450
  540TMC3    C5 8067   0.098   0.205  11.418 -0.6503 -0.3028  0.5696
  540TMC3    C6 8068   0.091   0.255  11.294 -0.2511 -0.1174  0.6889
  540TMC3     C 8069   0.437   0.066  11.395 -0.4273 -0.7993 -0.2936
  540TMC3     O 8070   0.492   0.008  11.302 -0.7610 -0.0197  0.0197
  540TMC3     H 8071   0.406   0.214  11.186 -0.1525  0.5426 -1.1204
  540TMC3    H1 8072   0.204   0.088  11.546  0.0929  0.6731  1.4295
  540TMC3    H2 8073   4.730   0.287  11.261  0.3201 -0.3036 -1.2258
  540TMC3    C7 8074   4.728   0.141  11.491  0.4398 -0.4471  0.4502
  540TMC3    C8 8075   0.188   0.301  11.078  0.1723  0.5075  0.2089
  540TMC3    O1 8076   4.707   0.018  11.489  0.2525  0.5245  0.1521
  540TMC3    O2 8077   0.179   0.423  11.052  0.1373  0.1743  0.3135
  541MPD2     C 8078   3.599   0.390  13.240  0.2269 -0.0578  0.1244
  541MPD2    C1 8079   3.638   0.331  13.128  0.0567 -0.1386 -0.4788
  541MPD2    C2 8080   3.622   0.402  13.007 -0.1921 -0.6245  0.8614
  541MPD2    C3 8081   3.558   0.522  12.998 -0.5217  0.0201 -0.4668
  541MPD2    C4 8082   3.514   0.577  13.119  0.6356  0.4740  0.3509
  541MPD2    C5 8083   3.537   0.514  13.235 -0.3037 -0.3587 -0.1486
  541MPD2     H 8084   3.660   0.344  12.924  0.4173 -1.7357  1.9134
  541MPD2    H1 8085   3.468   0.675  13.120  0.7765  0.5403  0.3802
  541MPD2    H2 8086   3.607   0.344  13.338 -1.8674  0.7286  0.6627
  541MPD2    H3 8087   3.499   0.564  13.324  4.0125  1.7432  0.4879
  541MPD2     N 8088   3.529   0.583  12.877 -0.7536 -0.5202  0.0570
  541MPD2    H5 8089   3.475   0.668  12.880 -0.4297 -0.2790 -0.9635
  541MPD2    N1 8090   3.706   0.207  13.144 -0.7479  0.5291  0.1902
  541MPD2    H7 8091   3.703   0.162  13.235  0.7606 -0.3446 -0.1880
  542TMC3    C1 8092   3.498   0.610  12.637  0.1559  0.2148 -0.8985
  542TMC3    C2 8093   3.542   0.576  12.507  0.0071 -0.3163  0.4591
  542TMC3    C3 8094   3.510   0.655  12.406 -0.3127  0.2474  0.3462
  542TMC3    C4 8095   3.418   0.714  12.664 -0.4007 -0.4110 -0.5173
  542TMC3    C5 8096   3.400   0.789  12.556  0.0921  0.1155 -0.1555
  542TMC3    C6 8097   3.442   0.768  12.432  0.8263  0.4685  0.4585
  542TMC3     C 8098   3.567   0.540  12.750 -0.2089  0.7150  0.3641
  542TMC3     O 8099   3.619   0.435  12.713  0.3182 -0.1603 -0.4651
  542TMC3     H 8100   3.596   0.484  12.486  1.4989  0.4922  0.7585
  542TMC3    H1 8101   3.384   0.739  12.764  1.7292 -0.9756  0.3680
  542TMC3    H2 8102   3.401   0.818  12.345  0.6314  0.8452  0.7692
  542TMC3    C7 8103   3.354   0.922  12.597 -0.6605 -0.7107 -0.3788
  542TMC3    C8 8104   3.576   0.638  12.271 -0.4620 -0.4252  0.1501
  542TMC3    O1 8105   3.355   0.947  12.713 -0.3669  0.7941  0.3666
  542TMC3    O2 8106   3.564   0.738  12.197 -0.2369 -0.3803 -0.0119
  543TMC3    C1 8107   2.683   2.088  16.928  0.3247 -0.1196 -0.1184
  543TMC3    C2 8108   2.756   2.003  16.998  0.6475 -0.2106  0.5343
  543TMC3    C3 8109   2.709   1.968  17.123 -0.3655 -0.1899  0.0028
  543TMC3    C4 8110   2.568   2.137  16.974  0.1403 -0.2724 -0.5241
  543TMC3    C5 8111   2.535   2.109  17.100 -0.3745 -0.7148  0.7815
  543TMC3    C6 8112   2.605   2.029  17.182  0.3023  0.3596  0.2071
  543TMC3     C 8113   2.725   2.107  16.789 -0.0637 -0.3916 -0.5234
  543TMC3     O 8114   2.798   2.022  16.748  0.2954  0.0023 -0.3912
  543TMC3     H 8115   2.824   1.937  16.945  0.4174  0.8741 -1.1051
  543TMC3    H1 8116   2.500   2.193  16.911  1.4543  3.5839  1.4793
  543TMC3    H2 8117   2.569   2.014  17.283 -0.6601  1.2941  0.0037
  543TMC3    C7 8118   2.420   2.176  17.160  0.1339  0.1068  0.4269
  543TMC3    C8 8119   2.712   1.825  17.140  0.2119 -0.2968  0.1926
  543TMC3    O1 8120   2.384   2.124  17.263 -0.2375 -0.3152  0.1663
  543TMC3    O2 8121   2.742   1.746  17.051 -0.2888 -0.0360  0.2154
  544MPD2     C 8122   2.661   1.437  17.489 -0.2664 -0.8556  0.3313
  544MPD2    C1 8123   2.640   1.443  17.354  0.5468 -0.1152  0.9847
  544MPD2    C2 8124   2.657   1.558  17.275 -1.3899 -0.3609  0.5261
  544MPD2    C3 8125   2.705   1.669  17.340 -0.0135  0.0768 -0.2558
  544MPD2    C4 8126   2.738   1.667  17.473  0.1595  0.1021 -0.3579
  544MPD2    C5 8127   2.714   1.552  17.548  0.0657  0.5359 -0.0723
  544MPD2     H 8128   2.634   1.566  17.170  1.4192  1.6463  0.0686
  544MPD2    H1 8129   2.794   1.752  17.509 -1.5980  0.8703  0.5114
  544MPD2    H2 8130   2.632   1.361  17.559  0.5022  0.7986  2.4608
  544MPD2    H3 8131   2.725   1.550  17.656  0.2354 -0.0543 -0.1009
  544MPD2     N 8132   2.719   1.797  17.279 -0.1779  0.0511  0.3296
  544MPD2    H5 8133   2.735   1.875  17.341 -3.1712  1.7332 -0.9624
  544MPD2    N1 8134   2.592   1.319  17.307  0.0480  0.7365  0.1255
  544MPD2    H7 8135   2.567   1.258  17.384 -1.6125  1.4876  0.1888
  545TMC3    C1 8136   2.465   1.165  17.172  0.0120  0.4525  0.3132
  545TMC3    C2 8137   2.358   1.176  17.088 -0.7405  0.1818  0.4461
  545TMC3    C3 8138   2.250   1.092  17.113  0.1709  0.7957  0.4948
  545TMC3    C4 8139   2.471   1.071  17.276 -0.0200  0.1907 -0.1240
  545TMC3    C5 8140   2.370   0.977  17.281  0.1176  0.0730  0.1809
  545TMC3    C6 8141   2.259   0.992  17.201 -0.3707 -0.1073  0.0342
  545TMC3     C 8142   2.541   1.293  17.180  0.3675  0.3098  0.1342
  545TMC3     O 8143   2.538   1.360  17.076 -0.0834 -0.4396  0.6243
  545TMC3     H 8144   2.357   1.248  17.007  1.1302 -0.4175 -0.1070
  545TMC3    H1 8145   2.554   1.069  17.345 -1.4403 -1.6629  1.5390
  545TMC3    H2 8146   2.180   0.921  17.223 -0.6635  0.6644  1.4168
  545TMC3    C7 8147   2.362   0.877  17.382 -0.5168  0.0941  0.8987
  545TMC3    C8 8148   2.121   1.121  17.060  0.4906  0.3431  0.2467
  545TMC3    O1 8149   2.258   0.815  17.414  0.6599 -0.3438 -0.3546
  545TMC3    O2 8150   2.115   1.144  16.943  0.1090 -0.1251 -0.3410
  546MPD2     C 8151   4.119   1.837  17.516  0.1482 -0.0723  0.1493
  546MPD2    C1 8152   4.056   1.916  17.423 -0.6428  0.2930 -0.5803
  546MPD2    C2 8153   4.082   2.051  17.418 -0.2560  0.3577  0.8083
  546MPD2    C3 8154   4.177   2.112  17.507  0.1488 -0.4279 -0.0925
  546MPD2    C4 8155   4.231   2.037  17.609  0.0482 -0.3595  0.6989
  546MPD2    C5 8156   4.196   1.905  17.610 -0.3134  0.0577  0.1267
  546MPD2     H 8157   4.037   2.110  17.338 -0.5978 -0.5429  0.3371
  546MPD2    H1 8158   4.289   2.081  17.689 -0.1660 -0.0955  0.7071
  546MPD2    H2 8159   4.090   1.734  17.529  1.3018 -0.2750  1.1077
  546MPD2    H3 8160   4.247   1.836  17.676  2.2215  1.5859 -0.2360
  546MPD2     N 8161   4.219   2.252  17.497  0.4118  0.3645 -0.1019
  546MPD2    H5 8162   4.273   2.281  17.578  0.6960  0.1732 -0.2260
  546MPD2    N1 8163   3.978   1.850  17.326 -0.1572 -0.0735 -0.1319
  546MPD2    H7 8164   3.979   1.748  17.323 -0.3725 -0.0750 -0.1919
  547TMC3    C1 8165   3.837   1.817  17.141  0.8313 -0.1339  0.6602
  547TMC3    C2 8166   3.791   1.870  17.024 -0.4701 -0.5487  0.2619
  547TMC3    C3 8167   3.746   1.778  16.933 -0.2971  0.1202  0.3288
  547TMC3    C4 8168   3.826   1.687  17.175  0.6464 -0.2514 -0.4812
  547TMC3    C5 8169   3.767   1.602  17.087 -0.6360 -0.6250  0.0906
  547TMC3    C6 8170   3.736   1.645  16.958 -0.5162  0.2582  0.4494
  547TMC3     C 8171   3.905   1.912  17.230  0.5151 -0.5242 -0.0835
  547TMC3     O 8172   3.878   2.031  17.212  0.1284 -0.4560  0.3711
  547TMC3     H 8173   3.819   1.973  17.010  0.3934 -0.5812  1.7025
  547TMC3    H1 8174   3.860   1.647  17.270 -1.1189 -1.6776 -0.4602
  547TMC3    H2 8175   3.693   1.581  16.883  0.5857 -1.0404  0.9356
  547TMC3    C7 8176   3.754   1.465  17.120 -0.4539 -0.7498 -0.5879
  547TMC3    C8 8177   3.664   1.841  16.824 -0.4273 -0.0857 -0.3370
  547TMC3    O1 8178   3.782   1.430  17.237 -0.4382  0.4510 -0.3539
  547TMC3    O2 8179   3.606   1.770  16.741 -0.4672  0.2918  0.6024
  548MPD2     C 8180   4.206   2.287  13.114 -0.3642 -0.0979  0.0346
  548MPD2    C1 8181   4.170   2.183  13.030  0.2569  0.0259  0.2898
  548MPD2    C2 8182   4.265   2.124  12.946  0.1800  0.1569 -0.2446
  548MPD2    C3 8183   4.392   2.179  12.942  0.1283  0.4251  0.3869
  548MPD2    C4 8184   4.422   2.286  13.026  1.0246  0.4491 -0.2434
  548MPD2    C5 8185   4.325   2.339  13.107  0.1802 -0.1148 -0.6107
  548MPD2     H 8186   4.243   2.037  12.885 -0.6155 -0.1548  0.4871
  548MPD2    H1 8187   4.515   2.340  13.016  1.6036 -0.0485  2.4597
  548MPD2    H2 8188   4.146   2.330  13.193  2.2787 -1.7799  2.9282
  548MPD2    H3 8189   4.350   2.423  13.170 -1.3243  0.3649 -0.6555
  548MPD2     N 8190   4.490   2.125  12.858 -0.2730  0.1629  0.1397
  548MPD2    H5 8191   4.451   2.050  12.801 -1.3754  0.8031  0.0543
  548MPD2    N1 8192   4.039   2.132  13.021 -0.0503  0.4372 -0.7478
  548MPD2    H7 8193   3.971   2.178  13.081 -0.5666  1.0253 -1.7875
  549TMC3    C1 8194   3.839   2.035  12.943  0.2099 -0.0510  0.2717
  549TMC3    C2 8195   3.779   2.154  12.951  0.5565  0.3019 -0.4862
  549TMC3    C3 8196   3.642   2.162  12.970  0.4368 -0.6044  0.8302
  549TMC3    C4 8197   3.773   1.916  12.950  0.0139 -0.4956  1.1794
  549TMC3    C5 8198   3.642   1.925  12.980 -0.4797 -0.2235  0.0635
  549TMC3    C6 8199   3.566   2.045  12.990 -0.2573 -0.1517 -0.5926
  549TMC3     C 8200   3.986   2.026  12.951 -0.1340 -0.7460  0.1563
  549TMC3     O 8201   4.043   1.930  12.897  0.4970 -0.1075 -0.0346
  549TMC3     H 8202   3.839   2.244  12.952  0.4763  0.3450  0.0547
  549TMC3    H1 8203   3.822   1.820  12.940 -1.0922 -1.1154  1.6751
  549TMC3    H2 8204   3.461   2.042  13.016 -0.3917 -0.8345 -1.2060
  549TMC3    C7 8205   3.557   1.804  12.963 -0.6577 -0.2824  0.2755
  549TMC3    C8 8206   3.591   2.278  13.027  0.4562 -0.1494  1.0732
  549TMC3    O1 8207   3.445   1.814  13.010  0.0512  0.1561 -0.2631
  549TMC3    O2 8208   3.648   2.332  13.122 -0.2647  0.3600 -0.7668
  550TMC3    C1 8209   3.338   0.569  11.843 -0.1861  0.2071  0.2389
  550TMC3    C2 8210   3.284   0.591  11.965  0.8313  0.2483 -0.3497
  550TMC3    C3 8211   3.283   0.727  11.999  0.4481 -0.0463  0.5842
  550TMC3    C4 8212   3.392   0.666  11.765  0.0712  0.4124  0.7188
  550TMC3    C5 8213   3.388   0.798  11.803  0.6529  0.0608  1.0943
  550TMC3    C6 8214   3.325   0.825  11.924 -0.4319 -0.4149  0.6746
  550TMC3     C 8215   3.342   0.436  11.788 -0.0536  0.6498 -0.4246
  550TMC3     O 8216   3.393   0.352  11.856  0.6112 -0.0347 -0.0208
  550TMC3     H 8217   3.244   0.509  12.023 -2.6018  1.8157 -0.4373
  550TMC3    H1 8218   3.444   0.637  11.675 -0.3549 -0.7395  0.8385
  550TMC3    H2 8219   3.316   0.924  11.968 -3.7474 -0.8101  0.8423
  550TMC3    C7 8220   3.344   0.886  11.696 -0.4392  0.4700 -0.6870
  550TMC3    C8 8221   3.186   0.779  12.092 -0.5329 -0.4793 -0.1838
  550TMC3    O1 8222   3.385   0.863  11.581  0.2211  0.3630  0.5650
  550TMC3    O2 8223   3.122   0.878  12.052  0.2459 -0.0053 -0.6348
  551TMC3    C1 8224   0.657   3.063  13.234 -0.6661 -0.0362  0.9560
  551TMC3    C2 8225   0.757   2.986  13.174  0.7594  0.0836 -0.9283
  551TMC3    C3 8226   0.880   2.972  13.232 -0.4527  0.1072 -0.2472
  551TMC3    C4 8227   0.690   3.142  13.340 -0.0592  0.5944 -0.0584
  551TMC3    C5 8228   0.815   3.120  13.399 -0.0685  0.4755  0.4804
  551TMC3    C6 8229   0.913   3.039  13.349  0.8145  0.2228 -0.3366
  551TMC3     C 8230   0.531   3.055  13.173 -0.1873  0.1055 -0.7096
  551TMC3     O 8231   0.484   2.945  13.146  0.0881  0.3288 -0.1776
  551TMC3     H 8232   0.739   2.935  13.080 -1.2447  0.5545 -0.7927
  551TMC3    H1 8233   0.606   3.189  13.390 -1.4378 -0.2317 -1.5473
  551TMC3    H2 8234   1.003   3.015  13.404  0.2379 -0.7301  0.1945
  551TMC3    C7 8235   0.847   3.171  13.536 -0.2395 -0.2085  0.0493
  551TMC3    C8 8236   0.992   2.946  13.146 -0.2132 -0.3921  0.0562
  551TMC3    O1 8237   0.929   3.114  13.610  0.5239 -0.0819  0.1530
  551TMC3    O2 8238   0.975   2.877  13.044  0.4107 -0.1383 -0.1528
  552MPD2     C 8239   2.546   0.288  13.975 -0.2649 -0.9370 -0.2307
  552MPD2    C1 8240   2.537   0.158  14.026  0.4882 -0.5177 -0.0904
  552MPD2    C2 8241   2.615   0.133  14.135  0.0533  0.4959 -0.3137
  552MPD2    C3 8242   2.689   0.231  14.201  0.4460  0.0939  0.3929
  552MPD2    C4 8243   2.691   0.358  14.147  0.3054 -0.4668 -0.4381
  552MPD2    C5 8244   2.623   0.383  14.034  0.7837  0.3082 -0.5716
  552MPD2     H 8245   2.605   0.034  14.179  1.3926  0.4295 -0.1797
  552MPD2    H1 8246   2.755   0.430  14.197  1.9684 -1.2286 -1.4371
  552MPD2    H2 8247   2.484   0.320  13.892 -1.8618 -0.5432  1.1265
  552MPD2    H3 8248   2.612   0.482  13.991 -0.9836  1.1854  1.8984
  552MPD2     N 8249   2.777   0.212  14.310 -0.4398 -0.7691  0.3751
  552MPD2    H5 8250   2.815   0.300  14.344  0.2079 -0.3727 -1.3627
  552MPD2    N1 8251   2.467   0.064  13.961 -0.2416  0.7326 -0.0176
  552MPD2    H7 8252   2.476   4.707  13.995  0.3998  0.9765  0.4914
  553TMC3    C1 8253   2.303   4.709  13.815 -0.2650 -0.3659  0.0117
  553TMC3    C2 8254   2.209   0.000  13.720 -0.7298 -0.3438 -0.0673
  553TMC3    C3 8255   2.174   4.636  13.639  0.0962  0.6833  0.5132
  553TMC3    C4 8256   2.369   4.592  13.816 -0.5293  0.4658 -0.1793
  553TMC3    C5 8257   2.322   4.492  13.738 -0.2881 -0.3390  0.3255
  553TMC3    C6 8258   2.210   4.504  13.661  0.0550  0.1942 -0.3697
  553TMC3     C 8259   2.363   0.092  13.880  0.1721  0.3219  1.0936
  553TMC3     O 8260   2.308   0.195  13.837 -0.8066  0.3317  0.5454
  553TMC3     H 8261   2.174   0.100  13.695 -1.7850 -1.0094 -1.2331
  553TMC3    H1 8262   2.460   4.578  13.873 -0.9616 -1.0990  0.1174
  553TMC3    H2 8263   2.178   4.426  13.594  1.1814 -0.8265  0.2681
  553TMC3    C7 8264   2.410   4.379  13.708  0.3202 -0.1939 -0.2167
  553TMC3    C8 8265   2.157   4.665  13.495 -0.8066  0.1074  0.0750
  553TMC3    O1 8266   2.387   4.317  13.607  0.2128 -0.2814  0.1123
  553TMC3    O2 8267   2.226   4.593  13.422 -0.3069 -0.1898  0.1762
  554TMC3    C1 8268   4.333   4.522  11.363  0.1934 -0.0715 -0.2689
  554TMC3    C2 8269   4.269   4.446  11.263  0.1789 -0.2149  0.0469
  554TMC3    C3 8270   4.269   4.486  11.136  0.4978  0.1821  0.2870
  554TMC3    C4 8271   4.386   4.642  11.336 -0.6262 -0.0725 -0.1418
  554TMC3    C5 8272   4.371   4.689  11.205 -0.0796  0.7825 -0.5009
  554TMC3    C6 8273   4.319   4.611  11.107  0.1648 -0.2667  0.3455
  554TMC3     C 8274   4.352   4.468  11.498 -0.0324 -1.3351  0.1938
  554TMC3     O 8275   4.416   4.534  11.576  0.4294  0.0343  0.1955
  554TMC3     H 8276   4.233   4.350  11.297 -4.4667  0.3333 -3.3561
  554TMC3    H1 8277   4.438   4.702  11.410 -1.8392  0.7306  0.0501
  554TMC3    H2 8278   4.305   4.642  11.004 -0.6290 -0.1184  0.4938
  554TMC3    C7 8279   4.436   0.077  11.174 -0.5574 -0.2469 -0.4279
  554TMC3    C8 8280   4.193   4.420  11.033 -0.0952  0.4359  0.0946
  554TMC3    O1 8281   4.442   0.155  11.268  0.1640  0.1633 -0.4119
  554TMC3    O2 8282   4.237   4.455  10.925  0.1538  0.5329  0.2670
  555TMC3    C1 8283   3.466   3.659  15.310 -0.0866  0.5788  0.1870
  555TMC3    C2 8284   3.494   3.731  15.421 -0.0758  0.3036  0.1951
  555TMC3    C3 8285   3.524   3.664  15.534 -0.3500 -0.7688  0.2930
  555TMC3    C4 8286   3.448   3.530  15.314 -0.4250  0.5102 -0.4696
  555TMC3    C5 8287   3.468   3.469  15.437 -0.3250 -0.1365 -0.3013
  555TMC3    C6 8288   3.510   3.526  15.546  0.4064 -0.9123 -0.0703
  555TMC3     C 8289   3.396   3.728  15.206 -0.2976  0.5389 -0.1298
  555TMC3     O 8290   3.290   3.687  15.163 -0.0702 -0.3992  0.0603
  555TMC3     H 8291   3.501   3.839  15.409 -0.4947 -0.2357 -4.9498
  555TMC3    H1 8292   3.406   3.491  15.222 -2.4550  0.5117  0.4351
  555TMC3    H2 8293   3.545   3.479  15.637 -0.1593  1.3009  1.2888
  555TMC3    C7 8294   3.471   3.322  15.438 -0.0820 -0.3294 -0.0670
  555TMC3    C8 8295   3.537   3.745  15.658 -0.9139  0.4232 -0.1495
  555TMC3    O1 8296   3.472   3.257  15.544 -0.5935 -0.3585  0.4012
  555TMC3    O2 8297   3.506   3.858  15.635  0.4048  0.2610  0.5345
  556MPD2     C 8298   2.203   0.574  10.415  0.0479 -0.2254  0.0909
  556MPD2    C1 8299   2.094   0.568  10.501  0.2724  0.1852 -0.0489
  556MPD2    C2 8300   2.007   0.465  10.479 -0.3466  0.0024 -0.1758
  556MPD2    C3 8301   2.016   0.375  10.378  0.1080  1.0653  0.0440
  556MPD2    C4 8302   2.135   0.378  10.308  0.1727 -0.0805  0.0851
  556MPD2    C5 8303   2.223   0.472  10.326  0.4688 -1.0556  0.4407
  556MPD2     H 8304   1.921   0.462  10.545 -0.2732  1.8722 -0.0091
  556MPD2    H1 8305   2.168   0.299  10.241 -1.0450 -1.7499  1.4695
  556MPD2    H2 8306   2.273   0.657  10.415  1.0467 -1.0694  0.0620
  556MPD2    H3 8307   2.313   0.467  10.265 -0.5203 -0.3995 -1.0697
  556MPD2     N 8308   1.902   0.292  10.343  0.0161  0.2951 -0.4162
  556MPD2    H5 8309   1.816   0.305  10.396 -0.4125  0.5882 -1.1851
  556MPD2    N1 8310   2.081   0.654  10.612  0.4355  0.2848  0.0407
  556MPD2    H7 8311   1.999   0.641  10.670  2.1186 -0.3101  2.2764
  557TMC3    C1 8312   1.770   0.148  10.195  0.8682 -0.3595  0.3221
  557TMC3    C2 8313   1.752   0.103  10.067 -0.2173  0.0285  0.3490
  557TMC3    C3 8314   1.653   0.005  10.044 -0.4196  0.3993 -0.1409
  557TMC3    C4 8315   1.683   0.115  10.293  0.5161  0.4096 -0.0757
  557TMC3    C5 8316   1.580   0.021  10.269  0.0084 -0.0829  0.2032
  557TMC3    C6 8317   1.558   4.715  10.140  0.3205  0.2413  0.0182
  557TMC3     C 8318   1.894   0.219  10.223 -0.8906  0.5291  0.3257
  557TMC3     O 8319   1.978   0.211  10.132 -0.1519 -0.3968  0.1119
  557TMC3     H 8320   1.822   0.128   9.989  1.4513 -1.4912  1.3527
  557TMC3    H1 8321   1.695   0.156  10.393  0.6193  2.8744 -1.1187
  557TMC3    H2 8322   1.476   4.646  10.122  1.4210 -1.4600  1.5171
  557TMC3    C7 8323   1.488   4.724  10.377 -0.0319  0.1193 -0.3651
  557TMC3    C8 8324   1.665   4.661   9.923  0.1614  0.3526  0.0780
  557TMC3    O1 8325   1.456   0.084  10.446 -0.1060 -0.3440 -0.0462
  557TMC3    O2 8326   1.778   4.643   9.880  0.2418 -0.1693 -0.5456
  558TMC3    C1 8327   3.838   3.123  10.220  0.0426  0.5321 -0.4211
  558TMC3    C2 8328   3.755   3.080  10.322 -0.4324  0.6864 -0.2427
  558TMC3    C3 8329   3.619   3.079  10.309  0.5247 -0.5250 -0.7706
  558TMC3    C4 8330   3.791   3.175  10.107  0.1370  0.1053  0.1932
  558TMC3    C5 8331   3.659   3.170  10.094  0.2873  0.1319 -0.5870
  558TMC3    C6 8332   3.569   3.125  10.190 -0.0689  0.3469 -0.3744
  558TMC3     C 8333   3.978   3.141  10.245 -0.2494  0.7435 -0.0585
  558TMC3     O 8334   4.038   3.240  10.206 -0.1237  0.1002  0.3392
  558TMC3     H 8335   3.807   3.040  10.408 -0.2656 -0.2954 -0.8065
  558TMC3    H1 8336   3.862   3.179  10.026 -0.0914  0.0638 -0.0076
  558TMC3    H2 8337   3.461   3.136  10.178 -0.5158 -0.2148  2.9902
  558TMC3    C7 8338   3.607   3.201   9.962  0.2893 -0.2926  0.2056
  558TMC3    C8 8339   3.537   3.066  10.419  0.6900  0.2637  0.0658
  558TMC3    O1 8340   3.656   3.297   9.905 -0.5787 -0.0293 -0.1297
  558TMC3    O2 8341   3.419   3.035  10.397  0.3019  0.0879  0.2009
  559MPD2     C 8342   4.103   3.902  10.419  0.5484  0.4268 -0.7256
  559MPD2    C1 8343   4.045   3.879  10.535  0.0271  0.2724 -0.7407
  559MPD2    C2 8344   4.108   3.918  10.649  0.4217 -0.9728  0.1978
  559MPD2    C3 8345   4.221   4.002  10.643  0.4252  0.2107 -0.2240
  559MPD2    C4 8346   4.268   4.035  10.519  0.2874  0.8287 -0.3063
  559MPD2    C5 8347   4.215   3.981  10.409  0.3422 -0.2698 -0.4829
  559MPD2     H 8348   4.073   3.899  10.750 -0.3866 -0.5119  0.0097
  559MPD2    H1 8349   4.359   4.093  10.507  1.2990 -0.5990  0.5495
  559MPD2    H2 8350   4.062   3.854  10.331 -2.2164 -0.2098  0.9055
  559MPD2    H3 8351   4.261   4.011  10.315 -0.8386  1.1812 -0.5869
  559MPD2     N 8352   4.277   4.046  10.764  0.4123 -0.0521  0.6425
  559MPD2    H5 8353   4.243   4.012  10.854 -0.2442  1.0085  0.7952
  559MPD2    N1 8354   3.924   3.800  10.533  0.2685 -0.5820  0.1161
  559MPD2    H7 8355   3.871   3.785  10.447  0.6562  2.1407 -0.6106
  560TMC3    C1 8356   4.425   4.165  10.904 -1.1320  0.3000  0.4834
  560TMC3    C2 8357   4.348   4.116  11.009 -0.3457  0.3552 -0.4709
  560TMC3    C3 8358   4.413   4.079  11.126  0.6670 -0.1364 -0.0392
  560TMC3    C4 8359   4.564   4.183  10.914  0.3677 -0.4865  0.2331
  560TMC3    C5 8360   4.618   4.158  11.041 -0.0964  0.5256 -0.0469
  560TMC3    C6 8361   4.551   4.092  11.141 -0.4808  0.0154 -0.3782
  560TMC3     C 8362   4.371   4.149  10.772  0.4691  0.0376  0.0227
  560TMC3     O 8363   4.429   4.209  10.685 -0.3742 -0.0484 -0.6473
  560TMC3     H 8364   4.240   4.107  11.004 -0.3971  1.2519 -0.9868
  560TMC3    H1 8365   4.625   4.218  10.831  1.2368  1.8204  1.8573
  560TMC3    H2 8366   4.600   4.056  11.231 -0.8160  1.4117  0.3746
  560TMC3    C7 8367   0.028   4.174  11.045  0.1581 -0.0464  0.4280
  560TMC3    C8 8368   4.343   3.960  11.187 -0.0841 -0.3068 -0.0144
  560TMC3    O1 8369   0.091   4.160  10.942  0.4754 -0.3311  0.4365
  560TMC3    O2 8370   4.258   3.913  11.116 -0.1582 -0.0583 -0.3834
  561TMC3    C1 8371   1.619   2.957  11.166  0.9089  0.5240  0.4605
  561TMC3    C2 8372   1.498   2.948  11.229 -0.5992 -0.2433 -0.0557
  561TMC3    C3 8373   1.438   3.049  11.297 -0.2377 -0.0904 -0.2591
  561TMC3    C4 8374   1.690   3.074  11.177 -0.7602 -0.3864  0.1400
  561TMC3    C5 8375   1.629   3.179  11.233 -0.5915 -0.0871 -0.6515
  561TMC3    C6 8376   1.499   3.175  11.293 -0.5936 -1.2942  0.3891
  561TMC3     C 8377   1.668   2.826  11.129  0.1433  0.7641 -1.0105
  561TMC3     O 8378   1.591   2.736  11.146  0.3687 -0.2601 -0.1252
  561TMC3     H 8379   1.442   2.856  11.219 -1.5218  0.0802  2.0965
  561TMC3    H1 8380   1.791   3.075  11.139 -1.0140 -0.7574 -0.5464
  561TMC3    H2 8381   1.463   3.257  11.354  1.4000 -1.2541  1.5219
  561TMC3    C7 8382   1.683   3.310  11.205 -0.2308  0.0321  0.8844
  561TMC3    C8 8383   1.289   3.045  11.319  0.7215 -0.3049  0.0478
  561TMC3    O1 8384   1.633   3.403  11.266  0.0990  0.5130 -0.1176
  561TMC3    O2 8385   1.221   3.022  11.221 -0.0738  0.0155 -0.6561
  562TMC3    C1 8386   3.257   3.595  16.253 -0.1226  0.4858 -0.9147
  562TMC3    C2 8387   3.258   3.626  16.119  0.3236  0.4852  0.0644
  562TMC3    C3 8388   3.266   3.523  16.031  0.1892  0.4543  0.1875
  562TMC3    C4 8389   3.251   3.464  16.298 -0.1308 -0.1409  0.3130
  562TMC3    C5 8390   3.254   3.363  16.204  0.0101  0.0205  1.3491
  562TMC3    C6 8391   3.260   3.394  16.072  0.0059  0.1438 -0.0350
  562TMC3     C 8392   3.245   3.700  16.354 -0.2171 -0.1971  0.2743
  562TMC3     O 8393   3.252   3.666  16.471 -0.0427 -0.0914  0.0184
  562TMC3     H 8394   3.292   3.724  16.088  0.5943  0.2539 -0.3674
  562TMC3    H1 8395   3.233   3.443  16.403  0.7951 -1.4466  0.2061
  562TMC3    H2 8396   3.266   3.313  16.000 -0.1338  1.2009 -1.2455
  562TMC3    C7 8397   3.278   3.222  16.232  0.1355 -0.2782  1.0136
  562TMC3    C8 8398   3.277   3.545  15.890 -0.0249 -0.0838 -0.6285
  562TMC3    O1 8399   3.336   3.156  16.144  0.3570 -0.0430 -0.0526
  562TMC3    O2 8400   3.328   3.452  15.829  0.5055 -0.2592  0.1268
  563MPD2     C 8401   0.580   0.642  15.576  0.0673 -0.0337 -0.4129
  563MPD2    C1 8402   0.597   0.735  15.676 -0.6907 -0.1294  0.2895
  563MPD2    C2 8403   0.719   0.740  15.740 -0.0563 -0.6279 -0.2018
  563MPD2    C3 8404   0.815   0.649  15.698  0.4693 -0.1567  0.8767
  563MPD2    C4 8405   0.804   0.560  15.592  0.9098  0.4821  0.5323
  563MPD2    C5 8406   0.685   0.565  15.521 -0.2999 -0.2565  0.1693
  563MPD2     H 8407   0.723   0.809  15.824 -1.7337  0.7213 -1.2337
  563MPD2    H1 8408   0.874   0.478  15.581  1.7736  1.3772 -0.7233
  563MPD2    H2 8409   0.480   0.651  15.536 -0.7076 -0.7762  1.3680
  563MPD2    H3 8410   0.663   0.503  15.435 -3.9343 -0.5095  1.2415
  563MPD2     N 8411   0.932   0.650  15.781 -0.3886  0.2770 -0.0030
  563MPD2    H5 8412   0.940   0.725  15.849 -1.3836 -0.5843  1.0595
  563MPD2    N1 8413   0.482   0.814  15.707 -0.3541 -0.4535  0.1537
  563MPD2    H7 8414   0.394   0.785  15.667 -0.7017  0.8280  0.0104
  564TMC3    C1 8415   0.380   0.857  15.902 -0.4544  0.2739 -0.6214
  564TMC3    C2 8416   0.274   0.789  15.850  0.2044 -0.3677 -0.3113
  564TMC3    C3 8417   0.218   0.681  15.912  0.3781  0.8681  0.4400
  564TMC3    C4 8418   0.434   0.810  16.019 -0.6390 -0.1428 -0.3734
  564TMC3    C5 8419   0.380   0.701  16.077  0.1365 -0.2405 -0.7023
  564TMC3    C6 8420   0.271   0.635  16.028  0.3997 -0.1085  0.0024
  564TMC3     C 8421   0.475   0.912  15.804 -0.0956 -0.3242 -0.0417
  564TMC3     O 8422   0.562   0.974  15.862  0.3275  0.5379  0.0479
  564TMC3     H 8423   0.210   0.828  15.771 -0.1676 -0.1681  0.0858
  564TMC3    H1 8424   0.528   0.846  16.060 -1.1272  1.7752 -0.9224
  564TMC3    H2 8425   0.244   0.544  16.079 -0.7944  0.3371  0.1810
  564TMC3    C7 8426   0.489   0.610  16.100  0.2130 -0.0112  0.2594
  564TMC3    C8 8427   0.168   0.566  15.847 -0.1040  0.1629  1.1246
  564TMC3    O1 8428   0.593   0.651  16.153  0.3912 -0.7454 -0.4249
  564TMC3    O2 8429   0.122   0.481  15.921  0.6112 -0.6583 -0.2407
  565TMC3    C1 8430   0.984   2.319   9.838 -0.4255  0.5771 -0.1812
  565TMC3    C2 8431   1.035   2.213   9.902  0.0130 -0.4885 -0.7338
  565TMC3    C3 8432   0.941   2.134   9.963 -0.5314 -0.4363 -0.0669
  565TMC3    C4 8433   0.849   2.346   9.811  0.0464  0.6592 -0.2141
  565TMC3    C5 8434   0.764   2.259   9.872 -0.3081 -0.3218  0.9147
  565TMC3    C6 8435   0.809   2.151   9.940  0.0765  0.3385 -0.5040
  565TMC3     C 8436   1.077   2.409   9.761  0.0693 -0.6158  0.4570
  565TMC3     O 8437   1.033   2.473   9.666  0.4104 -0.1400 -0.2959
  565TMC3     H 8438   1.139   2.181   9.904 -0.2259 -1.2531 -0.2774
  565TMC3    H1 8439   0.818   2.426   9.745 -0.1449 -1.0394 -2.1813
  565TMC3    H2 8440   0.739   2.091   9.999 -1.5932  1.6309 -1.1661
  565TMC3    C7 8441   0.624   2.281   9.865 -0.2280  0.3288 -1.1757
  565TMC3    C8 8442   0.976   2.043  10.064 -0.5826 -0.6582  0.3023
  565TMC3    O1 8443   0.586   2.394   9.826 -0.1280 -0.0429 -0.2246
  565TMC3    O2 8444   0.889   1.958  10.093  0.4245 -0.1685  0.5244
  566MPD2     C 8445   2.601   3.690  14.602 -0.5738  0.0974 -0.6117
  566MPD2    C1 8446   2.722   3.637  14.560  0.1630  0.4804  0.4371
  566MPD2    C2 8447   2.725   3.503  14.521  0.0661 -0.1876 -0.0311
  566MPD2    C3 8448   2.602   3.438  14.506  0.3611  0.1189  0.3795
  566MPD2    C4 8449   2.483   3.489  14.544  0.5912 -0.6376 -0.2392
  566MPD2    C5 8450   2.483   3.614  14.598  0.7413  0.1523  0.1821
  566MPD2     H 8451   2.824   3.473  14.489  0.1386  0.5174 -0.4772
  566MPD2    H1 8452   2.386   3.441  14.546  0.0251  0.5679  1.0361
  566MPD2    H2 8453   2.593   3.791  14.642 -0.1732 -0.0866 -0.0801
  566MPD2    H3 8454   2.390   3.654  14.635  0.1958 -0.3335 -0.6623
  566MPD2     N 8455   2.597   3.312  14.440 -0.1553  0.2724  0.0732
  566MPD2    H5 8456   2.508   3.269  14.415  0.2692 -0.3100 -0.4533
  566MPD2    N1 8457   2.852   3.702  14.553  0.0128  0.1848 -0.0529
  566MPD2    H7 8458   2.933   3.642  14.554 -0.9256 -1.0915 -0.4147
  567TMC3    C1 8459   3.021   3.860  14.551 -0.0613  0.1954 -0.0512
  567TMC3    C2 8460   3.058   3.956  14.467  0.2101 -0.2241  0.1870
  567TMC3    C3 8461   3.193   3.975  14.443 -0.2536 -0.3915  0.5284
  567TMC3    C4 8462   3.117   3.795  14.627 -0.2385  0.2237 -0.1778
  567TMC3    C5 8463   3.245   3.815  14.603  0.2933 -0.2020 -0.3914
  567TMC3    C6 8464   3.286   3.901  14.506  0.3763  0.1680  0.2884
  567TMC3     C 8465   2.875   3.839  14.557  0.2507 -0.2226 -0.5267
  567TMC3     O 8466   2.795   3.926  14.522  0.1330 -0.2601 -0.1220
  567TMC3     H 8467   2.976   4.013  14.424  1.2916  0.4181 -1.0062
  567TMC3    H1 8468   3.079   3.729  14.703  0.0978  0.4855  0.2168
  567TMC3    H2 8469   3.383   3.887  14.461  0.1633 -0.8503  0.1622
  567TMC3    C7 8470   3.338   3.719  14.646 -0.2497  0.0777  0.1812
  567TMC3    C8 8471   3.207   4.007  14.302  0.1918  0.9634 -0.3663
  567TMC3    O1 8472   3.445   3.707  14.588 -0.4124 -0.2453 -0.2258
  567TMC3    O2 8473   3.108   4.000  14.231  0.6060  0.3424  0.1370
  568MPD2     C 8474   0.241   3.834  16.058  0.0186 -0.4500  0.6212
  568MPD2    C1 8475   0.263   3.915  16.167  0.8870 -0.6433 -0.3007
  568MPD2    C2 8476   0.284   4.046  16.150 -0.0734 -0.3771 -0.0913
  568MPD2    C3 8477   0.292   4.104  16.021  0.6570 -0.7433 -0.4313
  568MPD2    C4 8478   0.257   4.019  15.908 -0.4247  0.1356  0.1771
  568MPD2    C5 8479   0.230   3.882  15.929  0.6737  0.0710  0.0562
  568MPD2     H 8480   0.325   4.116  16.221  0.2167 -1.2048  0.5470
  568MPD2    H1 8481   0.252   4.060  15.808 -0.3348 -2.5280 -0.9127
  568MPD2    H2 8482   0.240   3.727  16.075 -0.2241 -0.5256  0.1343
  568MPD2    H3 8483   0.220   3.815  15.844 -1.4871 -0.3284  0.6306
  568MPD2     N 8484   0.327   4.241  16.012  0.1295 -0.3562 -0.2785
  568MPD2    H5 8485   0.346   4.285  16.101  0.8497 -0.6586 -0.2808
  568MPD2    N1 8486   0.291   3.859  16.296  0.2808  0.3514  0.1663
  568MPD2    H7 8487   0.303   3.759  16.306 -2.4950  0.0500  0.4509
  569TMC3    C1 8488   0.366   4.453  15.911 -0.3645 -0.1188 -0.6472
  569TMC3    C2 8489   0.336   4.525  16.020  0.4553  0.5478  0.1422
  569TMC3    C3 8490   0.372   4.652  16.043 -0.0389 -0.2065 -0.0151
  569TMC3    C4 8491   0.442   4.516  15.814  0.0473 -0.3689  0.3122
  569TMC3    C5 8492   0.467   4.651  15.832 -0.0568  0.1035  0.0404
  569TMC3    C6 8493   0.448   4.715  15.953  0.4744  0.1638  0.4677
  569TMC3     C 8494   0.330   4.314  15.896  0.6003  0.0016 -0.4966
  569TMC3     O 8495   0.296   4.285  15.780  0.1375 -0.1413 -0.3312
  569TMC3     H 8496   0.258   4.489  16.086  0.2782 -0.5053 -0.6544
  569TMC3    H1 8497   0.444   4.466  15.718  0.4417  1.9368 -0.8803
  569TMC3    H2 8498   0.459   0.084  15.968  0.0795  0.0323  1.6934
  569TMC3    C7 8499   0.443   4.734  15.723 -0.0763 -0.3029 -0.0309
  569TMC3    C8 8500   0.296   4.737  16.130  0.0291 -0.5655  0.1797
  569TMC3    O1 8501   0.471   4.696  15.613  0.0121  0.5959 -0.2473
  569TMC3    O2 8502   0.170   4.727  16.138 -0.3242 -0.5672 -0.1070
  570TMC3    C1 8503   4.147   3.009  15.750 -0.1201  0.5215  0.3263
  570TMC3    C2 8504   4.251   3.031  15.661  0.0347 -0.1114  0.6051
  570TMC3    C3 8505   4.266   3.151  15.607  0.1395  0.1461 -0.4568
  570TMC3    C4 8506   4.076   3.116  15.795 -0.2843  0.3864  0.1874
  570TMC3    C5 8507   4.106   3.236  15.742 -0.2037  0.0806  0.1703
  570TMC3    C6 8508   4.195   3.260  15.645  0.6540 -0.3353  0.5242
  570TMC3     C 8509   4.139   2.885  15.825  0.3453 -0.2991 -0.0310
  570TMC3     O 8510   4.173   2.779  15.776 -0.3470  0.1350 -0.1650
  570TMC3     H 8511   4.298   2.942  15.622  0.2495  0.2871 -0.0571
  570TMC3    H1 8512   4.000   3.107  15.872 -0.2028  0.7332  0.3085
  570TMC3    H2 8513   4.220   3.358  15.605 -1.3091 -0.1654 -0.2705
  570TMC3    C7 8514   4.063   3.353  15.810  0.5158 -0.7250 -0.1587
  570TMC3    C8 8515   4.383   3.173  15.525  0.0954  0.3175  0.2563
  570TMC3    O1 8516   3.962   3.342  15.887  0.3971  0.3506 -0.6468
  570TMC3    O2 8517   4.444   3.282  15.525  0.1845 -0.6110 -0.1312
  571MPD2     C 8518   2.302   0.274  17.748 -0.5893  0.2008 -0.6565
  571MPD2    C1 8519   2.202   0.292  17.659  0.1680  0.7240  0.3863
  571MPD2    C2 8520   2.129   0.410  17.663  0.0934  0.5046 -0.1767
  571MPD2    C3 8521   2.161   0.510   0.011  0.8296  0.1381  0.7706
  571MPD2    C4 8522   2.261   0.483   0.106  0.1667 -0.0280 -0.6105
  571MPD2    C5 8523   2.325   0.363   0.100 -0.1533  1.2946 -1.1275
  571MPD2     H 8524   2.048   0.438  17.596 -0.2163  2.2472  0.9177
  571MPD2    H1 8525   2.285   0.550   0.188 -1.3530 -1.3640  0.9319
  571MPD2    H2 8526   2.361   0.183   0.000  0.9020  1.1603 -0.6053
  571MPD2    H3 8527   2.404   0.346   0.173 -0.0228  0.7012 -1.4044
  571MPD2     N 8528   2.101   0.637   0.018  0.6391  0.3403  0.2219
  571MPD2    H5 8529   2.129   0.695   0.097 -0.0940  3.1108 -1.5488
  571MPD2    N1 8530   2.169   0.191  17.567 -0.1974 -0.1637  0.1232
  571MPD2    H7 8531   2.226   0.107  17.570  1.6420  0.9871 -3.5038
  572TMC3    C1 8532   1.991   0.829  17.705 -0.0941 -0.1474 -0.1548
  572TMC3    C2 8533   1.976   0.865   0.086  0.2388 -0.3651  0.2687
  572TMC3    C3 8534   1.962   0.997   0.109 -0.0767 -0.7367 -0.5068
  572TMC3    C4 8535   2.026   0.917  17.607  0.0825  1.1008  0.5077
  572TMC3    C5 8536   2.028   1.053  17.641  0.3051 -0.0243  0.3216
  572TMC3    C6 8537   1.992   1.092   0.014 -0.0823 -0.5903  0.0120
  572TMC3     C 8538   2.025   0.693  17.668  0.1569 -0.2076 -0.6421
  572TMC3     O 8539   1.997   0.654  17.556  0.0731  0.7362 -0.1400
  572TMC3     H 8540   1.946   0.793   0.161  0.1483  0.6071  1.1777
  572TMC3    H1 8541   2.039   0.881  17.505 -2.0654 -1.1688  1.0313
  572TMC3    H2 8542   1.983   1.195   0.048 -2.0880 -1.2986  1.6266
  572TMC3    C7 8543   2.075   1.148  17.542  0.3677 -0.5279  0.3209
  572TMC3    C8 8544   1.954   1.037   0.251 -0.8332  0.3701  0.4246
  572TMC3    O1 8545   2.078   1.107  17.423 -0.1476  0.0931  0.1314
  572TMC3    O2 8546   2.029   1.123   0.299 -0.8782  0.2854 -0.2244
  573MPD2     C 8547   3.684   0.953   0.467  0.2859  0.9817  0.0551
  573MPD2    C1 8548   3.554   0.929   0.509 -0.5209  0.4211 -0.7227
  573MPD2    C2 8549   3.465   0.857   0.430 -0.1012 -0.0168 -0.2372
  573MPD2    C3 8550   3.508   0.809   0.301 -0.3609  0.1005  0.4185
  573MPD2    C4 8551   3.642   0.834   0.269 -0.5397  0.4488  0.4730
  573MPD2    C5 8552   3.725   0.908   0.349 -0.5127  0.2586  0.2636
  573MPD2     H 8553   3.364   0.829   0.459  0.8259 -1.7942  1.2723
  573MPD2    H1 8554   3.688   0.786   0.183 -0.4435  1.1367  0.1459
  573MPD2    H2 8555   3.750   1.019   0.522  1.0094  1.4237 -1.3385
  573MPD2    H3 8556   3.826   0.930   0.316 -0.3217 -1.0853 -0.0267
  573MPD2     N 8557   3.427   0.730   0.220 -0.7447  0.0711  0.1088
  573MPD2    H5 8558   3.462   0.716   0.126  2.3247 -1.4318  1.4993
  573MPD2    N1 8559   3.508   0.973   0.638  0.1108  1.0400  0.0556
  573MPD2    H7 8560   3.577   1.027   0.688  0.0912  1.8704 -0.8072
  574TMC3    C1 8561   3.227   0.648   0.145 -0.2513  0.5421  0.0091
  574TMC3    C2 8562   3.091   0.633   0.169  0.2100 -0.1943 -0.1911
  574TMC3    C3 8563   3.015   0.589   0.065 -0.5718  0.3178  0.7935
  574TMC3    C4 8564   3.292   0.579   0.047 -0.5159  0.2592  0.5736
  574TMC3    C5 8565   3.212   0.535  17.691 -0.6913  0.4859 -0.1687
  574TMC3    C6 8566   3.077   0.549  17.694  0.3560 -0.5194 -0.1836
  574TMC3     C 8567   3.301   0.683   0.255 -0.1367  0.4543 -0.3259
  574TMC3     O 8568   3.233   0.689   0.358 -0.0935 -0.0676  0.5434
  574TMC3     H 8569   3.040   0.681   0.252  0.8193  1.7142 -0.9190
  574TMC3    H1 8570   3.400   0.575   0.051 -0.5349  0.4117  1.2228
  574TMC3    H2 8571   3.016   0.511  17.614  1.6903  1.3608 -2.0935
  574TMC3    C7 8572   3.293   0.525  17.571 -0.4291  0.6332  0.0570
  574TMC3    C8 8573   2.874   0.616   0.076 -0.0533 -0.4537  0.3927
  574TMC3    O1 8574   3.405   0.567  17.574 -0.8127  0.2191  0.3335
  574TMC3    O2 8575   2.826   0.604   0.189  0.4966 -0.1890 -0.0116
  575TMC3    C1 8576   0.964   1.353  10.663 -0.4335 -0.1762  0.0164
  575TMC3    C2 8577   0.900   1.253  10.596 -0.6744  0.3372  0.4499
  575TMC3    C3 8578   0.844   1.290  10.483  0.2233 -0.2058 -0.1131
  575TMC3    C4 8579   0.990   1.476  10.601 -0.1132  0.2858  0.7684
  575TMC3    C5 8580   0.935   1.504  10.488 -0.3138  0.0635 -0.1028
  575TMC3    C6 8581   0.868   1.405  10.416  0.3143  0.7569 -0.1094
  575TMC3     C 8582   1.017   1.329  10.792 -0.3335  0.0643  0.1105
  575TMC3     O 8583   0.971   1.236  10.854 -0.2051  0.6316 -0.1540
  575TMC3     H 8584   0.889   1.155  10.642 -0.0621  0.5895  1.1398
  575TMC3    H1 8585   1.051   1.552  10.649  4.5761 -2.8729 -0.2253
  575TMC3    H2 8586   0.830   1.423  10.316 -0.7976  0.4520  0.2558
  575TMC3    C7 8587   0.967   1.626  10.414 -0.2133 -0.1271 -0.0872
  575TMC3    C8 8588   0.759   1.191  10.419  0.2995 -0.7254 -0.3973
  575TMC3    O1 8589   0.881   1.663  10.336  0.0507 -0.2838  0.2143
  575TMC3    O2 8590   0.767   1.073  10.451  0.2662 -0.3768 -0.3226
  576MPD2     C 8591   0.609   3.296  12.603  0.0120 -0.1797 -0.1267
  576MPD2    C1 8592   0.736   3.344  12.582  0.0128  0.0299  0.7825
  576MPD2    C2 8593   0.816   3.378  12.685  0.3221  0.3011  0.1485
  576MPD2    C3 8594   0.778   3.358  12.820  0.0662  0.5884  0.1631
  576MPD2    C4 8595   0.656   3.307  12.841  0.0677  0.4350 -0.4352
  576MPD2    C5 8596   0.567   3.281  12.733  0.4346 -0.1896  0.9713
  576MPD2     H 8597   0.913   3.419  12.657 -0.0580  0.2807 -1.1665
  576MPD2    H1 8598   0.622   3.281  12.941 -1.2049 -0.9002 -1.2088
  576MPD2    H2 8599   0.547   3.273  12.518 -0.9136 -1.7640  0.9755
  576MPD2    H3 8600   0.463   3.257  12.751 -0.6396  3.2435 -0.6755
  576MPD2     N 8601   0.870   3.400  12.922  0.0412 -0.3345  0.1838
  576MPD2    H5 8602   0.958   3.433  12.884 -0.1904 -1.0771 -0.9871
  576MPD2    N1 8603   0.792   3.363  12.454  0.4528  0.4486  0.4824
  576MPD2    H7 8604   0.887   3.400  12.447  0.1726  0.6488 -2.2422
  577TMC3    C1 8605   0.812   3.361  12.226 -0.2682  0.3007  0.1057
  577TMC3    C2 8606   0.796   3.285  12.114  0.7133 -0.0487  0.3498
  577TMC3    C3 8607   0.879   3.304  12.013 -0.2834 -0.0993 -0.5902
  577TMC3    C4 8608   0.913   3.458  12.240  1.0652  0.0712  0.2778
  577TMC3    C5 8609   0.998   3.468  12.135 -0.0213 -0.5545  0.6974
  577TMC3    C6 8610   0.981   3.394  12.020 -0.7392 -0.0859 -0.0825
  577TMC3     C 8611   0.725   3.336  12.340  0.3621  1.5952  0.1203
  577TMC3     O 8612   0.619   3.279  12.320 -0.4621 -0.6068 -0.4461
  577TMC3     H 8613   0.723   3.206  12.113 -0.1103  0.6998  1.8259
  577TMC3    H1 8614   0.901   3.532  12.318 -2.4357  0.8175 -0.9620
  577TMC3    H2 8615   1.038   3.417  11.931 -0.1762  2.0650  0.8186
  577TMC3    C7 8616   1.086   3.585  12.142 -0.7783  0.0975  0.5535
  577TMC3    C8 8617   0.845   3.242  11.886 -0.6275  0.5557  0.2423
  577TMC3    O1 8618   1.118   3.640  12.252 -0.1676  0.3274  0.0053
  577TMC3    O2 8619   0.728   3.199  11.877 -1.0332  0.6755  0.0455
  578MPD2     C 8620   3.392   3.086   0.735  0.7687 -0.1349  0.2127
  578MPD2    C1 8621   3.483   3.009   0.671 -0.8566  0.4715 -0.3270
  578MPD2    C2 8622   3.567   2.926   0.738 -0.3557  0.1393 -0.2117
  578MPD2    C3 8623   3.561   2.914   0.878  0.1888  0.5737 -0.4557
  578MPD2    C4 8624   3.462   2.984   0.945  0.7708 -0.9491  0.2132
  578MPD2    C5 8625   3.379   3.072   0.871 -0.4674 -0.4349  0.0149
  578MPD2     H 8626   3.649   2.872   0.690 -1.6815  0.4167 -2.8006
  578MPD2    H1 8627   3.454   2.989   1.053 -1.1231 -0.9847  0.0654
  578MPD2    H2 8628   3.333   3.155   0.677 -0.0603 -0.1770  1.0042
  578MPD2    H3 8629   3.310   3.134   0.927  0.3428  0.5971 -0.1331
  578MPD2     N 8630   3.646   2.819   0.940 -0.1085  0.4266  0.1921
  578MPD2    H5 8631   3.706   2.766   0.878  2.3245  2.2009  1.0255
  578MPD2    N1 8632   3.491   3.039   0.538 -0.8220  0.7850  0.3329
  578MPD2    H7 8633   3.422   3.103   0.500 -2.0302  0.8319  2.5574
  579TMC3    C1 8634   3.786   2.718   1.092  0.4869 -0.6175 -0.0932
  579TMC3    C2 8635   3.875   2.754   1.192 -0.5768 -0.0614 -0.0984
  579TMC3    C3 8636   3.998   2.697   1.188  0.3012  0.7055 -0.1439
  579TMC3    C4 8637   3.818   2.615   1.004 -0.1960 -1.0292 -0.3113
  579TMC3    C5 8638   3.945   2.564   1.008  0.2564  0.5678 -0.0734
  579TMC3    C6 8639   4.037   2.599   1.102 -0.1150  0.0119  0.5771
  579TMC3     C 8640   3.667   2.801   1.071  0.7397 -0.3356  0.4371
  579TMC3     O 8641   3.637   2.872   1.170 -0.5807  0.9694 -0.0942
  579TMC3     H 8642   3.854   2.831   1.266  0.2787 -2.0926  2.2859
  579TMC3    H1 8643   3.742   2.568   0.942 -1.0084 -1.3972  0.9661
  579TMC3    H2 8644   4.135   2.555   1.113  0.5978  1.1697 -1.2207
  579TMC3    C7 8645   3.976   2.448   0.925  0.1555 -0.2180  0.0636
  579TMC3    C8 8646   4.100   2.778   1.261  0.2340 -0.1330  0.2332
  579TMC3    O1 8647   4.070   2.378   0.961  0.8712 -0.2942 -0.0142
  579TMC3    O2 8648   4.062   2.832   1.363 -0.0918  0.1222  0.1730
  580TMC3    C1 8649   4.029   2.130  12.630  0.4734 -0.4828 -0.4293
  580TMC3    C2 8650   4.158   2.176  12.610 -0.0905  0.1045 -0.2491
  580TMC3    C3 8651   4.253   2.096  12.545 -0.6305  0.0080  0.6298
  580TMC3    C4 8652   3.993   2.009  12.590 -0.6997 -0.2118  0.4357
  580TMC3    C5 8653   4.090   1.934  12.537 -0.3742 -0.2110  0.1517
  580TMC3    C6 8654   4.222   1.967  12.514  0.7003  0.0943  0.3627
  580TMC3     C 8655   3.931   2.228  12.598  0.3195 -0.6835 -0.8492
  580TMC3     O 8656   3.967   2.342  12.581 -0.2562  0.7308  0.0568
  580TMC3     H 8657   4.192   2.275  12.637  1.3392 -0.9780  1.9509
  580TMC3    H1 8658   3.895   1.966  12.610 -0.1747 -1.0741  1.2015
  580TMC3    H2 8659   4.284   1.893  12.464 -0.8695 -0.4388 -0.7931
  580TMC3    C7 8660   4.053   1.805  12.482  0.7832 -0.5052  0.2867
  580TMC3    C8 8661   4.348   2.161  12.462 -0.0039 -0.4941 -0.0396
  580TMC3    O1 8662   3.983   1.731  12.547 -0.2043  0.2719 -0.4081
  580TMC3    O2 8663   4.380   2.099  12.359  0.1432 -0.4613  0.0282
  581MPD2     C 8664   1.508   1.436  14.595  0.4914  0.0121 -0.1068
  581MPD2    C1 8665   1.497   1.535  14.694 -0.0706  0.0820  0.4374
  581MPD2    C2 8666   1.390   1.624  14.689  0.4332  0.1127  0.7491
  581MPD2    C3 8667   1.288   1.601  14.598  0.2944 -0.2946 -0.1248
  581MPD2    C4 8668   1.304   1.502  14.507  0.0868  0.7180  0.3782
  581MPD2    C5 8669   1.415   1.425  14.496 -0.7004 -0.0354 -0.2598
  581MPD2     H 8670   1.372   1.701  14.763 -1.3835  1.5588 -1.2072
  581MPD2    H1 8671   1.237   1.487  14.423  1.2494  1.6124 -0.7144
  581MPD2    H2 8672   1.599   1.378  14.589 -0.4424 -1.4046 -0.5246
  581MPD2    H3 8673   1.436   1.360  14.411  0.4061  0.2768 -0.2266
  581MPD2     N 8674   1.180   1.688  14.606 -0.2687 -0.2803  0.0618
  581MPD2    H5 8675   1.181   1.761  14.677  1.3651 -1.3268  1.1277
  581MPD2    N1 8676   1.594   1.540  14.790  0.0059  0.0749 -0.1349
  581MPD2    H7 8677   1.664   1.466  14.792  0.9380  0.9510 -0.2464
  582TMC3    C1 8678   1.638   1.554  15.021  0.8711 -0.7361 -1.0070
  582TMC3    C2 8679   1.645   1.631  15.126 -0.2842  0.8482  0.0482
  582TMC3    C3 8680   1.584   1.594  15.240 -0.0480  0.2249 -0.2553
  582TMC3    C4 8681   1.580   1.427  15.030  0.3313  0.1336  0.0361
  582TMC3    C5 8682   1.505   1.396  15.138 -0.0252 -0.1274  1.2213
  582TMC3    C6 8683   1.517   1.482  15.246 -0.1427 -0.6813 -0.1764
  582TMC3     C 8684   1.588   1.622  14.904  1.0149 -0.2266  0.6563
  582TMC3     O 8685   1.515   1.718  14.929  0.3638  0.5090 -0.3731
  582TMC3     H 8686   1.683   1.731  15.105  3.1863 -0.2264  1.4113
  582TMC3    H1 8687   1.565   1.367  14.940 -0.2943  0.7722 -0.2841
  582TMC3    H2 8688   1.450   1.465  15.330  0.4178  2.0394  0.8203
  582TMC3    C7 8689   1.370   1.364  15.093  0.5450  0.3413  0.2645
  582TMC3    C8 8690   1.579   1.682  15.358 -0.0453 -0.4538 -0.0809
  582TMC3    O1 8691   1.339   1.259  15.037  0.2236 -0.0041  0.3994
  582TMC3    O2 8692   1.507   1.779  15.368 -0.2327  0.3396  0.0295
  583MPD2     C 8693   1.350   3.691  16.367  0.3461  1.0607 -0.7043
  583MPD2    C1 8694   1.453   3.785  16.370 -0.8985 -0.5601  0.1635
  583MPD2    C2 8695   1.435   3.900  16.439 -0.1937 -0.5054  0.1951
  583MPD2    C3 8696   1.325   3.922  16.513  0.4183  0.2693  0.7954
  583MPD2    C4 8697   1.223   3.829  16.503 -0.9255 -0.1331  0.9224
  583MPD2    C5 8698   1.230   3.721  16.419  0.5474  0.4559  0.3073
  583MPD2     H 8699   1.503   3.984  16.447 -1.5564  0.4985  1.1155
  583MPD2    H1 8700   1.126   3.839  16.551 -1.3669 -1.2224  0.2809
  583MPD2    H2 8701   1.358   3.599  16.310  0.4025  1.1650 -0.8633
  583MPD2    H3 8702   1.149   3.649  16.416 -0.5710  1.7219 -0.4991
  583MPD2     N 8703   1.307   4.041  16.582 -0.1152 -0.0376  0.4662
  583MPD2    H5 8704   1.374   4.114  16.558 -0.3724  0.3232  0.8318
  583MPD2    N1 8705   1.582   3.764  16.309  0.4276  0.5248 -0.5438
  583MPD2    H7 8706   1.644   3.844  16.305  0.0634  0.7863 -0.9125
  584TMC3    C1 8707   1.213   4.178  16.745 -0.2319 -0.5589  0.0110
  584TMC3    C2 8708   1.260   4.287  16.677  0.0945 -0.6694 -0.1546
  584TMC3    C3 8709   1.243   4.414  16.730  0.9709 -0.6508 -0.2316
  584TMC3    C4 8710   1.156   4.189  16.869  0.7946  0.0870 -0.0278
  584TMC3    C5 8711   1.152   4.311  16.929  0.2955  0.0569  0.1349
  584TMC3    C6 8712   1.195   4.424  16.861 -0.0941  0.0504 -0.3755
  584TMC3     C 8713   1.216   4.052  16.681  0.2308 -0.0936  0.7518
  584TMC3     O 8714   1.173   3.961  16.755  0.7747  0.6197 -1.0162
  584TMC3     H 8715   1.287   4.283  16.572  1.3975 -0.4990  0.1846
  584TMC3    H1 8716   1.110   4.104  16.917  0.0912  0.6755  0.3443
  584TMC3    H2 8717   1.166   4.525  16.888  0.1071  0.6249 -2.3005
  584TMC3    C7 8718   1.077   4.324  17.050  0.3681 -0.6166  0.3077
  584TMC3    C8 8719   1.305   4.519  16.652 -0.2030 -0.2737  0.6550
  584TMC3    O1 8720   1.017   4.226  17.098 -0.5393 -0.3794  0.5501
  584TMC3    O2 8721   1.315   4.501  16.532 -0.6896  0.4235  0.1205
  585MPD2     C 8722   0.582   2.535   0.616 -0.0908  0.1181 -0.7366
  585MPD2    C1 8723   0.690   2.510   0.535  0.4707 -0.6253 -0.4310
  585MPD2    C2 8724   0.693   2.410   0.437 -0.0841  0.0648 -0.2673
  585MPD2    C3 8725   0.578   2.333   0.425 -0.2727  0.4260  0.7527
  585MPD2    C4 8726   0.469   2.350   0.509 -0.2751 -0.9500 -0.4488
  585MPD2    C5 8727   0.478   2.451   0.598  0.2169 -0.5231  0.2982
  585MPD2     H 8728   0.780   2.398   0.374  0.6380 -1.3367  1.0039
  585MPD2    H1 8729   0.380   2.288   0.501 -0.2139 -1.0468 -0.3698
  585MPD2    H2 8730   0.584   2.601   0.702 -1.5482 -0.7515 -0.0127
  585MPD2    H3 8731   0.391   2.462   0.661  1.1538 -0.5115  1.5804
  585MPD2     N 8732   0.556   2.244   0.314  0.2438 -0.2051  0.4870
  585MPD2    H5 8733   0.460   2.224   0.289  0.1294 -0.3905  1.0656
  585MPD2    N1 8734   0.800   2.600   0.534  0.0383 -0.3866  0.2044
  585MPD2    H7 8735   0.797   2.685   0.590  1.4177 -1.8950  2.5249
  586TMC3    C1 8736   0.610   2.110   0.124 -0.2128 -0.9210 -0.3239
  586TMC3    C2 8737   0.710   2.038   0.058  0.1790  0.5801  0.3227
  586TMC3    C3 8738   0.686   2.000  17.677  0.5533 -1.2452  0.4107
  586TMC3    C4 8739   0.487   2.135   0.071  0.5715  0.1163 -1.2208
  586TMC3    C5 8740   0.479   2.101  17.683 -0.4334 -0.1958  0.2916
  586TMC3    C6 8741   0.579   2.047  17.614 -0.7338  0.6111 -0.2098
  586TMC3     C 8742   0.658   2.193   0.236 -0.4411  0.4381  0.7838
  586TMC3     O 8743   0.775   2.215   0.238 -0.1428  0.1003 -0.0832
  586TMC3     H 8744   0.798   2.007   0.113 -1.3822 -2.0710  1.3362
  586TMC3    H1 8745   0.411   2.202   0.109  0.9827 -1.1134  1.7181
  586TMC3    H2 8746   0.571   2.021  17.509  1.3197 -0.3494 -0.1224
  586TMC3    C7 8747   0.360   2.122  17.614  0.4870 -0.1059 -0.8853
  586TMC3    C8 8748   0.805   1.957  17.603  0.1520 -1.1450  0.3491
  586TMC3    O1 8749   0.250   2.121  17.672  0.2339 -0.0495  0.0714
  586TMC3    O2 8750   0.874   1.870  17.659 -0.0724 -0.6959  0.3027
  587TMC3    C1 8751   2.636   1.226  15.885 -0.2353 -0.4510  0.1897
  587TMC3    C2 8752   2.501   1.266  15.912 -0.0268 -0.1595  0.1109
  587TMC3    C3 8753   2.486   1.358  16.007  0.4564  0.1414  0.0313
  587TMC3    C4 8754   2.743   1.275  15.951 -0.0292 -1.0003 -0.8049
  587TMC3    C5 8755   2.718   1.375  16.038  0.2117 -0.0754  0.0953
  587TMC3    C6 8756   2.595   1.418  16.062  0.5929  0.1625  0.6394
  587TMC3     C 8757   2.656   1.107  15.800 -0.9988  0.1995 -0.7126
  587TMC3     O 8758   2.766   1.083  15.756 -0.2130 -0.1788  0.6252
  587TMC3     H 8759   2.411   1.235  15.861 -0.7670  0.4870  1.0308
  587TMC3    H1 8760   2.844   1.246  15.923  0.1447 -1.2913  0.1296
  587TMC3    H2 8761   2.585   1.489  16.144 -0.9046  0.9947 -0.2534
  587TMC3    C7 8762   2.832   1.451  16.088  0.6179 -0.1285 -0.2962
  587TMC3    C8 8763   2.349   1.376  16.055  0.1263 -0.0779 -0.0979
  587TMC3    O1 8764   2.802   1.563  16.122  0.4254  0.2385  0.2646
  587TMC3    O2 8765   2.259   1.348  15.978  0.3496 -0.2539 -0.3418
  588TMC3    C1 8766   0.439   3.227   9.980 -0.1587  0.9937  0.0026
  588TMC3    C2 8767   0.398   3.110  10.039  0.4224  0.3809 -0.3626
  588TMC3    C3 8768   0.489   3.040  10.114  0.1620  0.2276  0.7000
  588TMC3    C4 8769   0.558   3.284  10.018  0.2718 -0.3926 -0.7572
  588TMC3    C5 8770   0.647   3.223  10.099 -0.2261 -0.4663 -0.4681
  588TMC3    C6 8771   0.611   3.096  10.146  0.3685 -0.2131  0.1598
  588TMC3     C 8772   0.322   3.306   9.946  0.2530 -0.8750  0.5459
  588TMC3     O 8773   0.212   3.273   9.986  0.0154  0.3149  0.6579
  588TMC3     H 8774   0.303   3.066  10.011 -0.1678  1.6779 -0.4187
  588TMC3    H1 8775   0.593   3.376   9.974 -0.2626  0.7586  1.2335
  588TMC3    H2 8776   0.679   3.052  10.217 -0.2136  1.3353  1.6832
  588TMC3    C7 8777   0.761   3.291  10.159 -0.4757 -0.8143  0.5816
  588TMC3    C8 8778   0.438   2.932  10.199 -0.3245  0.0887  0.0296
  588TMC3    O1 8779   0.874   3.243  10.161  1.0350 -0.6752  0.0534
  588TMC3    O2 8780   0.316   2.911  10.213  0.5112 -0.2217 -0.0436
  589TMC3    C1 8781   4.317   1.355   1.147  0.4796  0.2884  0.6839
  589TMC3    C2 8782   4.405   1.413   1.231  0.5894  0.0011 -0.4909
  589TMC3    C3 8783   4.531   1.360   1.234 -0.0400 -0.2104 -0.4744
  589TMC3    C4 8784   4.352   1.260   1.053  0.5610 -0.1809  0.6024
  589TMC3    C5 8785   4.482   1.219   1.061  0.2259  0.5339  0.0412
  589TMC3    C6 8786   4.571   1.268   1.146  0.1156  0.2057  0.2164
  589TMC3     C 8787   4.173   1.401   1.140  0.3421  0.8083 -0.0585
  589TMC3     O 8788   4.110   1.353   1.048 -0.3302  0.3355  0.0458
  589TMC3     H 8789   4.376   1.483   1.308 -1.2028 -2.0680  0.7232
  589TMC3    H1 8790   4.292   1.226   0.970 -1.4494 -1.9015  2.7637
  589TMC3    H2 8791   4.667   1.220   1.164  0.4322  0.5128 -0.6240
  589TMC3    C7 8792   4.509   1.100   0.979  0.0026 -0.0591  0.2681
  589TMC3    C8 8793   4.619   1.402   1.350 -0.6895 -0.9190 -0.1066
  589TMC3    O1 8794   4.417   1.031   0.942 -0.1098  0.7768 -0.3844
  589TMC3    O2 8795   4.566   1.462   1.441 -0.3842 -0.2880 -0.7070
  590MPD2     C 8796   4.260   4.269  16.729 -0.5314  0.7622  0.3692
  590MPD2    C1 8797   4.171   4.338  16.645  0.3755 -0.4430 -0.3926
  590MPD2    C2 8798   4.229   4.430  16.561  0.2670 -0.4566  0.3188
  590MPD2    C3 8799   4.361   4.460  16.565  0.2734 -0.1391 -0.6689
  590MPD2    C4 8800   4.447   4.390  16.643 -1.0076 -0.0063 -0.0098
  590MPD2    C5 8801   4.396   4.296  16.724 -0.7860  0.1498  0.4103
  590MPD2     H 8802   4.172   4.476  16.482  0.2991  0.2384  0.7041
  590MPD2    H1 8803   4.552   4.416  16.656 -0.9820  0.3644 -1.0153
  590MPD2    H2 8804   4.224   4.179  16.778 -1.2039 -0.0773 -1.6893
  590MPD2    H3 8805   4.457   4.245  16.797  1.2904  2.1761  0.0998
  590MPD2     N 8806   4.409   4.562  16.481 -0.0349  0.3353 -0.2669
  590MPD2    H5 8807   4.342   4.611  16.423 -0.7339 -0.1148  0.1515
  590MPD2    N1 8808   4.036   4.300  16.631  0.2352 -0.6497 -0.3030
  590MPD2    H7 8809   3.975   4.360  16.575 -2.1777 -0.9164  2.0435
  591TMC3    C1 8810   4.555   4.666  16.347 -0.3326 -0.1553 -0.5330
  591TMC3    C2 8811   4.615   4.618  16.240  0.0281 -0.3363 -0.8721
  591TMC3    C3 8812   4.602   4.685  16.122 -0.2827 -0.7594  0.6931
  591TMC3    C4 8813   4.482   0.041  16.341 -0.3352 -0.4027 -0.6642
  591TMC3    C5 8814   4.482   0.110  16.226 -0.4501 -0.2135 -0.1371
  591TMC3    C6 8815   4.543   0.072  16.112  0.4252 -0.2298  0.1155
  591TMC3     C 8816   4.543   4.582  16.460 -0.1182  0.4969  0.6549
  591TMC3     O 8817   4.644   4.529  16.496  0.7661  0.9346  0.6560
  591TMC3     H 8818   4.663   4.521  16.246 -0.3014 -0.5668 -2.0011
  591TMC3    H1 8819   4.434   0.082  16.429 -2.9719 -1.8526 -1.4175
  591TMC3    H2 8820   4.520   0.114  16.015  1.1583 -1.6771 -0.6879
  591TMC3    C7 8821   4.391   0.224  16.220 -0.1633  0.7945 -0.5053
  591TMC3    C8 8822   4.680   4.632  16.006 -0.3292 -0.3792 -0.5159
  591TMC3    O1 8823   4.313   0.243  16.316 -0.1347 -0.3489 -0.1700
  591TMC3    O2 8824   4.703   4.510  16.006 -0.6218  0.3548  0.2810
  592MPD2     C 8825   0.128   1.815  11.628  0.0946 -0.2761 -0.4252
  592MPD2    C1 8826   0.049   1.857  11.731 -0.1411 -0.1368 -0.1330
  592MPD2    C2 8827   4.678   1.779  11.780  0.4920 -0.1461  0.1276
  592MPD2    C3 8828   4.660   1.653  11.731 -0.2296 -0.1503 -0.0577
  592MPD2    C4 8829   4.732   1.615  11.623 -0.1489  0.2570  0.4080
  592MPD2    C5 8830   0.104   1.688  11.576 -0.4517  0.3742 -0.8583
  592MPD2     H 8831   4.616   1.820  11.859 -0.2647 -0.5629 -0.2525
  592MPD2    H1 8832   4.731   1.510  11.593  1.0669  0.6419 -0.9352
  592MPD2    H2 8833   0.219   1.868  11.603 -0.2869  0.7221  0.2996
  592MPD2    H3 8834   0.172   1.652  11.500 -2.2802 -2.0412 -1.3701
  592MPD2     N 8835   4.555   1.577  11.789  0.8757  0.2333  0.2196
  592MPD2    H5 8836   4.518   1.611  11.877  0.2721 -1.5883  0.6580
  592MPD2    N1 8837   0.092   1.980  11.786 -0.9509  0.2582  0.0948
  592MPD2    H7 8838   0.180   2.020  11.754 -1.7396 -0.1928 -2.6571
  593TMC3    C1 8839   0.096   2.159  11.937  0.2485 -0.4818  0.2034
  593TMC3    C2 8840   0.091   2.195  12.069 -0.4085 -0.0940 -0.1795
  593TMC3    C3 8841   0.118   2.316  12.108 -0.0869 -0.2447 -0.5571
  593TMC3    C4 8842   0.134   2.251  11.845 -0.3330  0.3530  0.3780
  593TMC3    C5 8843   0.150   2.381  11.889  0.3189 -0.7639  0.3117
  593TMC3    C6 8844   0.152   2.414  12.021  0.2342  0.2545  0.5775
  593TMC3     C 8845   0.023   2.048  11.890 -0.1453  0.0121  0.3415
  593TMC3     O 8846   4.658   2.025  11.954 -0.1788 -0.4659 -0.1903
  593TMC3     H 8847   0.045   2.119  12.132  0.4071 -1.0920 -0.7935
  593TMC3    H1 8848   0.138   2.239  11.738  1.1285 -0.5153  0.5283
  593TMC3    H2 8849   0.185   2.513  12.052 -2.6606  0.1373  4.0440
  593TMC3    C7 8850   0.184   2.483  11.798  0.1920  0.1867  0.0070
  593TMC3    C8 8851   0.119   2.337  12.249  0.3537  0.4509  0.4356
  593TMC3    O1 8852   0.266   2.565  11.841  0.0566 -0.1804 -0.4892
  593TMC3    O2 8853   0.066   2.255  12.321  0.0639  0.8242 -0.1169
  594MPD2     C 8854   3.591   0.256  14.478  0.4352 -0.0674 -0.2510
  594MPD2    C1 8855   3.467   0.305  14.445 -0.3274 -0.0338  0.3059
  594MPD2    C2 8856   3.462   0.407  14.350  0.3006  0.1493 -0.0898
  594MPD2    C3 8857   3.581   0.454  14.290 -0.3529 -0.1376 -0.4862
  594MPD2    C4 8858   3.703   0.399  14.326  0.1528  0.3158 -0.0278
  594MPD2    C5 8859   3.707   0.289  14.411  0.1923  0.0545  1.0150
  594MPD2     H 8860   3.364   0.441  14.317 -0.7194 -1.4279  1.2790
  594MPD2    H1 8861   3.800   0.424  14.284  0.3485  0.3467  0.4326
  594MPD2    H2 8862   3.601   0.162  14.530  1.8476 -0.3147 -0.9802
  594MPD2    H3 8863   3.794   0.233  14.442 -0.2227 -0.6402  0.9265
  594MPD2     N 8864   3.569   0.539  14.181  0.6081 -0.6085 -0.2216
  594MPD2    H5 8865   3.475   0.574  14.166  1.6833  0.8228 -3.6867
  594MPD2    N1 8866   3.352   0.239  14.497 -0.3978 -0.2583 -0.2908
  594MPD2    H7 8867   3.361   0.147  14.537  0.5064  0.5294  1.3486
  595TMC3    C1 8868   3.739   0.955  14.057 -0.0574  0.6738  0.3381
  595TMC3    C2 8869   3.736   0.823  14.025  0.2854 -0.5934 -0.0254
  595TMC3    C3 8870   3.622   0.745  14.071 -0.1293 -0.6291  0.2379
  595TMC3    C4 8871   3.646   0.998  14.149 -0.1847  0.1776  0.0910
  595TMC3    C5 8872   3.534   0.925  14.182  0.0604 -0.0024 -0.6001
  595TMC3    C6 8873   3.515   0.793  14.144 -0.5687  0.2610  0.0471
  595TMC3     C 8874   3.871   1.009  14.083 -0.1045  0.4222 -0.4886
  595TMC3     O 8875   3.883   1.062  14.190  0.5031 -0.3050 -0.6070
  595TMC3     H 8876   3.816   0.777  13.969  1.1020 -1.8719  2.2118
  595TMC3    H1 8877   3.655   1.098  14.192 -2.0443 -0.2945  1.5995
  595TMC3    H2 8878   3.422   0.744  14.170 -0.8729 -0.3633 -2.1763
  595TMC3    C7 8879   3.464   0.986  14.293  0.7820  0.3682 -0.5254
  595TMC3    C8 8880   3.673   0.613  14.124  0.1154 -0.2052 -0.1625
  595TMC3    O1 8881   3.340   0.971  14.293  0.5158 -0.1549 -0.5061
  595TMC3    O2 8882   3.792   0.601  14.144 -0.0634 -0.6244 -0.0021
  596MPD2     C 8883   2.420   3.569  16.991  0.0738  0.3749 -0.6643
  596MPD2    C1 8884   2.424   3.659  16.879 -0.0588  0.3431  0.3430
  596MPD2    C2 8885   2.437   3.599  16.754  0.6282  0.3460 -0.6507
  596MPD2    C3 8886   2.452   3.464  16.734  0.2666  0.5176 -0.2706
  596MPD2    C4 8887   2.435   3.387  16.844  0.8061 -1.1999  0.4012
  596MPD2    C5 8888   2.427   3.436  16.969 -0.0990  0.8577 -0.2570
  596MPD2     H 8889   2.438   3.675  16.677 -0.6463  0.8725 -0.1460
  596MPD2    H1 8890   2.428   3.279  16.835 -0.7594 -1.2398  2.1088
  596MPD2    H2 8891   2.411   3.609  17.091 -0.5067 -2.1742  0.2977
  596MPD2    H3 8892   2.412   3.361  17.046  1.5468  0.5974 -0.2012
  596MPD2     N 8893   2.481   3.412  16.605 -0.1591  0.4052  0.3462
  596MPD2    H5 8894   2.474   3.312  16.587  0.2584 -0.0527  2.7844
  596MPD2    N1 8895   2.425   3.807  16.878 -0.1341  0.6743  0.3599
  596MPD2    H7 8896   2.432   3.849  16.786 -0.0119  0.2445  0.1724
  597TMC3    C1 8897   2.401   4.013  16.953  0.1684  0.3074  1.0636
  597TMC3    C2 8898   2.469   4.054  16.845  0.1173  0.0682  0.5131
  597TMC3    C3 8899   2.432   4.167  16.781 -0.3335 -0.2263 -0.4710
  597TMC3    C4 8900   2.296   4.083  17.002 -0.3556 -0.2990 -0.5238
  597TMC3    C5 8901   2.266   4.206  16.948 -0.4687 -0.0065  0.6816
  597TMC3    C6 8902   2.343   4.255  16.843 -0.3731  0.0156 -0.5901
  597TMC3     C 8903   2.403   3.873  16.989 -0.4011  0.5061  0.0647
  597TMC3     O 8904   2.354   3.835  17.094 -0.7649 -0.0295 -0.3474
  597TMC3     H 8905   2.562   4.005  16.819  1.2947  1.7390  1.4917
  597TMC3    H1 8906   2.241   4.045  17.087  2.6577 -3.3563  0.0590
  597TMC3    H2 8907   2.324   4.353  16.802 -1.6802  0.7734  1.7828
  597TMC3    C7 8908   2.149   4.278  17.008  0.2757  0.1593 -0.0357
  597TMC3    C8 8909   2.518   4.228  16.682  0.5753 -0.1528 -0.8021
  597TMC3    O1 8910   2.086   4.216  17.090 -0.4321 -0.2826  0.8263
  597TMC3    O2 8911   2.492   4.341  16.652 -0.1128  0.1278 -0.1074
  598TMC3    C1 8912   0.646   4.658  14.990 -0.1538 -0.2938 -0.5131
  598TMC3    C2 8913   0.547   4.590  15.056  0.0748 -0.1334 -0.1488
  598TMC3    C3 8914   0.416   4.624  15.036  0.0800 -0.1564  0.2229
  598TMC3    C4 8915   0.623   0.024  14.902 -0.0479  0.1255 -0.2815
  598TMC3    C5 8916   0.492   0.056  14.881 -0.3065 -0.0758 -0.3318
  598TMC3    C6 8917   0.388   4.729  14.948 -0.6475  0.0126  0.0636
  598TMC3     C 8918   0.774   4.634  15.054 -0.0232 -0.2382 -0.5277
  598TMC3     O 8919   0.798   4.520  15.101 -0.0542 -0.0111 -0.9579
  598TMC3     H 8920   0.579   4.507  15.119 -0.5473  0.4803  0.9882
  598TMC3    H1 8921   0.712   0.055  14.847  0.4987  1.5769  1.4079
  598TMC3    H2 8922   0.285   0.008  14.920 -0.5762 -1.8575 -1.3178
  598TMC3    C7 8923   0.448   0.168  14.794  0.3505  0.1121 -0.0758
  598TMC3    C8 8924   0.312   4.533  15.062  0.4431 -0.0858  0.6761
  598TMC3    O1 8925   0.337   0.158  14.745 -0.4769  0.5162  0.1824
  598TMC3    O2 8926   0.348   4.416  15.048 -0.2090  0.2004 -0.1172
  599MPD2     C 8927   0.124   2.514  15.095 -0.1084  0.0582 -1.4539
  599MPD2    C1 8928   0.199   2.525  15.208 -0.2009  0.7095  0.3783
  599MPD2    C2 8929   0.135   2.578  15.322  0.1798  0.3526 -0.2016
  599MPD2    C3 8930   0.003   2.613  15.313  0.3057 -0.2535 -0.7795
  599MPD2    C4 8931   4.661   2.570  15.213  0.1453 -0.1803  0.1454
  599MPD2    C5 8932   4.723   2.527  15.099  0.4033 -0.7899 -0.1905
  599MPD2     H 8933   0.195   2.599  15.410 -0.9136 -1.5582  0.9976
  599MPD2    H1 8934   4.555   2.589  15.224  0.2255 -0.1943  1.0081
  599MPD2    H2 8935   0.160   2.470  15.003  0.6645  0.7570 -1.4932
  599MPD2    H3 8936   4.665   2.478  15.021 -1.3863 -0.8040  1.1556
  599MPD2     N 8937   4.674   2.677  15.421 -0.0891 -0.1561  0.3672
  599MPD2    H5 8938   4.573   2.680  15.415 -0.1551 -2.0968  0.4330
  599MPD2    N1 8939   0.336   2.486  15.203  0.4622 -0.0205  0.0750
  599MPD2    H7 8940   0.383   2.457  15.117 -1.4166 -0.5437 -0.7724
  600TMC3    C1 8941   4.642   2.787  15.622  0.2665 -0.0414  0.3046
  600TMC3    C2 8942   4.549   2.700  15.676  0.0013 -0.3552  0.4455
  600TMC3    C3 8943   4.472   2.742  15.784  0.2499  0.0200 -0.0778
  600TMC3    C4 8944   4.671   2.910  15.667  1.2171  0.2777  0.2711
  600TMC3    C5 8945   4.597   2.944  15.782 -0.0084  0.2548 -0.1669
  600TMC3    C6 8946   4.502   2.865  15.840 -0.4400  0.4353  0.2480
  600TMC3     C 8947   4.737   2.744  15.522 -0.3225 -0.0959  0.4123
  600TMC3     O 8948   0.117   2.780  15.539 -0.0278  0.1753 -0.1830
  600TMC3     H 8949   4.553   2.595  15.650 -0.9413  0.5226 -3.1268
  600TMC3    H1 8950   0.014   2.963  15.619 -0.4897  0.1568 -2.7854
  600TMC3    H2 8951   4.456   2.893  15.934  1.1612  0.0199  1.1513
  600TMC3    C7 8952   4.654   3.041  15.872  0.7689 -0.1327 -0.0812
  600TMC3    C8 8953   4.454   2.643  15.884 -0.9607  0.0530 -0.4467
  600TMC3    O1 8954   4.579   3.073  15.962 -1.0206 -0.0821 -0.3577
  600TMC3    O2 8955   4.492   2.685  15.990  0.1494 -0.0274  0.1107
  601MPD2     C 8956   2.309   1.551  17.351 -0.2564  0.4937  0.4029
  601MPD2    C1 8957   2.214   1.479  17.293  0.0427  0.0453  0.5295
  601MPD2    C2 8958   2.157   1.370  17.361  1.0261 -0.4029 -0.3857
  601MPD2    C3 8959   2.178   1.359  17.501 -0.2641 -0.7083 -0.2270
  601MPD2    C4 8960   2.265   1.457  17.562  0.1866 -0.6493 -0.5396
  601MPD2    C5 8961   2.330   1.547  17.483 -0.5613 -0.7492 -0.5118
  601MPD2     H 8962   2.070   1.317  17.323  1.4023 -1.7068  0.5978
  601MPD2    H1 8963   2.279   1.446  17.669 -0.7559  3.2779 -0.0411
  601MPD2    H2 8964   2.367   1.623  17.296  0.1362  0.6703  1.0415
  601MPD2    H3 8965   2.400   1.613  17.533 -1.5615 -1.5981  1.9866
  601MPD2     N 8966   2.123   1.265  17.589  0.3553  0.1872 -0.5970
  601MPD2    H5 8967   2.143   1.285  17.686  0.7824 -1.2948 -0.3872
  601MPD2    N1 8968   2.181   1.495  17.158 -0.4519  0.2614 -1.1953
  601MPD2    H7 8969   2.109   1.431  17.126 -2.4745  0.8844  2.1168
  602TMC3    C1 8970   2.199   1.547  16.933  0.2011  0.2450  0.1000
  602TMC3    C2 8971   2.067   1.509  16.915 -0.5892  0.4515  0.2060
  602TMC3    C3 8972   2.045   1.423  16.810  0.0406  0.0985  0.0981
  602TMC3    C4 8973   2.298   1.524  16.839  0.8220  0.5736 -0.0291
  602TMC3    C5 8974   2.265   1.443  16.734  0.1508  0.5179  0.3872
  602TMC3    C6 8975   2.143   1.396  16.720 -0.3777  0.4056 -0.5953
  602TMC3     C 8976   2.250   1.570  17.066 -0.1200  0.2835  0.2680
  602TMC3     O 8977   2.338   1.655  17.073  0.1171  0.1553  0.5231
  602TMC3     H 8978   1.988   1.525  16.988 -1.6722 -2.2758 -0.3864
  602TMC3    H1 8979   2.401   1.556  16.848  0.7075  1.0005 -0.2711
  602TMC3    H2 8980   2.115   1.353  16.624  1.0517  1.7238 -1.6046
  602TMC3    C7 8981   2.370   1.381  16.657  0.1951  0.3798 -0.2579
  602TMC3    C8 8982   1.908   1.394  16.773  0.1159  0.1657 -0.1355
  602TMC3    O1 8983   2.481   1.433  16.657 -0.0551  0.2498 -0.2421
  602TMC3    O2 8984   1.812   1.440  16.835 -0.3638 -0.3823  0.4320
  603TMC3    C1 8985   0.732   1.576  10.885  0.4098  0.4764  0.0841
  603TMC3    C2 8986   0.782   1.529  11.001 -0.3592  0.4675 -0.2133
  603TMC3    C3 8987   0.897   1.589  11.050 -0.3996  0.5856 -0.2302
  603TMC3    C4 8988   0.792   1.680  10.819  0.3577 -0.2949 -0.4380
  603TMC3    C5 8989   0.899   1.743  10.873  0.4846 -0.7053 -0.5937
  603TMC3    C6 8990   0.967   1.687  10.983 -0.7122 -0.4160 -0.2286
  603TMC3     C 8991   0.648   1.484  10.808  0.4338  0.4899 -0.1230
  603TMC3     O 8992   0.668   1.501  10.687  0.2086  0.2173  0.0218
  603TMC3     H 8993   0.725   1.457  11.058 -0.1539  0.0740 -0.5013
  603TMC3    H1 8994   0.756   1.703  10.720 -0.0654  1.4341  0.1241
  603TMC3    H2 8995   1.053   1.738  11.026 -1.0719 -0.2223  0.2706
  603TMC3    C7 8996   0.960   1.841  10.789  0.0047  0.5827  0.0260
  603TMC3    C8 8997   0.956   1.533  11.174  0.5132 -0.6991 -0.9659
  603TMC3    O1 8998   1.082   1.855  10.798 -0.4536  0.4320 -0.4237
  603TMC3    O2 8999   0.903   1.426  11.205 -0.1279 -0.3116 -0.4496
  604MPD2     C 9000   1.758   0.087  16.242 -0.3208 -0.1811  0.3685
  604MPD2    C1 9001   1.643   0.087  16.164  0.4488 -0.1369  0.4053
  604MPD2    C2 9002   1.654   0.027  16.037 -0.2243  0.0067 -0.0109
  604MPD2    C3 9003   1.768   4.702  15.997 -0.2381 -0.6136  0.3363
  604MPD2    C4 9004   1.879   4.711  16.075 -0.3297  0.0039 -0.1456
  604MPD2    C5 9005   1.881   0.047  16.196  0.3873 -0.0294  0.0764
  604MPD2     H 9006   1.570   0.043  15.971  1.1565 -1.5733 -2.1547
  604MPD2    H1 9007   1.978   4.679  16.044  0.2772  0.8213  0.8941
  604MPD2    H2 9008   1.747   0.128  16.342  1.2733 -2.8571  1.6254
  604MPD2    H3 9009   1.969   0.059  16.258 -0.3593  0.1476  1.1087
  604MPD2     N 9010   1.763   4.640  15.866 -0.4284  0.0595 -0.6174
  604MPD2    H5 9011   1.675   4.637  15.815 -1.7278 -1.4974  1.7124
  604MPD2    N1 9012   1.524   0.147  16.218 -0.0844  0.3050 -0.0959
  604MPD2    H7 9013   1.543   0.199  16.303 -2.2018 -0.6827  0.9696
  605TMC3    C1 9014   1.319   0.261  16.230  0.7347  0.4460  0.4328
  605TMC3    C2 9015   1.371   0.349  16.323 -0.5653  0.4425  0.4863
  605TMC3    C3 9016   1.290   0.461  16.353 -0.1689 -0.1479 -0.0941
  605TMC3    C4 9017   1.193   0.276  16.182  1.0613  0.6017 -0.1939
  605TMC3    C5 9018   1.120   0.390  16.218  0.4282  0.0169  0.5975
  605TMC3    C6 9019   1.166   0.485  16.299  0.5625 -0.0762 -0.4059
  605TMC3     C 9020   1.403   0.168  16.155 -0.1606 -0.5628 -0.3062
  605TMC3     O 9021   1.362   0.144  16.044 -0.1343 -0.6076 -0.2730
  605TMC3     H 9022   1.470   0.346  16.366 -0.2432  2.7066 -0.1109
  605TMC3    H1 9023   1.151   0.206  16.111  1.2140  0.6667 -0.3484
  605TMC3    H2 9024   1.108   0.566  16.342  0.0498 -0.1526 -0.9513
  605TMC3    C7 9025   0.987   0.417  16.171  0.0454 -0.4410  0.4882
  605TMC3    C8 9026   1.350   0.575  16.417  0.3244  0.0790 -0.8196
  605TMC3    O1 9027   0.926   0.500  16.227 -0.2669 -0.3248 -0.1432
  605TMC3    O2 9028   1.293   0.628  16.512 -0.0409 -0.0063 -0.2564
  606TMC3    C1 9029   1.710   3.092  17.113  0.6325  0.0298  0.0293
  606TMC3    C2 9030   1.788   3.070  17.219  0.3046 -0.0453 -0.0660
  606TMC3    C3 9031   1.741   2.988  17.321  0.1369 -0.0169 -0.2444
  606TMC3    C4 9032   1.591   3.027  17.089 -0.2092  0.0355 -0.2156
  606TMC3    C5 9033   1.555   2.937  17.191 -0.8553  0.6480  0.0458
  606TMC3    C6 9034   1.628   2.920  17.302  0.0458 -0.5639  0.1719
  606TMC3     C 9035   1.766   3.170  17.003 -0.2476  0.2796  0.3802
  606TMC3     O 9036   1.733   3.145  16.888 -0.2019  0.3300 -0.8584
  606TMC3     H 9037   1.879   3.129  17.230 -0.5402  1.2271  0.1589
  606TMC3    H1 9038   1.529   3.067  17.010  1.7858  1.8136 -0.8691
  606TMC3    H2 9039   1.585   2.861  17.383  0.1645 -1.2981 -0.3048
  606TMC3    C7 9040   1.425   2.876  17.182  1.3187 -0.1051  0.7981
  606TMC3    C8 9041   1.845   2.945  17.420  0.1936  0.2892  0.4431
  606TMC3    O1 9042   1.389   2.813  17.279  0.2426 -0.2517  0.0474
  606TMC3    O2 9043   1.959   2.959  17.379 -0.5401 -0.4181  0.5650
  607MPD2     C 9044   4.688   1.185  12.229  0.1499  0.5580 -0.2918
  607MPD2    C1 9045   0.066   1.219  12.290  0.2432 -0.1259  0.3002
  607MPD2    C2 9046   0.147   1.125  12.355 -0.4746  0.1707  0.3644
  607MPD2    C3 9047   0.119   0.990  12.342  0.0904 -0.2704  0.3594
  607MPD2    C4 9048   0.011   0.957  12.262 -0.4961 -0.0008  0.3975
  607MPD2    C5 9049   4.671   1.052  12.202  0.1352  0.1486  0.1230
  607MPD2     H 9050   0.239   1.159  12.400 -0.8946  1.7410  0.0539
  607MPD2    H1 9051   4.724   0.854  12.240  3.2593 -0.7916 -0.1306
  607MPD2    H2 9052   4.615   1.255  12.190 -2.6991 -1.4746  1.4321
  607MPD2    H3 9053   4.582   1.023  12.147  0.4109 -0.3296 -0.0648
  607MPD2     N 9054   0.192   0.901  12.424 -0.7510  0.1740 -0.2793
  607MPD2    H5 9055   0.242   0.943  12.502 -0.1305  1.0995 -1.1906
  607MPD2    N1 9056   0.098   1.354  12.304 -0.3799  0.0001  0.5715
  607MPD2    H7 9057   0.184   1.368  12.355 -0.1263 -0.7233  0.3494
  608TMC3    C1 9058   0.150   1.576  12.265 -0.6784  0.4501  0.3834
  608TMC3    C2 9059   0.200   1.576  12.394 -0.5130 -0.6463  0.2093
  608TMC3    C3 9060   0.301   1.665  12.412  0.7695  0.2568 -0.4402
  608TMC3    C4 9061   0.190   1.660  12.169  0.4054 -0.1496 -0.5531
  608TMC3    C5 9062   0.280   1.756  12.204 -0.1567 -0.2091  0.0112
  608TMC3    C6 9063   0.351   1.753  12.320  0.2593 -0.6041 -0.2760
  608TMC3     C 9064   0.054   1.468  12.241  0.4766 -0.0601  0.1175
  608TMC3     O 9065   4.720   1.474  12.143  0.6663  0.2547  0.2075
  608TMC3     H 9066   0.147   1.520  12.469  0.1165 -0.8247  0.5171
  608TMC3    H1 9067   0.145   1.659  12.071  0.0168 -1.4150 -0.3653
  608TMC3    H2 9068   0.440   1.809  12.343 -0.8930  1.7286 -1.5602
  608TMC3    C7 9069   0.311   1.867  12.116 -0.5636  0.4147 -0.5546
  608TMC3    C8 9070   0.394   1.636  12.519  0.1092 -1.0376 -0.0932
  608TMC3    O1 9071   0.298   1.844  11.996  0.2809  0.3334  0.4715
  608TMC3    O2 9072   0.454   1.718  12.582 -0.2081  0.4314 -0.2644
  609TMC3    C1 9073   3.404   0.941   9.153  0.1989  0.0666  0.1479
  609TMC3    C2 9074   3.329   0.862   9.074 -0.2475 -0.0739 -0.5519
  609TMC3    C3 9075   3.389   0.758   9.011 -0.5447  0.2257 -0.3920
  609TMC3    C4 9076   3.534   0.923   9.169 -0.9697 -0.1055 -1.0173
  609TMC3    C5 9077   3.593   0.809   9.123  0.7980 -0.0345  0.2809
  609TMC3    C6 9078   3.515   0.712   9.051  0.5336 -0.3337  0.2243
  609TMC3     C 9079   3.334   1.033   9.241 -0.2158  0.1910  0.7782
  609TMC3     O 9080   3.392   1.077   9.336  0.1912  0.1613  0.1863
  609TMC3     H 9081   3.223   0.882   9.062 -0.2802  0.9195  1.3190
  609TMC3    H1 9082   3.587   0.993   9.233  1.5509 -1.2233 -1.8727
  609TMC3    H2 9083   3.551   0.616   9.013 -0.3465 -0.6112  0.1005
  609TMC3    C7 9084   3.707   0.768   9.198 -0.1661 -0.4662 -0.3098
  609TMC3    C8 9085   3.297   0.662   8.945 -0.2251 -0.2816 -0.7049
  609TMC3    O1 9086   3.782   0.856   9.241 -0.4169 -0.6194  0.1813
  609TMC3    O2 9087   3.179   0.699   8.943 -0.1684 -0.3779 -0.2928
  610TMC3    C1 9088   0.727   1.464  12.337  0.2427  0.1607  0.2823
  610TMC3    C2 9089   0.626   1.394  12.281 -0.4349  0.6284 -0.3728
  610TMC3    C3 9090   0.634   1.262  12.302  0.0980 -0.4784 -0.3473
  610TMC3    C4 9091   0.824   1.414  12.419  0.0602 -0.3740  0.7408
  610TMC3    C5 9092   0.830   1.276  12.426 -0.7009  0.6445 -0.4414
  610TMC3    C6 9093   0.739   1.197  12.363 -0.2777 -0.4870  0.0293
  610TMC3     C 9094   0.733   1.607  12.307  0.0652 -0.1430 -0.5250
  610TMC3     O 9095   0.789   1.672  12.392  0.5533  0.2331  0.0895
  610TMC3     H 9096   0.552   1.437  12.215 -2.9066 -1.4875  1.0121
  610TMC3    H1 9097   0.894   1.478  12.471  0.9712 -0.1051 -0.8220
  610TMC3    H2 9098   0.737   1.089  12.368  2.5287 -0.4340  2.2380
  610TMC3    C7 9099   0.917   1.212  12.516 -0.1021 -0.2569  0.2191
  610TMC3    C8 9100   0.544   1.186  12.223  0.3286  0.1020 -0.6180
  610TMC3    O1 9101   0.890   1.094  12.550  0.8564 -0.0820  0.3015
  610TMC3    O2 9102   0.426   1.225  12.221 -0.1068  0.2182  0.1785
  611MPD2     C 9103   4.726   1.819  10.615  0.6433 -0.0203  0.1580
  611MPD2    C1 9104   4.670   1.886  10.503 -0.4650  0.5499 -0.3160
  611MPD2    C2 9105   0.021   1.953  10.422  0.3752 -0.7135 -0.4317
  611MPD2    C3 9106   0.151   1.986  10.464 -0.3010 -0.4087  0.6444
  611MPD2    C4 9107   0.207   1.917  10.570  0.3534 -0.1057  0.4960
  611MPD2    C5 9108   0.123   1.832  10.635 -0.3744  1.0894 -0.0305
  611MPD2     H 9109   4.720   1.994  10.329  0.5413  2.3852  0.8743
  611MPD2    H1 9110   0.313   1.924  10.592  0.6370  1.7391 -1.5537
  611MPD2    H2 9111   4.676   1.740  10.670  2.1845  0.6738  2.5415
  611MPD2    H3 9112   0.173   1.762  10.700 -2.1385 -1.2776 -1.2102
  611MPD2     N 9113   0.236   2.080  10.397 -0.0271  0.0679 -0.2962
  611MPD2    H5 9114   0.334   2.090  10.421 -0.1371 -0.6318  0.4330
  611MPD2    N1 9115   4.532   1.862  10.467  0.2084  0.5282 -0.2004
  611MPD2    H7 9116   4.493   1.807  10.543  1.9364  0.3595  0.5619
  612TMC3    C1 9117   0.305   2.260  10.266  0.2680 -0.3727 -0.2927
  612TMC3    C2 9118   0.435   2.234  10.304 -0.4221  0.0748  0.1091
  612TMC3    C3 9119   0.529   2.332  10.267 -0.8067 -0.4782  0.2097
  612TMC3    C4 9120   0.269   2.368  10.196 -0.2961  0.1167  0.2705
  612TMC3    C5 9121   0.370   2.458  10.161  0.5387 -0.1410 -0.3572
  612TMC3    C6 9122   0.502   2.440  10.197  0.2698  0.1513 -0.1984
  612TMC3     C 9123   0.200   2.158  10.290  0.1570 -0.0316 -0.1672
  612TMC3     O 9124   0.095   2.171  10.227  0.0089  0.4837  0.0622
  612TMC3     H 9125   0.463   2.133  10.331 -0.3692 -0.3882 -1.6669
  612TMC3    H1 9126   0.168   2.381  10.161  0.6070 -2.0674 -3.1783
  612TMC3    H2 9127   0.572   2.521  10.178  0.3892  0.6320  2.2142
  612TMC3    C7 9128   0.327   2.574  10.083 -0.5681 -0.3156  0.2414
  612TMC3    C8 9129   0.673   2.301  10.285 -0.1009 -0.3371 -0.0365
  612TMC3    O1 9130   0.202   2.597  10.077  0.5356  0.2252 -0.7611
  612TMC3    O2 9131   0.754   2.336  10.200 -0.0436  0.4241 -0.3375
  613MPD2     C 9132   3.683   3.601  17.012 -0.0516 -0.9074 -0.6577
  613MPD2    C1 9133   3.785   3.528  16.954 -0.2015  0.5316  0.4515
  613MPD2    C2 9134   3.792   3.396  17.001  0.7333  0.1790  0.6627
  613MPD2    C3 9135   3.693   3.342  17.078 -0.4989 -0.5371  0.4636
  613MPD2    C4 9136   3.594   3.418  17.130  0.5294  0.5214  0.6877
  613MPD2    C5 9137   3.590   3.552  17.100  0.3505 -0.4377  0.2037
  613MPD2     H 9138   3.868   3.328  16.963 -1.5358 -2.1023  0.1658
  613MPD2    H1 9139   3.510   3.379  17.187 -1.0325  0.4700 -1.6527
  613MPD2    H2 9140   3.675   3.706  16.987  0.3207 -0.3200  1.6689
  613MPD2    H3 9141   3.513   3.612  17.147  0.6340  0.4359 -0.4558
  613MPD2     N 9142   3.691   3.203  17.100  0.1559  0.0767  0.0846
  613MPD2    H5 9143   3.757   3.152  17.042 -1.2503 -0.0497 -1.4131
  613MPD2    N1 9144   3.846   3.574  16.841 -0.4564 -0.0422 -0.6096
  613MPD2    H7 9145   3.820   3.667  16.810  2.6643  1.2835  0.6896
  614TMC3    C1 9146   3.974   3.573  16.634 -0.4973  0.3038 -0.3494
  614TMC3    C2 9147   4.070   3.507  16.566  1.0278 -0.2136  0.2536
  614TMC3    C3 9148   4.073   3.479  16.430 -0.0748 -0.4477 -0.1227
  614TMC3    C4 9149   3.860   3.606  16.569  0.2716 -0.1449 -0.5172
  614TMC3    C5 9150   3.855   3.577  16.434 -0.3554 -0.5436  0.3944
  614TMC3    C6 9151   3.958   3.519  16.364  0.5762 -0.2646  0.7150
  614TMC3     C 9152   3.949   3.516  16.770  0.0206  1.0145 -0.1290
  614TMC3     O 9153   4.003   3.407  16.781 -0.0826 -0.1469  0.0004
  614TMC3     H 9154   4.153   3.475  16.627  1.6150 -1.7892 -1.3718
  614TMC3    H1 9155   3.767   3.638  16.616 -0.1795 -0.0224 -1.4852
  614TMC3    H2 9156   3.961   3.504  16.257  0.1243  2.6356  0.2996
  614TMC3    C7 9157   3.754   3.655  16.359  0.1218 -0.4031  0.6604
  614TMC3    C8 9158   4.081   3.340  16.407 -0.1327  0.7254  0.5250
  614TMC3    O1 9159   3.689   3.731  16.428 -0.4057 -0.7340  0.1045
  614TMC3    O2 9160   4.095   3.292  16.296  0.3463  0.1942 -0.2629
  615MPD2     C 9161   3.041   0.038  15.791 -0.1534 -0.2489  0.2635
  615MPD2    C1 9162   3.100   0.160  15.762 -0.3017  0.1393 -0.8564
  615MPD2    C2 9163   3.075   0.220  15.637  0.7970  0.8960  0.6557
  615MPD2    C3 9164   3.000   0.152  15.538 -0.1953 -0.1939  0.1576
  615MPD2    C4 9165   2.947   0.024  15.572 -0.2311  0.1140  0.2595
  615MPD2    C5 9166   2.960   4.713  15.699  0.8442  0.3166  0.1157
  615MPD2     H 9167   3.120   0.309  15.595  0.6666  2.3673  3.6728
  615MPD2    H1 9168   2.902   4.692  15.502  0.5999 -1.5313  1.3699
  615MPD2    H2 9169   3.052   4.729  15.889 -1.8914  1.1134  1.1069
  615MPD2    H3 9170   2.915   4.619  15.729  2.0634  0.0996  1.2733
  615MPD2     N 9171   2.963   0.194  15.413  0.0628 -0.0701  0.1821
  615MPD2    H5 9172   2.912   0.121  15.365  0.2575 -0.1625  0.1139
  615MPD2    N1 9173   3.197   0.225  15.846 -1.0056  1.0101  0.0283
  615MPD2    H7 9174   3.238   0.312  15.813  0.0835  0.9404  1.2162
  616TMC3    C1 9175   3.344   0.274  16.013  0.0319 -0.8856 -0.3269
  616TMC3    C2 9176   3.352   0.399  15.961 -0.0141  0.2462  0.1761
  616TMC3    C3 9177   3.427   0.488  16.040 -0.1931 -0.0573  0.3785
  616TMC3    C4 9178   3.406   0.229  16.130  0.3780  0.5156  0.5675
  616TMC3    C5 9179   3.474   0.324  16.203 -0.0247 -0.4780  0.1113
  616TMC3    C6 9180   3.497   0.456  16.151  0.7672  0.3730 -0.1850
  616TMC3     C 9181   3.238   0.191  15.963 -0.5553  0.4874  0.1198
  616TMC3     O 9182   3.205   0.091  16.028  0.1230  0.3396  0.7874
  616TMC3     H 9183   3.288   0.438  15.883  0.1666  1.2578  0.5353
  616TMC3    H1 9184   3.383   0.130  16.166 -1.6331  0.3086 -1.2596
  616TMC3    H2 9185   3.568   0.518  16.204  1.5231 -1.3074  0.7763
  616TMC3    C7 9186   3.566   0.274  16.306  0.0320 -0.1479  0.2014
  616TMC3    C8 9187   3.453   0.618  15.984 -0.8114  0.0175  0.6828
  616TMC3    O1 9188   3.679   0.323  16.310  0.1613  0.2577  0.0208
  616TMC3    O2 9189   3.390   0.650  15.883  0.3445  0.2850 -0.2428
  617MPD2     C 9190   1.489   3.462  14.060 -0.4162  0.2070  0.1594
  617MPD2    C1 9191   1.551   3.338  14.098  0.1577  0.5053  0.0732
  617MPD2    C2 9192   1.486   3.219  14.079 -0.0117  0.5836  0.2789
  617MPD2    C3 9193   1.369   3.220  14.010 -0.6426 -0.4056  0.1599
  617MPD2    C4 9194   1.314   3.335  13.959  0.5390  0.5161 -0.7653
  617MPD2    C5 9195   1.384   3.455  13.980 -0.6144  0.4991 -0.2758
  617MPD2     H 9196   1.534   3.128  14.113  0.7409 -0.1180 -2.6371
  617MPD2    H1 9197   1.219   3.343  13.906 -0.2816  2.4966  1.0008
  617MPD2    H2 9198   1.532   3.561  14.071  0.1373 -0.3835  3.1361
  617MPD2    H3 9199   1.335   3.545  13.947 -1.6117 -0.3191 -1.0328
  617MPD2     N 9200   1.300   3.099  13.980  0.7020  0.0053  0.1292
  617MPD2    H5 9201   1.230   3.112  13.908  1.6518 -1.6577 -1.0821
  617MPD2    N1 9202   1.680   3.350  14.154  0.1940 -0.1055 -0.7175
  617MPD2    H7 9203   1.716   3.444  14.148 -3.6513  1.4224  0.6849
  618TMC3    C1 9204   1.891   3.281  14.206  0.6227  0.5510 -0.2368
  618TMC3    C2 9205   1.975   3.239  14.303 -0.5646 -0.2885  0.7177
  618TMC3    C3 9206   2.103   3.203  14.265 -0.1859  0.0508  0.0317
  618TMC3    C4 9207   1.932   3.290  14.077 -0.1800 -0.3137  0.3671
  618TMC3    C5 9208   2.060   3.263  14.046  0.0387 -0.1919  0.0634
  618TMC3    C6 9209   2.145   3.207  14.140 -0.0598  0.2494  0.3374
  618TMC3     C 9210   1.752   3.252  14.215 -0.7695  0.6313  0.6504
  618TMC3     O 9211   1.709   3.157  14.281  0.7608 -0.0646  0.3350
  618TMC3     H 9212   1.939   3.240  14.406  1.3829  1.3729  1.3930
  618TMC3    H1 9213   1.869   3.337  14.003  1.2521 -0.2407 -0.7937
  618TMC3    H2 9214   2.246   3.179  14.112 -0.7248  0.2278 -2.0048
  618TMC3    C7 9215   2.082   3.244  13.906 -0.3731 -0.3846  0.0096
  618TMC3    C8 9216   2.199   3.178  14.372  0.2045 -0.2400 -0.4170
  618TMC3    O1 9217   2.003   3.291  13.825  0.0545 -0.2094  0.2904
  618TMC3    O2 9218   2.200   3.247  14.473 -0.4098 -0.1582 -0.0038
  619MPD2     C 9219   2.680   4.457  13.074  0.3657 -0.6401  1.0554
  619MPD2    C1 9220   2.551   4.467  13.022  0.0193 -0.5572  0.0615
  619MPD2    C2 9221   2.448   4.406  13.089 -0.0347 -0.2883  0.1654
  619MPD2    C3 9222   2.461   4.336  13.213 -0.8754 -0.3122 -1.0013
  619MPD2    C4 9223   2.591   4.311  13.251 -0.1822  0.1080 -0.2134
  619MPD2    C5 9224   2.692   4.385  13.191  0.2008  0.3085 -0.2811
  619MPD2     H 9225   2.346   4.431  13.062 -0.2956  0.8107  2.1492
  619MPD2    H1 9226   2.617   4.249  13.336 -1.0050  0.1705  0.0800
  619MPD2    H2 9227   2.769   4.508  13.041 -0.6269  0.4132  0.0000
  619MPD2    H3 9228   2.786   4.394  13.244 -0.3423 -1.8363  1.0156
  619MPD2     N 9229   2.351   4.285  13.290 -0.1431 -0.3439  0.2034
  619MPD2    H5 9230   2.357   4.258  13.388 -0.3795 -1.9916 -0.2388
  619MPD2    N1 9231   2.524   4.552  12.914  0.2715  0.2859 -0.3697
  619MPD2    H7 9232   2.430   4.543  12.878  0.7661  1.3279 -1.9110
  620TMC3    C1 9233   2.532   0.028  12.823 -0.0972  0.2798  0.6795
  620TMC3    C2 9234   2.397   0.039  12.835  0.4526 -0.1481 -0.1555
  620TMC3    C3 9235   2.335   0.154  12.819  0.2036  0.7496  0.4680
  620TMC3    C4 9236   2.608   0.143  12.808 -0.2803 -0.1061  0.6335
  620TMC3    C5 9237   2.543   0.266  12.790 -0.5259  0.8949  0.1813
  620TMC3    C6 9238   2.406   0.271  12.794 -0.1290 -0.6950 -0.5823
  620TMC3     C 9239   2.605   4.654  12.875 -0.1854  0.4319 -0.5994
  620TMC3     O 9240   2.717   4.680  12.911 -0.2322  0.6127  0.4154
  620TMC3     H 9241   2.344   4.690  12.870 -0.2490  0.1597 -0.4474
  620TMC3    H1 9242   2.712   0.142  12.776 -0.5600 -0.4174 -0.2620
  620TMC3    H2 9243   2.358   0.368  12.795 -1.1497 -1.1913 -1.7876
  620TMC3    C7 9244   2.593   0.365  12.873 -1.2547  0.3075  0.6701
  620TMC3    C8 9245   2.204   0.180  12.894  0.0413  0.2041 -0.3751
  620TMC3    O1 9246   2.545   0.479  12.860  0.0216  0.9367  0.2535
  620TMC3    O2 9247   2.138   0.275  12.856  0.2976  0.1571 -0.2873
  621MPD2     C 9248   3.284   0.184   9.447  0.7065 -0.0120  0.5838
  621MPD2    C1 9249   3.358   0.192   9.562 -0.0421 -1.0156  0.1045
  621MPD2    C2 9250   3.421   0.311   9.589 -0.1263 -0.1836  0.3824
  621MPD2    C3 9251   3.412   0.418   9.499 -0.1517  0.0327  0.2240
  621MPD2    C4 9252   3.338   0.404   9.389  0.0719 -0.0853 -0.3734
  621MPD2    C5 9253   3.273   0.290   9.355  0.2636 -0.1435 -0.6452
  621MPD2     H 9254   3.473   0.324   9.683  0.1915 -0.7924  0.2915
  621MPD2    H1 9255   3.324   0.489   9.324 -1.0412  0.7252  0.9189
  621MPD2    H2 9256   3.212   0.105   9.431  2.0557 -1.8466  3.4784
  621MPD2    H3 9257   3.205   0.283   9.271 -1.7418  0.6124  0.9101
  621MPD2     N 9258   3.478   0.531   9.539 -0.0912  0.0487  0.5329
  621MPD2    H5 9259   3.529   0.521   9.626  1.1075 -1.6344 -0.3841
  621MPD2    N1 9260   3.367   0.091   9.657 -0.2173 -0.1725 -0.3247
  621MPD2    H7 9261   3.410   0.121   9.744 -0.5529 -1.2333  0.2068
  622TMC3    C1 9262   3.323   4.626   9.768 -0.3988 -0.3403  0.7425
  622TMC3    C2 9263   3.352   4.684   9.890 -0.5721  0.5689 -0.3240
  622TMC3    C3 9264   3.320   4.614  10.006 -0.5352 -0.3404 -1.0918
  622TMC3    C4 9265   3.255   4.504   9.757  0.0218 -0.1381  0.7116
  622TMC3    C5 9266   3.218   4.446   9.878  0.3433 -0.8671 -0.2313
  622TMC3    C6 9267   3.258   4.498  10.003 -0.2146 -0.1171  0.1117
  622TMC3     C 9268   3.343   4.693   9.645 -1.0862 -0.1361 -0.5186
  622TMC3     O 9269   3.323   4.633   9.539 -0.1743  0.1141 -0.3591
  622TMC3     H 9270   3.385   0.049   9.897  2.3742 -0.2838 -1.8848
  622TMC3    H1 9271   3.233   4.457   9.662  0.7876  1.7795 -0.4063
  622TMC3    H2 9272   3.222   4.455  10.096 -0.0975 -1.2181 -0.3565
  622TMC3    C7 9273   3.123   4.337   9.887  0.0824  0.4656 -0.5832
  622TMC3    C8 9274   3.293   4.695  10.119 -0.2057  0.0580  0.3455
  622TMC3    O1 9275   3.128   4.272   9.988  0.1547  0.6697  0.4192
  622TMC3    O2 9276   3.267   0.077  10.098 -0.3553  0.1410  0.2218
  623MPD2     C 9277   1.673   0.282  15.732  0.3008 -0.9907  0.9862
  623MPD2    C1 9278   1.651   0.360  15.843 -0.4890  0.0358  0.1594
  623MPD2    C2 9279   1.755   0.385  15.932 -0.2874 -0.5442  0.2547
  623MPD2    C3 9280   1.879   0.330  15.907  0.0522 -0.5000 -0.3876
  623MPD2    C4 9281   1.904   0.251  15.797  0.3423 -0.2029  0.1693
  623MPD2    C5 9282   1.802   0.232  15.704 -0.0075  0.1983  0.0656
  623MPD2     H 9283   1.738   0.429  16.030 -1.1061 -0.0834 -0.0876
  623MPD2    H1 9284   1.997   0.199  15.776  0.4772 -0.0129  0.2958
  623MPD2    H2 9285   1.585   0.255  15.675 -0.1767  1.9570  0.3583
  623MPD2    H3 9286   1.819   0.173  15.615  2.3179  3.1734 -1.4676
  623MPD2     N 9287   1.987   0.369  15.993 -0.3682 -0.3287  0.1247
  623MPD2    H5 9288   1.968   0.439  16.063 -0.3393  0.4837 -0.6909
  623MPD2    N1 9289   1.520   0.408  15.867  0.1928 -0.2447 -0.9468
  623MPD2    H7 9290   1.462   0.409  15.784 -2.7676  2.1787  1.2003
  624TMC3    C1 9291   2.281   0.390  16.288 -0.0576  0.0609 -0.0177
  624TMC3    C2 9292   2.203   0.483  16.343  0.0171 -0.4134 -0.0624
  624TMC3    C3 9293   2.136   0.560  16.255 -0.1153 -0.2063 -0.1650
  624TMC3    C4 9294   2.289   0.353  16.160  0.3593  0.7951  0.0872
  624TMC3    C5 9295   2.203   0.419  16.076  0.2673 -0.9202 -0.4342
  624TMC3    C6 9296   2.142   0.534  16.118  0.0983  0.0062 -0.5474
  624TMC3     C 9297   2.381   0.351  16.385  0.4082 -0.1758 -0.4762
  624TMC3     O 9298   2.353   0.361  16.502 -0.1971  1.1420 -0.0542
  624TMC3     H 9299   2.222   0.520  16.443  2.0349  1.3116 -1.0845
  624TMC3    H1 9300   2.343   0.265  16.127 -3.2330 -1.4616  0.1711
  624TMC3    H2 9301   2.094   0.594  16.041 -1.5515 -0.5235  0.0679
  624TMC3    C7 9302   2.122   0.330  15.994 -1.1000  0.7587  0.9103
  624TMC3    C8 9303   2.002   0.589  16.281  0.2549 -0.0363  0.2054
  624TMC3    O1 9304   2.174   0.245  15.921 -0.2724  0.1857 -0.4588
  624TMC3    O2 9305   1.921   0.557  16.193  0.3485 -0.4301 -0.3653
  625MPD2     C 9306   2.251   1.779   1.254 -0.3784 -0.1234 -0.3296
  625MPD2    C1 9307   2.214   1.807   1.123 -0.0553 -0.1661  0.1728
  625MPD2    C2 9308   2.291   1.750   1.026  0.3420 -0.4953  0.3005
  625MPD2    C3 9309   2.406   1.677   1.046 -0.3470  0.1868  0.1459
  625MPD2    C4 9310   2.445   1.654   1.179  0.3704 -0.5470 -0.1304
  625MPD2    C5 9311   2.365   1.696   1.278  0.5166  1.1974  0.7125
  625MPD2     H 9312   2.260   1.769   0.923  2.7648  0.1821 -0.3019
  625MPD2    H1 9313   2.523   1.584   1.209  0.9358 -0.6710 -1.8739
  625MPD2    H2 9314   2.195   1.816   1.339 -1.3837 -0.4771 -0.8367
  625MPD2    H3 9315   2.392   1.662   1.378  0.7115  0.2289  0.3267
  625MPD2     N 9316   2.478   1.622   0.936 -0.1725  0.7353  0.7376
  625MPD2    H5 9317   2.432   1.636   0.846  1.0637  0.1942  0.0327
  625MPD2    N1 9318   2.102   1.885   1.086  0.1521  0.6977 -0.3334
  625MPD2    H7 9319   2.094   1.911   0.988 -1.9870 -0.4314 -0.4641
  626TMC3    C1 9320   1.911   2.022   1.089  0.0137  0.3494  1.3170
  626TMC3    C2 9321   1.883   1.986   0.963 -0.3523  0.0383 -0.2279
  626TMC3    C3 9322   1.806   2.064   0.886  0.0578 -0.7783  1.0470
  626TMC3    C4 9323   1.853   2.132   1.149  0.3155 -0.0596  0.6319
  626TMC3    C5 9324   1.788   2.213   1.064 -0.2935 -0.2052 -0.2722
  626TMC3    C6 9325   1.763   2.182   0.934  0.4075 -0.0363 -0.7820
  626TMC3     C 9326   2.020   1.960   1.169 -0.3373 -0.2882  0.0202
  626TMC3     O 9327   2.023   1.969   1.293  0.2399  0.1567  0.0927
  626TMC3     H 9328   1.920   1.889   0.933  0.4096  0.7857 -1.7123
  626TMC3    H1 9329   1.879   2.152   1.253 -0.2414  0.0966  0.7443
  626TMC3    H2 9330   1.727   2.257   0.864 -2.3233  1.0294  1.8135
  626TMC3    C7 9331   1.693   2.299   1.133  0.2890  0.2264  0.3076
  626TMC3    C8 9332   1.768   2.037   0.746  0.4117  0.2088  0.2484
  626TMC3    O1 9333   1.719   2.330   1.247  0.0116 -0.0439  0.3476
  626TMC3    O2 9334   1.702   2.120   0.683 -0.1721  0.4184  0.1749
  627MPD2     C 9335   0.387   1.814  14.291  0.4983  0.3468 -0.4379
  627MPD2    C1 9336   0.438   1.738  14.388 -0.0572  0.3292 -0.2547
  627MPD2    C2 9337   0.382   1.614  14.420 -0.2407  0.0351 -0.8509
  627MPD2    C3 9338   0.269   1.575  14.355  0.5643 -0.5538 -0.1471
  627MPD2    C4 9339   0.211   1.652  14.256  0.5265 -0.5281 -0.3618
  627MPD2    C5 9340   0.267   1.775  14.234  0.0267 -0.0290  0.1975
  627MPD2     H 9341   0.432   1.549  14.491 -0.7619 -0.0727 -0.5875
  627MPD2    H1 9342   0.116   1.621  14.213 -0.0487  0.8077 -0.0667
  627MPD2    H2 9343   0.432   1.909  14.261  1.8546 -0.3727 -0.6807
  627MPD2    H3 9344   0.232   1.826  14.145  2.6591  0.0384 -0.8250
  627MPD2     N 9345   0.215   1.459  14.409  0.9446 -0.6687  0.1493
  627MPD2    H5 9346   0.262   1.419  14.490 -0.0685 -0.2780  0.9231
  627MPD2    N1 9347   0.555   1.771  14.464  0.4506 -0.4567 -0.4627
  627MPD2    H7 9348   0.588   1.698  14.527  2.3328 -0.9673 -2.0436
  628TMC3    C1 9349   0.760   1.896  14.498 -0.8330 -0.2611 -0.3367
  628TMC3    C2 9350   0.830   1.778  14.524 -0.7644  1.1887  0.0434
  628TMC3    C3 9351   0.971   1.788  14.546 -0.7451  0.3078 -1.4476
  628TMC3    C4 9352   0.827   2.017  14.467  0.2149 -0.5961 -0.6342
  628TMC3    C5 9353   0.961   2.019  14.507 -0.0885 -0.5274  0.2828
  628TMC3    C6 9354   1.029   1.911  14.551  0.1921 -0.6256  0.3285
  628TMC3     C 9355   0.620   1.892  14.461  0.5705 -0.6076 -1.0779
  628TMC3     O 9356   0.570   1.990  14.419  0.1079  0.1712  0.0339
  628TMC3     H 9357   0.780   1.682  14.524  2.4308 -0.4820 -1.8576
  628TMC3    H1 9358   0.775   2.107  14.437 -0.4293 -0.0626  2.0655
  628TMC3    H2 9359   1.137   1.914  14.567  0.7730  1.1983 -3.9702
  628TMC3    C7 9360   1.001   2.143  14.555  0.2460  0.6221  0.9058
  628TMC3    C8 9361   1.058   1.670  14.540  0.2513  0.1750  0.1605
  628TMC3    O1 9362   1.062   2.149  14.663  0.2206 -0.0576  0.5012
  628TMC3    O2 9363   1.022   1.577  14.468  0.2886 -0.4266 -0.0429
  629MPD2     C 9364   3.688   1.065  15.941 -0.2403  0.0238 -0.2916
  629MPD2    C1 9365   3.749   0.997  16.043  0.3486  0.5037  0.0771
  629MPD2    C2 9366   3.704   0.866  16.072  0.2554 -0.5968  0.3323
  629MPD2    C3 9367   3.592   0.819  16.007  0.1782  0.5483  0.0300
  629MPD2    C4 9368   3.530   0.896  15.906 -0.0982 -0.2181 -0.6716
  629MPD2    C5 9369   3.579   1.016  15.870 -0.8518  0.6936  0.2960
  629MPD2     H 9370   3.753   0.802  16.144  1.0741 -1.9016 -1.3594
  629MPD2    H1 9371   3.437   0.861  15.863 -0.2657 -0.4297 -0.1447
  629MPD2    H2 9372   3.727   1.164  15.922  1.3429 -0.2458  1.5857
  629MPD2    H3 9373   3.517   1.076  15.804 -1.5786  1.2467  1.4798
  629MPD2     N 9374   3.549   0.693  16.049 -0.6279 -0.1699 -0.4014
  629MPD2    H5 9375   3.599   0.656  16.129  0.5664  2.2823 -0.0139
  629MPD2    N1 9376   3.862   1.058  16.109  0.7870 -0.1930 -0.3659
  629MPD2    H7 9377   3.914   1.129  16.059  1.0629  1.1224  1.8302
  630TMC3    C1 9378   4.065   1.026  16.243 -0.2187  0.3676  0.0752
  630TMC3    C2 9379   4.147   1.029  16.136 -0.4805 -0.3044  0.5886
  630TMC3    C3 9380   4.276   0.994  16.156 -0.2352  0.2248  0.0395
  630TMC3    C4 9381   4.106   0.969  16.362  0.4491 -0.5086  0.2303
  630TMC3    C5 9382   4.235   0.926  16.367  0.4030 -0.2493  0.2303
  630TMC3    C6 9383   4.329   0.949  16.270 -0.3185  0.1381  0.3261
  630TMC3     C 9384   3.922   1.007  16.219  0.2949  0.0676  0.0855
  630TMC3     O 9385   3.869   0.942  16.306  0.0554  0.1502  0.0904
  630TMC3     H 9386   4.112   1.072  16.042 -0.5615 -1.1724  0.2261
  630TMC3    H1 9387   4.043   0.976  16.450  0.3214 -0.3847  0.1275
  630TMC3    H2 9388   4.431   0.916  16.288  0.9105  2.6686 -2.0520
  630TMC3    C7 9389   4.274   0.852  16.488  0.1714 -0.5345  0.1311
  630TMC3    C8 9390   4.355   1.025  16.047 -0.2889 -1.0385  0.2457
  630TMC3    O1 9391   4.200   0.766  16.537  0.5271 -0.0783 -0.6415
  630TMC3    O2 9392   4.316   1.005  15.931  0.0541 -0.5109 -0.4575
  631MPD2     C 9393   2.202   0.053  14.835 -0.5244  0.6134 -0.8709
  631MPD2    C1 9394   2.189   0.191  14.886  0.5095  0.1350 -0.4489
  631MPD2    C2 9395   2.301   0.241  14.947  0.6345 -0.0701  0.5614
  631MPD2    C3 9396   2.421   0.180  14.948  0.1515 -0.3210 -0.3681
  631MPD2    C4 9397   2.432   0.050  14.896  0.0670  0.2382  0.2948
  631MPD2    C5 9398   2.318   4.725  14.842 -0.0222  0.0454 -0.2866
  631MPD2     H 9399   2.298   0.345  14.977  2.9406  0.4025 -0.8860
  631MPD2    H1 9400   2.530   0.005  14.895 -0.0710 -0.0642  0.4700
  631MPD2    H2 9401   2.115   0.009  14.786 -2.3665  2.1147  1.0513
  631MPD2    H3 9402   2.324   4.623  14.805 -0.3603  0.1252 -0.5573
  631MPD2     N 9403   2.534   0.241  15.009 -0.1823  0.5392  0.1064
  631MPD2    H5 9404   2.527   0.342  15.019 -1.9406  0.1806  2.2954
  631MPD2    N1 9405   2.061   0.264  14.874  0.6695  0.3455  0.3381
  631MPD2    H7 9406   1.981   0.211  14.840  0.9637  0.7295 -0.9668
  632TMC3    C1 9407   1.917   0.432  14.844 -0.6522 -0.0158  0.0446
  632TMC3    C2 9408   1.863   0.530  14.916 -0.0719  0.2267 -0.6887
  632TMC3    C3 9409   1.736   0.564  14.882 -0.2975 -0.4235 -0.5796
  632TMC3    C4 9410   1.862   0.373  14.734  0.7061 -0.2862  0.5472
  632TMC3    C5 9411   1.751   0.430  14.681  0.0699  0.3725  0.7400
  632TMC3    C6 9412   1.684   0.531  14.756 -0.5424  0.4799  0.0794
  632TMC3     C 9413   2.049   0.400  14.892  0.5300 -0.8929 -1.1533
  632TMC3     O 9414   2.119   0.489  14.941  0.1368 -0.0330  0.4971
  632TMC3     H 9415   1.909   0.553  15.011  0.5701 -1.6173 -0.5475
  632TMC3    H1 9416   1.927   0.312  14.672  1.2699 -1.0425  1.8737
  632TMC3    H2 9417   1.594   0.578  14.718 -0.3259  1.1889  0.4412
  632TMC3    C7 9418   1.770   0.473  14.541 -0.2890  0.2969 -0.4159
  632TMC3    C8 9419   1.665   0.666  14.950  0.2039 -0.0878 -1.3621
  632TMC3    O1 9420   1.859   0.427  14.470 -0.5097 -0.0675  0.2552
  632TMC3    O2 9421   1.568   0.710  14.892 -0.5660  0.0307 -0.2534
  633MPD2     C 9422   1.018   3.571  16.658 -0.1260  0.0566  1.3136
  633MPD2    C1 9423   1.118   3.480  16.628 -0.5251  0.0084 -0.1498
  633MPD2    C2 9424   1.087   3.378  16.544 -0.4089  0.0269 -1.1216
  633MPD2    C3 9425   0.956   3.344  16.505  0.6060 -0.4110 -0.0276
  633MPD2    C4 9426   0.855   3.435  16.542 -0.1523  0.4176 -0.0229
  633MPD2    C5 9427   0.889   3.551  16.606 -0.3256 -0.2374  0.3074
  633MPD2     H 9428   1.165   3.309  16.514  1.9344  1.7161  1.1682
  633MPD2    H1 9429   0.757   3.415  16.501  0.8648  0.7450 -2.5844
  633MPD2    H2 9430   1.036   3.661  16.715 -0.0424  0.0548  1.2898
  633MPD2    H3 9431   0.814   3.624  16.631 -0.7884 -0.8898  0.8199
  633MPD2     N 9432   0.918   3.234  16.428 -0.1996 -0.3268  0.0662
  633MPD2    H5 9433   0.818   3.218  16.422 -0.0761 -0.9577 -0.3062
  633MPD2    N1 9434   1.250   3.500  16.663 -0.1972 -0.0419 -0.2787
  633MPD2    H7 9435   1.319   3.445  16.614 -0.6915 -1.1646  0.2998
  634TMC3    C1 9436   1.435   3.596  16.793  0.2385  0.3488  0.2551
  634TMC3    C2 9437   1.505   3.484  16.760  0.4368  0.3067  0.2552
  634TMC3    C3 9438   1.640   3.502  16.733 -0.0517  0.2706 -0.0682
  634TMC3    C4 9439   1.489   3.718  16.795  0.4836 -0.4271 -0.8016
  634TMC3    C5 9440   1.624   3.736  16.772 -0.2206 -0.1336  0.5902
  634TMC3    C6 9441   1.701   3.625  16.745  0.0304  0.6733  0.3775
  634TMC3     C 9442   1.292   3.589  16.763 -0.1885  0.0251  0.0942
  634TMC3     O 9443   1.230   3.659  16.844 -0.1883 -0.3736  0.3665
  634TMC3     H 9444   1.454   3.388  16.753 -0.0723  0.7333 -2.0879
  634TMC3    H1 9445   1.422   3.802  16.786  0.4226 -0.2015  1.9303
  634TMC3    H2 9446   1.809   3.634  16.746 -0.0862  2.1539 -0.5927
  634TMC3    C7 9447   1.656   3.853  16.693 -0.2025  0.2208  0.4438
  634TMC3    C8 9448   1.698   3.410  16.637  0.4392  0.7788  0.0570
  634TMC3    O1 9449   1.734   3.831  16.599  0.2466 -0.1303  0.5947
  634TMC3    O2 9450   1.646   3.299  16.620 -0.0550 -0.3330  0.2712
  635TMC3    C1 9451   2.067   0.068  17.400 -0.6280 -0.2718 -0.5912
  635TMC3    C2 9452   2.177   0.034  17.334  0.4576  0.3282 -0.9702
  635TMC3    C3 9453   2.191   4.641  17.296  1.0058  0.4087  0.0911
  635TMC3    C4 9454   1.957   4.726  17.407  0.8155 -0.1382 -0.4885
  635TMC3    C5 9455   1.969   4.602  17.364  0.0602 -0.3102  0.3087
  635TMC3    C6 9456   2.091   4.554  17.313  0.0524 -0.0645 -0.0254
  635TMC3     C 9457   2.064   0.191  17.476  0.5408  0.4074 -0.0220
  635TMC3     O 9458   1.963   0.261  17.486  0.0387  0.0100 -0.3065
  635TMC3     H 9459   2.250   0.112  17.319  0.9792 -0.1514 -0.9092
  635TMC3    H1 9460   1.868   0.021  17.459  1.1261 -2.2906  1.4294
  635TMC3    H2 9461   2.105   4.461  17.258  2.3607 -0.9813  2.1003
  635TMC3    C7 9462   1.863   4.505  17.399 -0.3948 -0.2191 -0.1578
  635TMC3    C8 9463   2.308   4.609  17.219 -0.3159 -0.2110 -0.4629
  635TMC3    O1 9464   1.777   4.545  17.477 -0.2722 -0.2724  0.2166
  635TMC3    O2 9465   2.369   4.699  17.167  0.0661  0.9445  0.1071
  636MPD2     C 9466   3.292   2.963  16.357 -0.3559  0.7018  0.0078
  636MPD2    C1 9467   3.307   3.074  16.429  0.2519  0.5093  0.3505
  636MPD2    C2 9468   3.332   3.062  16.565  0.7407 -0.2614  0.6555
  636MPD2    C3 9469   3.355   2.942  16.624  0.2771  0.0732  0.5011
  636MPD2    C4 9470   3.342   2.827  16.546 -0.0022 -0.1399  0.8602
  636MPD2    C5 9471   3.312   2.840  16.410  0.3470  0.0729  0.3436
  636MPD2     H 9472   3.356   3.149  16.624  0.5964  2.5120 -3.3838
  636MPD2    H1 9473   3.339   2.724  16.580 -1.2156 -0.6945 -0.9035
  636MPD2    H2 9474   3.258   2.967  16.254 -0.0657 -0.4115 -0.1394
  636MPD2    H3 9475   3.297   2.756  16.344  1.1446  0.3064 -0.1256
  636MPD2     N 9476   3.420   2.935  16.749  0.4164  0.1097 -0.3251
  636MPD2    H5 9477   3.421   3.020  16.804  1.0134  0.6992 -1.2494
  636MPD2    N1 9478   3.286   3.198  16.370 -0.6428  0.0108 -0.1868
  636MPD2    H7 9479   3.271   3.277  16.431 -0.2079  1.6421 -2.1709
  637TMC3    C1 9480   3.549   2.858  16.922  0.6806 -0.3191  0.5866
  637TMC3    C2 9481   3.505   2.955  17.007  0.4509  0.1188  0.5958
  637TMC3    C3 9482   3.602   3.003  17.090  0.4592  0.5116  0.4052
  637TMC3    C4 9483   3.673   2.802  16.923 -0.4264 -0.6633 -0.4416
  637TMC3    C5 9484   3.773   2.871  16.992  0.0080 -0.5224  0.1364
  637TMC3    C6 9485   3.732   2.951  17.096  0.4464 -0.5153  0.3118
  637TMC3     C 9486   3.472   2.822  16.800 -0.2049 -0.2020  1.0335
  637TMC3     O 9487   3.485   2.709  16.752 -0.7981 -0.0723  0.1389
  637TMC3     H 9488   3.405   2.997  17.015 -0.2782 -1.4464 -0.4818
  637TMC3    H1 9489   3.706   2.734  16.845  1.5239  0.8695 -0.9604
  637TMC3    H2 9490   3.809   2.991  17.161 -0.7598  2.2289  0.0442
  637TMC3    C7 9491   3.862   2.949  16.905  0.6737 -0.4111 -0.6578
  637TMC3    C8 9492   3.588   3.130  17.149 -0.2763 -0.3178 -0.8158
  637TMC3    O1 9493   3.901   3.061  16.941  0.1060  0.2397  0.5094
  637TMC3    O2 9494   3.485   3.162  17.205 -0.2111  0.3335 -0.6733
  638MPD2     C 9495   2.685   2.273  15.046 -0.6261 -0.2776 -0.2583
  638MPD2    C1 9496   2.668   2.159  14.968 -0.4016 -0.1171  0.4116
  638MPD2    C2 9497   2.609   2.052  15.033  0.3067  0.0273 -0.4351
  638MPD2    C3 9498   2.594   2.040  15.168 -1.0226 -0.0418 -0.9106
  638MPD2    C4 9499   2.623   2.154  15.243 -0.7457 -0.3097  0.1321
  638MPD2    C5 9500   2.653   2.271  15.182 -0.4702 -0.4275  0.2840
  638MPD2     H 9501   2.584   1.961  14.980  0.4693  0.8223 -1.8576
  638MPD2    H1 9502   2.612   2.152  15.351  1.1704  1.7468  0.3693
  638MPD2    H2 9503   2.714   2.370  15.006 -1.4275 -1.4250 -3.6338
  638MPD2    H3 9504   2.671   2.357  15.245 -0.1620  0.9259 -1.6538
  638MPD2     N 9505   2.569   1.912  15.219  0.3059 -0.2447 -0.1906
  638MPD2    H5 9506   2.561   1.840  15.147 -1.3674 -0.6395  0.3869
  638MPD2    N1 9507   2.718   2.159  14.839 -0.1850  0.3437  0.1856
  638MPD2    H7 9508   2.771   2.238  14.805 -1.9429  3.1755  4.0208
  639TMC3    C1 9509   2.639   1.725  15.325 -0.7987  0.5883  0.3103
  639TMC3    C2 9510   2.585   1.664  15.214  0.3663  0.8494 -0.5831
  639TMC3    C3 9511   2.643   1.554  15.157  0.6400  0.1461 -0.7072
  639TMC3    C4 9512   2.767   1.695  15.369  0.3765  0.0494 -0.3242
  639TMC3    C5 9513   2.834   1.597  15.292 -0.3772 -0.5688  0.7523
  639TMC3    C6 9514   2.772   1.520  15.193 -0.1075 -0.2472 -0.3024
  639TMC3     C 9515   2.601   1.865  15.344  0.6891 -0.8192 -0.4660
  639TMC3     O 9516   2.637   1.927  15.441 -0.3804  0.4997 -0.0758
  639TMC3     H 9517   2.483   1.690  15.189 -0.3876  0.4042  2.0178
  639TMC3    H1 9518   2.806   1.766  15.441 -1.9412  1.7302 -0.7484
  639TMC3    H2 9519   2.821   1.438  15.141 -0.1502 -0.1880 -0.4368
  639TMC3    C7 9520   2.979   1.589  15.313 -0.2242 -0.1914 -0.1557
  639TMC3    C8 9521   2.580   1.482  15.051  0.4894  0.8278  0.8129
  639TMC3    O1 9522   3.028   1.606  15.425  0.1444  0.0278 -0.0450
  639TMC3    O2 9523   2.648   1.428  14.968  0.5911  0.0444  0.9123
  640MPD2     C 9524   3.468   1.641  10.104  0.3066  0.4703 -0.7222
  640MPD2    C1 9525   3.453   1.693   9.979  0.8183  0.2458 -0.0936
  640MPD2    C2 9526   3.406   1.825   9.966  0.3639 -0.5398  0.0155
  640MPD2    C3 9527   3.390   1.898  10.080  0.2803  0.4806  0.2313
  640MPD2    C4 9528   3.421   1.848  10.201 -0.4801  0.3459  0.3779
  640MPD2    C5 9529   3.452   1.717  10.221  0.0042  0.1750  0.3878
  640MPD2     H 9530   3.379   1.874   9.874  0.5391 -1.9240 -0.7712
  640MPD2    H1 9531   3.405   1.915  10.285  0.1700  2.5532 -1.2664
  640MPD2    H2 9532   3.514   1.545  10.123 -0.7810 -0.1877 -1.4310
  640MPD2    H3 9533   3.475   1.686  10.322 -0.3305  0.1048  0.4409
  640MPD2     N 9534   3.352   2.033  10.075  0.6450 -0.2078 -0.4283
  640MPD2    H5 9535   3.333   2.082  10.163  0.5042 -2.5127  0.8276
  640MPD2    N1 9536   3.476   1.606   9.868 -0.1570 -0.1579 -0.0442
  640MPD2    H7 9537   3.513   1.515   9.893  3.1902  1.6299  1.5186
  641TMC3    C1 9538   3.529   1.539   9.652 -0.1731  0.5767  0.1966
  641TMC3    C2 9539   3.646   1.483   9.701  0.1189 -0.2054  0.0606
  641TMC3    C3 9540   3.710   1.402   9.614  0.0462 -0.0194  0.2348
  641TMC3    C4 9541   3.482   1.528   9.524  1.0589  0.0248 -0.4653
  641TMC3    C5 9542   3.558   1.453   9.439 -0.2533  0.1250  0.9379
  641TMC3    C6 9543   3.673   1.390   9.483  0.0436 -0.2867  0.0446
  641TMC3     C 9544   3.478   1.645   9.734 -0.5281 -1.1412 -0.2268
  641TMC3     O 9545   3.420   1.732   9.670  0.1997  0.0650  0.1539
  641TMC3     H 9546   3.690   1.501   9.799 -1.2668 -1.8481  0.9777
  641TMC3    H1 9547   3.393   1.583   9.497 -0.9467 -2.7815  0.4483
  641TMC3    H2 9548   3.733   1.330   9.414 -1.2748  0.8845 -2.1151
  641TMC3    C7 9549   3.505   1.417   9.307  0.2625  0.1232  1.1354
  641TMC3    C8 9550   3.838   1.345   9.657  0.0984 -0.2620 -0.1893
  641TMC3    O1 9551   3.562   1.330   9.243  0.6601  0.4471  0.0103
  641TMC3    O2 9552   3.865   1.253   9.585 -0.4331  0.8940  0.5419
  642TMC3    C1 9553   4.680   2.103  12.723 -0.0293 -0.4338  0.5350
  642TMC3    C2 9554   0.075   2.128  12.696 -0.2726 -0.1405 -0.2520
  642TMC3    C3 9555   0.129   2.069  12.587 -0.0875 -0.1458 -0.1454
  642TMC3    C4 9556   4.603   2.018  12.644 -0.6510 -0.6751  0.1096
  642TMC3    C5 9557   4.669   1.951  12.540  0.3961 -0.0905  0.2645
  642TMC3    C6 9558   0.059   1.976  12.512 -0.0092  0.1607  0.1987
  642TMC3     C 9559   4.620   2.163  12.842 -0.2469  0.1352 -0.1271
  642TMC3     O 9560   4.688   2.241  12.908  0.1946  0.6971 -0.3348
  642TMC3     H 9561   0.128   2.179  12.775  0.6789 -2.1944  0.4264
  642TMC3    H1 9562   4.495   2.012  12.653 -0.8136  0.7433 -0.8872
  642TMC3    H2 9563   0.099   1.928  12.423  2.0130  0.5772  0.8725
  642TMC3    C7 9564   4.607   1.834  12.474 -0.1400  0.5776 -0.5157
  642TMC3    C8 9565   0.275   2.086  12.561  0.4126  0.3119 -0.0418
  642TMC3    O1 9566   4.667   1.781  12.379  0.4788  0.0201 -0.0348
  642TMC3    O2 9567   0.327   2.006  12.480  0.1192  0.3536 -0.0295
  643TMC3    C1 9568   3.633   1.270  17.616  0.1325 -0.0656 -0.0712
  643TMC3    C2 9569   3.522   1.320  17.562 -0.5382 -0.3740 -0.4333
  643TMC3    C3 9570   3.472   1.260  17.451  0.0507  0.1954  0.9974
  643TMC3    C4 9571   3.704   1.175  17.551  0.4380 -0.5008  0.7946
  643TMC3    C5 9572   3.660   1.119  17.432  0.0180 -0.3888  0.0795
  643TMC3    C6 9573   3.540   1.162  17.381 -0.1377 -1.1791 -0.6164
  643TMC3     C 9574   3.649   1.308   0.007 -0.1081  0.6554  0.7905
  643TMC3     O 9575   3.572   1.390   0.048 -0.0353 -0.4981 -0.5730
  643TMC3     H 9576   3.461   1.394  17.613 -0.3645 -1.2266  1.0224
  643TMC3    H1 9577   3.794   1.129  17.589  0.2763  0.1401  1.9228
  643TMC3    H2 9578   3.491   1.113  17.297 -2.1051 -1.3122  0.6030
  643TMC3    C7 9579   3.708   0.990  17.395  0.3141  0.4986  0.0249
  643TMC3    C8 9580   3.387   1.337  17.362  0.3561 -0.4858 -1.0760
  643TMC3    O1 9581   3.743   0.914  17.485  0.4493  0.2466  0.2812
  643TMC3    O2 9582   3.300   1.277  17.302 -0.3584 -0.4328  0.1071
  644MPD2     C 9583   3.743   2.209  10.010 -0.0038 -0.5450  0.2031
  644MPD2    C1 9584   3.759   2.183   9.879  1.4134 -0.1773 -0.4459
  644MPD2    C2 9585   3.736   2.287   9.795  0.0890  0.3944 -0.1635
  644MPD2    C3 9586   3.712   2.416   9.836 -0.0324  0.3463 -0.1487
  644MPD2    C4 9587   3.713   2.444   9.967  0.1695  0.0742 -0.1158
  644MPD2    C5 9588   3.721   2.336  10.059  0.5477  0.6307 -0.4562
  644MPD2     H 9589   3.745   2.272   9.688 -0.4003 -0.0935 -0.1317
  644MPD2    H1 9590   3.695   2.542  10.009 -3.0625 -0.1950 -0.8517
  644MPD2    H2 9591   3.764   2.128  10.079  1.4919 -1.1292 -0.9530
  644MPD2    H3 9592   3.716   2.357  10.165  1.0367 -2.4274  0.1742
  644MPD2     N 9593   3.701   2.517   9.735  0.4620  0.1696  0.5231
  644MPD2    H5 9594   3.701   2.486   9.638 -0.2330 -0.3333  0.6806
  644MPD2    N1 9595   3.771   2.047   9.838 -0.6605 -0.4692  0.5747
  644MPD2    H7 9596   3.755   1.974   9.908  1.4134 -0.1737  1.3550
  645TMC3    C1 9597   3.685   2.727   9.631 -0.0912 -0.4960  0.2817
  645TMC3    C2 9598   3.660   2.661   9.513  0.2908  0.2158 -0.0080
  645TMC3    C3 9599   3.623   2.729   9.400 -0.2435  0.5594 -0.2582
  645TMC3    C4 9600   3.671   2.864   9.638  0.3179 -0.2792  0.4269
  645TMC3    C5 9601   3.648   2.928   9.521 -0.5065  0.1594 -0.4523
  645TMC3    C6 9602   3.616   2.868   9.403 -0.3210  0.4543  0.8908
  645TMC3     C 9603   3.684   2.653   9.759 -0.3409  0.7364 -0.1136
  645TMC3     O 9604   3.681   2.713   9.863  0.1233 -0.9361 -0.0493
  645TMC3     H 9605   3.679   2.556   9.497 -0.2640  0.5775 -3.1273
  645TMC3    H1 9606   3.692   2.916   9.731 -1.0076  2.7051 -0.9362
  645TMC3    H2 9607   3.585   2.923   9.315  1.7711 -0.4478 -0.4022
  645TMC3    C7 9608   3.663   3.070   9.520 -0.1133 -0.0237  0.5069
  645TMC3    C8 9609   3.641   2.666   9.268 -0.1935 -0.3473 -0.3291
  645TMC3    O1 9610   3.614   3.123   9.420 -0.1081 -0.4665  0.3730
  645TMC3    O2 9611   3.714   2.567   9.253 -0.5731 -0.1926  0.3222
  646MPD2     C 9612   3.047   0.901  14.510 -0.1187 -0.1985 -0.7399
  646MPD2    C1 9613   2.968   0.813  14.578  0.3878  0.0300  0.9109
  646MPD2    C2 9614   2.831   0.813  14.563  0.0397  0.0727 -0.2831
  646MPD2    C3 9615   2.775   0.908  14.478 -0.7170  0.1408 -0.7325
  646MPD2    C4 9616   2.850   0.992  14.403 -0.6486  0.3676 -0.3172
  646MPD2    C5 9617   2.986   0.987  14.421  0.4658 -0.0886  0.8553
  646MPD2     H 9618   2.774   0.744  14.625 -0.3684 -0.9865 -1.8472
  646MPD2    H1 9619   2.802   1.061  14.335 -0.2946  0.8387 -0.0983
  646MPD2    H2 9620   3.154   0.911  14.526  0.1397 -1.3151 -1.7995
  646MPD2    H3 9621   3.043   1.059  14.363  0.2697 -0.6296 -0.0134
  646MPD2     N 9622   2.635   0.919  14.474  0.3186 -1.0594 -0.4500
  646MPD2    H5 9623   2.579   0.860  14.534 -1.4273 -0.8214 -1.8343
  646MPD2    N1 9624   3.040   0.732  14.668  0.2964 -0.5480  0.0521
  646MPD2    H7 9625   3.142   0.735  14.669  0.2536  1.3212 -0.6608
  647TMC3    C1 9626   3.084   0.546  14.803  0.3324  0.6532 -0.7187
  647TMC3    C2 9627   3.051   0.416  14.841 -0.5512  0.1211 -0.4820
  647TMC3    C3 9628   3.142   0.347  14.906  0.1754  1.1692  0.8969
  647TMC3    C4 9629   3.212   0.597  14.822  0.0059  0.0085  0.2546
  647TMC3    C5 9630   3.298   0.520  14.902 -0.3972  0.1097  0.4448
  647TMC3    C6 9631   3.262   0.400  14.942  0.1686 -0.0574 -0.3769
  647TMC3     C 9632   2.988   0.619  14.724 -1.0239 -0.5174 -0.3713
  647TMC3     O 9633   2.893   0.546  14.688  0.0792 -0.3275  0.9046
  647TMC3     H 9634   2.951   0.376  14.824 -0.4670 -0.3333  0.1072
  647TMC3    H1 9635   3.242   0.697  14.793 -0.2614  0.1030  0.3006
  647TMC3    H2 9636   3.339   0.337  14.986  1.0878  0.6553 -0.9741
  647TMC3    C7 9637   3.436   0.556  14.911 -0.0164 -0.1707 -0.3372
  647TMC3    C8 9638   3.107   0.217  14.957 -0.0096  0.4283 -0.0944
  647TMC3    O1 9639   3.501   0.497  14.995  0.4218  0.1959  0.4452
  647TMC3    O2 9640   3.003   0.169  14.911  0.5909 -0.3586  0.2316
  648TMC3    C1 9641   2.510   3.439  16.368  0.5819 -0.2556  0.1311
  648TMC3    C2 9642   2.544   3.307  16.358  0.2346  0.0734  0.7802
  648TMC3    C3 9643   2.552   3.253  16.230 -0.9544 -0.1095  0.0188
  648TMC3    C4 9644   2.473   3.514  16.259 -0.4459 -0.2701  1.2809
  648TMC3    C5 9645   2.476   3.451  16.136 -0.0812  0.5252 -0.2099
  648TMC3    C6 9646   2.514   3.319  16.116 -0.1903  0.0481  0.0395
  648TMC3     C 9647   2.521   3.498  16.501 -0.0614  0.1977  0.3635
  648TMC3     O 9648   2.550   3.616  16.503 -0.2029 -1.1439 -0.4473
  648TMC3     H 9649   2.566   3.253  16.449 -0.6699 -0.5944  0.6024
  648TMC3    H1 9650   2.448   3.617  16.280 -1.0858  0.0112 -0.8895
  648TMC3    H2 9651   2.487   3.274  16.021 -0.6902  1.7626 -0.6354
  648TMC3    C7 9652   2.464   3.533  16.016 -0.1491 -0.7377 -0.4719
  648TMC3    C8 9653   2.593   3.116  16.226  0.3097 -0.3638 -0.4598
  648TMC3    O1 9654   2.509   3.488  15.912  0.3420  0.3417 -0.0886
  648TMC3    O2 9655   2.585   3.054  16.333  0.6776  0.0673 -0.7368
  649TMC3    C1 9656   1.816   4.647  12.343  0.1978 -0.3760 -0.2177
  649TMC3    C2 9657   1.945   4.679  12.367 -0.3343  1.2408  0.5219
  649TMC3    C3 9658   1.997   4.649  12.493 -0.0498  0.0798 -0.4249
  649TMC3    C4 9659   1.731   4.587  12.435  0.0167 -0.5687 -0.5987
  649TMC3    C5 9660   1.793   4.547  12.551 -0.2774 -0.3934  0.0747
  649TMC3    C6 9661   1.920   4.581  12.581  0.3895 -0.1001  0.3069
  649TMC3     C 9662   1.753   4.658  12.209 -0.5509  0.3870  0.4066
  649TMC3     O 9663   1.633   4.683  12.204  0.9337  0.3345  0.2398
  649TMC3     H 9664   2.004   0.002  12.298 -0.9397  0.4002 -0.7256
  649TMC3    H1 9665   1.627   4.566  12.412  0.6160 -2.8758 -1.2426
  649TMC3    H2 9666   1.964   4.556  12.677  1.6453  1.7668  0.2160
  649TMC3    C7 9667   1.708   4.476  12.641 -0.4749  0.1052  0.2009
  649TMC3    C8 9668   2.140   4.640  12.507 -0.6018 -0.2988 -0.3891
  649TMC3    O1 9669   1.590   4.474  12.615  0.6291  0.5951  0.6208
  649TMC3    O2 9670   2.178   4.557  12.587  0.1689 -0.4424 -0.0737
  650TMC3    C1 9671   3.783   0.966  12.462  0.9548 -0.2888  0.3961
  650TMC3    C2 9672   3.700   1.041  12.547 -0.2510  0.3337 -0.2807
  650TMC3    C3 9673   3.677   1.169  12.519  0.1978  1.1784  0.4223
  650TMC3    C4 9674   3.839   1.018  12.351  0.1793 -0.6706 -1.0397
  650TMC3    C5 9675   3.804   1.148  12.315  0.4812 -0.2937  0.7208
  650TMC3    C6 9676   3.715   1.216  12.394  0.5285 -0.0712 -0.1470
  650TMC3     C 9677   3.836   0.837  12.512 -0.1486 -0.1025 -0.3671
  650TMC3     O 9678   3.777   0.781  12.605  0.1196 -0.8845  0.6089
  650TMC3     H 9679   3.694   1.016  12.652 -3.1743  1.0672 -0.2972
  650TMC3    H1 9680   3.903   0.959  12.287  2.2672 -0.8784  1.2661
  650TMC3    H2 9681   3.694   1.319  12.366  2.2776  0.0718 -0.9055
  650TMC3    C7 9682   3.872   1.229  12.220 -0.1783 -0.4468  0.8857
  650TMC3    C8 9683   3.684   1.263  12.628  0.6831 -0.2405  0.3288
  650TMC3    O1 9684   3.898   1.192  12.107  0.5299 -0.0782  0.1995
  650TMC3    O2 9685   3.738   1.366  12.590  0.2950 -0.0258 -0.4294
  651MPD2     C 9686   3.006   3.332  10.913  0.6626  0.2611  0.2347
  651MPD2    C1 9687   2.969   3.434  10.833  0.0472 -0.4786 -0.6165
  651MPD2    C2 9688   3.069   3.518  10.780 -0.1585  0.1527 -0.2681
  651MPD2    C3 9689   3.208   3.487  10.802 -0.0656  0.3101  0.2592
  651MPD2    C4 9690   3.244   3.388  10.881 -0.3612  0.1630  0.2075
  651MPD2    C5 9691   3.137   3.315  10.936  0.4505 -0.0689  0.0310
  651MPD2     H 9692   3.043   3.594  10.707 -0.0165  1.0602  0.6300
  651MPD2    H1 9693   3.348   3.358  10.887 -0.2117  0.4745 -0.8818
  651MPD2    H2 9694   2.944   3.260  10.964  2.3156 -1.3304  0.0168
  651MPD2    H3 9695   3.157   3.239  11.011 -1.2990 -1.5354 -1.0035
  651MPD2     N 9696   3.311   3.553  10.729  0.1819 -0.4989 -0.8594
  651MPD2    H5 9697   3.285   3.602  10.643 -0.7754  1.4129  0.5157
  651MPD2    N1 9698   2.832   3.457  10.798  0.2722  0.8612  0.4768
  651MPD2    H7 9699   2.804   3.546  10.758  0.1994  2.1027  3.2852
  652TMC3    C1 9700   3.726   3.742  10.622 -0.0215  0.3319  0.2241
  652TMC3    C2 9701   3.657   3.646  10.703  0.4812 -0.2250  0.5203
  652TMC3    C3 9702   3.520   3.644  10.681 -0.0321  0.4051 -0.6030
  652TMC3    C4 9703   3.661   3.826  10.532  0.0614 -0.7358 -0.1746
  652TMC3    C5 9704   3.530   3.816  10.512 -0.2529  0.5651 -0.0060
  652TMC3    C6 9705   3.456   3.724  10.583  0.4004 -0.5276 -0.7539
  652TMC3     C 9706   3.868   3.742  10.641 -0.4710 -0.2998 -0.1030
  652TMC3     O 9707   3.917   3.709  10.749  0.0520 -0.1071 -0.4017
  652TMC3     H 9708   3.696   3.582  10.782 -0.8307  0.0893  1.4243
  652TMC3    H1 9709   3.718   3.894  10.469  0.6161  0.6818  1.8873
  652TMC3    H2 9710   3.350   3.720  10.563  0.3560 -0.4122 -0.5400
  652TMC3    C7 9711   3.451   3.917  10.439 -0.6677  0.3624 -0.3012
  652TMC3    C8 9712   3.445   3.556  10.762 -0.2502 -0.0728  0.0114
  652TMC3    O1 9713   3.350   3.874  10.378  0.5814 -0.4149 -0.1407
  652TMC3    O2 9714   3.497   3.525  10.869  0.7918  0.1929 -0.2461
  653MPD2     C 9715   1.557   3.701  17.124 -0.5464 -0.0412 -0.5687
  653MPD2    C1 9716   1.424   3.723  17.162  0.1378 -0.7480 -0.6356
  653MPD2    C2 9717   1.335   3.617  17.181  0.1813  0.2154 -0.8363
  653MPD2    C3 9718   1.382   3.487  17.167  0.4187  0.1829 -0.1912
  653MPD2    C4 9719   1.516   3.468  17.144 -1.0154  0.3709 -0.4048
  653MPD2    C5 9720   1.603   3.572  17.120 -0.1055 -1.0399  0.2523
  653MPD2     H 9721   1.235   3.644  17.214  1.0314  1.3871  0.7713
  653MPD2    H1 9722   1.555   3.368  17.125 -1.4504  0.5830 -2.3918
  653MPD2    H2 9723   1.628   3.783  17.123  1.3272 -1.6594  0.2400
  653MPD2    H3 9724   1.706   3.557  17.092  1.3497  0.9960  4.4682
  653MPD2     N 9725   1.289   3.376  17.175 -0.1373  0.3300  0.4507
  653MPD2    H5 9726   1.191   3.401  17.175 -0.3173 -0.3711 -0.3887
  653MPD2    N1 9727   1.374   3.857  17.176 -0.6557  0.1033  0.2761
  653MPD2    H7 9728   1.287   3.867  17.226 -1.0587 -0.7894 -0.2517
  654TMC3    C1 9729   1.199   3.168  17.226  0.1387 -0.4233 -0.1196
  654TMC3    C2 9730   1.083   3.196  17.168 -0.5171  1.0895  0.1275
  654TMC3    C3 9731   0.974   3.121  17.195 -0.1218  0.0863  0.2400
  654TMC3    C4 9732   1.212   3.077  17.325  0.1659 -0.0825 -0.1440
  654TMC3    C5 9733   1.102   3.004  17.355 -0.5045  0.4482  0.1352
  654TMC3    C6 9734   0.979   3.028  17.294  0.2252  0.9198  0.8546
  654TMC3     C 9735   1.321   3.246  17.201 -0.0509 -0.6315 -0.0275
  654TMC3     O 9736   1.428   3.204  17.239 -0.0585 -0.5602 -0.5269
  654TMC3     H 9737   1.076   3.269  17.088 -0.1177  1.2335  0.2255
  654TMC3    H1 9738   1.304   3.058  17.379 -1.8705 -3.5381  2.1281
  654TMC3    H2 9739   0.899   2.960  17.321 -0.4629  1.6303  0.6009
  654TMC3    C7 9740   1.106   2.924  17.482  0.0543  0.5245  0.0616
  654TMC3    C8 9741   0.858   3.127  17.110  0.1953  0.2076  0.1844
  654TMC3    O1 9742   1.000   2.893  17.534  0.0559  0.3711 -0.0546
  654TMC3    O2 9743   0.775   3.037  17.132 -0.2805 -0.1961 -0.1402
  655MPD2     C 9744   2.965   3.374  15.853 -0.7784  0.8533 -0.3580
  655MPD2    C1 9745   2.911   3.458  15.755  0.3698 -0.1554  0.4464
  655MPD2    C2 9746   2.911   3.424  15.621  0.2775 -0.0094  0.3310
  655MPD2    C3 9747   2.955   3.296  15.583 -0.0865  0.1428  0.7340
  655MPD2    C4 9748   3.004   3.212  15.678 -0.0749  0.2196  0.0178
  655MPD2    C5 9749   3.007   3.249  15.810  0.3435 -0.8706  0.3938
  655MPD2     H 9750   2.894   3.505  15.551 -1.3102 -1.4208 -0.9035
  655MPD2    H1 9751   3.057   3.122  15.649  0.1846  0.1322  0.7534
  655MPD2    H2 9752   2.983   3.408  15.954 -1.6738  0.8014 -0.1821
  655MPD2    H3 9753   3.074   3.206  15.882  2.5019 -0.5170 -1.4015
  655MPD2     N 9754   2.958   3.257  15.450  0.6835 -0.2318 -0.2129
  655MPD2    H5 9755   3.022   3.182  15.425  1.4268  0.1926  0.4288
  655MPD2    N1 9756   2.839   3.581  15.783  0.3545 -0.2268 -0.7483
  655MPD2    H7 9757   2.808   3.637  15.704  1.2311  1.0504 -0.2021
  656TMC3    C1 9758   2.757   3.774  15.900  0.0934 -0.0170 -0.2042
  656TMC3    C2 9759   2.702   3.822  16.014 -0.2772  0.1026  0.5798
  656TMC3    C3 9760   2.637   3.939  16.010 -0.3665  0.5180  0.0041
  656TMC3    C4 9761   2.752   3.846  15.783 -0.3000 -0.0301  0.4640
  656TMC3    C5 9762   2.684   3.963  15.789 -0.0845 -0.2869 -0.7585
  656TMC3    C6 9763   2.629   4.025  15.899  0.2107 -0.7630  0.2633
  656TMC3     C 9764   2.813   3.637  15.911  0.1306 -0.9817 -0.3882
  656TMC3     O 9765   2.826   3.592  16.025  0.8500 -0.6003  0.1576
  656TMC3     H 9766   2.704   3.753  16.098 -0.5931 -0.5968  0.0125
  656TMC3    H1 9767   2.806   3.813  15.695 -0.4536  0.4300  0.1973
  656TMC3    H2 9768   2.564   4.112  15.895  0.8994 -0.2781 -0.5767
  656TMC3    C7 9769   2.626   3.998  15.659 -0.5004 -0.1024 -0.3967
  656TMC3    C8 9770   2.558   3.956  16.138 -0.5978 -0.0226 -0.3274
  656TMC3    O1 9771   2.673   3.931  15.564  0.6321  0.3556  0.7291
  656TMC3    O2 9772   2.553   3.859  16.210  1.0263 -0.2808  0.2654
  657TMC3    C1 9773   1.588   2.849  14.700  0.0593  0.9974 -0.0554
  657TMC3    C2 9774   1.579   2.806  14.828 -0.7592 -0.2663 -0.0349
  657TMC3    C3 9775   1.566   2.907  14.924  0.2629 -0.6711  0.5710
  657TMC3    C4 9776   1.578   2.977  14.658  0.6583 -0.1483  0.0220
  657TMC3    C5 9777   1.566   3.070  14.760 -0.5103  0.1345 -0.2357
  657TMC3    C6 9778   1.565   3.038  14.892 -0.1935 -0.0099 -0.0980
  657TMC3     C 9779   1.619   2.752  14.598  0.0731  0.1401  0.1023
  657TMC3     O 9780   1.592   2.778  14.485  0.7765 -0.0878 -0.9565
  657TMC3     H 9781   1.572   2.705  14.866 -0.3410  0.1786  1.2180
  657TMC3    H1 9782   1.602   3.002  14.556 -1.2357  1.5015 -0.0211
  657TMC3    H2 9783   1.542   3.114  14.966  3.6746 -1.3330  2.4675
  657TMC3    C7 9784   1.516   3.206  14.730 -0.1702  0.2134  0.3730
  657TMC3    C8 9785   1.552   2.872  15.060 -0.1857  0.0753  0.2611
  657TMC3    O1 9786   1.464   3.273  14.821 -0.2419 -0.3135 -0.1749
  657TMC3    O2 9787   1.496   2.951  15.134  0.1568 -0.0302 -0.4687
  658MPD2     C 9788   3.393   3.253  14.854 -0.7606 -0.1762  0.5453
  658MPD2    C1 9789   3.281   3.318  14.909 -0.1555  0.7974 -0.3220
  658MPD2    C2 9790   3.252   3.443  14.866 -0.4536  0.3856  0.2106
  658MPD2    C3 9791   3.334   3.519  14.789 -0.2797  0.7132 -0.1191
  658MPD2    C4 9792   3.446   3.454  14.733 -0.1256 -0.2131  0.3330
  658MPD2    C5 9793   3.471   3.325  14.767  0.0860 -0.1713  0.5091
  658MPD2     H 9794   3.153   3.477  14.896 -1.3799 -2.2422  0.1489
  658MPD2    H1 9795   3.513   3.505  14.665 -0.7482 -2.8415 -2.2375
  658MPD2    H2 9796   3.410   3.150  14.882  1.1744  0.1102  0.4670
  658MPD2    H3 9797   3.559   3.273  14.731  0.4777  0.1097  1.0540
  658MPD2     N 9798   3.298   3.646  14.752 -0.4149 -0.0209 -0.1776
  658MPD2    H5 9799   3.216   3.682  14.800  0.2129  1.8578 -0.5128
  658MPD2    N1 9800   3.189   3.265  14.999  0.5341 -0.2625 -0.5042
  658MPD2    H7 9801   3.138   3.331  15.057  1.6357  1.2274 -1.2535
  659TMC3    C1 9802   3.036   3.120  15.082 -0.4490 -0.7635 -0.7489
  659TMC3    C2 9803   3.020   3.184  15.199 -0.2188 -0.3604 -1.0057
  659TMC3    C3 9804   2.919   3.274  15.215 -0.5394 -0.2536 -0.8369
  659TMC3    C4 9805   2.936   3.130  14.981  0.5286  0.3978 -0.1935
  659TMC3    C5 9806   2.833   3.217  14.996 -0.3157  0.3581  0.1423
  659TMC3    C6 9807   2.818   3.277  15.117 -0.6846 -1.1097 -0.0832
  659TMC3     C 9808   3.165   3.130  15.017 -0.1085  0.6333  0.1811
  659TMC3     O 9809   3.207   3.038  14.949 -0.4830 -0.1516 -0.5626
  659TMC3     H 9810   3.111   3.193  15.257 -0.5513 -0.5337 -0.4515
  659TMC3    H1 9811   2.943   3.089  14.881 -0.5348  0.0371 -0.1224
  659TMC3    H2 9812   2.733   3.339  15.142  1.3469  1.7242 -0.1728
  659TMC3    C7 9813   2.700   3.174  14.953  0.3241 -0.9166 -0.2031
  659TMC3    C8 9814   2.893   3.328  15.349 -0.4243  0.2713  0.3661
  659TMC3    O1 9815   2.660   3.068  15.002 -0.1256 -0.5294 -0.4386
  659TMC3    O2 9816   2.797   3.404  15.363 -0.7298 -0.8594 -0.2765
  660MPD2     C 9817   1.079   2.578  12.602 -0.3218  0.0133 -0.1237
  660MPD2    C1 9818   0.973   2.602  12.674 -0.1403  0.1684 -0.6075
  660MPD2    C2 9819   0.918   2.500  12.748  0.2648 -0.6905  0.6877
  660MPD2    C3 9820   0.963   2.369  12.732 -0.0724  0.2684 -0.3104
  660MPD2    C4 9821   1.075   2.348  12.645 -0.2365 -0.2363 -0.4027
  660MPD2    C5 9822   1.137   2.451  12.592  0.2415  0.2866 -0.5577
  660MPD2     H 9823   0.820   2.508  12.793 -0.0059  1.8871 -0.3579
  660MPD2    H1 9824   1.120   2.250  12.634  0.1492 -0.0149 -0.7901
  660MPD2    H2 9825   1.127   2.654  12.542 -2.5296 -0.2757 -2.2526
  660MPD2    H3 9826   1.230   2.449  12.536  0.7097  1.0376  0.1963
  660MPD2     N 9827   0.899   2.266  12.793  0.1588 -0.0928 -0.0188
  660MPD2    H5 9828   0.914   2.180  12.741  1.0570  0.7050 -1.1020
  660MPD2    N1 9829   0.908   2.730  12.669 -0.7901  0.1682 -0.4090
  660MPD2    H7 9830   0.959   2.815  12.645 -1.3996 -0.0056 -2.2890
  661TMC3    C1 9831   0.729   2.882  12.672  0.1237  0.8041 -1.4035
  661TMC3    C2 9832   0.762   2.923  12.549  0.2800 -0.3944 -0.0988
  661TMC3    C3 9833   0.657   2.972  12.473 -0.0965  0.1478  1.0485
  661TMC3    C4 9834   0.609   2.909  12.726  0.1813  0.6464  0.1221
  661TMC3    C5 9835   0.508   2.944  12.641 -0.4422 -0.7864 -0.0838
  661TMC3    C6 9836   0.530   2.968  12.507 -0.0894 -0.2304  0.6248
  661TMC3     C 9837   0.791   2.761  12.727  0.1433  0.0073 -0.1311
  661TMC3     O 9838   0.719   2.704  12.813 -0.3057  0.0455  0.0923
  661TMC3     H 9839   0.861   2.910  12.509  0.5018 -0.4121  0.4522
  661TMC3    H1 9840   0.588   2.879  12.827  1.3237  1.5858  0.6382
  661TMC3    H2 9841   0.446   3.003  12.449  0.4230  2.0276  1.2746
  661TMC3    C7 9842   0.389   2.870  12.668 -0.3560 -0.1536  0.7792
  661TMC3    C8 9843   0.688   2.986  12.333 -0.0943 -0.9811 -0.7025
  661TMC3    O1 9844   0.329   2.879  12.774 -0.3096  0.3742 -0.3576
  661TMC3    O2 9845   0.808   3.000  12.308  0.0713  0.0554  0.0045
  662MPD2     C 9846   1.107   1.982  17.202  0.1458  0.3623 -0.5417
  662MPD2    C1 9847   1.103   1.890  17.299  0.4079  0.1022  1.2386
  662MPD2    C2 9848   1.010   1.901  17.402 -0.5419  0.0032  0.0292
  662MPD2    C3 9849   0.921   2.004  17.391 -0.4696  0.3650 -0.3063
  662MPD2    C4 9850   0.936   2.105  17.296  0.8557 -0.2483  0.6044
  662MPD2    C5 9851   1.027   2.088  17.203 -1.0428  0.1400 -0.4301
  662MPD2     H 9852   1.003   1.827  17.480  2.5166 -0.9063 -0.5630
  662MPD2    H1 9853   0.875   2.194  17.299  1.0532 -0.0573 -1.0575
  662MPD2    H2 9854   1.171   1.991  17.115  0.1298  3.0360 -0.2991
  662MPD2    H3 9855   1.043   2.158  17.121 -0.1205 -0.2135 -0.5462
  662MPD2     N 9856   0.817   2.021  17.486 -0.4820 -0.3646 -0.9610
  662MPD2    H5 9857   0.761   2.105  17.474 -1.3961 -0.8401  0.0877
  662MPD2    N1 9858   1.187   1.773  17.298 -0.3190 -0.7134  0.1859
  662MPD2    H7 9859   1.164   1.707  17.372 -1.1432  0.1195  0.6726
  663TMC3    C1 9860   1.327   1.612  17.219 -0.3213 -0.2130  0.0168
  663TMC3    C2 9861   1.322   1.552  17.339 -0.3639 -0.0296  0.2256
  663TMC3    C3 9862   1.397   1.439  17.353  0.0524 -0.1331  0.2843
  663TMC3    C4 9863   1.373   1.539  17.108  0.1921 -0.0178  0.5982
  663TMC3    C5 9864   1.410   1.404  17.127 -0.0801 -0.3814 -0.0888
  663TMC3    C6 9865   1.406   1.349  17.250 -0.6023 -0.6030 -0.7723
  663TMC3     C 9866   1.266   1.734  17.196 -0.1247  0.3993 -0.1614
  663TMC3     O 9867   1.268   1.794  17.088  0.3553  0.1130 -0.2671
  663TMC3     H 9868   1.318   1.623  17.421 -2.2929 -0.7078  0.7138
  663TMC3    H1 9869   1.378   1.591  17.014  1.2538 -2.4225 -0.6682
  663TMC3    H2 9870   1.454   1.252  17.265 -0.2280 -0.5746 -1.8349
  663TMC3    C7 9871   1.413   1.313  17.009  0.7533 -0.3255 -0.2865
  663TMC3    C8 9872   1.397   1.381  17.485  0.0134 -0.2634  0.0445
  663TMC3    O1 9873   1.458   1.357  16.904  0.4989 -0.8783  0.2599
  663TMC3    O2 9874   1.474   1.286  17.494  0.6125 -0.0932  0.0385
  664MPD2     C 9875   3.709   0.327  17.442  0.1638  0.0358 -0.3574
  664MPD2    C1 9876   3.798   0.426  17.481  0.6485  0.4254  0.4167
  664MPD2    C2 9877   3.784   0.480  17.606 -1.1019  0.1999 -0.0249
  664MPD2    C3 9878   3.695   0.432  17.702  0.4894 -0.0352 -0.0305
  664MPD2    C4 9879   3.602   0.336  17.651 -0.1220  0.4009 -0.3958
  664MPD2    C5 9880   3.604   0.294  17.521  0.1347  0.0452  0.0629
  664MPD2     H 9881   3.850   0.563  17.630  0.8774 -0.8381 -1.8767
  664MPD2    H1 9882   3.517   0.294  17.704 -0.4052 -0.2657 -1.3908
  664MPD2    H2 9883   3.724   0.269  17.351 -1.7947 -3.1837  1.3563
  664MPD2    H3 9884   3.527   0.236  17.470 -0.3813  1.3081 -0.6088
  664MPD2     N 9885   3.708   0.462   0.087 -0.2876  0.0450 -0.3275
  664MPD2    H5 9886   3.791   0.515   0.113  0.5988 -1.6426  0.3086
  664MPD2    N1 9887   3.892   0.477  17.388 -0.1245  0.0428  0.3425
  664MPD2    H7 9888   3.957   0.546  17.426  1.3836 -0.3389 -1.5689
  665TMC3    C1 9889   3.675   0.429   0.317  0.4579 -0.0656 -0.5005
  665TMC3    C2 9890   3.581   0.465   0.415 -0.0782  0.1423  0.6618
  665TMC3    C3 9891   3.637   0.517   0.525  0.0718  0.1076 -0.0161
  665TMC3    C4 9892   3.807   0.444   0.336 -0.2101 -0.1499 -0.0242
  665TMC3    C5 9893   3.854   0.484   0.457  0.2505 -0.3174  0.0442
  665TMC3    C6 9894   3.771   0.526   0.551  0.3553  0.6708  0.4219
  665TMC3     C 9895   3.621   0.423   0.184 -0.0801  0.4262 -0.6783
  665TMC3     O 9896   3.508   0.382   0.173 -0.5433  0.0819  0.3413
  665TMC3     H 9897   3.475   0.467   0.395 -0.5537  0.8409  3.2834
  665TMC3    H1 9898   3.878   0.432   0.254 -0.2215  1.3428 -0.2491
  665TMC3    H2 9899   3.804   0.579   0.640 -1.3987 -0.0099  1.4801
  665TMC3    C7 9900   3.992   0.529   0.460 -0.1171 -0.4629 -0.4674
  665TMC3    C8 9901   3.560   0.527   0.647 -0.0781 -0.1468  0.1216
  665TMC3    O1 9902   4.044   0.545   0.352  0.3433  0.0750  0.6253
  665TMC3    O2 9903   3.618   0.490   0.750  0.2238 -0.7722  0.3205
  666TMC3    C1 9904   3.576   0.747   9.542  0.0357  0.5300 -0.3921
  666TMC3    C2 9905   3.698   0.706   9.589 -1.4975 -0.0976  0.6674
  666TMC3    C3 9906   3.770   0.804   9.649 -0.5481 -0.3373  0.8310
  666TMC3    C4 9907   3.530   0.875   9.545  0.1036 -0.1613 -0.1059
  666TMC3    C5 9908   3.613   0.980   9.602 -0.0317  0.7622  0.6421
  666TMC3    C6 9909   3.726   0.934   9.660 -0.7567 -1.0938  0.7012
  666TMC3     C 9910   3.487   0.652   9.471  0.0962 -0.4496 -0.1601
  666TMC3     O 9911   3.420   0.698   9.380  0.2288 -0.4989 -0.4942
  666TMC3     H 9912   3.737   0.613   9.550  0.2953  1.5997 -1.6027
  666TMC3    H1 9913   3.423   0.890   9.541  0.2777  0.7650 -1.4462
  666TMC3    H2 9914   3.795   0.996   9.716  1.5898 -1.6997 -1.4845
  666TMC3    C7 9915   3.549   1.081   9.677  0.4252 -0.0598 -0.1442
  666TMC3    C8 9916   3.899   0.765   9.716  0.3383  0.5046  0.1843
  666TMC3    O1 9917   3.583   1.100   9.792 -0.3080 -0.3081 -0.6000
  666TMC3    O2 9918   3.986   0.850   9.736  0.3135 -0.1967  0.0038
  667MPD2     C 9919   4.614   0.260  14.470 -0.2789  0.8429 -0.3727
  667MPD2    C1 9920   4.682   0.182  14.563 -0.1084  0.2514  0.4276
  667MPD2    C2 9921   4.652   0.051  14.584  0.3940 -0.1317 -0.4686
  667MPD2    C3 9922   4.541   4.733  14.517  0.4835  1.0687  0.0761
  667MPD2    C4 9923   4.467   0.071  14.432  0.8549  0.2044 -0.4483
  667MPD2    C5 9924   4.505   0.205  14.409  0.2425  0.6339 -0.2451
  667MPD2     H 9925   4.699   4.726  14.658  1.2828  0.9021 -0.1610
  667MPD2    H1 9926   4.383   0.031  14.375  1.6389 -0.1556 -1.3456
  667MPD2    H2 9927   4.623   0.367  14.462 -1.6904  0.9459 -0.5696
  667MPD2    H3 9928   4.454   0.265  14.335  0.1234 -0.9830 -1.4738
  667MPD2     N 9929   4.495   4.604  14.545  0.2306 -0.1314 -0.3880
  667MPD2    H5 9930   4.418   4.574  14.486  1.1443  1.7378 -2.5922
  667MPD2    N1 9931   0.028   0.239  14.663  0.2474 -0.4918  0.3300
  667MPD2    H7 9932   0.049   0.191  14.749 -1.5782 -0.0290  1.0346
  668TMC3    C1 9933   0.126   0.414  14.793 -0.1796  0.1427 -0.3039
  668TMC3    C2 9934   0.173   0.542  14.794 -0.4921  0.0624  0.6993
  668TMC3    C3 9935   0.190   0.602  14.918 -0.6604 -0.3461  0.1922
  668TMC3    C4 9936   0.085   0.350  14.907 -0.6356  0.0237  0.2300
  668TMC3    C5 9937   0.105   0.410  15.023  0.0472  0.9832  0.3083
  668TMC3    C6 9938   0.160   0.531  15.035 -0.6930 -0.2314 -0.5116
  668TMC3     C 9939   0.077   0.369  14.662 -0.4137 -0.1062  0.0335
  668TMC3     O 9940   0.079   0.448  14.566 -0.3157  0.2180 -0.1160
  668TMC3     H 9941   0.203   0.592  14.703 -0.2091 -0.0323  0.7383
  668TMC3    H1 9942   0.059   0.245  14.911 -0.9567  0.1619  1.5494
  668TMC3    H2 9943   0.171   0.578  15.132 -0.5161  1.4076 -1.3218
  668TMC3    C7 9944   0.023   0.367  15.131  0.6095 -0.1143 -0.1290
  668TMC3    C8 9945   0.262   0.721  14.933 -0.0231  0.8923  0.3067
  668TMC3    O1 9946   0.064   0.392  15.244 -0.0797  0.2537 -0.4682
  668TMC3    O2 9947   0.278   0.766  15.050 -0.4039  0.5989 -0.3847
  669TMC3    C1 9948   3.071   4.712  14.606 -0.3131  0.3132  0.1244
  669TMC3    C2 9949   2.964   4.711  14.518 -0.2537 -0.3964 -0.1419
  669TMC3    C3 9950   2.928   0.091  14.461 -0.1466  0.0372 -0.1991
  669TMC3    C4 9951   3.164   0.081  14.610  0.1346  0.2640 -0.6887
  669TMC3    C5 9952   3.124   0.194  14.537  0.3227  0.3653  0.1531
  669TMC3    C6 9953   3.007   0.205  14.472 -0.1509  0.6454 -0.7051
  669TMC3     C 9954   3.076   4.609  14.712  0.2479 -0.1799  0.0298
  669TMC3     O 9955   2.983   4.531  14.724 -0.3247  0.2150 -0.0504
  669TMC3     H 9956   2.896   4.628  14.506  2.0557 -2.3810  0.5176
  669TMC3    H1 9957   3.246   0.073  14.681  0.5272  0.5401 -1.1118
  669TMC3    H2 9958   2.984   0.292  14.412 -1.4113  0.2141 -0.8663
  669TMC3    C7 9959   3.225   0.289  14.499 -0.2051 -0.1817  0.5234
  669TMC3    C8 9960   2.809   0.091  14.371 -0.7670 -0.1605 -0.7975
  669TMC3    O1 9961   3.190   0.400  14.472  0.1971  0.3485 -0.4879
  669TMC3    O2 9962   2.744   4.727  14.358  0.3715 -0.7899 -0.0121
  670MPD2     C 9963   1.548   2.356  13.403 -0.2355 -0.5811  0.4342
  670MPD2    C1 9964   1.512   2.485  13.444 -0.6861 -0.1063 -1.1033
  670MPD2    C2 9965   1.405   2.495  13.526  0.6352  0.1207  0.2187
  670MPD2    C3 9966   1.336   2.381  13.575 -0.2941  0.0820  0.2093
  670MPD2    C4 9967   1.368   2.253  13.534  0.2972  0.2172 -0.4098
  670MPD2    C5 9968   1.476   2.244  13.447 -0.2228  0.3636  0.3131
  670MPD2     H 9969   1.380   2.589  13.571  2.2206  1.3457 -1.4272
  670MPD2    H1 9970   1.313   2.168  13.572  1.2159  1.4316  3.6428
  670MPD2    H2 9971   1.631   2.332  13.338 -1.8873 -2.5558 -0.9708
  670MPD2    H3 9972   1.515   2.151  13.407  1.0379  1.3575 -0.7503
  670MPD2     N 9973   1.229   2.412  13.658 -0.0033  0.3892 -0.5360
  670MPD2    H5 9974   1.197   2.508  13.666  2.1348  0.9758  0.9734
  670MPD2    N1 9975   1.585   2.601  13.399  0.4393 -0.3178 -0.1557
  670MPD2    H7 9976   1.568   2.692  13.442  1.3385 -0.0452 -0.3806
  671TMC3    C1 9977   1.079   2.378  13.836 -0.6416 -0.8741  0.0138
  671TMC3    C2 9978   1.076   2.329  13.960 -0.2901 -0.3743  0.7581
  671TMC3    C3 9979   0.958   2.266  14.007  0.0228 -0.2247 -0.2330
  671TMC3    C4 9980   0.963   2.400  13.773 -0.3799  0.0324  0.1163
  671TMC3    C5 9981   0.840   2.361  13.837 -0.2253  0.1049 -0.0824
  671TMC3    C6 9982   0.836   2.292  13.953 -0.4280  0.7367  0.2119
  671TMC3     C 9983   1.173   2.320  13.741  0.4696  0.2840  0.6551
  671TMC3     O 9984   1.209   2.212  13.778  0.2816  0.8524 -0.0366
  671TMC3     H 9985   1.164   2.290  14.009  1.9103  2.2554 -1.0734
  671TMC3    H1 9986   0.966   2.427  13.669  3.0730 -1.0876 -0.0798
  671TMC3    H2 9987   0.746   2.245  13.990 -0.7887 -0.1148 -1.7334
  671TMC3    C7 9988   0.747   2.295  13.746 -0.3361  0.2048 -0.0209
  671TMC3    C8 9989   0.974   2.167  14.108 -0.9404 -0.1567 -0.2520
  671TMC3    O1 9990   0.807   2.239  13.657  0.0432  0.0476  0.0910
  671TMC3    O2 9991   1.072   2.163  14.183 -0.0335  0.4796 -0.7247
  672MPD2     C 9992   0.149   3.556   0.567 -0.6559  0.4323  0.4725
  672MPD2    C1 9993   0.271   3.489   0.588  0.0383 -0.7069  0.6981
  672MPD2    C2 9994   0.357   3.535   0.684 -0.0175 -0.1821 -0.3596
  672MPD2    C3 9995   0.321   3.643   0.769 -0.3907  0.5867  0.0536
  672MPD2    C4 9996   0.198   3.708   0.750 -0.0299  0.2639 -0.4674
  672MPD2    C5 9997   0.120   3.663   0.647 -0.3251 -0.0787  0.0822
  672MPD2     H 9998   0.456   3.491   0.688  0.3005  0.6123  0.7980
  672MPD2    H1 9999   0.180   3.801   0.802  0.3475 -0.0856  0.2826
  672MPD2    H210000   0.085   3.515   0.490  1.2510 -0.7402 -0.4865
  672MPD2    H310001   0.022   3.709   0.635 -1.1538 -1.6577  0.8016
  672MPD2     N10002   0.408   3.699   0.859 -0.1182 -0.4899  0.2495
  672MPD2    H510003   0.374   3.784   0.903  2.4887 -0.5561  2.3792
  672MPD2    N110004   0.306   3.377   0.507 -1.1483  0.0367  0.1837
  672MPD2    H710005   0.401   3.342   0.515 -2.4242 -3.1081  1.6430
  673TMC3    C110006   0.315   3.216   0.340 -0.3020  0.4298 -0.3888
  673TMC3    C210007   0.425   3.164   0.396 -0.1069  1.0026  0.5450
  673TMC3    C310008   0.518   3.102   0.310  0.1917  0.9281  1.1049
  673TMC3    C410009   0.305   3.215   0.201  0.3540 -0.8459  0.1205
  673TMC3    C510010   0.400   3.156   0.120  0.1581 -0.1699  0.0252
  673TMC3    C610011   0.512   3.096   0.172  0.0664  0.3422  0.7167
  673TMC3     C10012   0.240   3.321   0.400 -0.8553  0.5718 -0.5204
  673TMC3     O10013   0.123   3.341   0.363  0.0014 -0.2493 -0.3832
  673TMC3     H10014   0.429   3.148   0.503  1.5243  1.4011  0.5363
  673TMC3    H110015   0.226   3.272   0.154  1.0719  0.6632  0.7580
  673TMC3    H210016   0.585   3.046   0.109 -0.0398  0.7269  0.2873
  673TMC3    C710017   0.395   3.194  17.734  0.0093 -0.1833 -0.0015
  673TMC3    C810018   0.637   3.056   0.387  1.1619  0.1126 -0.0640
  673TMC3    O110019   0.380   3.112  17.643  0.3011  0.3468 -0.7512
  673TMC3    O210020   0.634   3.052   0.510  0.8789 -0.1285 -0.2000
  674MPD2     C10021   1.205   2.068  17.605  0.4493  0.4904 -0.4262
  674MPD2    C110022   1.166   2.056  17.736 -0.3570  0.2523  0.3089
  674MPD2    C210023   1.087   2.155   0.040  0.0050 -0.2581 -0.0806
  674MPD2    C310024   1.048   2.264  17.715  0.1712 -0.7066 -0.3102
  674MPD2    C410025   1.101   2.280  17.588  0.6247  0.1847 -0.3031
  674MPD2    C510026   1.184   2.183  17.533 -0.0444 -0.3880  0.2303
  674MPD2     H10027   1.047   2.141   0.139  1.4717  0.1410  0.5633
  674MPD2    H110028   1.082   2.362  17.520  0.8015  0.3369 -0.1701
  674MPD2    H210029   1.256   1.987  17.554  0.9910 -0.1824  1.1933
  674MPD2    H310030   1.209   2.194  17.428  0.5976  0.0892  0.4300
  674MPD2     N10031   0.967   2.357   0.033  0.0946  0.1229 -0.5647
  674MPD2    H510032   0.950   2.342   0.132  2.7127  0.2691 -0.0852
  674MPD2    N110033   1.191   1.941   0.069  0.6526 -0.5234 -0.3617
  674MPD2    H710034   1.153   1.944   0.163  1.7385  2.9322 -0.0399
  675TMC3    C110035   1.242   1.729   0.115 -0.2662 -0.0563  0.6233
  675TMC3    C210036   1.107   1.721   0.142 -0.1027  0.0104 -0.0556
  675TMC3    C310037   1.066   1.692   0.271 -0.8275 -0.2479 -0.3463
  675TMC3    C410038   1.339   1.711   0.209 -0.5153 -0.1461  0.1654
  675TMC3    C510039   1.294   1.683   0.335  0.0820  0.1905 -0.3070
  675TMC3    C610040   1.162   1.681   0.371  0.4066  0.0002  0.1422
  675TMC3     C10041   1.274   1.835   0.032 -0.5388 -0.6306 -0.6392
  675TMC3     O10042   1.350   1.826  17.685  0.2288  0.2721 -0.1536
  675TMC3     H10043   1.036   1.730   0.060  1.1767 -0.4717 -1.2133
  675TMC3    H110044   1.446   1.714   0.195 -0.5957  0.9132 -0.1666
  675TMC3    H210045   1.136   1.662   0.475 -0.2243 -0.5353 -0.1103
  675TMC3    C710046   1.400   1.641   0.431 -0.3163 -0.0088  0.4891
  675TMC3    C810047   0.927   1.710   0.311 -0.5303 -0.2994  0.0269
  675TMC3    O110048   1.477   1.552   0.402 -0.7850  0.1153  0.7352
  675TMC3    O210049   0.844   1.684   0.229 -0.1414 -0.1441 -0.7766
  676MPD2     C10050   4.326   1.455  11.125  0.3426 -0.0040  1.0943
  676MPD2    C110051   4.203   1.393  11.145 -0.3039  0.1347 -0.2974
  676MPD2    C210052   4.181   1.270  11.093 -0.1500 -0.0291 -0.1826
  676MPD2    C310053   4.279   1.203  11.017  0.5548  0.0524 -0.2933
  676MPD2    C410054   4.404   1.254  11.011 -0.1224 -0.4736  0.2103
  676MPD2    C510055   4.425   1.379  11.062  0.3663 -0.6533 -0.0241
  676MPD2     H10056   4.079   1.239  11.112  0.0394 -1.4428 -1.4500
  676MPD2    H110057   4.483   1.209  10.952  0.4046 -0.2307  0.7333
  676MPD2    H210058   4.354   1.553  11.161  1.7940 -1.2838  3.4271
  676MPD2    H310059   4.518   1.433  11.052  0.4525 -0.8554 -0.3073
  676MPD2     N10060   4.253   1.076  10.957 -0.2523 -0.1904 -0.4193
  676MPD2    H510061   4.327   1.031  10.904 -0.9268  0.9163 -2.2986
  676MPD2    N110062   4.099   1.441  11.229  0.5459 -0.1908 -0.0996
  676MPD2    H710063   4.017   1.381  11.236  1.0606 -0.8003  0.7609
  677TMC3    C110064   3.989   1.568  11.388 -0.4976 -0.1729 -0.5927
  677TMC3    C210065   3.871   1.503  11.363 -0.6954 -0.2387  0.5695
  677TMC3    C310066   3.762   1.525  11.442 -0.1031  0.1120  0.0593
  677TMC3    C410067   3.985   1.672  11.473  0.1871 -0.0683  0.2983
  677TMC3    C510068   3.873   1.699  11.548 -0.3870 -0.0773 -0.1196
  677TMC3    C610069   3.764   1.621  11.540 -0.4395  0.9666 -0.0526
  677TMC3     C10070   4.107   1.550  11.309 -0.9331  0.1773  0.3951
  677TMC3     O10071   4.204   1.624  11.327 -0.3663  0.3145 -0.1496
  677TMC3     H10072   3.864   1.422  11.291 -2.2484  0.8830 -0.5497
  677TMC3    H110073   4.073   1.735  11.479 -0.2136  0.5262  0.0270
  677TMC3    H210074   3.672   1.633  11.596 -0.1898  0.3405  0.4924
  677TMC3    C710075   3.878   1.790  11.662 -0.4376  0.4240  0.1467
  677TMC3    C810076   3.645   1.445  11.413 -0.2039 -0.8089  0.4030
  677TMC3    O110077   3.794   1.777  11.751 -0.4336 -0.3046 -0.0725
  677TMC3    O210078   3.583   1.471  11.312 -0.5905  0.0373  0.5438
  678MPD2     C10079   0.303   1.614   1.516 -0.4716 -0.1011  0.2120
  678MPD2    C110080   0.328   1.569   1.391 -0.5092  0.5996  0.0269
  678MPD2    C210081   0.236   1.493   1.332  0.2665  0.8132 -0.4646
  678MPD2    C310082   0.115   1.460   1.391  0.3948  0.1732 -0.9971
  678MPD2    C410083   0.091   1.500   1.526  0.0732  0.4230 -0.7667
  678MPD2    C510084   0.185   1.578   1.581  0.5592 -0.1051  0.2557
  678MPD2     H10085   0.254   1.458   1.231  0.7719  3.4770 -1.2776
  678MPD2    H110086   0.007   1.471   1.589  0.8398 -0.1238  0.0100
  678MPD2    H210087   0.368   1.687   1.564  0.2310 -1.0403  0.6928
  678MPD2    H310088   0.170   1.609   1.683  0.9368 -1.7661  0.8120
  678MPD2     N10089   0.015   1.395   1.318  0.8612 -0.1495 -0.3317
  678MPD2    H510090   0.040   1.385   1.220  2.2185  0.5888 -0.0591
  678MPD2    N110091   0.443   1.604   1.316  0.3682 -0.3395 -0.5612
  678MPD2    H710092   0.443   1.564   1.223 -1.0612  0.6592 -0.9894
  679TMC3    C110093   0.864   1.781   1.215  0.1360 -0.0939  0.5348
  679TMC3    C210094   0.751   1.781   1.291  0.5554 -0.2082  0.9425
  679TMC3    C310095   0.667   1.671   1.289  0.3806 -1.0493  0.0063
  679TMC3    C410096   0.885   1.686   1.119  0.3213 -0.2069  0.0788
  679TMC3    C510097   0.792   1.587   1.104  0.2196 -0.5495 -0.9757
  679TMC3    C610098   0.682   1.578   1.187 -0.5772  0.8974  0.3024
  679TMC3     C10099   0.985   1.834   1.272  0.7548 -0.7597 -1.0596
  679TMC3     O10100   0.972   1.907   1.369  0.1428 -0.3830  0.0928
  679TMC3     H10101   0.751   1.857   1.369 -2.0186  0.5585  0.1985
  679TMC3    H110102   0.948   1.708   1.034 -0.9728  0.0250 -0.8272
  679TMC3    H210103   0.610   1.500   1.165 -0.3958  0.9792 -0.5805
  679TMC3    C710104   0.822   1.481   1.000 -0.4777  0.4374 -0.1057
  679TMC3    C810105   0.545   1.690   1.364  0.4364 -0.5066  0.2073
  679TMC3    O110106   0.898   1.509   0.909  0.2878  0.7053 -0.3599
  679TMC3    O210107   0.535   1.780   1.442  0.4849  0.5336  0.3652
  680MPD2     C10108   0.569   4.448  13.198 -1.1596 -0.4538  0.3571
  680MPD2    C110109   0.702   4.477  13.190 -0.0722 -0.5254  0.7940
  680MPD2    C210110   0.757   4.564  13.278 -0.2423  0.1563 -0.7173
  680MPD2    C310111   0.676   4.628  13.370 -0.5190 -0.2416 -0.3306
  680MPD2    C410112   0.540   4.621  13.367 -0.0198  0.0319  0.1982
  680MPD2    C510113   0.488   4.524  13.285 -0.1579 -0.3265 -0.3413
  680MPD2     H10114   0.863   4.586  13.275 -0.6113  1.9665 -0.4194
  680MPD2    H110115   0.478   4.677  13.435  1.5480  0.1125  1.5743
  680MPD2    H210116   0.523   4.381  13.126 -1.7235 -0.2157  0.4947
  680MPD2    H310117   0.382   4.505  13.295  0.1139 -0.9409  1.4156
  680MPD2     N10118   0.734   4.710  13.471  0.4790 -0.3349  0.5702
  680MPD2    H510119   0.679   0.040  13.521  0.8380 -0.2694  0.8720
  680MPD2    N110120   0.775   4.385  13.113 -0.1495 -0.5931 -0.6292
  680MPD2    H710121   0.724   4.308  13.070 -0.2993 -2.8805  3.6594
  681TMC3    C110122   0.976   4.287  13.023 -0.3156  0.1525 -0.5577
  681TMC3    C210123   0.915   4.167  13.057 -0.2219  0.2205 -0.5535
  681TMC3    C310124   0.989   4.073  13.124 -0.3197 -0.0836  0.4599
  681TMC3    C410125   1.109   4.297  13.042  0.4202  0.2870 -0.3483
  681TMC3    C510126   1.186   4.198  13.100  0.5515  0.0052 -0.3902
  681TMC3    C610127   1.121   4.082  13.153 -0.0881  0.5980  0.2955
  681TMC3     C10128   0.899   4.404  13.062  0.2967  0.0287 -0.8141
  681TMC3     O10129   0.959   4.509  13.060 -0.0459 -0.4718  0.1775
  681TMC3     H10130   0.808   4.150  13.053 -0.5833  2.5278 -0.7297
  681TMC3    H110131   1.163   4.390  13.031  2.8451 -0.9637  1.1257
  681TMC3    H210132   1.174   3.997  13.194  0.5459  1.2264  0.7649
  681TMC3    C710133   1.330   4.208  13.113 -0.4790 -0.2839 -0.5596
  681TMC3    C810134   0.908   3.988  13.212 -0.6987  0.7556  0.0546
  681TMC3    O110135   1.379   4.141  13.204  0.1939 -0.0912 -0.3189
  681TMC3    O210136   0.806   3.943  13.163 -0.3493  0.0282  0.0169
  682MPD2     C10137   3.077   1.793  10.718  0.1311  0.7463  0.4686
  682MPD2    C110138   3.048   1.662  10.703  0.3814 -0.1476  0.2533
  682MPD2    C210139   3.027   1.587  10.818 -0.2044  0.6258  0.0997
  682MPD2    C310140   3.057   1.639  10.945  0.7553  0.3391  0.3108
  682MPD2    C410141   3.082   1.774  10.954  0.5888 -0.2559  0.3498
  682MPD2    C510142   3.094   1.853  10.841  0.1416 -0.5402 -0.0439
  682MPD2     H10143   2.992   1.486  10.797  0.5119  0.5169 -0.5624
  682MPD2    H110144   3.118   1.812  11.049 -1.4915  1.2843  0.5410
  682MPD2    H210145   3.093   1.867  10.640  0.6788  1.3647  1.1718
  682MPD2    H310146   3.121   1.958  10.852  1.6021 -0.7591 -1.4597
  682MPD2     N10147   3.035   1.559  11.062  0.1160 -0.2330 -0.1113
  682MPD2    H510148   3.022   1.612  11.147  2.9014 -0.4375  0.4426
  682MPD2    N110149   3.046   1.588  10.582 -0.2332  0.3933 -0.0207
  682MPD2    H710150   3.028   1.488  10.586  1.1000  0.1938  1.1163
  683TMC3    C110151   2.958   1.427  11.426  0.2654 -0.5049  0.1940
  683TMC3    C210152   2.850   1.338  11.436 -0.1153  0.6093  0.7401
  683TMC3    C310153   2.810   1.275  11.317 -0.0314 -0.8685 -0.4183
  683TMC3    C410154   3.015   1.451  11.304 -0.1932  0.2073 -1.1180
  683TMC3    C510155   2.972   1.389  11.195  0.4562 -0.0343  0.1809
  683TMC3    C610156   2.875   1.293  11.202  0.1254 -0.2940  1.0282
  683TMC3     C10157   3.052   1.448  11.540  0.4920 -0.3032  0.2357
  683TMC3     O10158   3.170   1.475  11.517 -0.7785  0.3995  0.1687
  683TMC3     H10159   2.803   1.313  11.530  0.6317  1.3436  1.3072
  683TMC3    H110160   3.106   1.509  11.296 -1.6441  2.6720  0.2994
  683TMC3    H210161   2.836   1.252  11.109  4.2382 -1.5227 -0.1456
  683TMC3    C710162   3.023   1.423  11.064 -0.7773 -0.0343  0.3205
  683TMC3    C810163   2.706   1.176  11.326 -0.1833  0.4432 -0.5605
  683TMC3    O110164   3.013   1.344  10.972  0.0182 -0.3735  0.1104
  683TMC3    O210165   2.641   1.175  11.428 -0.7994  0.0909 -0.4967
  684MPD2     C10166   1.175   1.051  16.332 -0.2748 -0.3937  0.5089
  684MPD2    C110167   1.108   1.041  16.212  0.5313  0.3268 -0.3830
  684MPD2    C210168   1.037   1.144  16.155 -0.1316  0.2760 -0.1118
  684MPD2    C310169   1.046   1.269  16.222 -0.0132  0.0571  0.1305
  684MPD2    C410170   1.117   1.278  16.339  0.6746  0.4468 -0.0705
  684MPD2    C510171   1.171   1.165  16.401 -0.3751  0.4487 -0.2066
  684MPD2     H10172   0.978   1.142  16.064  1.7673 -0.4266 -1.3384
  684MPD2    H110173   1.126   1.375  16.387 -0.3458  2.0713 -3.2025
  684MPD2    H210174   1.211   0.959  16.377 -1.1450 -1.8719 -1.8148
  684MPD2    H310175   1.219   1.167  16.498  4.0891 -1.9247 -2.3819
  684MPD2     N10176   0.992   1.384  16.173  0.1278 -0.3798 -0.1733
  684MPD2    H510177   1.015   1.469  16.224 -0.9946 -1.0613  1.4803
  684MPD2    N110178   1.119   0.930  16.127 -0.7098  0.0056 -0.2171
  684MPD2    H710179   1.062   0.916  16.044 -1.7475  1.0867  0.3144
  685TMC3    C110180   1.236   0.726  16.045 -0.1162 -0.5775 -0.0603
  685TMC3    C210181   1.123   0.693  15.975  0.5285 -0.0138  0.3366
  685TMC3    C310182   1.136   0.597  15.879  0.3485  0.2579 -0.4412
  685TMC3    C410183   1.358   0.671  16.034  0.6697 -0.2844 -0.0876
  685TMC3    C510184   1.361   0.561  15.956  0.2235  0.5486 -0.4421
  685TMC3    C610185   1.255   0.523  15.874 -1.1250 -0.6054  0.2981
  685TMC3     C10186   1.225   0.833  16.142  0.1062 -0.1552 -0.2490
  685TMC3     O10187   1.330   0.851  16.207  0.2082 -0.1818 -0.0439
  685TMC3     H10188   1.026   0.740  15.990  0.8295  0.0823  1.9739
  685TMC3    H110189   1.447   0.712  16.081  0.4858 -0.1093  0.1084
  685TMC3    H210190   1.269   0.432  15.816 -0.2970  1.3927 -2.6367
  685TMC3    C710191   1.478   0.476  15.980 -0.9569  0.5033  0.7394
  685TMC3    C810192   1.042   0.561  15.790  0.3938 -0.6412 -0.6370
  685TMC3    O110193   1.522   0.494  16.091  0.1523 -0.3598 -0.1282
  685TMC3    O210194   1.067   0.461  15.721 -0.4253 -0.5761 -0.6391
  686MPD2     C10195   2.424   0.439  15.350  0.9173  0.3774 -0.2971
  686MPD2    C110196   2.552   0.472  15.391 -0.1516  0.9427 -0.3422
  686MPD2    C210197   2.632   0.553  15.306 -0.3305  0.2908 -0.2498
  686MPD2    C310198   2.576   0.599  15.186  0.1808 -0.1175  0.1753
  686MPD2    C410199   2.440   0.574  15.155  0.0233 -0.4830 -0.4954
  686MPD2    C510200   2.371   0.489  15.239 -0.1499  0.1360 -0.3509
  686MPD2     H10201   2.739   0.560  15.324 -0.2760 -2.1686  0.3976
  686MPD2    H110202   2.393   0.618  15.068  1.3965  2.7306  0.4027
  686MPD2    H210203   2.357   0.384  15.416  1.7083  0.3808  0.5101
  686MPD2    H310204   2.270   0.458  15.218  1.0360 -4.0742  0.0475
  686MPD2     N10205   2.657   0.657  15.084 -0.2630 -0.3782 -0.2765
  686MPD2    H510206   2.615   0.725  15.022  1.2432  1.2416  0.4771
  686MPD2    N110207   2.594   0.418  15.508 -0.0363  1.1359  0.6056
  686MPD2    H710208   2.515   0.375  15.555  2.6937 -1.3523  2.8899
  687TMC3    C110209   2.832   0.500  15.095  0.1987  0.4169  0.5500
  687TMC3    C210210   2.750   0.407  15.028  0.1425  0.0288  0.1216
  687TMC3    C310211   2.746   0.283  15.082  0.1694 -0.4875  0.0889
  687TMC3    C410212   2.931   0.465  15.180 -0.0210  0.7678 -0.1429
  687TMC3    C510213   2.929   0.334  15.219  0.3026 -0.1111  0.1625
  687TMC3    C610214   2.835   0.244  15.179 -0.2352  0.7324  0.1125
  687TMC3     C10215   2.801   0.640  15.086 -0.2786 -0.1160 -0.3776
  687TMC3     O10216   2.886   0.719  15.048  0.7659 -0.3291  0.1506
  687TMC3     H10217   2.690   0.441  14.944  0.0224  0.0538  0.2168
  687TMC3    H110218   2.995   0.543  15.220 -0.9379  0.6167  1.6282
  687TMC3    H210219   2.851   0.139  15.203  0.5856  0.6859 -0.6306
  687TMC3    C710220   3.002   0.309  15.348 -0.2579 -0.1624 -0.1416
  687TMC3    C810221   2.648   0.184  15.051  0.2430 -0.0382 -0.3137
  687TMC3    O110222   3.079   0.403  15.389  0.3755 -0.2395  0.2722
  687TMC3    O210223   2.687   0.065  15.059  0.3823 -0.5736  0.4702
  688MPD2     C10224   1.766   4.606  17.045  0.1938 -0.2707 -0.2626
  688MPD2    C110225   1.771   4.470  17.047  1.6481 -0.2695 -0.1545
  688MPD2    C210226   1.896   4.412  17.015  0.1829  0.7384  0.3670
  688MPD2    C310227   2.014   4.471  16.984 -1.0986  0.7105 -0.3751
  688MPD2    C410228   2.007   4.610  16.996  0.4497  0.1425 -0.0712
  688MPD2    C510229   1.884   4.672  17.029 -0.7180 -0.3959 -0.0961
  688MPD2     H10230   1.893   4.304  17.029  0.0391  0.4181 -2.0791
  688MPD2    H110231   2.096   4.672  16.994  0.3710  0.2057 -2.4747
  688MPD2    H210232   1.679   4.669  17.055 -0.5121 -1.0154 -1.5474
  688MPD2    H310233   1.882   0.042  17.023  1.3350 -0.2041  2.5878
  688MPD2     N10234   2.139   4.410  16.964  0.4359  0.1310  0.1198
  688MPD2    H510235   2.213   4.461  16.916  0.5729 -1.5263 -1.4766
  688MPD2    N110236   1.664   4.384  17.084  0.0835  0.0647 -0.4054
  688MPD2    H710237   1.671   4.283  17.092 -1.4417 -0.2549 -2.9581
  689TMC3    C110238   1.454   4.319  17.184 -0.1425  0.3339  0.3160
  689TMC3    C210239   1.369   4.349  17.283 -0.1510  0.1623 -0.1560
  689TMC3    C310240   1.305   4.232  17.340  0.1647  0.3040  0.6463
  689TMC3    C410241   1.458   4.199  17.126 -0.1676  0.0498  0.0019
  689TMC3    C510242   1.380   4.091  17.165 -0.1142 -0.2292 -0.3470
  689TMC3    C610243   1.298   4.110  17.272 -0.1564 -0.6163 -0.1302
  689TMC3     C10244   1.547   4.424  17.142 -0.0504 -0.3847  0.6572
  689TMC3     O10245   1.513   4.540  17.153  0.0276  0.0855 -0.3563
  689TMC3     H10246   1.375   4.447  17.329  0.3326  0.6753 -1.3183
  689TMC3    H110247   1.528   4.190  17.043  0.6422  0.3301  0.6561
  689TMC3    H210248   1.251   4.024  17.319 -1.3649  1.1129  1.8650
  689TMC3    C710249   1.437   3.963  17.122  0.6643  0.1140 -0.3695
  689TMC3    C810250   1.236   4.251  17.466  0.1297 -0.1442  0.4763
  689TMC3    O110251   1.518   3.967  17.025  0.3374 -0.1720 -0.4490
  689TMC3    O210252   1.256   4.359  17.519  0.3629  0.3811  0.4786
  690MPD2     C10253   4.266   1.333  15.815 -0.0368 -0.8449  0.0208
  690MPD2    C110254   4.230   1.284  15.693  0.0246 -0.1851  0.2807
  690MPD2    C210255   4.295   1.324  15.578  0.3331  0.4205  0.0523
  690MPD2    C310256   4.393   1.423  15.589  0.2280 -0.1985 -0.4677
  690MPD2    C410257   4.412   1.483  15.712 -0.1574  0.0086  0.2117
  690MPD2    C510258   4.352   1.434  15.823 -0.5364  0.0836  0.0312
  690MPD2     H10259   4.279   1.275  15.483  2.9001 -2.1300  0.9415
  690MPD2    H110260   4.479   1.567  15.721  0.0907  0.1255 -2.8090
  690MPD2    H210261   4.229   1.290  15.908 -0.4410  0.8013  0.6130
  690MPD2    H310262   4.380   1.470  15.922 -1.5744  1.3189 -0.1244
  690MPD2     N10263   4.455   1.474  15.471 -0.3017 -0.2766 -0.0405
  690MPD2    H510264   4.438   1.420  15.387 -2.3082 -1.1767  0.9537
  690MPD2    N110265   4.120   1.190  15.686 -0.3367 -0.3188  0.7960
  690MPD2    H710266   4.092   1.157  15.778 -1.6644  2.6928  1.4623
  691TMC3    C110267   3.955   1.066  15.595  0.0522 -0.5725  0.2425
  691TMC3    C210268   3.859   1.062  15.502 -0.1416  0.3456  0.0289
  691TMC3    C310269   3.766   0.964  15.518  0.5350 -0.1246  1.1831
  691TMC3    C410270   3.966   0.973  15.693 -0.5480  0.1084  0.9028
  691TMC3    C510271   3.869   0.886  15.711  0.6509  0.5075 -0.6960
  691TMC3    C610272   3.773   0.874  15.621 -0.3640 -0.1285 -0.0549
  691TMC3     C10273   4.064   1.151  15.569  0.2022  0.1979  0.4810
  691TMC3     O10274   4.080   1.178  15.454  0.3299  0.0016 -0.5416
  691TMC3     H10275   3.847   1.147  15.436 -2.7486 -1.6938 -2.1310
  691TMC3    H110276   4.044   0.963  15.768  0.0134  2.5516  0.6577
  691TMC3    H210277   3.684   0.812  15.631  0.8206 -1.9824 -1.1996
  691TMC3    C710278   3.886   0.785  15.809  0.2639  0.0793  0.1479
  691TMC3    C810279   3.632   0.996  15.474 -0.2151 -0.1929  0.4956
  691TMC3    O110280   3.952   0.808  15.909  0.1247 -0.0860 -0.7427
  691TMC3    O210281   3.567   0.902  15.433  0.0548  0.7883 -0.1963
  692TMC3    C110282   0.557   2.468  15.279  0.5397 -0.9722 -0.6598
  692TMC3    C210283   0.636   2.523  15.367 -0.3533  0.3195  0.4423
  692TMC3    C310284   0.757   2.471  15.412  0.4446  0.2334 -0.0142
  692TMC3    C410285   0.586   2.338  15.247  1.1902 -0.0528 -0.0374
  692TMC3    C510286   0.702   2.277  15.296 -0.4165 -0.3137  0.7813
  692TMC3    C610287   0.803   2.348  15.359 -0.2931  0.4127 -0.0449
  692TMC3     C10288   0.417   2.495  15.308  0.0952  0.4347  0.2526
  692TMC3     O10289   0.394   2.517  15.427  0.3299 -0.4381  0.8178
  692TMC3     H10290   0.595   2.603  15.428 -0.9233  0.1547  0.2769
  692TMC3    H110291   0.513   2.278  15.195 -0.7187  0.7226  1.7268
  692TMC3    H210292   0.879   2.300  15.419 -0.6944 -1.5051 -1.0669
  692TMC3    C710293   0.730   2.139  15.251 -0.6577 -0.0007  0.2764
  692TMC3    C810294   0.767   2.469  15.554 -0.6698  0.3302  0.0874
  692TMC3    O110295   0.671   2.104  15.151 -0.2192 -1.0935  0.3057
  692TMC3    O210296   0.876   2.465  15.605  0.4427  0.9696  0.3238
  693MPD2     C10297   0.427   0.635  10.315  0.3964 -0.0777  0.2271
  693MPD2    C110298   0.393   0.508  10.353  0.2076 -0.0891 -0.3859
  693MPD2    C210299   0.474   0.438  10.442 -0.1630  0.1570  0.4214
  693MPD2    C310300   0.577   0.500  10.502  0.2059 -0.3503  0.4607
  693MPD2    C410301   0.603   0.633  10.480 -0.4081 -0.1540  0.2843
  693MPD2    C510302   0.526   0.699  10.382 -1.0459 -0.3726 -0.3012
  693MPD2     H10303   0.439   0.342  10.478 -1.9688  0.0768 -1.5969
  693MPD2    H110304   0.685   0.682  10.530 -0.6086  1.3373 -0.8390
  693MPD2    H210305   0.366   0.697  10.250  0.1757  1.0591  1.5099
  693MPD2    H310306   0.559   0.799  10.355  0.2728 -0.4857  0.8661
  693MPD2     N10307   0.676   0.441  10.582 -0.2593  0.1719 -0.3391
  693MPD2    H510308   0.737   0.495  10.642 -1.3958 -0.4865  1.4205
  693MPD2    N110309   0.262   0.464  10.314  0.3619  0.2408  0.1827
  693MPD2    H710310   0.192   0.533  10.288  0.0083  0.3283  1.3789
  694TMC3    C110311   0.072   0.325  10.291  0.2757 -0.3125 -0.4656
  694TMC3    C210312   0.016   0.204  10.254  0.1793 -0.4140 -0.5263
  694TMC3    C310313   4.627   0.177  10.293  0.2880 -0.6453 -0.7497
  694TMC3    C410314   4.736   0.411  10.370  0.1759  0.6454  0.7468
  694TMC3    C510315   4.618   0.372  10.415  0.4486 -1.1505  0.1292
  694TMC3    C610316   4.556   0.260  10.377 -0.0713  0.8401  0.1131
  694TMC3     C10317   0.216   0.334  10.317 -0.6669  0.3318  0.1002
  694TMC3     O10318   0.280   0.229  10.315  0.1604 -0.1369 -0.3392
  694TMC3     H10319   0.074   0.132  10.196 -0.1400 -0.4797 -0.7638
  694TMC3    H110320   0.036   0.501  10.418  1.8538  0.4068 -0.1330
  694TMC3    H210321   4.457   0.233  10.412 -0.1227 -0.9052 -1.3356
  694TMC3    C710322   4.602   0.416  10.547 -0.3985 -0.6178 -0.1391
  694TMC3    C810323   4.558   0.067  10.229 -0.2440 -0.4878 -0.2333
  694TMC3    O110324   4.600   0.538  10.563  0.5132  0.4413 -0.2625
  694TMC3    O210325   4.440   0.080  10.211  0.1589 -0.3503  0.0968
  695MPD2     C10326   1.366   1.796  13.470  0.3082 -0.3955 -0.2759
  695MPD2    C110327   1.267   1.799  13.566 -0.1277  0.1874  0.2791
  695MPD2    C210328   1.154   1.871  13.546 -0.3433 -0.2395  0.0449
  695MPD2    C310329   1.142   1.946  13.430 -0.1034  0.0496 -0.0907
  695MPD2    C410330   1.240   1.952  13.331  0.0109  0.3338  0.6246
  695MPD2    C510331   1.350   1.879  13.357  0.0316 -0.1055 -0.3876
  695MPD2     H10332   1.083   1.866  13.628  1.4103 -1.3808  1.4965
  695MPD2    H110333   1.242   2.009  13.239  0.4588 -0.7051 -0.0095
  695MPD2    H210334   1.461   1.744  13.480 -0.0225 -1.1155 -0.9037
  695MPD2    H310335   1.425   1.884  13.278 -0.7582  0.4257 -1.0915
  695MPD2     N10336   1.021   2.013  13.411  0.3833  0.5104 -0.0249
  695MPD2    H510337   0.951   1.997  13.483  0.5108 -1.6843 -0.4064
  695MPD2    N110338   1.288   1.740  13.692  0.0240 -0.5005  0.5344
  695MPD2    H710339   1.222   1.763  13.765 -0.4825 -1.2397  0.3082
  696TMC3    C110340   0.839   2.126  13.320 -0.0402 -0.2627  0.4654
  696TMC3    C210341   0.747   2.024  13.330  0.4319  0.1513  1.3602
  696TMC3    C310342   0.626   2.064  13.340  0.1426 -0.1147 -0.4066
  696TMC3    C410343   0.812   2.256  13.290 -0.2175  0.1459 -0.7929
  696TMC3    C510344   0.684   2.292  13.283  0.2201  0.3172 -0.1143
  696TMC3    C610345   0.586   2.201  13.316 -0.3799  0.3566  0.7671
  696TMC3     C10346   0.980   2.088  13.308 -0.7627 -1.4050  0.0095
  696TMC3     O10347   1.043   2.139  13.213 -0.8184  0.2862  0.0871
  696TMC3     H10348   0.775   1.920  13.341 -0.0156 -0.2903 -1.5597
  696TMC3    H110349   0.898   2.314  13.261  0.3890 -1.1439 -1.5497
  696TMC3    H210350   0.483   2.235  13.311  0.2026  2.1104  0.4439
  696TMC3    C710351   0.642   2.423  13.324  0.0352 -0.9647 -0.2244
  696TMC3    C810352   0.525   1.966  13.380 -0.1556 -0.0575 -0.7003
  696TMC3    O110353   0.520   2.448  13.326  0.1227 -1.0228 -0.4768
  696TMC3    O210354   0.539   1.860  13.327  0.0109 -0.1260  0.4312
  697MPD2     C10355   0.480   3.844  15.611  0.7302 -0.1899 -0.0066
  697MPD2    C110356   0.503   3.774  15.490  0.0308 -0.0583  0.0300
  697MPD2    C210357   0.574   3.841  15.386  0.1190  0.4037 -0.6475
  697MPD2    C310358   0.624   3.967  15.401 -0.5406  0.4736  0.1143
  697MPD2    C410359   0.588   4.043  15.511  0.1494 -0.6272  0.5523
  697MPD2    C510360   0.522   3.973  15.613  0.4962  1.0236  0.9692
  697MPD2     H10361   0.595   3.776  15.302 -0.1282 -0.1739 -0.2644
  697MPD2    H110362   0.607   4.148  15.526  0.0609 -0.9747  3.0557
  697MPD2    H210363   0.426   3.815  15.701 -0.1432  0.3287 -0.3679
  697MPD2    H310364   0.494   4.034  15.698  2.5110 -0.7508  2.9244
  697MPD2     N10365   0.713   4.020  15.305  0.5181  0.2682 -0.4654
  697MPD2    H510366   0.758   3.954  15.243  0.5097  0.5287 -0.7493
  697MPD2    N110367   0.466   3.635  15.481  0.2923  0.0407  0.8866
  697MPD2    H710368   0.475   3.586  15.393  0.0786  0.2403  0.7533
  698TMC3    C110369   0.843   4.174  15.185  0.2142  0.4915  0.0560
  698TMC3    C210370   0.945   4.263  15.213  0.3164  0.1200  1.0170
  698TMC3    C310371   1.039   4.282  15.120  0.1434 -0.2937 -0.7988
  698TMC3    C410372   0.833   4.100  15.069 -0.1033  0.3348 -0.3049
  698TMC3    C510373   0.935   4.121  14.981 -0.2217  0.8456  0.0801
  698TMC3    C610374   1.034   4.212  15.000 -0.0301  0.8438 -0.6006
  698TMC3     C10375   0.755   4.149  15.300 -0.0251  0.1809 -0.7228
  698TMC3     O10376   0.706   4.248  15.348 -0.5786  0.0643  0.5017
  698TMC3     H10377   0.943   4.314  15.309 -0.6180 -1.5952  1.9149
  698TMC3    H110378   0.747   4.038  15.048 -0.3501  0.0807  1.4550
  698TMC3    H210379   1.104   4.232  14.920 -0.3878  0.1415 -1.0831
  698TMC3    C710380   0.912   4.061  14.846 -0.0499 -0.0642  0.4987
  698TMC3    C810381   1.173   4.315  15.170 -0.0883  0.0351 -0.2103
  698TMC3    O110382   0.797   4.032  14.824 -0.0817 -0.2946  0.2010
  698TMC3    O210383   1.207   4.270  15.280 -0.4347  0.1741 -0.8873
  699TMC3    C110384   0.748   2.136  12.903  0.2645 -0.0354  0.3433
  699TMC3    C210385   0.814   2.023  12.939  0.7103 -0.0197  0.1257
  699TMC3    C310386   0.759   1.898  12.913 -0.0107  0.0573  0.7244
  699TMC3    C410387   0.624   2.129  12.846 -0.3583 -0.0117 -0.0336
  699TMC3    C510388   0.561   2.006  12.837 -0.2176  0.3820  0.0947
  699TMC3    C610389   0.635   1.889  12.855 -0.0288 -0.0101  0.2411
  699TMC3     C10390   0.812   2.264  12.898 -0.7063  0.5799 -0.6617
  699TMC3     O10391   0.776   2.350  12.979  0.0643 -0.2126  0.4254
  699TMC3     H10392   0.911   2.017  12.986  0.6733  0.1244  0.2197
  699TMC3    H110393   0.572   2.223  12.828  0.3574  0.1897 -1.0775
  699TMC3    H210394   0.592   1.791  12.837  1.6965 -1.0900  2.1385
  699TMC3    C710395   0.419   2.007  12.860  0.3904  0.0231  0.0862
  699TMC3    C810396   0.789   1.792  12.995  0.8070  0.5820 -0.0838
  699TMC3    O110397   0.370   2.104  12.910  0.3429  0.2708  0.0982
  699TMC3    O210398   0.703   1.705  12.990  0.0940  0.3742  0.1314
  700TMC3    C110399   4.367   4.524  17.142 -0.3683 -0.8896 -0.8380
  700TMC3    C210400   4.448   4.420  17.110  0.1531 -0.0440 -0.3886
  700TMC3    C310401   4.568   4.414  17.173 -0.0073 -0.3928  0.1888
  700TMC3    C410402   4.396   4.617  17.234 -0.2732  0.2973 -0.6231
  700TMC3    C510403   4.511   4.604  17.305  0.2796  0.3507  0.5042
  700TMC3    C610404   4.599   4.501  17.279 -0.1339  0.1105 -0.3386
  700TMC3     C10405   4.303   4.588  17.034  0.1552  0.2856 -0.0572
  700TMC3     O10406   4.213   4.535  16.969  0.1585 -0.5220  1.1334
  700TMC3     H10407   4.418   4.358  17.027 -0.6060  0.1869 -0.2937
  700TMC3    H110408   4.315   4.687  17.253  0.4725  1.4187 -1.5834
  700TMC3    H210409   4.691   4.493  17.336  0.5807 -0.9065 -1.6385
  700TMC3    C710410   4.531   4.690  17.425 -0.5365 -0.6458  0.2665
  700TMC3    C810411   4.670   4.328  17.107  0.3296  0.3916 -0.4206
  700TMC3    O110412   4.455   0.051  17.439  0.7395  0.1777 -0.5245
  700TMC3    O210413   4.633   4.256  17.019 -0.1406  0.1517 -0.1007
  701TMC3    C110414   4.298   3.273  15.139  0.3315  0.8357 -0.6649
  701TMC3    C210415   4.292   3.254  15.010  0.0287 -0.7801 -0.6716
  701TMC3    C310416   4.398   3.291  14.933 -0.8341  0.6281 -0.5357
  701TMC3    C410417   4.409   3.324  15.198 -0.4194 -0.8789 -0.3410
  701TMC3    C510418   4.521   3.357  15.119 -0.2161  0.2071  0.1346
  701TMC3    C610419   4.516   3.343  14.980 -0.0808 -1.4616 -0.1417
  701TMC3     C10420   4.177   3.247  15.212  0.3734  0.5105 -0.1513
  701TMC3     O10421   4.111   3.149  15.187 -0.1128 -0.7303  0.3047
  701TMC3     H10422   4.194   3.227  14.971  0.7984 -1.3895 -2.1517
  701TMC3    H110423   4.403   3.345  15.305 -1.8407  0.6238 -0.7108
  701TMC3    H210424   4.596   3.379  14.916 -1.2238  0.9851 -0.1872
  701TMC3    C710425   4.635   3.423  15.186  0.5005 -0.3351  0.0551
  701TMC3    C810426   4.377   3.287  14.789  0.1629  0.2218 -0.4309
  701TMC3    O110427   4.714   3.490  15.114  0.5099  0.0583 -0.0127
  701TMC3    O210428   4.437   3.359  14.708 -0.1528 -0.2389  0.1048
  702MPD2     C10429   4.334   1.031  10.325  0.2315  0.5026 -0.0744
  702MPD2    C110430   4.242   1.096  10.411 -0.6202 -0.2424 -0.3330
  702MPD2    C210431   4.216   1.233  10.403  0.4501  0.1923  0.2175
  702MPD2    C310432   4.301   1.310  10.318  0.0125  0.0147 -0.6233
  702MPD2    C410433   4.394   1.241  10.244  0.0964  0.1128 -0.0642
  702MPD2    C510434   4.410   1.110  10.245  0.2314  0.0723  0.2283
  702MPD2     H10435   4.130   1.268  10.459  0.7937 -0.6931  1.2941
  702MPD2    H110436   4.461   1.299  10.180  1.4772 -1.4314 -0.0372
  702MPD2    H210437   4.343   0.923  10.323  0.7157  0.5775 -1.5404
  702MPD2    H310438   4.482   1.060  10.180  0.3049  0.3684  0.0848
  702MPD2     N10439   4.286   1.445  10.301  0.2232 -0.3489 -0.0309
  702MPD2    H510440   4.363   1.502  10.269  0.2967 -1.1298 -1.2137
  702MPD2    N110441   4.161   1.032  10.504 -0.0545  1.0835 -0.6565
  702MPD2    H710442   4.117   1.086  10.578 -1.6316 -1.9210  0.5900
  703TMC3    C110443   4.205   1.651  10.332  0.9783 -0.9371 -0.0212
  703TMC3    C210444   4.097   1.733  10.303 -0.1419 -0.2233  0.5291
  703TMC3    C310445   4.112   1.869  10.283  0.6002 -0.1442  0.4128
  703TMC3    C410446   4.323   1.712  10.363  0.1216 -0.4143  0.6123
  703TMC3    C510447   4.337   1.846  10.358  0.0111  0.0365 -0.1344
  703TMC3    C610448   4.237   1.927  10.309  0.1343  0.3378 -0.2710
  703TMC3     C10449   4.178   1.513  10.350  0.3305  0.4888  0.6577
  703TMC3     O10450   4.065   1.475  10.380  0.0203  0.2263  0.0480
  703TMC3     H10451   4.000   1.687  10.285 -0.0492  0.4647 -1.7206
  703TMC3    H110452   4.400   1.640  10.387 -1.5341 -2.2661  0.4356
  703TMC3    H210453   4.246   2.035  10.312 -3.1611  0.5880  0.7358
  703TMC3    C710454   4.466   1.910  10.363 -0.8179 -0.2870  0.1814
  703TMC3    C810455   3.990   1.963  10.301 -1.0143 -0.6684 -0.0845
  703TMC3    O110456   4.501   1.988  10.277  0.0339 -0.7567 -0.0960
  703TMC3    O210457   4.008   2.084  10.279  0.3280 -0.1576  0.5620
  704TMC3    C110458   1.783   3.685  12.100 -0.6324  1.2892  1.1596
  704TMC3    C210459   1.872   3.761  12.032 -0.3897 -0.3885  0.3591
  704TMC3    C310460   1.996   3.784  12.085  0.5552 -0.5244 -0.2158
  704TMC3    C410461   1.823   3.627  12.222  0.4780 -0.3245  0.1123
  704TMC3    C510462   1.948   3.635  12.262  0.3601  0.7034 -0.3077
  704TMC3    C610463   2.035   3.715  12.197  0.8161  0.0418  0.0137
  704TMC3     C10464   1.664   3.631  12.034 -0.0565 -1.1380  0.0953
  704TMC3     O10465   1.627   3.520  12.071  0.5844  0.0087  0.4621
  704TMC3     H10466   1.851   3.814  11.940  1.9520  0.3484  0.2518
  704TMC3    H110467   1.759   3.571  12.289  1.0807 -0.2329  0.7616
  704TMC3    H210468   2.132   3.737  12.239  1.5012  1.6640 -2.4758
  704TMC3    C710469   1.994   3.540  12.358  0.3670 -0.1898 -0.1079
  704TMC3    C810470   2.097   3.783  11.982 -0.2023 -0.3220  0.4337
  704TMC3    O110471   1.935   3.432  12.353 -0.4537 -0.3830 -0.1567
  704TMC3    O210472   2.199   3.839  12.016  0.0179  0.1580  0.3646
  705MPD2     C10473   0.813   1.635  16.440  0.8180 -0.7730  0.0525
  705MPD2    C110474   0.830   1.772  16.427 -0.0731  0.4115 -0.1237
  705MPD2    C210475   0.738   1.855  16.495  0.5544 -0.5078  0.1038
  705MPD2    C310476   0.631   1.798  16.566 -0.2568 -0.1993 -0.0135
  705MPD2    C410477   0.617   1.672  16.575  0.0450 -0.3151 -0.0025
  705MPD2    C510478   0.703   1.584  16.509 -0.3570 -0.1306  0.2324
  705MPD2     H10479   0.747   1.963  16.489 -0.2911 -0.5274 -1.4629
  705MPD2    H110480   0.532   1.628  16.626  0.2717 -2.0446 -1.1149
  705MPD2    H210481   0.887   1.563  16.406  2.7680  0.5929  1.3903
  705MPD2    H310482   0.707   1.478  16.530 -0.9922  0.3333  2.7007
  705MPD2     N10483   0.535   1.865  16.642 -0.2062  0.1048 -0.1879
  705MPD2    H510484   0.483   1.807  16.706 -1.3170  2.0128  0.6507
  705MPD2    N110485   0.923   1.831  16.335  0.3700  0.5928  0.1085
  705MPD2    H710486   0.923   1.931  16.322  0.6261  0.4457 -1.0374
  706TMC3    C110487   1.284   1.838  16.036 -0.4783 -0.2712  0.2986
  706TMC3    C210488   1.247   1.958  15.982  0.9912  0.5395 -0.4546
  706TMC3    C310489   1.122   2.009  16.011  0.6673  0.0574  0.3131
  706TMC3    C410490   1.214   1.785  16.139  0.3251 -0.2376  0.3879
  706TMC3    C510491   1.096   1.842  16.176 -0.0173  0.0079 -0.5980
  706TMC3    C610492   1.049   1.957  16.111 -0.3747  0.1899  0.1329
  706TMC3     C10493   1.404   1.763  15.989 -0.5411  0.2518  0.4389
  706TMC3     O10494   1.442   1.676  16.068 -0.2831  0.0438 -0.1203
  706TMC3     H10495   1.302   1.993  15.895  2.0622 -2.4135 -0.9707
  706TMC3    H110496   1.245   1.688  16.176  1.6091  0.4795  1.2027
  706TMC3    H210497   0.946   1.984  16.132 -0.0818  1.3110  0.1401
  706TMC3    C710498   1.007   1.752  16.257  0.0672  0.0942 -0.3308
  706TMC3    C810499   1.093   2.134  15.952 -0.0862  0.3155 -0.2221
  706TMC3    O110500   1.033   1.634  16.256  0.2634 -0.4550 -0.1654
  706TMC3    O210501   1.131   2.173  15.842  0.4152  0.0672 -0.4399
  707TMC3    C110502   2.560   0.837   1.451 -0.3735 -0.2965 -0.3205
  707TMC3    C210503   2.608   0.891   1.560 -0.3883  0.5303  0.2478
  707TMC3    C310504   2.573   0.843   1.684  0.1903  0.1306  0.0197
  707TMC3    C410505   2.481   0.736   1.456  0.4366  0.6466 -0.5422
  707TMC3    C510506   2.430   0.688   1.579  0.3608 -0.0907  0.6986
  707TMC3    C610507   2.476   0.743   1.700  1.0645 -0.0279  0.4766
  707TMC3     C10508   2.654   0.844   1.347 -0.1029  0.3097 -0.2866
  707TMC3     O10509   2.771   0.843   1.380  0.5691 -0.3276 -0.2282
  707TMC3     H10510   2.683   0.969   1.553 -0.9409  1.1540  1.3708
  707TMC3    H110511   2.440   0.682   1.371 -2.7545  0.2934  1.2062
  707TMC3    H210512   2.435   0.705   1.793 -0.1708  1.0687  0.3900
  707TMC3    C710513   2.352   0.565   1.565  0.4873  0.1956 -0.3113
  707TMC3    C810514   2.676   0.828   1.786  0.2040  0.1045  0.0583
  707TMC3    O110515   2.398   0.488   1.482 -0.3687 -0.1339  0.2742
  707TMC3    O210516   2.644   0.768   1.886  0.4901  1.0152  0.7332
  708MPD2     C10517   4.320   0.187  13.333 -0.1201 -0.3519  0.3007
  708MPD2    C110518   4.190   0.236  13.335 -0.5864 -0.5921 -0.2442
  708MPD2    C210519   4.110   0.199  13.441  0.3017  0.1863  0.5892
  708MPD2    C310520   4.148   0.098  13.527  0.2324  0.0665 -0.0875
  708MPD2    C410521   4.269   0.034  13.502  0.1321 -0.4596  0.3492
  708MPD2    C510522   4.357   0.082  13.408  0.6073  0.6416 -0.0993
  708MPD2     H10523   4.007   0.234  13.447  0.2042 -0.2336  1.3947
  708MPD2    H110524   4.298   4.685  13.560  0.4698  1.4877  3.0791
  708MPD2    H210525   4.389   0.217  13.255 -1.7088  1.4380 -0.4258
  708MPD2    H310526   4.456   0.041  13.395  0.1997 -1.2054  2.5676
  708MPD2     N10527   4.059   0.065  13.636 -0.3565 -0.0376 -0.4447
  708MPD2    H510528   3.990   0.138  13.650 -1.0212 -1.2840  2.7421
  708MPD2    N110529   4.152   0.335  13.238 -0.6930  0.3451 -0.1343
  708MPD2    H710530   4.226   0.360  13.173 -0.3686  2.1647  0.9404
  709TMC3    C110531   4.045   0.528  13.164 -0.3336  0.2067 -0.2143
  709TMC3    C210532   4.162   0.603  13.178 -0.2366  0.0731 -0.3367
  709TMC3    C310533   4.157   0.741  13.197  0.6263 -0.0348 -0.1683
  709TMC3    C410534   3.922   0.592  13.160 -0.5320 -0.0931 -0.3558
  709TMC3    C510535   3.918   0.723  13.189 -0.2034 -0.0116  0.1029
  709TMC3    C610536   4.031   0.808  13.206 -0.2397 -0.0511 -0.1539
  709TMC3     C10537   4.039   0.407  13.242  0.9074 -0.4332  0.0046
  709TMC3     O10538   3.934   0.386  13.305 -0.4631 -0.4133  0.1319
  709TMC3     H10539   4.254   0.551  13.200 -1.7340 -1.8575  1.4433
  709TMC3    H110540   3.834   0.529  13.158 -0.0420 -0.8133  0.5516
  709TMC3    H210541   4.027   0.912  13.236 -1.2988 -0.7449  2.0435
  709TMC3    C710542   3.823   0.744  13.302  0.7656  0.0497 -0.0230
  709TMC3    C810543   4.278   0.811  13.156  0.4878  0.5071  0.3182
  709TMC3    O110544   3.808   0.864  13.327  0.0136 -0.3672  0.3771
  709TMC3    O210545   4.297   0.921  13.210  0.0896 -0.2715 -0.7209
  710TMC3    C110546   0.512   1.342   0.185 -0.8113  0.5099  0.1177
  710TMC3    C210547   0.628   1.370   0.118 -0.6094  0.2667 -0.8288
  710TMC3    C310548   0.745   1.320   0.173 -0.2276  0.6908  0.2567
  710TMC3    C410549   0.503   1.260   0.294 -0.1674 -0.1892 -0.2015
  710TMC3    C510550   0.624   1.223   0.352 -0.2565 -0.6145  0.6515
  710TMC3    C610551   0.748   1.251   0.294  0.1979 -0.6195 -0.5958
  710TMC3     C10552   0.395   1.408   0.141 -0.2579 -0.0979 -0.3536
  710TMC3     O10553   0.376   1.416   0.018 -0.3459 -0.1705  0.4087
  710TMC3     H10554   0.621   1.428   0.026 -0.9285 -0.1795 -1.0872
  710TMC3    H110555   0.408   1.236   0.341  0.0347  1.7307  1.2048
  710TMC3    H210556   0.842   1.223   0.342  0.8882  1.0747 -0.9394
  710TMC3    C710557   0.612   1.172   0.485 -0.0858  0.3477 -0.2802
  710TMC3    C810558   0.874   1.346   0.108  0.3422  1.5837 -0.4809
  710TMC3    O110559   0.500   1.123   0.510 -0.5112 -1.0921 -0.6119
  710TMC3    O210560   0.856   1.390  17.745  0.4252 -0.3646  0.4860
  711TMC3    C110561   0.245   2.860  14.528 -0.1962  0.2037  0.2689
  711TMC3    C210562   0.232   2.878  14.665 -0.4863  0.1317  0.6109
  711TMC3    C310563   0.341   2.858  14.738 -0.2443 -0.2005 -0.1944
  711TMC3    C410564   0.369   2.843  14.475 -0.0656 -0.2175  0.6648
  711TMC3    C510565   0.477   2.828  14.554 -0.1170  0.2715 -0.7444
  711TMC3    C610566   0.464   2.836  14.691 -0.2030  0.2046  0.5784
  711TMC3     C10567   0.163   2.755  14.465  0.2996  0.0358 -0.4952
  711TMC3     O10568   0.214   2.708  14.362 -0.0564  0.1300 -0.1726
  711TMC3     H10569   0.135   2.905  14.706 -0.8841  0.1779 -0.3497
  711TMC3    H110570   0.378   2.842  14.367 -1.9598 -0.2512  0.5144
  711TMC3    H210571   0.550   2.811  14.752  0.0807 -0.0955  0.0595
  711TMC3    C710572   0.562   2.719  14.518  0.4439 -0.9289 -0.0849
  711TMC3    C810573   0.329   2.918  14.881 -0.1220  0.3621  0.1381
  711TMC3    O110574   0.672   2.713  14.567 -0.1222 -0.1369 -0.1133
  711TMC3    O210575   0.220   2.969  14.905  0.6377  0.3207  0.2970
  712MPD2     C10576   2.145   3.608  13.814 -0.2112  0.3253 -0.3600
  712MPD2    C110577   2.126   3.599  13.676  0.3093  0.1035 -0.7385
  712MPD2    C210578   2.140   3.714  13.602  0.7208 -1.5523  0.4466
  712MPD2    C310579   2.143   3.841  13.663 -0.6762 -0.0249  0.2335
  712MPD2    C410580   2.138   3.846  13.803 -0.0210 -0.3871 -0.0911
  712MPD2    C510581   2.162   3.729  13.873 -0.3853  0.0128 -0.3251
  712MPD2     H10582   2.125   3.706  13.495 -0.8809  2.3450  0.3847
  712MPD2    H110583   2.132   3.935  13.864 -0.7199  1.0511 -2.2833
  712MPD2    H210584   2.134   3.520  13.875 -0.5580  0.5988 -0.0277
  712MPD2    H310585   2.158   3.742  13.981 -2.0295  1.0187 -0.5049
  712MPD2     N10586   2.120   3.961  13.585 -0.5755  0.4101 -0.2352
  712MPD2    H510587   2.131   3.952  13.484  0.8389 -1.9968  0.1394
  712MPD2    N110588   2.126   3.469  13.625 -0.7663  0.0889  0.3283
  712MPD2    H710589   2.106   3.396  13.693  0.0459  0.1013  0.5816
  713TMC3    C110590   2.062   4.183  13.536  0.2935  0.4358  0.0831
  713TMC3    C210591   2.151   4.182  13.437 -0.6297 -0.8294  0.8122
  713TMC3    C310592   2.123   4.255  13.334  0.5651  0.3179 -0.2691
  713TMC3    C410593   1.955   4.261  13.552  0.3098 -0.4278 -0.0095
  713TMC3    C510594   1.922   4.335  13.439  0.8549  0.1112  0.6833
  713TMC3    C610595   2.012   4.334  13.330 -0.3795  0.0624 -0.0730
  713TMC3     C10596   2.085   4.082  13.634  0.3212  0.1039  0.0976
  713TMC3     O10597   2.045   4.107  13.745 -0.0255 -0.3112  0.1138
  713TMC3     H10598   2.243   4.126  13.447 -0.1480 -0.2491 -0.2906
  713TMC3    H110599   1.884   4.264  13.634  3.7230 -0.8218  2.9368
  713TMC3    H210600   2.010   4.405  13.248  0.7343  0.1925  0.0183
  713TMC3    C710601   1.823   4.441  13.459 -0.9628 -0.0926 -0.3067
  713TMC3    C810602   2.224   4.283  13.236  0.0386  0.1572 -0.3327
  713TMC3    O110603   1.791   4.468  13.577  0.1637 -0.4480  0.2184
  713TMC3    O210604   2.190   4.299  13.124 -0.1417 -0.2689 -0.7830
  714MPD2     C10605   3.544   2.324   0.810  0.5933  0.2893  0.2460
  714MPD2    C110606   3.551   2.188   0.840 -0.2963 -0.0718 -0.2644
  714MPD2    C210607   3.439   2.108   0.821  0.1853 -0.1987 -0.0409
  714MPD2    C310608   3.321   2.165   0.777  0.3095  0.2273 -0.1894
  714MPD2    C410609   3.316   2.302   0.746 -0.2410 -0.3224  0.0819
  714MPD2    C510610   3.433   2.377   0.762  0.2509 -0.0683  0.0212
  714MPD2     H10611   3.435   2.000   0.832  1.4213 -0.3090 -0.6690
  714MPD2    H110612   3.230   2.356   0.707  0.7642  3.0563  2.5408
  714MPD2    H210613   3.624   2.394   0.830  1.6372 -0.4256 -1.4479
  714MPD2    H310614   3.431   2.486   0.755  1.2371  0.0259  1.3873
  714MPD2     N10615   3.213   2.077   0.760  0.5708  0.0414 -0.2143
  714MPD2    H510616   3.223   1.981   0.792 -0.6618  0.7556  2.3199
  714MPD2    N110617   3.675   2.138   0.889 -0.4450 -0.2311 -0.0725
  714MPD2    H710618   3.747   2.206   0.908 -0.6079  0.0483 -0.4557
  715TMC3    C110619   3.836   1.985   0.958 -0.4069 -0.5405  0.1103
  715TMC3    C210620   3.900   1.862   0.941 -0.4599  0.0177 -0.2055
  715TMC3    C310621   4.006   1.833   1.021 -0.4108 -0.8123 -0.3157
  715TMC3    C410622   3.894   2.078   1.040 -0.3317 -0.1060 -0.2510
  715TMC3    C510623   3.996   2.035   1.124  0.4027  0.2723  0.2457
  715TMC3    C610624   4.057   1.920   1.110  0.1158 -0.7022  0.5070
  715TMC3     C10625   3.704   2.009   0.897 -0.2502  0.0657  0.6659
  715TMC3     O10626   3.651   1.909   0.845 -0.3331  0.2918 -0.4896
  715TMC3     H10627   3.858   1.793   0.869 -1.0972 -0.6265  0.7909
  715TMC3    H110628   3.849   2.176   1.053  0.0800  0.0139  0.2944
  715TMC3    H210629   4.150   1.906   1.163  0.8657  0.8650 -0.3981
  715TMC3    C710630   4.061   2.139   1.201  0.4498  0.2248  0.3134
  715TMC3    C810631   4.098   1.732   0.957 -0.4096  0.4393  0.4320
  715TMC3    O110632   4.181   2.126   1.223 -0.0781  0.2705 -0.2806
  715TMC3    O210633   4.059   1.692   0.850  0.4916 -0.5073  0.4318
  716MPD2     C10634   4.061   1.384   9.947  0.1757  0.3355  0.4488
  716MPD2    C110635   3.993   1.314   9.846 -0.7770 -0.0152  0.1608
  716MPD2    C210636   4.043   1.197   9.800 -0.0365 -0.7318  0.1209
  716MPD2    C310637   4.162   1.153   9.853 -0.5114 -0.0764 -0.1324
  716MPD2    C410638   4.233   1.226   9.949 -0.9293 -0.1382 -1.0398
  716MPD2    C510639   4.178   1.341   9.998  0.2436 -0.1399  0.1044
  716MPD2     H10640   3.999   1.134   9.724 -2.6822 -2.7522  3.3458
  716MPD2    H110641   4.331   1.207   9.990 -0.6657 -1.3753 -2.2437
  716MPD2    H210642   4.031   1.481   9.988  0.9288  1.5080 -1.7944
  716MPD2    H310643   4.224   1.395  10.080 -0.3642  0.8410 -0.1891
  716MPD2     N10644   4.214   1.038   9.794  0.6071  0.2744 -0.3658
  716MPD2    H510645   4.152   0.969   9.751  0.5222  0.5051 -0.6180
  716MPD2    N110646   3.882   1.376   9.780 -0.1203  0.9433 -0.2371
  716MPD2    H710647   3.845   1.449   9.841  1.6911  0.6007  1.2862
  717TMC3    C110648   4.381   0.893   9.716  0.5233  0.4867 -0.3552
  717TMC3    C210649   4.286   0.868   9.620  0.0274 -0.1536 -0.0517
  717TMC3    C310650   4.296   0.752   9.546 -0.2981  0.0980  0.0475
  717TMC3    C410651   4.495   0.817   9.736  0.9625 -0.6755 -0.5504
  717TMC3    C510652   4.500   0.699   9.659  0.0394 -0.1603 -0.0847
  717TMC3    C610653   4.404   0.670   9.564  0.4696  0.0384  0.0887
  717TMC3     C10654   4.351   1.011   9.787  0.6564 -0.6677 -0.7461
  717TMC3     O10655   4.452   1.074   9.825  0.0479 -0.4669  0.0050
  717TMC3     H10656   4.215   0.942   9.585  0.1090 -0.6262 -1.2306
  717TMC3    H110657   4.565   0.844   9.814 -0.2313  0.8919 -0.0565
  717TMC3    H210658   4.410   0.579   9.505  0.1526  0.9140 -1.2916
  717TMC3    C710659   4.625   0.628   9.663 -0.3959  0.4508  0.6737
  717TMC3    C810660   4.182   0.731   9.469 -0.1366 -0.0615 -0.0392
  717TMC3    O110661   4.720   0.696   9.689 -0.2050  0.7607 -0.3688
  717TMC3    O210662   4.136   0.830   9.415  0.8274 -1.0237  0.1373
  718MPD2     C10663   3.307   4.445  12.546 -0.3499 -0.2205  0.1949
  718MPD2    C110664   3.226   4.336  12.552  0.4422  0.1661 -0.3792
  718MPD2    C210665   3.258   4.234  12.645  0.1303  0.0800 -0.0877
  718MPD2    C310666   3.361   4.245  12.732 -0.0247 -0.0779  0.2103
  718MPD2    C410667   3.416   4.371  12.746  0.4648 -0.2819 -0.5889
  718MPD2    C510668   3.390   4.465  12.657 -0.2271 -0.1009 -0.2670
  718MPD2     H10669   3.217   4.135  12.627 -0.7389  0.7954 -2.0449
  718MPD2    H110670   3.491   4.394  12.822 -0.0487  1.7952 -0.6988
  718MPD2    H210671   3.289   4.526  12.476  1.0716  0.9347  1.1576
  718MPD2    H310672   3.436   4.564  12.663 -0.0402 -0.1463 -1.0077
  718MPD2     N10673   3.398   4.133  12.817 -0.3551 -1.0153  0.2558
  718MPD2    H510674   3.328   4.060  12.819 -2.1974  0.7386  0.1027
  718MPD2    N110675   3.146   4.313  12.439  0.2830 -0.0684 -0.0138
  718MPD2    H710676   3.146   4.381  12.364  0.7263 -0.6052 -0.4989
  719TMC3    C110677   3.051   4.158  12.286  0.1359 -0.4943 -0.7691
  719TMC3    C210678   3.026   4.021  12.286  0.1878  0.0580 -0.5394
  719TMC3    C310679   3.101   3.948  12.195  1.0416  0.3004 -0.0321
  719TMC3    C410680   3.129   4.218  12.193 -0.3231 -0.0603 -0.2987
  719TMC3    C510681   3.199   4.141  12.102  0.7239 -0.5184 -0.2692
  719TMC3    C610682   3.189   4.009  12.110 -0.9076  0.2434 -0.2854
  719TMC3     C10683   3.061   4.204  12.424  0.3417  0.4665  0.3589
  719TMC3     O10684   3.020   4.128  12.508 -0.0429 -0.2641 -0.3807
  719TMC3     H10685   2.973   3.966  12.363 -0.0384  2.1041  0.7950
  719TMC3    H110686   3.157   4.322  12.193 -1.2376  0.1722 -2.3567
  719TMC3    H210687   3.226   3.946  12.029 -0.1774  0.1362  0.1304
  719TMC3    C710688   3.338   4.171  12.099 -0.0073  0.1963 -0.0174
  719TMC3    C810689   3.184   3.846  12.266  0.8607  0.1445  0.2069
  719TMC3    O110690   3.370   4.290  12.093  0.1705 -0.2370 -0.5557
  719TMC3    O210691   3.306   3.847  12.253  0.0937 -0.6434  0.3609
  720MPD2     C10692   1.690   0.896  13.147 -0.4076 -0.0252  1.0034
  720MPD2    C110693   1.662   0.952  13.268  0.7121  0.2397  0.1987
  720MPD2    C210694   1.726   0.901  13.378  0.7626 -0.5539  0.5060
  720MPD2    C310695   1.827   0.804  13.367 -0.4465  0.2247 -0.9172
  720MPD2    C410696   1.848   0.743  13.247 -0.0514  0.2937 -0.5346
  720MPD2    C510697   1.778   0.792  13.139  0.1125  0.0637  0.1261
  720MPD2     H10698   1.711   0.945  13.476  0.5032 -0.8166  0.5821
  720MPD2    H110699   1.917   0.663  13.224  0.6194  0.0216  2.5493
  720MPD2    H210700   1.633   0.913  13.057  0.5957  0.5177  0.4776
  720MPD2    H310701   1.800   0.756  13.039  3.3228 -2.4072  1.6956
  720MPD2     N10702   1.892   0.764  13.488  0.1795  0.0135 -0.2650
  720MPD2    H510703   1.853   0.803  13.573  0.0259 -1.1001  0.1776
  720MPD2    N110704   1.571   1.053  13.292  0.3724 -0.3650  0.0126
  720MPD2    H710705   1.574   1.082  13.389  0.3885  0.7207 -0.3131
  721TMC3    C110706   2.048   0.679  13.631  0.0825 -0.0072  0.1197
  721TMC3    C210707   1.946   0.670  13.718  0.2486  0.3214  0.6499
  721TMC3    C310708   1.969   0.688  13.854  0.3360  0.1119 -0.2580
  721TMC3    C410709   2.169   0.709  13.671 -0.2596 -0.0638 -0.7092
  721TMC3    C510710   2.189   0.724  13.807 -0.3485  0.0760  0.9117
  721TMC3    C610711   2.093   0.716  13.900  0.5823 -0.5269  0.2405
  721TMC3     C10712   2.012   0.701  13.492 -0.4788 -0.6520 -1.0211
  721TMC3     O10713   2.097   0.700  13.402 -0.2069  0.0270  0.1170
  721TMC3     H10714   1.849   0.627  13.699  0.4423 -0.1674  0.7627
  721TMC3    H110715   2.250   0.714  13.599 -0.9199  1.6518 -1.3317
  721TMC3    H210716   2.107   0.729  14.007 -1.0534 -2.3269  0.6722
  721TMC3    C710717   2.327   0.754  13.850  0.5962 -0.3268 -0.4434
  721TMC3    C810718   1.848   0.722  13.924 -0.6376  1.0402 -0.5644
  721TMC3    O110719   2.413   0.760  13.759  0.1177  0.1303  0.0346
  721TMC3    O210720   1.760   0.782  13.866  0.0548 -0.7140  0.3284
  722MPD2     C10721   1.048   4.311  12.678 -0.4066 -0.0362  0.7809
  722MPD2    C110722   1.019   4.446  12.696  0.1220  0.0766  0.8963
  722MPD2    C210723   0.887   4.484  12.722  0.1184  0.4410 -0.2818
  722MPD2    C310724   0.788   4.387  12.738  0.5200 -0.5240  0.2902
  722MPD2    C410725   0.809   4.254  12.705  0.3629 -0.0627 -0.2368
  722MPD2    C510726   0.945   4.220  12.681 -0.8629  0.5729 -0.1427
  722MPD2     H10727   0.868   4.588  12.748 -0.3177  0.7664 -1.9596
  722MPD2    H110728   0.732   4.178  12.702  0.7186 -0.3205 -3.3105
  722MPD2    H210729   1.144   4.265  12.656  0.1206  1.3574  0.1216
  722MPD2    H310730   0.977   4.118  12.664 -1.5778 -0.1061  2.4655
  722MPD2     N10731   0.660   4.439  12.771 -0.0021  0.2489 -0.3291
  722MPD2    H510732   0.646   4.540  12.767  0.2020  0.2608 -0.6814
  722MPD2    N110733   1.121   4.539  12.666 -0.4965  0.1171  0.3691
  722MPD2    H710734   1.083   4.633  12.670  1.0421  0.7564  0.1173
  723TMC3    C110735   0.438   4.436  12.836 -0.2601  0.5567  0.7894
  723TMC3    C210736   0.328   4.358  12.858  0.3600 -0.1080  0.7709
  723TMC3    C310737   0.216   4.420  12.910  0.0556  0.0140 -0.2594
  723TMC3    C410738   0.445   4.562  12.889 -0.2784 -0.1915  0.0720
  723TMC3    C510739   0.337   4.611  12.958  0.6898  0.6697  0.3412
  723TMC3    C610740   0.215   4.546  12.949 -0.3143 -0.2361 -0.6547
  723TMC3     C10741   0.551   4.359  12.798 -0.5498  0.9233 -0.2991
  723TMC3     O10742   0.549   4.239  12.829 -0.2186  0.3678 -0.2816
  723TMC3     H10743   0.323   4.270  12.795 -1.8961 -0.2931  1.1972
  723TMC3    H110744   0.533   4.622  12.906  0.0214 -1.2256  2.2446
  723TMC3    H210745   0.124   4.598  12.976  0.4812  1.9889 -2.2620
  723TMC3    C710746   0.338   0.013  12.977 -0.2465 -0.6652 -0.0552
  723TMC3    C810747   0.088   4.348  12.909 -0.6747  0.8539 -0.2331
  723TMC3    O110748   0.422   0.087  12.925  0.1759  0.6145  0.3446
  723TMC3    O210749   4.728   4.420  12.919 -0.2103 -0.1600  0.3324
  724TMC3    C110750   1.351   2.619  10.189 -0.4969 -0.1729  0.1798
  724TMC3    C210751   1.242   2.643  10.120 -0.1669  0.8387  0.1168
  724TMC3    C310752   1.246   2.752  10.038  0.7054 -0.2989 -0.3856
  724TMC3    C410753   1.477   2.670  10.152 -0.0109  0.7328 -0.3801
  724TMC3    C510754   1.477   2.776  10.067 -0.0992  0.5169 -0.8099
  724TMC3    C610755   1.365   2.825  10.012 -0.9445  0.3088 -1.0179
  724TMC3     C10756   1.341   2.522  10.296  0.0281 -0.3202 -0.0207
  724TMC3     O10757   1.261   2.431  10.284 -0.1367  0.5281  0.4696
  724TMC3     H10758   1.145   2.605  10.151 -0.2580  0.4917 -0.6114
  724TMC3    H110759   1.561   2.618  10.196 -0.7008 -0.0844 -0.0259
  724TMC3    H210760   1.371   2.897   9.930 -0.9630  2.7596  1.1512
  724TMC3    C710761   1.603   2.847  10.044 -0.9459  0.1484  0.2006
  724TMC3    C810762   1.124   2.808   9.982 -0.5435  0.5558  1.2592
  724TMC3    O110763   1.613   2.935   9.956 -0.0617 -0.6053 -0.3991
  724TMC3    O210764   1.025   2.738   9.993  0.2141 -0.2023 -0.0797
  725TMC3    C110765   2.791   1.443  12.533  0.3428  0.3643 -0.4695
  725TMC3    C210766   2.715   1.513  12.442 -0.1661 -0.8234 -0.1841
  725TMC3    C310767   2.696   1.445  12.322 -0.1211  0.3723 -0.4440
  725TMC3    C410768   2.835   1.314  12.503 -0.7276 -0.1517  0.2242
  725TMC3    C510769   2.808   1.253  12.384 -0.2310 -0.9000 -0.3904
  725TMC3    C610770   2.735   1.319  12.289  0.6822 -0.8914 -0.0782
  725TMC3     C10771   2.821   1.502  12.661  0.0922  0.4349 -0.7848
  725TMC3     O10772   2.805   1.626  12.673 -0.2419 -0.2517  0.7386
  725TMC3     H10773   2.656   1.600  12.467  0.1030 -0.3503 -1.2047
  725TMC3    H110774   2.915   1.268  12.561  0.6103  0.5903 -1.0242
  725TMC3    H210775   2.716   1.271  12.194 -0.0032 -0.9466  0.0897
  725TMC3    C710776   2.869   1.122  12.357 -0.1453 -0.0352  0.5722
  725TMC3    C810777   2.586   1.489  12.244 -0.3904  0.3123 -0.2875
  725TMC3    O110778   2.861   1.103  12.238  0.1193 -0.2074 -0.0464
  725TMC3    O210779   2.477   1.427  12.252  0.3946 -0.1637  0.4185
  726MPD2     C10780   0.518   3.479  11.100  0.3376 -0.5156 -0.1843
  726MPD2    C110781   0.476   3.504  10.972  0.5860  0.2848 -0.3703
  726MPD2    C210782   0.338   3.492  10.949 -0.1479  0.3095 -0.2304
  726MPD2    C310783   0.251   3.458  11.054  0.8562 -0.5587 -0.0728
  726MPD2    C410784   0.302   3.434  11.179 -0.3722  0.3177 -0.5651
  726MPD2    C510785   0.438   3.454  11.204 -0.1555  0.3542  0.0355
  726MPD2     H10786   0.297   3.508  10.850 -0.5344  2.3388  0.2459
  726MPD2    H110787   0.239   3.411  11.264  1.0861  2.4021  1.0655
  726MPD2    H210788   0.624   3.477  11.125 -0.2334 -3.4089  1.9743
  726MPD2    H310789   0.474   3.431  11.304 -0.4034 -4.7553 -1.0838
  726MPD2     N10790   0.116   3.429  11.025 -0.1092 -0.2043 -0.4006
  726MPD2    H510791   0.067   3.366  11.087 -0.1752 -0.4302 -0.6845
  726MPD2    N110792   0.565   3.544  10.869  0.9777  0.5656  0.1003
  726MPD2    H710793   0.529   3.571  10.778  0.9796  1.5758  0.3998
  727TMC3    C110794   0.742   3.666  10.798 -0.7934 -0.0199  0.3606
  727TMC3    C210795   0.874   3.669  10.763  0.8377  0.0558  0.1919
  727TMC3    C310796   0.917   3.745  10.660 -0.5299  0.2641  0.0067
  727TMC3    C410797   0.655   3.756  10.736 -0.9048  0.1200  0.0024
  727TMC3    C510798   0.708   3.849  10.651  0.5999 -0.2553  0.5960
  727TMC3    C610799   0.838   3.839  10.607  0.2196 -0.2669 -0.1068
  727TMC3     C10800   0.695   3.570  10.891 -0.0171  0.6180  0.1091
  727TMC3     O10801   0.768   3.528  10.980  0.2367 -0.5386  0.3805
  727TMC3     H10802   0.941   3.593  10.803 -0.0087 -0.1170  1.2639
  727TMC3    H110803   0.550   3.755  10.765 -1.3034 -0.8532 -1.5164
  727TMC3    H210804   0.869   3.908  10.528  0.6754  1.6213  1.7321
  727TMC3    C710805   0.612   3.900  10.553 -0.1514  0.2170 -0.5297
  727TMC3    C810806   1.055   3.717  10.624  0.2934  0.0837 -0.0528
  727TMC3    O110807   0.653   4.004  10.507 -0.4413 -0.2879  0.1181
  727TMC3    O210808   1.093   3.598  10.635  0.0424  0.2179 -0.4151
  728TMC3    C110809   4.559   1.616  15.323  0.5172 -0.8714  0.2433
  728TMC3    C210810   4.692   1.638  15.297 -0.0614  0.5199  0.4408
  728TMC3    C310811   4.735   1.632  15.168  0.2929  0.3771  0.5486
  728TMC3    C410812   4.473   1.569  15.227 -0.2273 -0.5250 -0.1674
  728TMC3    C510813   4.524   1.547  15.101  0.1194  1.1607  0.1927
  728TMC3    C610814   4.656   1.568  15.069  0.1212  0.0115  0.3845
  728TMC3     C10815   4.538   1.578  15.461  0.2591 -0.3171 -0.4009
  728TMC3     O10816   4.594   1.641  15.552 -0.2037  0.1342 -1.0130
  728TMC3     H10817   0.021   1.672  15.375 -1.2222  0.5082  1.4372
  728TMC3    H110818   4.368   1.549  15.246  0.0028 -0.9879  0.6439
  728TMC3    H210819   4.696   1.549  14.970 -0.3345 -0.7297  0.3419
  728TMC3    C710820   4.440   1.494  15.004 -0.6513 -0.6628 -0.0261
  728TMC3    C810821   0.129   1.677  15.136 -0.8027 -0.0168 -0.1934
  728TMC3    O110822   4.332   1.455  15.043  0.1100 -0.2050 -0.8748
  728TMC3    O210823   0.214   1.664  15.222 -0.2379 -0.3904 -0.0362
  729MPD2     C10824   1.608   2.785  15.953 -0.0992 -0.3640  0.8812
  729MPD2    C110825   1.606   2.770  16.091  0.6394  0.5743  0.5175
  729MPD2    C210826   1.489   2.780  16.167  1.2605 -0.5366 -0.4743
  729MPD2    C310827   1.367   2.814  16.099  0.0494  0.9222 -0.0285
  729MPD2    C410828   1.374   2.831  15.961 -0.0247 -1.1814 -0.1237
  729MPD2    C510829   1.490   2.814  15.889 -0.1364 -0.0730 -0.4907
  729MPD2     H10830   1.488   2.753  16.272  2.0385 -1.5310 -0.7234
  729MPD2    H110831   1.281   2.857  15.912 -0.0033 -1.4106 -0.2834
  729MPD2    H210832   1.693   2.763  15.890 -1.7822 -0.2253 -1.4398
  729MPD2    H310833   1.485   2.826  15.782 -0.9766 -0.6990 -0.5291
  729MPD2     N10834   1.244   2.825  16.162  0.0798 -0.5737 -0.1041
  729MPD2    H510835   1.166   2.859  16.107 -0.0963 -1.2095 -0.2490
  729MPD2    N110836   1.734   2.751  16.151  0.4530  0.1490 -0.0674
  729MPD2    H710837   1.808   2.787  16.093 -0.7723 -0.2729 -1.8788
  730TMC3    C110838   1.072   2.815  16.323 -0.4585 -0.2293 -0.0824
  730TMC3    C210839   1.016   2.766  16.433  0.5050 -0.0503 -0.3379
  730TMC3    C310840   0.929   2.834  16.513  0.3169  0.3199  0.1627
  730TMC3    C410841   1.026   2.938  16.274  0.2461 -0.5573  0.3363
  730TMC3    C510842   0.952   3.013  16.360  0.4326 -0.0502 -0.3121
  730TMC3    C610843   0.908   2.962  16.483  0.5427 -0.1142  0.3147
  730TMC3     C10844   1.211   2.775  16.280  1.0349  0.1236 -0.5695
  730TMC3     O10845   1.279   2.712  16.360  0.1331  0.4394  0.1297
  730TMC3     H10846   1.044   2.672  16.478  0.9746 -0.5532 -1.6693
  730TMC3    H110847   1.079   2.992  16.197  0.4095  0.6705  1.3180
  730TMC3    H210848   0.847   3.017  16.554 -2.7128 -3.8641  0.4828
  730TMC3    C710849   1.004   3.147  16.369  0.3238  0.3648  0.0263
  730TMC3    C810850   0.936   2.793  16.651 -0.0680  0.5459  0.5749
  730TMC3    O110851   1.127   3.165  16.350  0.1292 -0.5212 -0.1092
  730TMC3    O210852   0.864   2.699  16.689  0.0801 -0.2472 -0.5560
  731MPD2     C10853   2.615   0.801  12.302  0.0702  0.2237 -0.2112
  731MPD2    C110854   2.522   0.865  12.221 -0.2178 -0.2543 -0.1304
  731MPD2    C210855   2.469   0.990  12.257  0.1166 -0.5725  0.3899
  731MPD2    C310856   2.497   1.036  12.387  0.1055  0.0426 -0.3155
  731MPD2    C410857   2.581   0.973  12.473 -0.9032  0.3243 -0.1420
  731MPD2    C510858   2.626   0.850  12.431 -0.4136 -0.1019 -0.0199
  731MPD2     H10859   2.401   1.042  12.191  1.2013 -1.0428 -1.0917
  731MPD2    H110860   2.614   1.005  12.571 -1.4082  0.9214 -0.1677
  731MPD2    H210861   2.662   0.706  12.278 -0.5850 -0.1536  0.0165
  731MPD2    H310862   2.674   0.781  12.500  0.1853 -2.0233 -2.3552
  731MPD2     N10863   2.422   1.149  12.426 -0.8638  0.5811 -0.2893
  731MPD2    H510864   2.357   1.187  12.358  0.8143  1.3061 -1.4784
  731MPD2    N110865   2.492   0.811  12.096 -0.3168 -0.2208 -0.3089
  731MPD2    H710866   2.459   0.882  12.032 -0.3992 -1.1449 -1.2910
  732TMC3    C110867   2.523   0.665  11.914 -0.7499 -0.1953  0.2020
  732TMC3    C210868   2.461   0.553  11.866  0.3210  0.4388 -0.5340
  732TMC3    C310869   2.454   0.547  11.728 -0.7095 -1.1730 -0.5116
  732TMC3    C410870   2.570   0.775  11.840 -0.4149  1.2955  0.0150
  732TMC3    C510871   2.560   0.762  11.706 -0.2072  0.7146 -0.7412
  732TMC3    C610872   2.502   0.653  11.646 -0.2092  0.4152 -0.5962
  732TMC3     C10873   2.524   0.681  12.061  0.0995  0.3056 -0.0693
  732TMC3     O10874   2.543   0.586  12.132 -0.2831 -0.1200 -0.5915
  732TMC3     H10875   2.435   0.470  11.930 -1.2761 -0.4733 -2.3693
  732TMC3    H110876   2.613   0.864  11.885  1.2272  0.9276 -0.8293
  732TMC3    H210877   2.500   0.646  11.538 -1.4512 -0.2256 -0.5298
  732TMC3    C710878   2.652   0.838  11.622 -0.2237 -0.4481  0.7728
  732TMC3    C810879   2.367   0.456  11.664 -0.8335 -0.6669 -0.0943
  732TMC3    O110880   2.622   0.832  11.505  0.1322  0.1711 -0.3761
  732TMC3    O210881   2.371   0.444  11.542  0.2983 -0.1857  0.1157
  733TMC3    C110882   3.481   3.856  13.147  0.5392  0.4275 -0.0595
  733TMC3    C210883   3.521   3.982  13.098 -0.1412  0.3519  1.2510
  733TMC3    C310884   3.515   3.998  12.964 -0.7966  0.8162  0.4790
  733TMC3    C410885   3.459   3.745  13.067 -0.2444  0.2538  0.9241
  733TMC3    C510886   3.480   3.767  12.931 -0.0388 -1.0473 -0.0492
  733TMC3    C610887   3.493   3.897  12.873  0.5539  0.0617  0.1161
  733TMC3     C10888   3.392   3.876  13.259  0.1216  0.0296  0.6490
  733TMC3     O10889   3.334   3.984  13.278 -0.0820  0.0834 -0.0039
  733TMC3     H10890   3.532   4.064  13.169  0.0529  2.4000 -1.1270
  733TMC3    H110891   3.413   3.655  13.106 -0.5136  0.0310  0.0856
  733TMC3    H210892   3.511   3.913  12.767  1.9422  0.1567  0.3662
  733TMC3    C710893   3.433   3.666  12.841  0.0842 -0.6904  0.3635
  733TMC3    C810894   3.488   4.132  12.914 -0.1120  0.4769  0.6081
  733TMC3    O110895   3.400   3.562  12.896 -0.1385  0.1564  0.7771
  733TMC3    O210896   3.560   4.226  12.950  0.5561  0.0007  0.4353
  734MPD2     C10897   0.684   1.273  12.756 -0.4501  0.3911  0.0595
  734MPD2    C110898   0.586   1.215  12.678  0.1904  0.4650 -0.2592
  734MPD2    C210899   0.497   1.295  12.615 -0.4349  0.0368  0.1998
  734MPD2    C310900   0.501   1.435  12.624 -0.1822 -0.0919  0.3028
  734MPD2    C410901   0.599   1.492  12.702 -0.2375 -1.3186  0.2855
  734MPD2    C510902   0.686   1.414  12.771  0.9812 -0.3419  0.1504
  734MPD2     H10903   0.422   1.251  12.550 -0.4865 -2.2250  1.7704
  734MPD2    H110904   0.595   1.596  12.734 -1.7398 -1.2692 -0.0650
  734MPD2    H210905   0.767   1.222  12.804 -1.5455 -1.1720  0.2808
  734MPD2    H310906   0.754   1.443  12.851  0.9399  1.1985 -0.3801
  734MPD2     N10907   0.402   1.500  12.541 -0.2075 -0.6370 -0.0620
  734MPD2    H510908   0.329   1.444  12.497  0.2425  0.6912 -2.4975
  734MPD2    N110909   0.589   1.075  12.661 -0.2044 -0.0456  0.2418
  734MPD2    H710910   0.668   1.024  12.701 -0.0030 -0.1807 -0.3343
  735TMC3    C110911   0.518   0.863  12.578 -0.5627 -0.6176  0.5495
  735TMC3    C210912   0.390   0.806  12.564 -0.1254 -0.2923  0.3748
  735TMC3    C310913   0.358   0.734  12.447  0.7234 -0.0904  0.2219
  735TMC3    C410914   0.612   0.858  12.484  0.3065 -0.3898  0.0583
  735TMC3    C510915   0.575   0.794  12.370  0.5811  0.5272 -0.1756
  735TMC3    C610916   0.452   0.728  12.347  0.1374 -0.5919  0.0509
  735TMC3     C10917   0.488   1.001  12.619 -0.6491  0.2060  0.1294
  735TMC3     O10918   0.370   1.030  12.599  0.0195 -0.2986  0.2138
  735TMC3     H10919   0.312   0.815  12.639  1.5200 -1.6925  2.2778
  735TMC3    H110920   0.706   0.911  12.482 -0.9126  1.7638  0.5460
  735TMC3    H210921   0.415   0.701  12.249  1.8537 -0.2247 -0.7032
  735TMC3    C710922   0.681   0.775  12.271  0.0455  0.2044  0.1382
  735TMC3    C810923   0.228   0.768  12.392 -0.7515  0.3909  1.0259
  735TMC3    O110924   0.759   0.870  12.271 -0.3333 -0.2281 -0.1171
  735TMC3    O210925   0.182   0.715  12.293  0.2024 -0.1647 -0.1303
  736MPD2     C10926   0.706   0.508  12.006 -0.2021  0.1059 -0.3978
  736MPD2    C110927   0.738   0.630  12.069  0.4397  0.2681  0.0873
  736MPD2    C210928   0.845   0.710  12.017  0.1952 -0.0208  0.0697
  736MPD2    C310929   0.905   0.666  11.895 -0.3000  0.1551 -0.0210
  736MPD2    C410930   0.867   0.552  11.833  0.7381 -0.5043  0.4116
  736MPD2    C510931   0.769   0.473  11.891  0.5383  0.2206 -0.4286
  736MPD2     H10932   0.885   0.796  12.069  0.7183 -0.1386 -0.1439
  736MPD2    H110933   0.899   0.532  11.732 -0.7073 -1.8607  0.2166
  736MPD2    H210934   0.624   0.456  12.053  0.0308  1.6343  1.6932
  736MPD2    H310935   0.734   0.384  11.841 -0.1424 -0.0944  0.5920
  736MPD2     N10936   1.020   0.730  11.840  0.1242  0.7096  0.2813
  736MPD2    H510937   1.070   0.668  11.777 -0.3355  0.6382 -0.0155
  736MPD2    N110938   0.668   0.658  12.194  0.4513 -0.0294  0.8125
  736MPD2    H710939   0.607   0.590  12.236 -0.6586 -0.9116 -2.2117
  737TMC3    C110940   1.186   0.876  11.779  0.1960  0.1884  0.9956
  737TMC3    C210941   1.187   0.998  11.721  0.0860 -0.5681 -0.4066
  737TMC3    C310942   1.271   1.021  11.620 -0.3176 -0.1649  0.3145
  737TMC3    C410943   1.272   0.781  11.732  0.1323 -0.9830  1.3190
  737TMC3    C510944   1.343   0.806  11.616  0.3329  0.0061  0.3916
  737TMC3    C610945   1.355   0.930  11.563  0.0372 -1.0304  0.0720
  737TMC3     C10946   1.067   0.851  11.863 -0.1377  0.2749 -0.1008
  737TMC3     O10947   1.007   0.948  11.908 -0.3223 -0.2413 -0.4541
  737TMC3     H10948   1.118   1.078  11.748  0.5840 -0.2180 -0.1773
  737TMC3    H110949   1.259   0.678  11.762 -0.0186 -0.8458  1.7211
  737TMC3    H210950   1.418   0.957  11.479 -1.6524  0.9262 -0.5528
  737TMC3    C710951   1.441   0.704  11.581  0.6756 -0.3604  0.1261
  737TMC3    C810952   1.306   1.156  11.577 -0.2777 -0.4514 -0.1604
  737TMC3    O110953   1.461   0.610  11.660  0.2262 -0.0465 -0.0414
  737TMC3    O210954   1.429   1.173  11.575 -0.0963 -0.5103  0.5795
  738MPD2     C10955   1.467   4.365  15.191  0.1734 -0.2225  0.0797
  738MPD2    C110956   1.386   4.392  15.081  0.6525 -0.1146  0.3993
  738MPD2    C210957   1.444   4.427  14.964  0.5119 -0.4902  0.3064
  738MPD2    C310958   1.579   4.439  14.946  0.3310  0.1888  0.4285
  738MPD2    C410959   1.661   4.406  15.048  0.6458  0.5936 -0.0395
  738MPD2    C510960   1.603   4.377  15.172  0.0289 -0.8034 -0.6613
  738MPD2     H10961   1.370   4.455  14.890  0.5353 -2.1858 -0.3462
  738MPD2    H110962   1.769   4.406  15.037  0.2609 -0.7770 -3.8296
  738MPD2    H210963   1.444   4.328  15.290  0.3454 -3.2476 -1.0096
  738MPD2    H310964   1.671   4.339  15.248 -1.1361 -0.3374  0.6107
  738MPD2     N10965   1.625   4.464  14.813  0.2118  0.1838  0.6154
  738MPD2    H510966   1.725   4.470  14.795 -0.0002  2.6202  0.1940
  738MPD2    N110967   1.250   4.375  15.078  0.4346  0.3312 -0.0590
  738MPD2    H710968   1.199   4.410  14.998  0.6891 -0.3553 -0.5245
  739TMC3    C110969   1.632   4.532  14.593 -0.1019 -0.6501 -0.1291
  739TMC3    C210970   1.567   4.541  14.477  0.6177 -0.6526  0.7306
  739TMC3    C310971   1.623   4.604  14.367 -0.0638 -1.0059  0.2820
  739TMC3    C410972   1.759   4.578  14.602  0.5658  0.0632  0.3196
  739TMC3    C510973   1.804   4.653  14.489  1.3537  0.3006  0.0043
  739TMC3    C610974   1.740   4.663  14.370  0.1775 -0.1525  0.2683
  739TMC3     C10975   1.547   4.495  14.705 -0.7208 -0.4615  0.4985
  739TMC3     O10976   1.428   4.523  14.698  0.4680 -0.4990  0.3734
  739TMC3     H10977   1.473   4.492  14.455 -0.2296  0.6341  1.5192
  739TMC3    H110978   1.803   4.597  14.699  1.6196  1.0344 -0.3460
  739TMC3    H210979   1.770   4.732  14.291 -1.1080 -0.2187 -0.2773
  739TMC3    C710980   1.930   4.717  14.501 -0.5740  0.2064  0.0057
  739TMC3    C810981   1.534   4.628  14.249  0.2122  1.0029  1.0327
  739TMC3    O110982   1.972   4.735  14.618  0.7203  0.0107  0.2912
  739TMC3    O210983   1.411   4.618  14.270  0.2698 -0.1715  0.2605
  740TMC3    C110984   1.612   1.107  14.037  0.0607  0.3596  0.8526
  740TMC3    C210985   1.667   1.023  14.130  0.6155 -0.6682 -0.0349
  740TMC3    C310986   1.800   0.991  14.138 -0.1927 -0.5325  1.0831
  740TMC3    C410987   1.697   1.137  13.927  0.0055 -0.4168  0.0129
  740TMC3    C510988   1.830   1.099  13.928 -0.5996  0.0845 -0.0229
  740TMC3    C610989   1.883   1.020  14.027 -0.0457  0.0806 -0.3819
  740TMC3     C10990   1.474   1.152  14.035 -0.7863 -0.1395 -0.1052
  740TMC3     O10991   1.427   1.183  13.925  0.2146  0.2996  0.1186
  740TMC3     H10992   1.602   0.992  14.212  0.3142 -0.2382 -0.1071
  740TMC3    H110993   1.673   1.199  13.841 -1.4828 -1.0906 -0.0641
  740TMC3    H210994   1.989   1.000  14.036 -0.7718 -2.9952  1.5972
  740TMC3    C710995   1.895   1.084  13.801 -0.1368 -0.2138  0.1077
  740TMC3    C810996   1.865   0.922  14.252  0.9549  0.0600 -0.3294
  740TMC3    O110997   1.990   1.007  13.790  0.3494 -0.2921  0.2031
  740TMC3    O210998   1.973   0.865  14.241  0.0250 -0.2672  0.2002
  741TMC3    C110999   1.301   0.271  14.184 -0.1573  0.5525  0.3809
  741TMC3    C211000   1.168   0.243  14.205  0.2597 -0.1060  0.6031
  741TMC3    C311001   1.130   0.210  14.332  0.5920 -0.0766  0.3719
  741TMC3    C411002   1.394   0.265  14.282 -0.4164  0.4286 -0.2685
  741TMC3    C511003   1.353   0.226  14.412 -0.1848 -0.2462 -0.7230
  741TMC3    C611004   1.222   0.193  14.437 -0.1301  0.4689  0.2245
  741TMC3     C11005   1.341   0.316  14.050  0.3273  0.1676 -0.4586
  741TMC3     O11006   1.251   0.338  13.967  0.0025  0.3970  0.2544
  741TMC3     H11007   1.094   0.251  14.126  0.4505 -0.4188  0.3943
  741TMC3    H111008   1.496   0.295  14.263 -0.9654 -1.1465 -5.6744
  741TMC3    H211009   1.187   0.169  14.537  0.2411 -0.4024  0.1485
  741TMC3    C711010   1.459   0.203  14.509 -0.3572  0.2661 -0.1455
  741TMC3    C811011   0.998   0.144  14.337 -0.4761 -0.9136 -0.4389
  741TMC3    O111012   1.575   0.210  14.470 -0.2176  0.1813 -0.0809
  741TMC3    O211013   0.920   0.155  14.244 -0.6296  0.0418 -0.2418
  742TMC3    C111014   1.191   3.806  15.477 -0.0974  0.2118 -0.0681
  742TMC3    C211015   1.130   3.845  15.358 -0.2663 -0.1626  0.2431
  742TMC3    C311016   1.114   3.756  15.260  0.0185  0.1638 -0.6282
  742TMC3    C411017   1.250   3.682  15.492 -0.5242 -1.0186  0.0346
  742TMC3    C511018   1.234   3.592  15.386  0.3149  0.4875  0.4870
  742TMC3    C611019   1.176   3.636  15.267 -0.2546  0.2136  0.5081
  742TMC3     C11020   1.174   3.885  15.597  0.3276  0.4623  0.4409
  742TMC3     O11021   1.165   4.004  15.586  0.4905  0.1727 -0.0394
  742TMC3     H11022   1.066   3.933  15.361  3.4777  2.5984 -1.9510
  742TMC3    H111023   1.311   3.661  15.579  1.4257 -0.9782 -1.3024
  742TMC3    H211024   1.155   3.551  15.203  0.0946  0.3699  0.1853
  742TMC3    C711025   1.285   3.456  15.383 -0.1477 -0.0883 -0.0690
  742TMC3    C811026   1.002   3.771  15.170 -0.5364  0.6438  0.0554
  742TMC3    O111027   1.332   3.421  15.275  0.0727 -0.0654  0.3432
  742TMC3    O211028   0.910   3.849  15.199  0.3206  0.0853 -0.7397
  743MPD2     C11029   3.838   0.548   1.843 -0.2655  0.6726 -0.0235
  743MPD2    C111030   3.813   0.493   1.720  0.6679  0.0207  0.7921
  743MPD2    C211031   3.911   0.416   1.669  1.1590  0.3582 -0.1601
  743MPD2    C311032   4.022   0.383   1.739  0.5583 -0.5608  0.2723
  743MPD2    C411033   4.036   0.427   1.871  0.3042 -0.7161  0.6229
  743MPD2    C511034   3.948   0.519   1.912  0.0958 -0.7785  0.0347
  743MPD2     H11035   3.905   0.368   1.572  1.9929  0.7201 -0.3948
  743MPD2    H111036   4.119   0.402   1.936 -0.0307 -0.6463  1.0831
  743MPD2    H211037   3.769   0.619   1.886 -1.5402 -0.3518 -0.3806
  743MPD2    H311038   3.956   0.576   2.004  0.5495 -2.4771  1.0611
  743MPD2     N11039   4.122   0.297   1.674  0.0424 -0.1482 -0.3790
  743MPD2    H511040   4.101   0.277   1.577 -1.5791  2.0054 -0.4830
  743MPD2    N111041   3.692   0.513   1.654  0.3699  0.1431  0.1651
  743MPD2    H711042   3.629   0.582   1.691  0.5088 -0.3099  1.2506
  744TMC3    C111043   3.536   0.515   1.470 -0.1545  0.0244 -0.0535
  744TMC3    C211044   3.454   0.588   1.552 -0.3540  0.0273 -0.5067
  744TMC3    C311045   3.358   0.661   1.487  0.0245 -0.2806  0.0642
  744TMC3    C411046   3.512   0.489   1.339  0.3799 -0.0183 -0.0936
  744TMC3    C511047   3.410   0.550   1.286 -0.3184  0.7583  0.6817
  744TMC3    C611048   3.332   0.645   1.350  0.5017  0.5451 -0.0663
  744TMC3     C11049   3.656   0.452   1.532 -0.4903  0.4042 -0.6567
  744TMC3     O11050   3.702   0.356   1.472  0.2699  0.3496 -0.1582
  744TMC3     H11051   3.478   0.587   1.657 -0.0938  0.8286 -0.5599
  744TMC3    H111052   3.591   0.427   1.297  0.2794 -0.5841  0.5483
  744TMC3    H211053   3.263   0.717   1.308  1.6476  1.1814 -0.8775
  744TMC3    C711054   3.401   0.517   1.149  0.2843 -0.3541  0.4833
  744TMC3    C811055   3.269   0.757   1.557  0.0445 -0.0559  0.4357
  744TMC3    O111056   3.472   0.437   1.091  0.4486 -0.5454 -0.2718
  744TMC3    O211057   3.202   0.835   1.491  0.0673 -0.2050  0.5055
  745TMC3    C111058   2.097   3.314  13.443 -0.7576  0.8010  0.2518
  745TMC3    C211059   1.978   3.279  13.509  0.6928  0.0216  0.2988
  745TMC3    C311060   1.863   3.252  13.446 -0.3281 -0.0503 -0.5417
  745TMC3    C411061   2.088   3.314  13.307 -0.0626  0.0974  0.0334
  745TMC3    C511062   1.971   3.290  13.245 -0.3577 -0.0839 -0.3956
  745TMC3    C611063   1.859   3.267  13.309  0.4240 -0.1189  0.0036
  745TMC3     C11064   2.166   3.432  13.491  0.8326  0.0782 -0.6749
  745TMC3     O11065   2.218   3.505  13.409  0.2107  0.2316  0.6448
  745TMC3     H11066   1.989   3.263  13.616 -1.1321 -1.2824  0.2878
  745TMC3    H111067   2.175   3.348  13.251 -0.0825  0.0994  0.0039
  745TMC3    H211068   1.762   3.252  13.264 -0.0251 -0.4986  1.0821
  745TMC3    C711069   1.957   3.369  13.131 -0.8771 -0.3067 -0.0588
  745TMC3    C811070   1.744   3.288  13.511 -0.4386  0.0959 -0.7704
  745TMC3    O111071   1.855   3.336  13.070 -0.1518 -0.9521  0.0225
  745TMC3    O211072   1.638   3.275  13.452 -0.3499 -0.3648 -0.1386
  746TMC3    C111073   4.121   0.896  10.884  0.1107  0.0460  0.9213
  746TMC3    C211074   4.170   0.929  10.756  0.1086  0.3828  1.1993
  746TMC3    C311075   4.128   0.854  10.649  1.4985  0.0318 -0.5454
  746TMC3    C411076   4.030   0.800  10.902  0.3399  0.1515  0.2941
  746TMC3    C511077   3.985   0.730  10.793 -0.2018 -0.2373 -0.2348
  746TMC3    C611078   4.044   0.749  10.671 -0.9858 -0.5404 -0.0953
  746TMC3     C11079   4.138   0.997  10.987  0.5054  0.1380 -0.1653
  746TMC3     O11080   4.053   1.018  11.072  0.5995 -0.0677 -0.1783
  746TMC3     H11081   4.233   1.015  10.734 -1.0775  0.9419 -0.0498
  746TMC3    H111082   4.001   0.781  11.005  0.8779  0.0215  0.4211
  746TMC3    H211083   4.001   0.703  10.583  0.3395 -0.9626 -0.5214
  746TMC3    C711084   3.859   0.671  10.793 -0.0961 -0.3550  0.4614
  746TMC3    C811085   4.167   0.889  10.517 -0.0591  0.3105 -0.1174
  746TMC3    O111086   3.809   0.677  10.685 -1.2240  0.2109  0.2963
  746TMC3    O211087   4.189   0.802  10.433  0.0581  0.2596 -0.2635
  747TMC3    C111088   2.127   0.812  10.780  0.2211 -0.7234 -0.1454
  747TMC3    C211089   2.056   0.732  10.866 -0.5025  0.0310  0.6162
  747TMC3    C311090   2.033   0.782  10.993  0.3012 -0.1574  0.2749
  747TMC3    C411091   2.193   0.922  10.824  0.0176 -0.7688 -0.4718
  747TMC3    C511092   2.159   0.967  10.950  0.0300  0.4430 -0.8551
  747TMC3    C611093   2.075   0.900  11.034  0.3716  0.1252  0.1154
  747TMC3     C11094   2.165   0.755  10.646  0.3426 -0.8262 -0.5997
  747TMC3     O11095   2.255   0.811  10.586 -0.3193  0.5174  0.0317
  747TMC3     H11096   2.017   0.633  10.844  0.0815 -0.3469  1.3232
  747TMC3    H111097   2.244   0.990  10.756  1.5686 -0.5597  0.9167
  747TMC3    H211098   2.072   0.927  11.139  3.6763 -1.9050  0.7519
  747TMC3    C711099   2.241   1.072  11.006  0.0786 -0.0541 -0.6765
  747TMC3    C811100   1.976   0.689  11.086  0.0645  0.3581  0.0581
  747TMC3    O111101   2.192   1.135  11.099 -0.3971 -0.2474  0.0378
  747TMC3    O211102   2.001   0.571  11.056 -0.3892  0.3212  0.3749
  748MPD2     C11103   2.672   1.092   0.694  0.4235 -0.2807 -0.2739
  748MPD2    C111104   2.742   1.157   0.791 -0.0226  0.3977  0.2183
  748MPD2    C211105   2.865   1.210   0.758  0.0665 -0.3188  0.3140
  748MPD2    C311106   2.912   1.213   0.628 -0.0531  0.4650  1.1367
  748MPD2    C411107   2.846   1.141   0.536 -1.0128  1.0685 -1.0723
  748MPD2    C511108   2.726   1.086   0.564  0.3583 -0.2121 -0.5939
  748MPD2     H11109   2.927   1.263   0.829 -1.2833  2.0105 -0.2576
  748MPD2    H111110   2.891   1.123   0.439  2.3106  0.1403  0.6242
  748MPD2    H211111   2.579   1.039   0.714  0.2974 -0.8231 -2.2635
  748MPD2    H311112   2.674   1.033   0.484  0.8850 -2.6199  0.6704
  748MPD2     N11113   3.039   1.272   0.607  0.3629 -0.0644  0.2908
  748MPD2    H511114   3.090   1.312   0.685 -1.0411  1.1907  0.5600
  748MPD2    N111115   2.695   1.168   0.922  0.2231  0.3074 -0.5403
  748MPD2    H711116   2.598   1.145   0.939  1.2920 -2.6824  1.5545
  749TMC3    C111117   3.220   1.359   0.495 -0.0789 -0.0490  0.1537
  749TMC3    C211118   3.281   1.336   0.609  1.0829  0.2028 -0.0824
  749TMC3    C311119   3.399   1.401   0.638 -0.7757 -0.0822  0.0670
  749TMC3    C411120   3.255   1.450   0.402 -0.0478 -0.8913 -0.0076
  749TMC3    C511121   3.366   1.531   0.430  0.2578 -0.4781 -0.3508
  749TMC3    C611122   3.434   1.507   0.547  0.5543 -0.7425  0.5213
  749TMC3     C11123   3.093   1.298   0.478  0.4909 -0.1478  0.1434
  749TMC3     O11124   3.042   1.291   0.362 -0.1256  0.1459 -0.1614
  749TMC3     H11125   3.262   1.245   0.664  1.4558 -0.3105 -0.7998
  749TMC3    H111126   3.188   1.465   0.317  0.7860  2.1814 -0.1237
  749TMC3    H211127   3.516   1.573   0.573  0.9276 -0.6444 -0.9471
  749TMC3    C711128   3.423   1.610   0.324  0.2056  0.1523  0.6739
  749TMC3    C811129   3.471   1.378   0.758 -0.6664 -0.1974 -0.3080
  749TMC3    O111130   3.529   1.667   0.353 -0.4642 -0.0603  0.2777
  749TMC3    O211131   3.590   1.410   0.744 -0.6819  0.9214 -0.3176
  750MPD2     C11132   3.989   3.033  11.778 -0.4649  0.3850  0.9439
  750MPD2    C111133   3.940   2.909  11.819  0.0609  0.7134 -0.0362
  750MPD2    C211134   3.978   2.792  11.752  0.5562  0.1296  0.0661
  750MPD2    C311135   4.068   2.790  11.645  0.6882 -0.0827  0.2942
  750MPD2    C411136   4.114   2.913  11.604 -0.0697  0.3753 -0.2647
  750MPD2    C511137   4.082   3.029  11.674 -0.6361 -0.0738  0.2265
  750MPD2     H11138   3.952   2.695  11.793  2.2770 -0.5557 -0.4279
  750MPD2    H111139   4.179   2.921  11.517  0.9212 -2.4419  0.2061
  750MPD2    H211140   3.949   3.128  11.811  1.2684  1.5810 -0.4299
  750MPD2    H311141   4.117   3.125  11.639 -0.4293  0.7665  2.7400
  750MPD2     N11142   4.091   2.679  11.560 -0.1512  0.5791 -0.2939
  750MPD2    H511143   4.132   2.701  11.469  2.9794 -2.0467  0.4936
  750MPD2    N111144   3.852   2.903  11.925  0.3349 -0.6261  0.2752
  750MPD2    H711145   3.800   2.983  11.958  0.6196 -0.0382 -0.7310
  751TMC3    C111146   4.033   2.469  11.460 -0.3724  0.6301  0.7939
  751TMC3    C211147   3.951   2.365  11.463  0.5999 -0.4106 -0.2786
  751TMC3    C311148   3.959   2.275  11.357  0.1650 -0.7449  0.1365
  751TMC3    C411149   4.121   2.487  11.351 -0.4423 -0.1277  0.7611
  751TMC3    C511150   4.115   2.400  11.248 -0.4642 -0.0476 -0.0103
  751TMC3    C611151   4.037   2.289  11.253 -0.1654  0.3172  0.0800
  751TMC3     C11152   4.034   2.555  11.575 -0.7875  0.1052 -0.0116
  751TMC3     O11153   3.996   2.510  11.679 -0.3904 -0.0340  0.3330
  751TMC3     H11154   3.883   2.362  11.547  1.2523  0.7052  0.2894
  751TMC3    H111155   4.200   2.560  11.359  0.0072 -0.5184 -0.2300
  751TMC3    H211156   4.052   2.207  11.183 -0.6062 -0.1214  0.4999
  751TMC3    C711157   4.195   2.427  11.134 -0.6407 -0.4237 -0.3200
  751TMC3    C811158   3.848   2.201  11.315  0.4241  0.6550  0.0348
  751TMC3    O111159   4.303   2.489  11.142 -0.6490 -0.2464 -0.0428
  751TMC3    O211160   3.832   2.170  11.196  0.1896 -0.4623 -0.0083
  752TMC3    C111161   2.069   2.079  17.141 -0.2914  0.6476  0.1525
  752TMC3    C211162   2.114   1.978  17.226  0.2909 -0.4392 -0.1566
  752TMC3    C311163   2.059   1.971  17.352  0.5170  0.3378  0.3289
  752TMC3    C411164   1.975   2.171  17.189  0.0082  0.8236  0.6187
  752TMC3    C511165   1.922   2.157  17.319 -0.4688  0.0119  0.3249
  752TMC3    C611166   1.958   2.055  17.394 -0.0052 -0.2122  0.1894
  752TMC3     C11167   2.127   2.083  17.011 -0.0169 -0.1508  0.0267
  752TMC3     O11168   2.202   1.991  16.988 -0.1781 -0.1680  0.5256
  752TMC3     H11169   2.194   1.908  17.206 -0.1686 -1.3840  1.2801
  752TMC3    H111170   1.971   2.267  17.138 -2.3256  1.0264  1.1890
  752TMC3    H211171   1.915   2.055  17.494  2.6420  2.2086  1.3165
  752TMC3    C711172   1.857   2.274  17.369 -0.6524 -0.0877  0.2443
  752TMC3    C811173   2.131   1.894  17.451  0.4511 -0.4931 -0.0796
  752TMC3    O111174   1.810   2.344  17.278 -0.6366  0.0945  0.5954
  752TMC3    O211175   2.061   1.816  17.511  0.0932 -0.0718  0.0395
  753TMC3    C111176   0.071   3.211  13.257 -0.0715 -0.2670  0.9122
  753TMC3    C211177   0.151   3.213  13.371  0.3967 -0.2231  0.8555
  753TMC3    C311178   0.227   3.105  13.403  0.4969 -0.0428  0.3192
  753TMC3    C411179   0.064   3.095  13.186  0.1360  0.2024  0.2891
  753TMC3    C511180   0.135   2.982  13.225  0.1874  0.0310 -0.1051
  753TMC3    C611181   0.226   2.993  13.326 -0.0090 -0.0292  0.3724
  753TMC3     C11182   4.719   3.317  13.227 -0.2656 -0.2004 -0.1785
  753TMC3     O11183   4.631   3.285  13.146  0.3775 -0.1660  0.0514
  753TMC3     H11184   0.155   3.302  13.433  0.6450  0.1004  0.3740
  753TMC3    H111185   4.737   3.085  13.100  1.1340 -0.7055 -0.3561
  753TMC3    H211186   0.282   2.908  13.363  0.4517 -0.1197 -0.5405
  753TMC3    C711187   0.103   2.863  13.158  0.4363  0.2250  0.3344
  753TMC3    C811188   0.306   3.104  13.522  0.3576 -0.2171  0.3086
  753TMC3    O111189   4.725   2.861  13.129  0.5075 -0.6386  0.5948
  753TMC3    O211190   0.339   2.991  13.565 -0.1290  0.0823  0.4389
  754MPD2     C11191   3.930   1.948  13.271 -0.4844 -0.0261 -0.0156
  754MPD2    C111192   3.851   1.833  13.259 -0.4696 -0.0478 -0.3097
  754MPD2    C211193   3.713   1.838  13.280  0.5196 -0.3933 -1.1463
  754MPD2    C311194   3.657   1.958  13.318  0.4327 -0.3328  0.1881
  754MPD2    C411195   3.739   2.071  13.318  0.8933 -0.2125 -0.2462
  754MPD2    C511196   3.879   2.067  13.310 -0.3604  0.5824  0.1723
  754MPD2     H11197   3.647   1.753  13.264 -2.0506  1.2198  0.7013
  754MPD2    H111198   3.701   2.171  13.333 -0.0164 -0.1442 -2.9923
  754MPD2    H211199   4.035   1.941  13.249 -0.7176 -0.8235 -0.8815
  754MPD2    H311200   3.944   2.154  13.308 -0.0908  0.3362 -2.0070
  754MPD2     N11201   3.523   1.972  13.337 -0.1706  0.0748 -0.0326
  754MPD2    H511202   3.497   2.070  13.334 -3.9340 -1.1074 -4.5299
  754MPD2    N111203   3.920   1.710  13.238  0.2947  0.4775 -0.6948
  754MPD2    H711204   4.018   1.724  13.213  0.8690 -1.1743  0.6945
  755MPD2     C11205   2.629   2.364  13.585  0.1051 -0.0243 -0.1204
  755MPD2    C111206   2.745   2.331  13.651  0.3390  0.3494  0.8211
  755MPD2    C211207   2.843   2.279  13.576  0.5748  0.3441  0.6460
  755MPD2    C311208   2.824   2.250  13.439  0.1991 -0.1658  0.1549
  755MPD2    C411209   2.700   2.264  13.379  0.4648  0.0433  0.1556
  755MPD2    C511210   2.609   2.327  13.455  1.1907  0.2738 -0.2526
  755MPD2     H11211   2.924   2.236  13.633  1.6121 -0.6533 -1.5793
  755MPD2    H111212   2.687   2.249  13.273 -0.0608  1.2191  0.0488
  755MPD2    H211213   2.545   2.415  13.632  0.5633  0.5893  0.0277
  755MPD2    H311214   2.522   2.367  13.404  1.6488 -1.4824 -2.3923
  755MPD2     N11215   2.925   2.197  13.360  0.0134  0.2071  0.0085
  755MPD2    H511216   2.899   2.168  13.266  3.2175 -1.0469 -0.4964
  755MPD2    N111217   2.773   2.359  13.786 -0.2317 -0.0814  0.5364
  755MPD2    H711218   2.859   2.323  13.826  0.1289 -1.5462 -1.5755
  756MPD2     C11219   3.463   3.211   9.711 -0.2125  0.2904  0.0428
  756MPD2    C111220   3.438   3.115   9.810  0.7156  0.0206  0.0341
  756MPD2    C211221   3.355   3.011   9.777 -0.2579  0.2703 -0.2575
  756MPD2    C311222   3.280   3.003   9.656  0.0585 -0.0189 -0.2428
  756MPD2    C411223   3.280   3.115   9.575 -1.0939 -0.6268  0.5281
  756MPD2    C511224   3.373   3.211   9.602 -0.7685  0.8491  0.5394
  756MPD2     H11225   3.336   2.945   9.861  1.8832 -0.4775 -0.3557
  756MPD2    H111226   3.216   3.138   9.491  1.2671 -0.9773 -1.3351
  756MPD2    H211227   3.530   3.295   9.715  0.8225 -0.5665  0.7533
  756MPD2    H311228   3.380   3.299   9.539  0.0405  1.8400  2.0119
  756MPD2     N11229   3.194   2.902   9.639  0.3435  0.1965 -0.0049
  756MPD2    H511230   3.200   2.826   9.706  1.1796 -0.4333 -0.8036
  756MPD2    N111231   3.513   3.111   9.928  0.2469  0.5411 -0.4446
  756MPD2    H711232   3.481   3.039   9.992  1.0277 -0.0137 -0.6804
  757MPD2     C11233   2.873   2.230  10.228  0.0053  0.5872  0.1526
  757MPD2    C111234   2.785   2.212  10.124 -0.1147 -0.2679 -0.0500
  757MPD2    C211235   2.794   2.287  10.009 -0.2103 -0.2277  0.2092
  757MPD2    C311236   2.886   2.386  10.002  0.9064  0.0396  0.1444
  757MPD2    C411237   2.992   2.396  10.092 -0.0862 -1.0344 -0.0587
  757MPD2    C511238   2.986   2.311  10.198 -0.6021 -0.3275 -0.1236
  757MPD2     H11239   2.731   2.276   9.922  2.8145 -2.1451 -1.7634
  757MPD2    H111240   3.077   2.462  10.077 -0.3335 -0.3691  1.5076
  757MPD2    H211241   2.879   2.176  10.322  1.0462 -0.1867 -0.3615
  757MPD2    H311242   3.067   2.294  10.268  0.6089 -0.4009 -1.5409
  757MPD2     N11243   2.886   2.455   9.884  0.4282 -0.0265  0.2580
  757MPD2    H511244   2.830   2.420   9.807  2.1566  1.7030 -1.8043
  757MPD2    N111245   2.686   2.113  10.147  0.8270 -0.1270 -0.7166
  757MPD2    H711246   2.692   2.068  10.238 -0.9444 -1.2722 -1.1670
  758MPD2     C11247   3.396   1.999  15.421  0.1984  0.9784  0.3946
  758MPD2    C111248   3.452   1.916  15.522  0.0328 -0.5558 -0.2079
  758MPD2    C211249   3.411   1.933  15.651 -0.0343 -0.1221  1.2428
  758MPD2    C311250   3.319   2.033  15.688 -0.0344 -0.2220 -0.3838
  758MPD2    C411251   3.281   2.120  15.595 -0.1044 -0.2599 -0.4470
  758MPD2    C511252   3.323   2.111  15.465  0.3866 -0.3009  0.0775
  758MPD2     H11253   3.439   1.859  15.725  0.7166 -2.2826 -1.2319
  758MPD2    H111254   3.218   2.207  15.615  0.7049 -0.6002  3.5540
  758MPD2    H211255   3.429   1.983  15.319  1.2361  0.9295  0.7355
  758MPD2    H311256   3.303   2.187  15.390  0.8925  1.9998  2.3053
  758MPD2     N11257   3.269   2.053  15.825 -0.2656  0.0870 -0.1036
  758MPD2    H511258   3.213   2.137  15.837 -0.9764 -0.3265 -0.5062
  758MPD2    N111259   3.550   1.819  15.483  0.4701  0.4888  0.0116
  758MPD2    H711260   3.560   1.791  15.386  1.0810 -0.7587  0.4419
  759MPD2     C11261   2.587   0.716  10.536 -0.1774  0.9044  0.2339
  759MPD2    C111262   2.635   0.620  10.450  0.0845  0.0657  0.8506
  759MPD2    C211263   2.715   0.658  10.343  0.1985  0.0284  0.5437
  759MPD2    C311264   2.727   0.794  10.312  0.3205 -0.4032 -0.0820
  759MPD2    C411265   2.686   0.890  10.400  0.1979 -0.0363 -0.6169
  759MPD2    C511266   2.616   0.846  10.515  0.2101 -0.1725 -0.4791
  759MPD2     H11267   2.741   0.585  10.267  0.0043  0.7992 -0.2567
  759MPD2    H111268   2.709   0.995  10.391 -1.5835  0.6931  3.1846
  759MPD2    H211269   2.535   0.686  10.626 -0.0125  0.0209  0.0345
  759MPD2    H311270   2.584   0.913  10.594  0.6953  0.7838 -1.0940
  759MPD2     N11271   2.793   0.827  10.194  0.0187  0.0276  0.0528
  759MPD2    H511272   2.848   0.758  10.145 -0.1017 -1.1946  1.6299
  759MPD2    N111273   2.633   0.475  10.476  0.3137 -0.5634  0.0357
  759MPD2    H711274   2.666   0.412  10.404  0.4173 -0.5899  0.1054
  760MPD2     C11275   2.265   2.698  11.248 -0.3289  0.0728 -0.3417
  760MPD2    C111276   2.371   2.705  11.330  0.2488  0.1848  0.1613
  760MPD2    C211277   2.440   2.587  11.365 -0.2284  0.4971 -0.3003
  760MPD2    C311278   2.395   2.463  11.326 -0.1647  0.2966  0.2037
  760MPD2    C411279   2.281   2.454  11.249 -0.2168 -0.3252  0.0770
  760MPD2    C511280   2.222   2.573  11.209 -0.4790 -0.4294  0.2523
  760MPD2     H11281   2.522   2.594  11.436 -0.7739  2.3559  0.1546
  760MPD2    H111282   2.254   2.360  11.201  1.0398 -0.6283 -0.0519
  760MPD2    H211283   2.207   2.784  11.216  1.8057  1.0843 -1.4978
  760MPD2    H311284   2.140   2.570  11.138 -0.7565 -2.2958  0.6628
  760MPD2     N11285   2.458   2.342  11.360 -0.1739 -0.6109 -0.3910
  760MPD2    H511286   2.408   2.255  11.341  0.7933 -1.4714  0.9919
  760MPD2    N111287   2.425   2.820  11.390 -0.7215  0.4250 -0.1505
  760MPD2    H711288   2.500   2.800  11.455 -1.0769  0.5681  0.3043
  761MPD2     C11289   3.500   1.852  11.451  0.1883 -0.3362  0.2129
  761MPD2    C111290   3.535   1.883  11.323 -0.1237  0.0815 -0.2491
  761MPD2    C211291   3.622   1.989  11.312  0.2569 -0.8778 -0.2398
  761MPD2    C311292   3.668   2.057  11.423 -0.0830  0.1158 -0.4896
  761MPD2    C411293   3.623   2.029  11.548 -0.3339  0.1687 -0.7155
  761MPD2    C511294   3.531   1.928  11.558  0.5708 -0.1401  0.1108
  761MPD2     H11295   3.672   2.007  11.217 -1.0532 -0.2227 -0.7951
  761MPD2    H111296   3.665   2.074  11.637 -0.9174  1.5052 -1.1194
  761MPD2    H211297   3.430   1.771  11.469  0.0071 -0.5792 -1.6106
  761MPD2    H311298   3.490   1.909  11.657  0.1170  0.6811  0.0795
  761MPD2     N11299   3.775   2.152  11.423  0.4675  0.3261  0.2984
  761MPD2    H511300   3.799   2.186  11.515 -1.1984  0.1713  0.7753
  761MPD2    N111301   3.503   1.792  11.216  0.2806 -0.2765 -0.2544
  761MPD2    H711302   3.445   1.715  11.245  1.3549 -1.5580 -1.4649
  762MPD2     C11303   3.535   2.091  10.501  0.3883 -0.1913 -0.1779
  762MPD2    C111304   3.562   1.957  10.525  0.7066 -0.5947  0.9502
  762MPD2    C211305   3.677   1.899  10.469  0.2477 -0.4612 -0.1454
  762MPD2    C311306   3.761   1.967  10.394 -0.3441  0.2111 -0.8509
  762MPD2    C411307   3.727   2.094  10.360 -0.0073  0.0910 -0.1718
  762MPD2    C511308   3.621   2.156  10.420 -0.1051 -0.0272 -0.0031
  762MPD2     H11309   3.705   1.794  10.476 -2.6717 -1.0800  2.4046
  762MPD2    H111310   3.791   2.144  10.288  1.5124 -1.0642  0.3758
  762MPD2    H211311   3.456   2.147  10.551 -0.5791 -0.0794 -1.8459
  762MPD2    H311312   3.602   2.259  10.392 -0.1936 -0.3545 -1.1201
  762MPD2     N11313   3.879   1.900  10.359 -0.4934  0.2033  0.1228
  762MPD2    H511314   3.884   1.803  10.387 -2.4873  0.1180  0.2062
  762MPD2    N111315   3.478   1.880  10.612 -0.4158 -0.0050 -0.0608
  762MPD2    H711316   3.413   1.934  10.668  0.4560  1.7733 -0.7682
  763MPD2     C11317   0.468   1.829  16.167  0.6575  0.2534 -0.6959
  763MPD2    C111318   0.398   1.851  16.045 -0.4793 -0.0678 -0.5726
  763MPD2    C211319   0.300   1.945  16.044  0.1999  0.2959  0.4054
  763MPD2    C311320   0.262   2.019  16.154 -0.5266 -0.5768  0.0670
  763MPD2    C411321   0.332   1.996  16.272 -0.0725 -0.1943 -0.3186
  763MPD2    C511322   0.439   1.911  16.274  0.3408  0.0982 -0.4039
  763MPD2     H11323   0.254   1.962  15.947 -0.1562  1.9370  0.8724
  763MPD2    H111324   0.324   2.042  16.370 -0.2663 -2.7476  0.8454
  763MPD2    H211325   0.549   1.759  16.186  2.5263  2.3726 -0.9590
  763MPD2    H311326   0.477   1.873  16.369  0.1246  1.1462  0.1021
  763MPD2     N11327   0.150   2.109  16.154 -0.8720 -0.5384 -0.3055
  763MPD2    H511328   0.148   2.176  16.230  3.1837 -0.5909 -0.1682
  763MPD2    N111329   0.439   1.789  15.925  0.1678  0.4972  0.1901
  763MPD2    H711330   0.384   1.812  15.843 -2.6193  2.7982  2.7115
  764MPD2     C11331   2.952   3.354  17.442  0.2803 -0.1578  0.4715
  764MPD2    C111332   2.858   3.301  17.356 -0.5517  0.2242 -0.2893
  764MPD2    C211333   2.784   3.191  17.406  0.4993  0.2424  0.3708
  764MPD2    C311334   2.817   3.123  17.522 -0.4622  0.4560 -0.5908
  764MPD2    C411335   2.923   3.168  17.589  0.1694  0.7723 -0.3078
  764MPD2    C511336   2.983   3.282  17.552  0.4033  0.3736 -0.0453
  764MPD2     H11337   2.696   3.164  17.349 -1.6615 -2.5935  4.9567
  764MPD2    H111338   2.966   3.119  17.676 -0.5620  4.4381  2.0992
  764MPD2    H211339   3.017   3.433  17.407  0.6528 -0.3232  0.7805
  764MPD2    H311340   3.070   3.306  17.613 -0.6761  1.5367  1.0519
  764MPD2     N11341   2.746   3.002  17.570  0.0641  0.6531 -0.0861
  764MPD2    H511342   2.675   2.961  17.510 -0.6874 -0.0907  1.3162
  764MPD2    N111343   2.833   3.356  17.230 -0.7762 -0.7177  0.1158
  764MPD2    H711344   2.763   3.304  17.178 -0.7161  1.5067 -2.1697
  765MPD2     C11345   3.211   1.264  15.434 -0.0246 -0.4122  0.0853
  765MPD2    C111346   3.281   1.328  15.534 -0.0511 -0.8940  0.2916
  765MPD2    C211347   3.413   1.290  15.560  0.2086 -0.4496 -0.1121
  765MPD2    C311348   3.469   1.187  15.484  0.1141  0.1098 -0.4302
  765MPD2    C411349   3.397   1.141  15.383  0.5824 -0.0884  0.3668
  765MPD2    C511350   3.267   1.170  15.356 -0.7838  0.4339 -0.0373
  765MPD2     H11351   3.483   1.342  15.624 -1.0633 -1.6833  2.2718
  765MPD2    H111352   3.433   1.068  15.311 -0.0140 -0.8417  0.8291
  765MPD2    H211353   3.106   1.288  15.422 -0.0540 -0.3647  0.4453
  765MPD2    H311354   3.204   1.114  15.288 -0.4686  0.6779 -0.5296
  765MPD2     N11355   3.594   1.125  15.518 -0.0136 -0.3614  0.5938
  765MPD2    H511356   3.656   1.171  15.583  1.6822 -3.0185  0.8672
  765MPD2    N111357   3.209   1.426  15.605  0.0979  0.7249  0.6985
  765MPD2    H711358   3.109   1.433  15.586  0.3800  0.2420 -0.9960
  766MPD2     C11359   2.513   1.399  15.525  0.6411  0.3519 -0.4784
  766MPD2    C111360   2.646   1.374  15.534 -0.6035 -0.1873 -0.0755
  766MPD2    C211361   2.706   1.292  15.439  0.2298  0.1617 -0.1308
  766MPD2    C311362   2.629   1.226  15.344  0.2610 -0.0938 -0.0587
  766MPD2    C411363   2.491   1.236  15.353  0.3809  0.0148 -0.1099
  766MPD2    C511364   2.439   1.318  15.447  0.1788  0.6467  0.0801
  766MPD2     H11365   2.812   1.275  15.445  0.3852  1.3240  0.2653
  766MPD2    H111366   2.424   1.179  15.290  0.0521  0.6598 -0.3377
  766MPD2    H211367   2.469   1.475  15.589 -0.8636  0.6389 -1.8511
  766MPD2    H311368   2.332   1.336  15.452  0.0579 -0.1395  0.2951
  766MPD2     N11369   2.687   1.155  15.234 -0.5170 -0.3557  0.0134
  766MPD2    H511370   2.629   1.109  15.165  0.6110  0.8726 -1.7673
  766MPD2    N111371   2.720   1.460  15.614  0.4317  0.3036  0.1346
  766MPD2    H711372   2.674   1.533  15.668 -1.4791 -0.3070 -0.6541
  767MPD2     C11373   2.234   1.348  15.096  0.3723 -0.2192 -0.1993
  767MPD2    C111374   2.355   1.371  15.043  0.3950  0.5803  0.4938
  767MPD2    C211375   2.379   1.315  14.920  0.0989 -0.0410  0.3017
  767MPD2    C311376   2.280   1.245  14.854 -0.1975  0.4515  0.1782
  767MPD2    C411377   2.149   1.238  14.906  0.4078 -0.1675  0.3778
  767MPD2    C511378   2.131   1.285  15.030 -0.7484  0.4644  0.0236
  767MPD2     H11379   2.465   1.321  14.853 -0.3919 -1.8212 -0.4712
  767MPD2    H111380   2.063   1.198  14.855 -0.8008  1.1448  1.3886
  767MPD2    H211381   2.214   1.373  15.199  2.2792 -0.1638  0.1640
  767MPD2    H311382   2.040   1.269  15.087 -1.4465 -1.1520 -1.5142
  767MPD2     N11383   2.302   1.182  14.733 -0.0075 -0.0150  0.2555
  767MPD2    H511384   2.401   1.175  14.711 -0.5469  1.6627 -2.7050
  767MPD2    N111385   2.453   1.452  15.102  0.5687  0.7650 -0.1096
  767MPD2    H711386   2.423   1.490  15.191 -0.9746 -0.5608 -0.0694
  768MPD2     C11387   3.735   0.447  10.212  0.2935 -0.1885  0.2105
  768MPD2    C111388   3.694   0.375  10.320 -0.1212 -0.2050  0.4106
  768MPD2    C211389   3.784   0.352  10.427 -0.6495  0.0668 -0.1963
  768MPD2    C311390   3.917   0.398  10.425  0.0128 -0.7622  0.4497
  768MPD2    C411391   3.966   0.464  10.312  0.2326  0.2523  0.2400
  768MPD2    C511392   3.873   0.492  10.216 -0.3490  0.0532 -0.1712
  768MPD2     H11393   3.737   0.302  10.511  1.5676 -0.4832  0.7095
  768MPD2    H111394   4.069   0.496  10.310  0.1235  0.4760 -2.4848
  768MPD2    H211395   3.667   0.478  10.134  1.3669 -0.2010 -0.7292
  768MPD2    H311396   3.909   0.554  10.135  2.1947 -2.9137 -1.3244
  768MPD2     N11397   4.002   0.375  10.540  0.0346 -0.0246  0.1924
  768MPD2    H511398   4.082   0.437  10.551  1.7104 -1.5878 -3.1448
  768MPD2    N111399   3.560   0.326  10.341 -0.0282  0.4712  0.1297
  768MPD2    H711400   3.534   0.306  10.437 -1.2400 -0.8576 -0.4862
  769MPD2     C11401   4.154   3.011  14.419 -0.2170  0.3613 -0.3868
  769MPD2    C111402   4.127   2.947  14.536 -0.3725 -0.0143 -0.5563
  769MPD2    C211403   4.189   3.008  14.649 -0.0383  0.2576 -0.2405
  769MPD2    C311404   4.273   3.117  14.641  0.0661  0.5415  0.6855
  769MPD2    C411405   4.288   3.187  14.524 -0.9190 -0.3326 -1.4334
  769MPD2    C511406   4.231   3.127  14.411  0.0003 -0.4484 -0.2837
  769MPD2     H11407   4.197   2.957  14.744  1.3323 -0.4862 -0.7567
  769MPD2    H111408   4.342   3.280  14.515  0.8375 -1.2965 -0.9343
  769MPD2    H211409   4.114   2.958  14.334 -1.0085  0.7120 -0.2288
  769MPD2    H311410   4.245   3.163  14.310 -1.1300  2.1119  0.4747
  769MPD2     N11411   4.313   3.166  14.763 -0.4430 -0.1859  0.4808
  769MPD2    H511412   4.305   3.107  14.845 -1.1007 -0.8816 -0.0794
  769MPD2    N111413   4.059   2.827  14.534 -0.4342 -0.3019  0.6401
  769MPD2    H711414   4.019   2.798  14.445 -1.2870  1.3110  0.5096
  770MPD2     C11415   4.031   1.775  14.736  0.5229 -0.4615 -0.4851
  770MPD2    C111416   3.906   1.815  14.687  1.0471 -1.3328  0.3644
  770MPD2    C211417   3.869   1.939  14.679 -0.5720  0.5778 -0.7280
  770MPD2    C311418   3.968   2.035  14.705 -0.5765  0.0321 -0.2709
  770MPD2    C411419   4.098   2.001  14.751  0.2571  0.2286 -0.1998
  770MPD2    C511420   4.125   1.869  14.765 -0.4959 -0.2253 -0.5173
  770MPD2     H11421   3.766   1.965  14.656 -1.7747 -3.1695  0.3759
  770MPD2    H111422   4.179   2.072  14.762  3.3455 -3.1516 -1.2261
  770MPD2    H211423   4.050   1.670  14.757  1.8369  0.1433  1.3451
  770MPD2    H311424   4.218   1.837  14.809 -0.4512 -2.2609 -2.0580
  770MPD2     N11425   3.933   2.168  14.695  0.2008  0.3119  0.0457
  770MPD2    H511426   3.838   2.191  14.666  0.3134  0.6260 -0.0735
  770MPD2    N111427   3.827   1.702  14.668  0.0559 -0.9603 -0.5532
  770MPD2    H711428   3.864   1.612  14.699  0.1442 -0.4571  0.8352
  771MPD2     C11429   0.375   0.852  13.898 -0.6232  0.3537  0.3545
  771MPD2    C111430   0.285   0.910  13.812  0.0568 -0.1689  0.2365
  771MPD2    C211431   0.166   0.843  13.778 -0.3602 -0.4944  0.0595
  771MPD2    C311432   0.150   0.713  13.815  0.2125  0.3538 -0.1938
  771MPD2    C411433   0.246   0.664  13.906 -0.0054 -0.3964  0.0649
  771MPD2    C511434   0.350   0.739  13.953 -0.4872 -1.1352  0.0286
  771MPD2     H11435   0.084   0.875  13.715  1.6574  0.7001 -1.9417
  771MPD2    H111436   0.234   0.570  13.959  0.8675 -0.9968 -0.7982
  771MPD2    H211437   0.471   0.896  13.924  0.0087 -0.2383 -0.9697
  771MPD2    H311438   0.421   0.703  14.027  3.4685  0.2964 -3.0565
  771MPD2     N11439   0.040   0.645  13.769  0.3198  0.2011  0.1248
  771MPD2    H511440   4.701   0.690  13.720 -2.5717 -3.4669  1.3437
  771MPD2    N111441   0.310   1.037  13.757  0.1134 -0.4193 -0.3708
  771MPD2    H711442   0.239   1.066  13.691  0.1639 -1.3497 -0.8417
  772MPD2     C11443   4.674   1.575  13.417  0.5617  0.1938  0.0488
  772MPD2    C111444   4.707   1.519  13.538 -0.3641 -0.3608  0.3647
  772MPD2    C211445   4.604   1.505  13.629 -0.5180  0.1273 -0.7167
  772MPD2    C311446   4.474   1.546  13.603  0.7884 -0.2436  0.1435
  772MPD2    C411447   4.450   1.618  13.490 -0.0298  0.0130 -0.0504
  772MPD2    C511448   4.545   1.635  13.394  0.1826 -0.9087 -0.3861
  772MPD2     H11449   4.628   1.469  13.728  3.2614 -1.2148 -2.1401
  772MPD2    H111450   4.354   1.664  13.469 -0.1457 -1.0514 -1.8721
  772MPD2    H211451   0.000   1.587  13.330  0.9176 -0.3513  0.2411
  772MPD2    H311452   4.516   1.689  13.305  0.3767  2.4004  1.5660
  772MPD2     N11453   4.366   1.517  13.691  0.0828 -0.8632  0.6453
  772MPD2    H511454   4.281   1.567  13.667  0.6677 -0.9977 -1.6892
  772MPD2    N111455   0.096   1.460  13.570  0.4270 -0.6615  0.2082
  772MPD2    H711456   0.113   1.436  13.667  2.0935 -0.3953 -0.0118
  773MPD2     C11457   3.864   2.285  17.732 -0.0970 -0.0093 -0.4275
  773MPD2    C111458   3.837   2.169  17.657  0.7505 -0.3888 -0.3840
  773MPD2    C211459   3.867   2.049  17.716  0.0238  0.0609  0.1315
  773MPD2    C311460   3.932   2.037   0.091 -0.2437  0.0664  0.0206
  773MPD2    C411461   3.965   2.154   0.154 -0.3048 -0.7856 -0.2363
  773MPD2    C511462   3.928   2.273   0.105 -0.4366 -0.4084  0.2036
  773MPD2     H11463   3.844   1.953  17.672  0.0856 -0.9543  2.3026
  773MPD2    H111464   4.024   2.144   0.245  0.3134 -1.0390 -0.6671
  773MPD2    H211465   3.850   2.384  17.689 -1.7386 -1.6681 -3.6863
  773MPD2    H311466   3.934   2.352   0.179 -0.1164 -1.6224  1.4859
  773MPD2     N11467   3.978   1.910   0.119  0.3320 -0.3847 -0.0885
  773MPD2    H511468   3.951   1.835   0.057 -2.8145  1.4598 -0.9554
  773MPD2    N111469   3.766   2.172  17.535 -0.0605 -0.2597 -0.4350
  773MPD2    H711470   3.755   2.083  17.488 -0.1787 -1.8483  2.6276
  774MPD2     C11471   3.082   1.063  13.513  0.1211  0.0515  0.2886
  774MPD2    C111472   3.086   1.174  13.595  0.8470 -0.0450 -0.2482
  774MPD2    C211473   3.193   1.261  13.579 -0.0267  0.5570  0.7280
  774MPD2    C311474   3.279   1.247  13.475 -0.4226  0.2051  0.0421
  774MPD2    C411475   3.264   1.148  13.376  0.4102  0.6956 -1.1140
  774MPD2    C511476   3.154   1.064  13.393  0.2901 -0.1230  0.7117
  774MPD2     H11477   3.223   1.333  13.655 -0.6774  1.7392 -0.1329
  774MPD2    H111478   3.329   1.130  13.292 -0.6615  2.4235 -2.3012
  774MPD2    H211479   3.002   0.992  13.532 -0.9723  0.6381 -2.0729
  774MPD2    H311480   3.128   0.992  13.317  0.6914  1.5541 -1.0193
  774MPD2     N11481   3.394   1.330  13.477 -0.4699 -0.5115 -0.7000
  774MPD2    H511482   3.400   1.410  13.540  1.8504 -2.7376  1.8927
  774MPD2    N111483   3.006   1.182  13.707 -0.0698  0.1275 -0.7447
  774MPD2    H711484   2.967   1.095  13.743  0.6151 -1.5192 -3.9336
  775MPD2     C11485   4.490   2.970  15.240  0.0349 -0.3694 -0.2035
  775MPD2    C111486   4.507   3.054  15.351 -0.2778  0.3755 -0.9846
  775MPD2    C211487   4.628   3.105  15.383 -0.1994 -0.2520 -0.2700
  775MPD2    C311488   4.734   3.089  15.294 -0.0487 -0.4307 -0.0488
  775MPD2    C411489   4.722   3.011  15.178 -0.1118  0.3243  0.1133
  775MPD2    C511490   4.599   2.951  15.160 -0.4296  0.3589 -0.4387
  775MPD2     H11491   4.639   3.169  15.469  0.6944  2.7363 -2.6124
  775MPD2    H111492   0.063   2.991  15.107  0.4509  1.5002  0.3983
  775MPD2    H211493   4.395   2.929  15.209 -1.0682  1.5810  0.5682
  775MPD2    H311494   4.594   2.881  15.077  2.2308  2.5171 -2.4352
  775MPD2     N11495   0.121   3.143  15.330  0.2482 -0.4146  0.4949
  775MPD2    H511496   0.185   3.140  15.252  0.7223 -2.5742  0.9655
  775MPD2    N111497   4.401   3.069  15.440  0.1455 -0.5416  0.2103
  775MPD2    H711498   4.324   3.004  15.426  0.0531 -0.4528  0.3122
  776MPD2     C11499   3.003   2.874  11.909  0.1177  0.3915 -0.0523
  776MPD2    C111500   3.124   2.940  11.900  0.1780 -0.8465 -0.1722
  776MPD2    C211501   3.123   3.065  11.836  0.4889 -1.0886 -0.6857
  776MPD2    C311502   3.004   3.117  11.787  0.1477 -0.0298  0.6312
  776MPD2    C411503   2.890   3.036  11.792  0.2164 -0.5886 -1.0038
  776MPD2    C511504   2.892   2.914  11.852  0.0919  0.0435 -0.3659
  776MPD2     H11505   3.216   3.120  11.824  1.3328 -1.7405  2.7476
  776MPD2    H111506   2.796   3.067  11.747  0.5150 -0.0169 -1.2196
  776MPD2    H211507   3.010   2.776  11.953  2.1954  1.1226  1.2721
  776MPD2    H311508   2.805   2.850  11.854  0.8446 -0.9958 -0.7389
  776MPD2     N11509   2.994   3.240  11.708  0.3181  0.0134  0.2787
  776MPD2    H511510   2.904   3.264  11.666  0.2562 -1.9032 -0.7219
  776MPD2    N111511   3.237   2.893  11.970 -0.4411 -0.1295 -0.2409
  776MPD2    H711512   3.225   2.811  12.028  0.3049 -0.3474 -0.3870
  777MPD2     C11513   4.285   0.876   0.686  0.4260  0.2572  0.5302
  777MPD2    C111514   4.218   0.809   0.778 -0.2164  0.4968 -0.2150
  777MPD2    C211515   4.157   0.692   0.739 -0.0613  0.4129  0.8080
  777MPD2    C311516   4.137   0.658   0.607  0.3295  0.5698 -0.0431
  777MPD2    C411517   4.195   0.735   0.505  0.1107 -0.9747  0.3408
  777MPD2    C511518   4.279   0.836   0.553  0.1316  0.6026  0.2944
  777MPD2     H11519   4.099   0.631   0.807  0.0956  1.3145  1.7427
  777MPD2    H111520   4.189   0.716   0.399  0.6833  4.0034 -0.6069
  777MPD2    H211521   4.345   0.960   0.720 -1.2827  1.8087 -0.2666
  777MPD2    H311522   4.336   0.896   0.483 -2.2259  1.3886 -0.9521
  777MPD2     N11523   4.043   0.556   0.584 -0.1295  0.5050  0.1864
  777MPD2    H511524   4.011   0.509   0.668 -0.4099 -1.0698 -0.8166
  777MPD2    N111525   4.215   0.854   0.917  0.1026  0.1434  0.3422
  777MPD2    H711526   4.269   0.936   0.941  0.3162  0.5556 -1.5851
  778MPD2     C11527   0.363   0.998  14.893  0.3092  0.1853 -0.1849
  778MPD2    C111528   0.362   0.910  14.791 -0.1286  0.5387  0.2309
  778MPD2    C211529   0.403   0.939  14.664  0.6341  0.4069 -0.0698
  778MPD2    C311530   0.449   1.069  14.628 -0.3710  0.2418 -0.2374
  778MPD2    C411531   0.462   1.157  14.735  0.4253  0.4594 -0.0271
  778MPD2    C511532   0.421   1.120  14.862  0.0998  0.0013  0.0537
  778MPD2     H11533   0.397   0.865  14.586  1.4548  1.9876 -1.6449
  778MPD2    H111534   0.490   1.260  14.719  0.7882  0.6734  1.9844
  778MPD2    H211535   0.339   0.974  14.996  1.7836  1.1187  0.3911
  778MPD2    H311536   0.422   1.198  14.938 -1.0188 -0.7563  0.8628
  778MPD2     N11537   0.502   1.091  14.499 -0.6333 -0.6053  0.5738
  778MPD2    H511538   0.500   1.006  14.444 -2.8081  0.7858 -1.5042
  778MPD2    N111539   0.301   0.778  14.815 -0.5774  0.7312  0.2416
  778MPD2    H711540   0.314   0.714  14.737 -0.1127  2.9123 -1.4905
  779MPD2     C11541   0.032   4.037  14.209 -0.4443 -0.4409  0.9021
  779MPD2    C111542   0.155   4.089  14.189 -0.2357  0.1563 -0.0019
  779MPD2    C211543   0.177   4.221  14.193  0.6703  0.0956 -0.3001
  779MPD2    C311544   0.077   4.309  14.218  0.4979 -0.4789 -0.2238
  779MPD2    C411545   4.689   4.264  14.240 -0.5763  0.1518 -0.4766
  779MPD2    C511546   4.665   4.127  14.231  0.2995  0.2074 -0.2799
  779MPD2     H11547   0.276   4.254  14.164  1.7808 -0.8169  2.4692
  779MPD2    H111548   4.606   4.329  14.266 -0.0629 -0.2250  2.0964
  779MPD2    H211549   0.004   3.934  14.225  0.3218 -0.6551  0.8388
  779MPD2    H311550   4.575   4.079  14.268 -0.2480  0.7818 -0.8869
  779MPD2     N11551   0.123   4.438  14.221  0.2985 -0.1331  0.2399
  779MPD2    H511552   0.221   4.454  14.202  0.4150 -0.9375  0.1667
  779MPD2    N111553   0.264   4.005  14.167  0.8003 -0.0869 -0.8461
  779MPD2    H711554   0.238   3.907  14.167 -0.6598  0.3079  2.0515
  780MPD2     C11555   4.507   4.188   1.078  0.2395 -0.7677 -0.7294
  780MPD2    C111556   4.460   4.172   0.951 -0.2392  0.1196 -0.5445
  780MPD2    C211557   4.511   4.248   0.843 -0.4820  0.6022 -0.2712
  780MPD2    C311558   4.616   4.331   0.864  0.5990  0.4946  0.0949
  780MPD2    C411559   4.677   4.335   0.992  0.1859  0.2298  1.2607
  780MPD2    C511560   4.611   4.271   1.094  0.0486 -0.2307  0.2250
  780MPD2     H11561   4.483   4.243   0.738 -1.9309 -0.1077  0.1507
  780MPD2    H111562   0.034   4.383   1.011 -0.2032  1.2693  0.5683
  780MPD2    H211563   4.454   4.158   1.168 -0.2317 -1.5869 -1.2765
  780MPD2    H311564   4.644   4.292   1.195 -1.8911  0.6616  0.6849
  780MPD2     N11565   4.670   4.399   0.750  0.4889 -0.3854 -0.0258
  780MPD2    H511566   4.623   4.389   0.661 -0.2284  2.1077  0.0836
  780MPD2    N111567   4.348   4.084   0.934  0.5159  0.7467 -0.3034
  780MPD2    H711568   4.313   4.038   1.017  0.5615 -1.4843 -1.5157
  781MPD2     C11569   1.756   1.474  11.595  0.4274 -0.3918  0.4122
  781MPD2    C111570   1.831   1.471  11.707 -0.3170 -0.5997 -0.1450
  781MPD2    C211571   1.972   1.486  11.698 -0.2386  0.2662  0.7503
  781MPD2    C311572   2.026   1.516  11.572  0.0251 -0.5694 -0.6608
  781MPD2    C411573   1.941   1.530  11.465  0.7241  0.6003 -0.4746
  781MPD2    C511574   1.807   1.511  11.477 -0.0526  0.6600  0.6990
  781MPD2     H11575   2.041   1.475  11.780  2.9717  1.0628 -1.8583
  781MPD2    H111576   1.983   1.550  11.367  0.8943  2.7528  0.0561
  781MPD2    H211577   1.648   1.468  11.601  0.3221  1.8350  0.8170
  781MPD2    H311578   1.742   1.531  11.392 -0.1855 -1.5221  0.2900
  781MPD2     N11579   2.165   1.545  11.545 -0.0462  0.8150  0.1600
  781MPD2    H511580   2.190   1.578  11.453  3.1121  0.1172  0.7603
  781MPD2    N111581   1.777   1.439  11.833 -0.3643 -0.2517 -0.0519
  781MPD2    H711582   1.844   1.431  11.909 -0.0022  1.2367 -0.2128
  782MPD2     C11583   4.524   2.794  10.305  0.0113  0.2990  0.1699
  782MPD2    C111584   4.635   2.767  10.384 -0.4969  0.4926  1.1488
  782MPD2    C211585   4.667   2.852  10.485 -0.4294  0.1631 -0.0881
  782MPD2    C311586   4.595   2.971  10.499  0.3625  0.3458 -0.2988
  782MPD2    C411587   4.490   3.003  10.417  0.0702 -0.6249 -0.5479
  782MPD2    C511588   4.455   2.911  10.323  0.5552 -0.2493  0.3248
  782MPD2     H11589   0.018   2.838  10.546 -1.6337  0.0918  1.6266
  782MPD2    H111590   4.425   3.087  10.438  2.1684  1.1996 -1.3497
  782MPD2    H211591   4.493   2.730  10.223 -0.4825  0.7968 -0.0341
  782MPD2    H311592   4.373   2.935  10.257 -1.4376 -2.0058  2.1734
  782MPD2     N11593   4.631   3.055  10.606  0.7002  0.0395 -0.4186
  782MPD2    H511594   4.703   3.022  10.669 -0.2171 -0.8629  0.1518
  782MPD2    N111595   4.695   2.643  10.369 -1.2441 -0.2267 -0.2197
  782MPD2    H711596   4.671   2.584  10.289 -3.5770 -2.0680  1.8233
  783MPD2     C11597   4.042   2.310  10.821  0.0230 -0.4299  0.4401
  783MPD2    C111598   4.149   2.348  10.900 -0.6809  0.0792 -0.0208
  783MPD2    C211599   4.274   2.354  10.845  0.0587 -0.1059 -0.6703
  783MPD2    C311600   4.298   2.319  10.714  0.1121 -0.7180 -0.8789
  783MPD2    C411601   4.191   2.280  10.632 -0.1805  0.5706 -0.6784
  783MPD2    C511602   4.062   2.291  10.684  0.8955  0.0066  0.2951
  783MPD2     H11603   4.355   2.386  10.910  1.9508 -3.2941 -1.4576
  783MPD2    H111604   4.203   2.241  10.532 -2.5739 -0.6252 -0.5098
  783MPD2    H211605   3.948   2.295  10.871  0.0349 -1.4575  0.1454
  783MPD2    H311606   3.971   2.258  10.635  1.2124 -0.6140  0.1252
  783MPD2     N11607   4.434   2.327  10.666 -0.1022 -0.4576 -0.0393
  783MPD2    H511608   4.504   2.361  10.731  0.3489  1.5563 -1.5837
  783MPD2    N111609   4.119   2.377  11.034 -0.2477 -1.2479  0.3738
  783MPD2    H711610   4.023   2.352  11.058 -0.3930 -0.2195  0.8684
  784MPD2     C11611   1.131   2.946   0.421  0.3633  0.0398 -0.4803
  784MPD2    C111612   1.034   2.932   0.515  0.4778  0.1685 -0.0947
  784MPD2    C211613   0.907   2.966   0.473 -0.0614  0.0156 -0.5273
  784MPD2    C311614   0.870   2.991   0.339 -0.1717 -0.7023  0.5555
  784MPD2    C411615   0.972   3.002   0.246  0.3337  0.6299 -0.1933
  784MPD2    C511616   1.095   2.971   0.290  0.1717  1.0717  0.3287
  784MPD2     H11617   0.838   2.967   0.556  0.0376  0.2870 -0.4496
  784MPD2    H111618   0.945   3.023   0.143 -0.5517 -0.6675 -0.2362
  784MPD2    H211619   1.239   2.943   0.432  0.1475 -2.5303  0.9971
  784MPD2    H311620   1.172   2.962   0.214 -0.6388  1.0244 -0.4980
  784MPD2     N11621   0.741   3.038   0.301 -0.4764 -0.4567 -0.2420
  784MPD2    H511622   0.728   3.056   0.202  1.6839  1.1389 -0.2489
  784MPD2    N111623   1.058   2.904   0.656 -0.0241  0.0640  0.0676
  784MPD2    H711624   0.982   2.927   0.720  3.7131 -1.9879  5.2229
  785MPD2     C11625   1.217   0.433  10.885  0.2032  0.7306  0.9963
  785MPD2    C111626   1.171   0.544  10.822  0.1211  0.1586 -0.0488
  785MPD2    C211627   1.107   0.529  10.700  0.0000 -0.2771 -0.6955
  785MPD2    C311628   1.088   0.400  10.645  0.9897  1.0289  0.2828
  785MPD2    C411629   1.141   0.286  10.710 -0.6663  0.5421  0.2392
  785MPD2    C511630   1.199   0.307  10.833 -0.3878 -0.2158  0.6635
  785MPD2     H11631   1.068   0.611  10.641 -2.5186 -0.6336  0.4619
  785MPD2    H111632   1.137   0.183  10.676  0.4795  0.6038 -0.0745
  785MPD2    H211633   1.273   0.455  10.976  0.5625  0.6465  0.7945
  785MPD2    H311634   1.245   0.228  10.891 -0.0300  0.3582  1.1576
  785MPD2     N11635   1.029   0.398  10.511  0.2697  0.3640 -0.3061
  785MPD2    H511636   0.991   0.487  10.479 -1.8047  0.1519  1.5333
  785MPD2    N111637   1.202   0.668  10.883 -0.0595  0.2512  0.0713
  785MPD2    H711638   1.247   0.671  10.973  1.3802 -2.0280 -0.6030
  786MPD2     C11639   0.799   3.644  14.715  0.3508  0.0227  0.3593
  786MPD2    C111640   0.922   3.592  14.724  0.4610 -0.4264  0.2681
  786MPD2    C211641   0.991   3.591  14.845 -0.3189  0.1648  0.7467
  786MPD2    C311642   0.934   3.663  14.953 -0.4856  0.0832  0.5937
  786MPD2    C411643   0.804   3.712  14.944  0.0012  0.3752  0.1621
  786MPD2    C511644   0.739   3.708  14.821 -0.1610  0.4642  0.1782
  786MPD2     H11645   1.092   3.551  14.845 -0.9431 -1.4232 -1.4699
  786MPD2    H111646   0.765   3.762  15.032 -0.4098  0.2854  0.0304
  786MPD2    H211647   0.735   3.624  14.630  2.5907  0.3639 -1.3838
  786MPD2    H311648   0.646   3.764  14.817 -1.1919 -1.3567 -1.1520
  786MPD2     N11649   1.014   3.688  15.065  0.5295  0.4252 -0.5322
  786MPD2    H511650   1.108   3.651  15.051  0.5599  0.6353 -0.9064
  786MPD2    N111651   0.976   3.513  14.615  0.2048 -0.1394 -0.1765
  786MPD2    H711652   1.057   3.457  14.640 -0.3227 -0.5572  0.5967
  787MPD2     C11653   1.208   2.996  14.805  0.4591 -0.2464  0.2890
  787MPD2    C111654   1.201   2.956  14.673 -0.2321  0.0924 -0.1030
  787MPD2    C211655   1.225   2.824  14.643  0.0585  0.0970 -0.3510
  787MPD2    C311656   1.235   2.723  14.745  0.6033  0.0046  0.8117
  787MPD2    C411657   1.230   2.760  14.877 -1.0201 -0.2449  0.3182
  787MPD2    C511658   1.223   2.898  14.897  0.7948  0.0546  0.1092
  787MPD2     H11659   1.217   2.787  14.541 -2.3661 -0.2476 -0.0226
  787MPD2    H111660   1.236   2.694  14.962  1.4442 -0.4441 -0.0110
  787MPD2    H211661   1.208   3.102  14.831 -0.2229 -0.6054  1.7695
  787MPD2    H311662   1.243   2.918  15.002  0.5253  1.2929 -0.0740
  787MPD2     N11663   1.261   2.598  14.700 -0.0300  0.3971  0.8529
  787MPD2    H511664   1.250   2.589  14.599 -1.4849  1.4245  0.9216
  787MPD2    N111665   1.169   3.055  14.580  0.2052  0.3296  0.3948
  787MPD2    H711666   1.160   3.146  14.624  1.2407 -0.1278  1.5561
  788MPD2     C11667   3.187   1.799   0.541 -0.1184 -0.5033 -0.1816
  788MPD2    C111668   3.056   1.797   0.481  0.2676  0.1846 -0.5651
  788MPD2    C211669   3.027   1.884   0.378  0.3981 -0.2364 -0.9027
  788MPD2    C311670   3.123   1.969   0.327  0.6059  0.0100  0.1670
  788MPD2    C411671   3.256   1.955   0.370 -0.2744  0.7014 -0.0729
  788MPD2    C511672   3.283   1.869   0.473  0.2956 -0.3645  0.0511
  788MPD2     H11673   2.926   1.879   0.338  0.5505 -0.2955 -1.2758
  788MPD2    H111674   3.335   2.013   0.325 -0.2824 -0.4525 -1.6086
  788MPD2    H211675   3.216   1.738   0.626  1.3936  1.0100  0.3685
  788MPD2    H311676   3.389   1.854   0.492 -0.2562 -2.6446  1.4123
  788MPD2     N11677   3.099   2.068   0.236 -0.3323 -0.1070  0.1752
  788MPD2    H511678   3.179   2.124   0.207 -0.4011 -1.4743 -2.7168
  788MPD2    N111679   2.956   1.711   0.530 -0.1939  0.0717 -0.7508
  788MPD2    H711680   2.869   1.704   0.477 -0.4057  1.3811 -0.5693
  789MPD2     C11681   2.115   1.372  16.245  0.7216 -0.4319  0.2659
  789MPD2    C111682   2.223   1.453  16.256  0.1905  0.4275 -0.4788
  789MPD2    C211683   2.223   1.548  16.352 -0.0102  0.1131 -0.0590
  789MPD2    C311684   2.109   1.581  16.429 -0.3476 -0.7803  0.5258
  789MPD2    C411685   2.004   1.496  16.416  0.4168 -0.1577 -0.2500
  789MPD2    C511686   2.012   1.392  16.333 -0.4853 -1.1199  0.5074
  789MPD2     H11687   2.304   1.620  16.347 -1.1619  1.3169 -1.4528
  789MPD2    H111688   1.915   1.524  16.471  1.5664 -0.4118  1.7598
  789MPD2    H211689   2.111   1.279  16.189  0.8248 -0.8309  0.9198
  789MPD2    H311690   1.928   1.327  16.314 -0.0476 -1.2500 -1.0603
  789MPD2     N11691   2.095   1.695  16.515 -0.5444  0.4143 -1.0425
  789MPD2    H511692   2.005   1.712  16.560  1.0878  0.1689  2.3337
  789MPD2    N111693   2.341   1.440  16.179  0.0225 -0.1261  0.2137
  789MPD2    H711694   2.428   1.473  16.218  1.1151 -1.0798 -1.3912
  790MPD2     C11695   4.609   2.579  13.344  0.1958 -0.1284 -0.0695
  790MPD2    C111696   4.528   2.681  13.395 -0.0705 -0.6309  0.2457
  790MPD2    C211697   4.438   2.753  13.318  0.0911  0.2631  0.8405
  790MPD2    C311698   4.438   2.729  13.182 -0.1420 -0.5334 -0.1528
  790MPD2    C411699   4.522   2.620  13.130 -0.3119  0.0968  0.5528
  790MPD2    C511700   4.609   2.557  13.213 -0.6534  0.0590 -0.9152
  790MPD2     H11701   4.364   2.822  13.357  0.3619  1.0407 -0.0378
  790MPD2    H111702   4.511   2.573  13.033  2.5562  1.9557 -0.6629
  790MPD2    H211703   4.679   2.525  13.407 -1.6778 -1.2602  1.0554
  790MPD2    H311704   4.669   2.473  13.180  1.4258  1.2872 -0.2822
  790MPD2     N11705   4.330   2.784  13.105 -0.6656  0.5368  0.2999
  790MPD2    H511706   4.259   2.837  13.155  0.1158  0.1186  1.8600
  790MPD2    N111707   4.530   2.700  13.535  0.0934  0.4375 -0.3818
  790MPD2    H711708   4.607   2.649  13.577 -1.1651 -1.1569  0.0019
  791MPD2     C11709   3.728   2.679  13.307 -0.1346 -0.6876 -0.0658
  791MPD2    C111710   3.723   2.777  13.217  0.0461  0.2741 -0.3980
  791MPD2    C211711   3.623   2.865  13.220  0.1130 -0.4318 -0.0206
  791MPD2    C311712   3.512   2.844  13.292 -0.3094  0.2121 -0.9149
  791MPD2    C411713   3.510   2.738  13.385  0.3682 -0.1322  0.1039
  791MPD2    C511714   3.619   2.655  13.390  0.0140  0.1918 -0.1113
  791MPD2     H11715   3.626   2.954  13.158  2.6699 -1.4797 -1.3877
  791MPD2    H111716   3.432   2.711  13.456  0.0761 -0.1300 -0.2124
  791MPD2    H211717   3.811   2.609  13.314  0.8313  0.5827  1.0884
  791MPD2    H311718   3.611   2.569  13.455 -1.6553  1.4632  1.3728
  791MPD2     N11719   3.409   2.944  13.279  0.0986  0.1585 -0.4611
  791MPD2    H511720   3.421   3.023  13.217  1.1151  0.4276  0.0909
  791MPD2    N111721   3.832   2.788  13.126  0.0464  0.9200 -0.9109
  791MPD2    H711722   3.910   2.723  13.129 -0.6385  0.1662  0.3374
  792MPD2     C11723   4.419   3.768  11.502 -0.3948  0.3266 -0.2007
  792MPD2    C111724   4.337   3.807  11.397  0.4825 -0.1157  0.5063
  792MPD2    C211725   4.230   3.722  11.366 -0.1410  0.1875  0.1923
  792MPD2    C311726   4.197   3.610  11.437 -0.0938  0.0954  0.3270
  792MPD2    C411727   4.288   3.578  11.538  0.3922  0.1880  0.2931
  792MPD2    C511728   4.398   3.651  11.563 -0.5990  0.3041 -0.3376
  792MPD2     H11729   4.174   3.749  11.277 -0.8263 -0.7827  0.3260
  792MPD2    H111730   4.278   3.479  11.582 -1.2855  0.0220 -0.4883
  792MPD2    H211731   4.499   3.833  11.537  1.1753 -1.2052 -0.9172
  792MPD2    H311732   4.480   3.618  11.626 -1.4161  2.6749  1.9596
  792MPD2     N11733   4.087   3.519  11.407 -1.1843  0.0143 -0.6182
  792MPD2    H511734   4.090   3.429  11.454  0.6106  0.9248  1.0214
  792MPD2    N111735   4.382   3.924  11.321  0.3797 -0.3778  0.3703
  792MPD2    H711736   4.451   3.983  11.368 -0.4254  1.9426 -1.3683
  793MPD2     C11737   3.402   3.039  10.690  0.1899 -0.1528  0.6103
  793MPD2    C111738   3.524   3.094  10.663 -0.3641 -0.5526  0.0448
  793MPD2    C211739   3.603   3.138  10.769  0.2547  0.3996  0.6923
  793MPD2    C311740   3.556   3.139  10.899  0.0662  0.3632  0.1786
  793MPD2    C411741   3.433   3.091  10.923  0.0188  0.2340  0.0391
  793MPD2    C511742   3.357   3.041  10.817  0.2206 -0.3104  0.1189
  793MPD2     H11743   3.704   3.172  10.750  1.1318 -1.2414  2.3342
  793MPD2    H111744   3.395   3.089  11.025  0.2214  2.8723  0.1538
  793MPD2    H211745   3.341   3.002  10.609 -0.9557 -0.2471  1.5198
  793MPD2    H311746   3.260   2.995  10.831 -0.7098  1.4641 -0.4043
  793MPD2     N11747   3.629   3.172  11.015 -0.3980 -0.5353 -0.6418
  793MPD2    H511748   3.582   3.158  11.104 -0.5778 -1.2994 -0.8571
  793MPD2    N111749   3.589   3.112  10.537  0.2079  0.4083  0.0368
  793MPD2    H711750   3.684   3.147  10.529  0.3876  0.1065  0.8235
  794MPD2     C11751   3.226   2.701  17.043  0.3671  0.4219 -0.1994
  794MPD2    C111752   3.248   2.577  16.987 -0.4894  0.0411 -0.1690
  794MPD2    C211753   3.192   2.553  16.862 -0.0380  0.0422 -0.1224
  794MPD2    C311754   3.122   2.651  16.799 -0.6028  0.1622  0.2211
  794MPD2    C411755   3.121   2.779  16.842 -0.4687 -0.6567  1.0662
  794MPD2    C511756   3.169   2.800  16.969 -0.1250 -0.3071 -0.3414
  794MPD2     H11757   3.201   2.457  16.813 -1.2712 -0.1241 -0.0389
  794MPD2    H111758   3.088   2.865  16.785  0.8914  0.3485  1.8019
  794MPD2    H211759   3.263   2.726  17.142  0.9379  0.5222 -0.4397
  794MPD2    H311760   3.159   2.896  17.018 -2.8572 -1.1786  0.7633
  794MPD2     N11761   3.067   2.632  16.667  0.4558  0.5607 -0.1520
  794MPD2    H511762   3.016   2.712  16.632 -1.8504 -0.5432  0.6917
  794MPD2    N111763   3.321   2.473  17.053  0.3100 -0.4606  0.4771
  794MPD2    H711764   3.315   2.381  17.012  0.2135 -1.5422  2.9047
  795MPD2     C11765   1.523   0.070  13.244  0.1961  0.2149 -0.5749
  795MPD2    C111766   1.563   4.718  13.146 -0.2764 -0.0099  0.2559
  795MPD2    C211767   1.648   4.610  13.180  0.0982 -0.4520  0.3504
  795MPD2    C311768   1.694   4.589  13.311 -0.1067  0.1810  0.4569
  795MPD2    C411769   1.652   4.679  13.407  0.6081  0.0893  0.0903
  795MPD2    C511770   1.576   0.041  13.368 -0.0303  0.1111  0.3597
  795MPD2     H11771   1.679   4.532  13.112  1.5113  0.8533 -0.5136
  795MPD2    H111772   1.677   4.668  13.512 -0.2199 -2.4139  0.0438
  795MPD2    H211773   1.454   0.153  13.240  0.9434  0.8741  0.1422
  795MPD2    H311774   1.534   0.100  13.449 -3.5752  0.5344 -1.8024
  795MPD2     N11775   1.780   4.480  13.334 -0.2022  0.6872  0.1851
  795MPD2    H511776   1.825   4.437  13.255 -1.2748 -0.8796  0.4400
  795MPD2    N111777   1.515   4.730  13.015  0.7651  0.1165  0.2779
  795MPD2    H711778   1.560   4.666  12.950  1.2405 -0.3252  1.0432
  796MPD2     C11779   0.942   1.675  15.325 -0.2626 -0.3784 -0.5737
  796MPD2    C111780   0.935   1.738  15.447 -0.6346  0.6535  0.5040
  796MPD2    C211781   0.901   1.872  15.452  0.6745  0.1455 -0.4271
  796MPD2    C311782   0.855   1.934  15.335  0.0664 -0.7700  0.1638
  796MPD2    C411783   0.842   1.862  15.219 -0.0404  0.4936  0.0771
  796MPD2    C511784   0.886   1.734  15.217  0.8494  0.1651  0.2191
  796MPD2     H11785   0.910   1.933  15.541  0.6639 -0.3412 -0.0929
  796MPD2    H111786   0.796   1.914  15.136 -0.0850  0.4855  0.0970
  796MPD2    H211787   0.961   1.568  15.323  1.4156 -0.0907  0.0108
  796MPD2    H311788   0.877   1.679  15.124  0.1042 -0.2185  0.5236
  796MPD2     N11789   0.804   2.069  15.347 -0.1235  0.0087  0.0608
  796MPD2    H511790   0.816   2.113  15.438 -2.3648  0.3072  0.1918
  796MPD2    N111791   0.979   1.671  15.562  1.0591  0.1463 -0.6413
  796MPD2    H711792   1.013   1.577  15.545  2.5981  0.2399  1.9655
  797MPD2     C11793   2.510   1.258  16.425 -0.4929  0.2375  0.4485
  797MPD2    C111794   2.390   1.221  16.472 -0.8836  0.1624 -0.1978
  797MPD2    C211795   2.320   1.132  16.401  0.5822  0.2943  0.2321
  797MPD2    C311796   2.364   1.080  16.282 -0.5476  0.4749 -0.0535
  797MPD2    C411797   2.493   1.108  16.241  0.1313  0.4291  0.1094
  797MPD2    C511798   2.571   1.190  16.321  0.1068 -0.2475  0.4334
  797MPD2     H11799   2.221   1.101  16.430  1.0964 -1.7551 -0.1895
  797MPD2    H111800   2.538   1.059  16.155 -0.5093  0.1424 -0.0607
  797MPD2    H211801   2.576   1.330  16.471 -0.0216  0.8577 -1.1740
  797MPD2    H311802   2.673   1.205  16.287 -0.3581  1.1331 -0.3498
  797MPD2     N11803   2.269   0.997  16.218  0.2223 -0.4487 -0.6427
  797MPD2    H511804   2.181   0.979  16.266 -0.3125  0.5688 -1.2368
  797MPD2    N111805   2.316   1.284  16.578  0.5415 -0.0175  0.0600
  797MPD2    H711806   2.219   1.257  16.591  0.4896  0.6420  1.0170
  798MPD2     C11807   1.612   1.158  16.440 -0.3682  0.4705  0.4756
  798MPD2    C111808   1.744   1.113  16.426  0.5101 -0.2471 -0.4758
  798MPD2    C211809   1.833   1.168  16.510  0.2568 -0.8353 -0.3596
  798MPD2    C311810   1.797   1.250  16.615 -0.1203 -0.2735  0.1226
  798MPD2    C411811   1.666   1.285  16.636  0.1012  0.7846  0.0641
  798MPD2    C511812   1.577   1.243  16.544 -0.2998  0.2848 -0.0126
  798MPD2     H11813   1.936   1.137  16.497  0.1680 -1.5680  0.6165
  798MPD2    H111814   1.635   1.360  16.709 -0.5156  1.8222 -1.2586
  798MPD2    H211815   1.533   1.124  16.373  0.4139  1.3488 -0.8788
  798MPD2    H311816   1.476   1.279  16.548  0.2667  1.7740  0.8164
  798MPD2     N11817   1.904   1.282  16.696 -0.1859  0.7948  0.0041
  798MPD2    H511818   1.989   1.227  16.688  0.4392  1.6590  0.7136
  798MPD2    N111819   1.781   1.030  16.310  0.2274 -0.1882  0.4622
  798MPD2    H711820   1.710   1.017  16.239  0.1656  1.3070  0.2444
  799MPD2     C11821   0.975   2.426  14.597 -0.7015 -0.4424 -0.1945
  799MPD2    C111822   0.992   2.373  14.472  0.1722 -0.7639  0.1095
  799MPD2    C211823   1.004   2.451  14.356 -0.3265  0.2674 -0.7891
  799MPD2    C311824   0.994   2.586  14.378  0.0251  0.2875 -0.7384
  799MPD2    C411825   0.986   2.642  14.506  0.3113  0.2044  0.0186
  799MPD2    C511826   0.973   2.559  14.613  0.4836 -0.2669 -0.2298
  799MPD2     H11827   1.036   2.409  14.262 -0.8886  0.0420 -0.8833
  799MPD2    H111828   0.982   2.748  14.529  1.7671  0.4722 -0.9953
  799MPD2    H211829   0.981   2.368  14.688  0.3471 -0.2115 -0.1170
  799MPD2    H311830   0.965   2.600  14.713  0.2110  1.4726 -0.9699
  799MPD2     N11831   1.015   2.676  14.274  0.2589 -0.4427  0.2875
  799MPD2    H511832   1.014   2.774  14.300  2.2218 -0.1234 -0.8392
  799MPD2    N111833   0.980   2.236  14.459 -0.0023 -0.1981  0.4309
  799MPD2    H711834   0.984   2.199  14.364 -1.8736  0.0237  0.2635
  800MPD2     C11835   1.535   3.668  13.790 -0.5428 -0.1297 -0.7517
  800MPD2    C111836   1.655   3.625  13.848  0.2392 -0.4856 -0.1595
  800MPD2    C211837   1.718   3.513  13.796 -0.7776  0.2332 -0.1296
  800MPD2    C311838   1.679   3.448  13.686 -0.3336 -0.7624  0.0465
  800MPD2    C411839   1.559   3.490  13.631  0.0201  0.4539 -0.3930
  800MPD2    C511840   1.481   3.594  13.687 -0.0043  0.0728  0.1132
  800MPD2     H11841   1.820   3.494  13.826 -1.0911 -0.4307  0.5197
  800MPD2    H111842   1.523   3.457  13.534  1.6536 -0.9364 -0.5431
  800MPD2    H211843   1.474   3.751  13.822 -2.6207 -1.2401 -1.8724
  800MPD2    H311844   1.385   3.612  13.639  1.3532  0.9699 -2.2770
  800MPD2     N11845   1.769   3.366  13.622 -0.0252 -0.7331 -0.2701
  800MPD2    H511846   1.863   3.358  13.659  0.4496  0.6018 -1.1595
  800MPD2    N111847   1.710   3.710  13.943  0.3932  0.1625 -0.4035
  800MPD2    H711848   1.671   3.803  13.948 -3.2654 -1.2062 -3.1184
  801MPD2     C11849   1.663   4.341  13.937 -0.5067 -0.0945 -0.1327
  801MPD2    C111850   1.636   4.242  14.032 -0.4894 -0.2733 -0.2965
  801MPD2    C211851   1.510   4.217  14.074 -0.8633  0.0761 -0.4218
  801MPD2    C311852   1.406   4.289  14.013  0.3953  0.0048 -0.1803
  801MPD2    C411853   1.434   4.390  13.924 -0.2080 -0.0181  0.1459
  801MPD2    C511854   1.561   4.403  13.885 -0.2637  0.2789  0.0204
  801MPD2     H11855   1.502   4.127  14.135 -1.9086  0.1675 -0.4209
  801MPD2    H111856   1.362   4.447  13.868  1.0126  1.5044  0.1295
  801MPD2    H211857   1.760   4.355  13.892  0.3814 -0.4423  1.6762
  801MPD2    H311858   1.574   4.480  13.810 -0.8581  0.4673  0.1153
  801MPD2     N11859   1.275   4.274  14.055  0.4219 -0.3617  1.0282
  801MPD2    H511860   1.202   4.334  14.018  2.2074 -0.4299 -2.6544
  801MPD2    N111861   1.734   4.156  14.080 -0.1551 -0.2990  0.4589
  801MPD2    H711862   1.706   4.074  14.133  1.8000 -0.0718  1.8176
  802MPD2     C11863   4.724   4.664  16.944  0.3257  0.2619 -0.1463
  802MPD2    C111864   0.098   4.670  17.022  0.2719 -0.0667  0.6487
  802MPD2    C211865   0.211   4.607  16.971  0.5753  0.8558  0.7047
  802MPD2    C311866   0.211   4.518  16.863 -0.6558 -0.0435 -0.2785
  802MPD2    C411867   0.092   4.505  16.797 -0.4920 -0.1963 -0.2542
  802MPD2    C511868   4.728   4.586  16.834 -0.0878  0.4549  0.3038
  802MPD2     H11869   0.304   4.628  17.022 -0.5847  0.1199  3.1236
  802MPD2    H111870   0.076   4.449  16.706  0.4669  1.7981 -1.6500
  802MPD2    H211871   4.645   4.737  16.955 -2.2085 -2.4642 -0.3048
  802MPD2    H311872   4.640   4.587  16.771  1.8715  0.0967 -2.4734
  802MPD2     N11873   0.330   4.462  16.811  0.0564 -0.3072 -0.2434
  802MPD2    H511874   0.418   4.480  16.857  0.4510 -0.9716 -0.7423
  802MPD2    N111875   0.123   0.027  17.127 -0.7273  0.8836  0.3339
  802MPD2    H711876   0.221   0.033  17.154 -0.9004  3.1114  0.5088
  803MPD2     C11877   2.199   2.709  11.637  0.3126 -0.0110 -0.1474
  803MPD2    C111878   2.154   2.830  11.683  0.2580 -0.4667 -0.0109
  803MPD2    C211879   2.178   2.871  11.811 -0.0982 -0.2355 -0.5127
  803MPD2    C311880   2.251   2.783  11.895  0.6446  0.2448 -0.1449
  803MPD2    C411881   2.292   2.660  11.840 -0.5211  0.1012  0.4513
  803MPD2    C511882   2.267   2.621  11.711  1.2696 -0.3399 -0.2999
  803MPD2     H11883   2.120   2.953  11.851 -0.5624 -1.0320  0.4545
  803MPD2    H111884   2.355   2.591  11.895 -0.2295 -0.9164 -1.1304
  803MPD2    H211885   2.194   2.686  11.531  0.0166  1.1751 -0.3868
  803MPD2    H311886   2.308   2.529  11.672  0.2765 -0.6972 -0.5041
  803MPD2     N11887   2.284   2.818  12.030  0.4248  0.2571  0.4300
  803MPD2    H511888   2.249   2.910  12.055  1.6107  0.9895 -0.5600
  803MPD2    N111889   2.076   2.921  11.606 -0.8654  0.1799  0.3441
  803MPD2    H711890   2.061   3.018  11.633 -2.5000  0.2080 -0.7259
  804MPD2     C11891   1.554   4.668  16.588  0.3993 -0.3764 -0.2520
  804MPD2    C111892   1.489   4.680  16.713 -0.1953  0.0422 -0.0855
  804MPD2    C211893   1.531   0.031  16.806 -0.3172 -0.3678 -0.2651
  804MPD2    C311894   1.641   0.106  16.782 -0.0490 -0.8084 -1.1784
  804MPD2    C411895   1.718   0.082  16.673 -0.3203  0.0955  0.2809
  804MPD2    C511896   1.669   4.733  16.575  0.2503  0.8334 -0.0721
  804MPD2     H11897   1.475   0.033  16.899 -0.5812 -1.0045 -0.4094
  804MPD2    H111898   1.811   0.135  16.661 -0.4039  0.4129  1.0232
  804MPD2    H211899   1.528   4.595  16.512 -0.2281 -0.4679  0.0522
  804MPD2    H311900   1.730   4.709  16.489 -1.5781  0.4813 -1.2716
  804MPD2     N11901   1.692   0.200  16.872  0.4079  0.0663  0.3182
  804MPD2    H511902   1.784   0.238  16.851 -0.0077  0.3802 -0.9674
  804MPD2    N111903   1.366   4.609  16.730  0.1197  1.0102 -0.6626
  804MPD2    H711904   1.336   4.608  16.828 -1.1897  2.0969 -1.0529
  805MPD2     C11905   0.335   2.874  15.180  0.0248 -0.4645 -0.1687
  805MPD2    C111906   0.444   2.887  15.098 -0.0160 -0.8071 -0.4075
  805MPD2    C211907   0.565   2.888  15.162 -0.1112  0.1933 -0.2521
  805MPD2    C311908   0.581   2.881  15.300  0.0582  0.3573  0.0794
  805MPD2    C411909   0.463   2.861  15.375  1.0323 -1.0148 -0.5283
  805MPD2    C511910   0.342   2.861  15.315 -0.2376 -0.6816 -0.6461
  805MPD2     H11911   0.654   2.883  15.100 -0.8104  0.2784 -1.2741
  805MPD2    H111912   0.470   2.860  15.483  0.5810 -1.5277 -0.5022
  805MPD2    H211913   0.232   2.868  15.147 -0.2562 -1.2056  0.8620
  805MPD2    H311914   0.246   2.847  15.362 -0.0799  3.3358  0.8050
  805MPD2     N11915   0.717   2.895  15.358  0.5694  0.4506 -0.1471
  805MPD2    H511916   0.790   2.911  15.289  2.2661  0.0504  1.5641
  805MPD2    N111917   0.439   2.885  14.956 -0.1039 -0.1479  0.4217
  805MPD2    H711918   0.520   2.858  14.902 -0.7085 -1.0460 -0.0334
  806MPD2     C11919   0.588   2.016   0.551  0.1004 -0.2944 -0.0118
  806MPD2    C111920   0.711   2.045   0.598  0.1323  0.3151 -0.0356
  806MPD2    C211921   0.818   1.970   0.553 -0.2977  0.5047  0.7115
  806MPD2    C311922   0.807   1.869   0.460 -0.2669  0.2295 -0.2258
  806MPD2    C411923   0.678   1.845   0.409 -0.4851 -0.3579 -0.5209
  806MPD2    C511924   0.571   1.919   0.455  0.1578  0.1257 -0.8467
  806MPD2     H11925   0.917   1.980   0.597 -0.2537 -2.4915  1.2946
  806MPD2    H111926   0.654   1.770   0.335  0.3403  0.8719 -2.0441
  806MPD2    H211927   0.503   2.077   0.579 -1.1766 -1.5379 -1.2054
  806MPD2    H311928   0.474   1.904   0.408 -1.7278  1.4194  2.6744
  806MPD2     N11929   0.923   1.801   0.415  0.5371  0.2968  0.9329
  806MPD2    H511930   1.008   1.836   0.458  0.8761  1.8017 -0.9782
  806MPD2    N111931   0.730   2.148   0.694 -0.1555  0.3223  0.2460
  806MPD2    H711932   0.650   2.181   0.747 -0.8205 -1.3672  0.3043
  807MPD2     C11933   0.448   2.544   1.274  0.2265  0.0938  0.3378
  807MPD2    C111934   0.450   2.425   1.207  0.3015  0.7246  0.2720
  807MPD2    C211935   0.369   2.325   1.254 -0.1540  0.0677 -0.2370
  807MPD2    C311936   0.281   2.344   1.364 -0.7712 -0.0226  0.4401
  807MPD2    C411937   0.293   2.463   1.434 -0.4517  0.1522  0.1451
  807MPD2    C511938   0.375   2.563   1.385  0.5637  0.1037  0.5128
  807MPD2     H11939   0.355   2.239   1.189 -1.4567  0.4864 -0.5146
  807MPD2    H111940   0.240   2.487   1.525  0.6173 -0.4748  0.9334
  807MPD2    H211941   0.518   2.626   1.258 -0.4833  0.7069  0.3566
  807MPD2    H311942   0.394   2.650   1.446  1.7437 -0.5315  1.0563
  807MPD2     N11943   0.189   2.239   1.406 -0.1745  0.0357  0.1817
  807MPD2    H511944   0.187   2.159   1.344 -2.1890 -0.5664  1.0273
  807MPD2    N111945   0.524   2.406   1.087  0.0772  0.3069 -0.0559
  807MPD2    H711946   0.540   2.313   1.050 -0.9178  1.1821 -2.7252
  808MPD2     C11947   1.202   4.236  10.087 -0.2593  0.1575 -0.2097
  808MPD2    C111948   1.265   4.136  10.018  0.3797 -0.1704  0.7211
  808MPD2    C211949   1.406   4.148   9.991  0.3849 -0.4131  0.5302
  808MPD2    C311950   1.476   4.254  10.036 -0.4054  0.0851  0.1334
  808MPD2    C411951   1.406   4.363  10.096 -0.2876 -1.0191  0.2155
  808MPD2    C511952   1.271   4.353  10.116  0.2775 -0.0207 -0.2105
  808MPD2     H11953   1.452   4.071   9.930 -0.6762 -0.3449 -0.3595
  808MPD2    H111954   1.462   4.452  10.123 -0.8764 -1.5322  3.1622
  808MPD2    H211955   1.098   4.223  10.112  0.1224 -1.8596  0.2848
  808MPD2    H311956   1.216   4.435  10.162 -1.0928 -0.4037 -1.1736
  808MPD2     N11957   1.609   4.283   9.997 -0.3610 -0.0335  0.4716
  808MPD2    H511958   1.642   4.377  10.016 -1.6999  0.5408 -0.0607
  808MPD2    N111959   1.181   4.024   9.974 -0.3483  0.4102 -0.5046
  808MPD2    H711960   1.081   4.033   9.986 -0.3614  1.4782 -1.3508
  809MPD2     C11961   2.141   3.983   9.194  0.0371  0.5528 -0.0656
  809MPD2    C111962   2.236   4.063   9.261  0.6453 -0.3536  0.2645
  809MPD2    C211963   2.195   4.128   9.382  0.3393  0.6370  0.2321
  809MPD2    C311964   2.062   4.108   9.425  0.2456  0.3158 -0.6685
  809MPD2    C411965   1.976   4.021   9.358  0.0469  0.3048 -0.4510
  809MPD2    C511966   2.013   3.963   9.242 -0.1977  0.3403  0.3706
  809MPD2     H11967   2.267   4.190   9.433 -1.1534  2.2415  0.3556
  809MPD2    H111968   1.876   4.000   9.393 -0.4686  0.9546 -1.5112
  809MPD2    H211969   2.168   3.928   9.104  0.8219 -1.9907  1.7515
  809MPD2    H311970   1.936   3.908   9.189 -1.6219  2.0507  0.6702
  809MPD2     N11971   2.017   4.169   9.546 -0.5645  0.8500  0.0724
  809MPD2    H511972   1.921   4.142   9.568  0.1027 -1.7886 -0.2101
  809MPD2    N111973   2.367   4.075   9.230  0.8212 -0.8088  0.0104
  809MPD2    H711974   2.416   4.142   9.289 -0.3773  1.7157 -1.8406
  810MPD2     C11975   1.357   3.041  10.913  0.3998 -0.9198  0.1355
  810MPD2    C111976   1.371   2.980  10.791 -0.4369  0.7314 -0.1551
  810MPD2    C211977   1.456   3.028  10.692 -0.4525 -0.2812 -0.4292
  810MPD2    C311978   1.527   3.143  10.719  0.2151  0.5903 -0.0100
  810MPD2    C411979   1.514   3.202  10.840  0.2555 -0.6303  0.4349
  810MPD2    C511980   1.419   3.162  10.929  0.2169  0.3823 -0.2822
  810MPD2     H11981   1.461   2.977  10.597  1.3889 -1.9985  0.5956
  810MPD2    H111982   1.548   3.303  10.861  1.4311 -0.6997 -1.1577
  810MPD2    H211983   1.295   3.001  10.992  0.0942  0.2820  0.5113
  810MPD2    H311984   1.403   3.229  11.013  2.1069  1.0784 -0.4826
  810MPD2     N11985   1.603   3.215  10.618  0.1791 -0.4741 -0.1961
  810MPD2    H511986   1.641   3.305  10.645 -0.2414 -0.5844  0.7786
  810MPD2    N111987   1.284   2.875  10.759 -0.7792  0.4762 -0.1013
  810MPD2    H711988   1.232   2.843  10.840 -0.6785 -3.5728 -1.6366
  811MPD2     C11989   0.569   2.567  10.552  0.5755 -1.4100 -0.6736
  811MPD2    C111990   0.683   2.597  10.475  0.1434  0.3299 -0.2827
  811MPD2    C211991   0.662   2.691  10.379  0.1443 -0.4513 -0.3458
  811MPD2    C311992   0.548   2.764  10.353  0.2063  0.8222  0.0804
  811MPD2    C411993   0.438   2.743  10.435 -0.2379  0.3710 -1.2694
  811MPD2    C511994   0.449   2.643  10.529  0.1833 -0.7823  0.2977
  811MPD2     H11995   0.739   2.693  10.302  1.0250  1.3128  0.5689
  811MPD2    H111996   0.346   2.795  10.411 -1.3651 -1.0693 -0.0830
  811MPD2    H211997   0.553   2.490  10.627  1.0586  0.6622  1.5508
  811MPD2    H311998   0.350   2.627  10.572  0.7265 -0.2040  1.7783
  811MPD2     N11999   0.547   2.853  10.241 -0.1145  0.0670 -0.0975
  811MPD2    H512000   0.637   2.872  10.197  0.9126 -1.7545  1.2128
  811MPD2    N112001   0.815   2.534  10.491 -0.6837  0.0671  0.0331
  811MPD2    H712002   0.828   2.485  10.579  0.5211 -1.3730 -0.9418
  812MPD2     C12003   4.055   3.115  12.144 -0.1384  0.5882  0.1768
  812MPD2    C112004   4.162   3.184  12.082  0.3087  0.3576 -0.5753
  812MPD2    C212005   4.294   3.140  12.103 -0.6058 -0.4502 -0.1503
  812MPD2    C312006   4.314   3.039  12.200  0.3190 -1.5036 -0.6821
  812MPD2    C412007   4.214   2.960  12.246  0.2175 -0.5636 -0.1376
  812MPD2    C512008   4.084   3.001  12.214  0.4914  0.7442 -1.0415
  812MPD2     H12009   4.372   3.209  12.071 -0.1427 -0.6685  0.5013
  812MPD2    H112010   4.220   2.875  12.312 -0.0075 -0.4661  0.0080
  812MPD2    H212011   3.950   3.142  12.139 -0.1220  0.3283 -1.5732
  812MPD2    H312012   4.007   2.941  12.261  0.7471  1.3081  0.1024
  812MPD2     N12013   4.443   3.029  12.264 -0.6485 -0.0027 -0.6509
  812MPD2    H512014   4.521   3.077  12.221 -0.0531 -0.3480  0.0248
  812MPD2    N112015   4.137   3.305  12.024  0.3311 -0.0229 -0.6869
  812MPD2    H712016   4.038   3.328  12.033  0.5422  0.1560  1.3710
  813MPD2     C12017   4.666   0.062  12.907 -0.2820  0.5262 -0.3916
  813MPD2    C112018   4.563   0.119  12.834 -0.7572  0.3236 -0.5183
  813MPD2    C212019   4.437   0.100  12.881 -0.3072 -0.0030 -0.1353
  813MPD2    C312020   4.401   0.023  12.990 -0.1566  0.3270 -0.3249
  813MPD2    C412021   4.502   4.711  13.061 -0.2655 -0.1450  0.3751
  813MPD2    C512022   4.628   4.736  13.021 -0.3269 -0.1562  0.8025
  813MPD2     H12023   4.359   0.142  12.819  0.3311 -0.9904 -1.6031
  813MPD2    H112024   4.488   4.663  13.157 -0.1653  0.7409  0.8378
  813MPD2    H212025   0.035   0.068  12.887 -0.1167  1.4084  0.7748
  813MPD2    H312026   4.702   4.691  13.086 -0.1251 -1.1670 -0.1359
  813MPD2     N12027   4.268   0.022  13.030  0.1067 -0.0889 -0.8637
  813MPD2    H512028   4.211   0.092  12.983 -1.2585  0.5766  1.8089
  813MPD2    N112029   4.579   0.208  12.724 -0.2083  0.9145  0.6575
  813MPD2    H712030   4.495   0.257  12.695  0.0159 -0.5150 -2.4601
  814MPD2     C12031   4.314   1.415  12.460 -0.5436 -0.4820  0.3242
  814MPD2    C112032   4.381   1.477  12.357 -0.4211 -0.1179 -0.0735
  814MPD2    C212033   4.443   1.597  12.385  0.3200  0.1006  0.1166
  814MPD2    C312034   4.440   1.652  12.512  0.1297  0.5877 -0.0617
  814MPD2    C412035   4.341   1.605  12.595  0.2330  1.2939  0.3454
  814MPD2    C512036   4.289   1.484  12.579 -0.0425  0.1983 -0.1018
  814MPD2     H12037   4.496   1.648  12.305  0.6866  0.1901  0.4187
  814MPD2    H112038   4.333   1.647  12.695 -0.1368  1.2286  0.3434
  814MPD2    H212039   4.287   1.310  12.453  0.9512 -0.9838  2.1252
  814MPD2    H312040   4.221   1.439  12.650 -0.2847 -0.8718 -1.0070
  814MPD2     N12041   4.496   1.775  12.544 -0.6156 -0.2514  0.4601
  814MPD2    H512042   4.465   1.811  12.634 -0.5547 -0.8465  0.7220
  814MPD2    N112043   4.387   1.429  12.224  0.6245 -0.0811 -0.7404
  814MPD2    H712044   4.434   1.491  12.158 -0.3296  1.5819  0.1423
  815MPD2     C12045   4.518   0.330  11.735  1.1763 -0.1347 -0.1627
  815MPD2    C112046   4.560   0.220  11.672 -0.3274 -0.2315 -0.6214
  815MPD2    C212047   4.502   0.096  11.702  0.3273 -0.3706 -0.5718
  815MPD2    C312048   4.400   0.094  11.791  0.3971 -0.5932  0.5869
  815MPD2    C412049   4.372   0.201  11.873  0.3236 -0.0591  0.0472
  815MPD2    C512050   4.419   0.321  11.829 -0.4507  0.6703  0.3225
  815MPD2     H12051   4.547   0.010  11.654 -2.1254 -2.3496  0.6605
  815MPD2    H112052   4.292   0.208  11.945  1.0425 -1.0001  0.9392
  815MPD2    H212053   4.546   0.427  11.696  1.9784  0.2714  1.4168
  815MPD2    H312054   4.384   0.411  11.878  1.2055  1.6593 -0.3186
  815MPD2     N12055   4.324   4.711  11.801  0.7962 -0.0444  1.0460
  815MPD2    H512056   4.350   4.644  11.729  2.3977  0.2992  1.2966
  815MPD2    N112057   4.661   0.240  11.567  0.8028 -0.2204 -0.3791
  815MPD2    H712058   4.695   0.332  11.544 -1.4010  0.4857 -0.7888
  816MPD2     C12059   0.298   4.327  17.177  0.0342 -0.2601 -0.3360
  816MPD2    C112060   0.182   4.288  17.117 -0.0120 -0.1769  0.4952
  816MPD2    C212061   0.197   4.185  17.022 -0.0924  0.2708  0.1938
  816MPD2    C312062   0.319   4.134  16.986  0.1772  0.4634 -0.2195
  816MPD2    C412063   0.429   4.190  17.039  0.6067  0.0419  0.8992
  816MPD2    C512064   0.422   4.279  17.141  0.3469 -0.2199 -0.1983
  816MPD2     H12065   0.105   4.140  16.984 -0.6254  0.7843  0.8833
  816MPD2    H112066   0.530   4.161  17.011  0.4654  1.6916 -1.3493
  816MPD2    H212067   0.308   4.402  17.255 -1.6914  0.4717 -0.8111
  816MPD2    H312068   0.508   4.325  17.188  0.9098  0.0034 -1.4387
  816MPD2     N12069   0.313   4.033  16.887  1.1169 -0.1320 -0.1213
  816MPD2    H512070   0.219   4.020  16.850  0.4219 -0.4388  1.7348
  816MPD2    N112071   0.059   4.346  17.163  0.1181 -0.9494  0.0277
  816MPD2    H712072   0.066   4.435  17.213  0.5667 -1.3578  0.6823
  817MPD2     C12073   4.574   1.483   9.965  0.0981  0.2274 -0.1078
  817MPD2    C112074   4.546   1.457   9.832 -0.1534 -0.8674  0.1459
  817MPD2    C212075   4.442   1.531   9.775 -0.2367  0.4923 -0.4924
  817MPD2    C312076   4.358   1.612   9.850 -0.1265 -0.2170  0.5284
  817MPD2    C412077   4.384   1.630   9.985 -0.9202  0.6010 -0.0142
  817MPD2    C512078   4.485   1.561  10.039  0.0521  0.1661 -0.6328
  817MPD2     H12079   4.409   1.521   9.672  0.1940 -0.4569 -0.5446
  817MPD2    H112080   4.309   1.678  10.045  1.1643  0.2859  2.8482
  817MPD2    H212081   4.657   1.441  10.021 -1.3847 -0.3868  1.6269
  817MPD2    H312082   4.512   1.587  10.141  1.1819  0.5515 -1.0364
  817MPD2     N12083   4.242   1.659   9.788 -0.4110 -0.3886  0.0225
  817MPD2    H512084   4.230   1.629   9.692 -2.3006 -1.4591  0.5857
  817MPD2    N112085   4.624   1.375   9.751 -0.1901  0.6767  0.2866
  817MPD2    H712086   4.606   1.381   9.652  2.3175 -0.3469 -0.2160
  818MPD2     C12087   3.161   1.409   9.720 -0.6329  0.4196 -0.6317
  818MPD2    C112088   3.232   1.349   9.820 -0.2243  0.9612 -0.0206
  818MPD2    C212089   3.336   1.265   9.790 -0.1909 -0.5828  0.2148
  818MPD2    C312090   3.356   1.233   9.657  0.3057 -0.2956 -0.1459
  818MPD2    C412091   3.289   1.294   9.560 -0.9436  0.0727  0.1630
  818MPD2    C512092   3.199   1.390   9.590  0.4472  0.5143 -0.8088
  818MPD2     H12093   3.381   1.202   9.866 -2.1171 -0.6000  1.3618
  818MPD2    H112094   3.311   1.268   9.457  0.5710  1.2905  0.1763
  818MPD2    H212095   3.084   1.479   9.750  1.7968  1.4468  3.1953
  818MPD2    H312096   3.147   1.435   9.507  0.0020 -1.7767 -1.7832
  818MPD2     N12097   3.446   1.136   9.612 -0.5914 -0.7354 -0.1911
  818MPD2    H512098   3.442   1.122   9.512 -0.4796  1.7573 -0.5382
  818MPD2    N112099   3.209   1.382   9.956  0.2476  0.3415  0.1614
  818MPD2    H712100   3.255   1.328  10.028  0.3365 -0.3499 -0.4141
  819MPD2     C12101   1.101   2.612  15.223 -0.1181 -0.6849 -0.1981
  819MPD2    C112102   1.101   2.479  15.238  0.8942 -0.1200 -0.5151
  819MPD2    C212103   1.149   2.429  15.356 -0.3510  0.0282  0.3930
  819MPD2    C312104   1.205   2.502  15.457 -0.3545 -0.6467 -0.7245
  819MPD2    C412105   1.214   2.634  15.439  1.2598 -0.2660 -0.0008
  819MPD2    C512106   1.159   2.696  15.326 -0.3826 -0.1351 -0.2946
  819MPD2     H12107   1.131   2.323  15.374  1.5533 -0.2837  0.5180
  819MPD2    H112108   1.264   2.702  15.508  0.6062 -1.5983  1.7967
  819MPD2    H212109   1.063   2.644  15.127  1.6380 -1.4927 -1.1662
  819MPD2    H312110   1.150   2.804  15.316  0.1299 -0.2745 -2.2502
  819MPD2     N12111   1.251   2.428  15.568 -0.1036  0.0333 -0.2840
  819MPD2    H512112   1.236   2.328  15.569 -0.6689  0.1132 -0.6521
  819MPD2    N112113   1.070   2.399  15.125 -0.3670 -0.0138 -0.2835
  819MPD2    H712114   1.044   2.442  15.037  1.2545  2.0995  0.2777
  820MPD2     C12115   0.404   2.407  14.419 -0.2374 -1.0599 -0.8549
  820MPD2    C112116   0.488   2.484  14.485 -0.0983 -0.4456  0.0977
  820MPD2    C212117   0.571   2.428  14.582 -0.5763  1.2606 -0.1698
  820MPD2    C312118   0.554   2.300  14.626 -0.2463  0.2932 -0.0969
  820MPD2    C412119   0.457   2.225  14.564  0.0790  0.4183  0.6033
  820MPD2    C512120   0.381   2.282  14.464  0.2611 -0.0175  0.1846
  820MPD2     H12121   0.651   2.492  14.616 -0.7486  0.1590  2.3147
  820MPD2    H112122   0.447   2.122  14.594 -0.4025  0.8352  1.8746
  820MPD2    H212123   0.333   2.438  14.344 -0.6686  0.5547  0.2220
  820MPD2    H312124   0.301   2.222  14.423 -0.5506  1.9371 -1.1286
  820MPD2     N12125   0.631   2.239  14.726  0.0870  0.3485  0.0605
  820MPD2    H512126   0.606   2.143  14.751  0.6689  0.2138  0.1069
  820MPD2    N112127   0.474   2.624  14.466  0.5546  0.2826 -0.2619
  820MPD2    H712128   0.388   2.664  14.430  1.0459  1.1053 -0.5052
  821MPD2     C12129   2.009   3.557  12.920 -0.1217 -0.3610 -0.0052
  821MPD2    C112130   2.064   3.571  13.047 -0.6346 -0.1752 -0.3612
  821MPD2    C212131   2.152   3.667  13.072  0.7341  0.6857  0.4433
  821MPD2    C312132   2.197   3.754  12.974  0.2742  0.4799 -0.1787
  821MPD2    C412133   2.153   3.727  12.845 -0.7446  0.5713  0.4014
  821MPD2    C512134   2.050   3.639  12.818 -0.3217  0.0169  0.0060
  821MPD2     H12135   2.190   3.675  13.173 -0.1649 -0.1265  0.8536
  821MPD2    H112136   2.189   3.781  12.758 -0.3581 -1.3712 -0.6495
  821MPD2    H212137   1.940   3.482  12.884  2.5639 -2.6063 -0.4386
  821MPD2    H312138   2.023   3.617  12.715  2.7311  1.0039 -0.9944
  821MPD2     N12139   2.300   3.852  12.995 -0.2895 -0.4931 -0.1377
  821MPD2    H512140   2.338   3.888  12.908 -0.3503 -1.2489 -0.4731
  821MPD2    N112141   2.026   3.490  13.148  0.0941  0.9325 -0.3365
  821MPD2    H712142   2.059   3.504  13.244 -0.1666 -0.0490 -0.1070
  822MPD2     C12143   2.391   3.730  15.811  0.6866 -0.0572 -0.0243
  822MPD2    C112144   2.349   3.738  15.942  0.6500 -0.2512 -0.2045
  822MPD2    C212145   2.261   3.841  15.971  0.2432  0.3216 -0.9330
  822MPD2    C312146   2.213   3.939  15.884  1.1950 -0.5828 -0.4900
  822MPD2    C412147   2.256   3.926  15.749 -0.4027 -0.3073  0.2901
  822MPD2    C512148   2.343   3.825  15.722  0.0179 -0.9239  0.3363
  822MPD2     H12149   2.230   3.852  16.075 -0.0877  1.7276 -1.1739
  822MPD2    H112150   2.227   3.997  15.673 -0.1778 -0.9407 -0.3843
  822MPD2    H212151   2.463   3.660  15.771 -0.1565 -2.0725  1.9668
  822MPD2    H312152   2.384   3.823  15.621 -1.1672 -1.5380 -0.1401
  822MPD2     N12153   2.122   4.029  15.934 -1.0063  0.0141 -0.2086
  822MPD2    H512154   2.091   4.012  16.029  3.2679 -1.7053  0.8547
  822MPD2    N112155   2.379   3.639  16.036 -0.4415  0.2667 -0.2526
  822MPD2    H712156   2.356   3.664  16.131  1.2754  1.0454 -0.0302
  823MPD2     C12157   1.698   4.349  16.596  0.5404  0.0340 -0.1146
  823MPD2    C112158   1.722   4.236  16.517 -0.4438 -0.1143 -0.9586
  823MPD2    C212159   1.702   4.108  16.565 -0.1869  0.3396 -0.6002
  823MPD2    C312160   1.627   4.095  16.681 -0.1912 -1.0311  0.0015
  823MPD2    C412161   1.591   4.205  16.753 -0.5045 -0.0981 -0.6713
  823MPD2    C512162   1.632   4.332  16.710 -0.4028  0.4270  0.0912
  823MPD2     H12163   1.734   4.024  16.504 -2.9970 -2.1631  1.3945
  823MPD2    H112164   1.528   4.187  16.840  1.6336  0.0792  0.9223
  823MPD2    H212165   1.730   4.444  16.554  0.4187  0.3427  0.4908
  823MPD2    H312166   1.608   4.420  16.768  0.4427  0.8096 -0.1314
  823MPD2     N12167   1.608   3.970  16.739 -0.3266 -0.0835 -0.3013
  823MPD2    H512168   1.547   3.960  16.819 -0.5933  0.6552 -0.4108
  823MPD2    N112169   1.780   4.265  16.391 -0.1666 -0.2074 -0.5265
  823MPD2    H712170   1.774   4.363  16.367 -2.3413  0.2803  2.0082
  824MPD2     C12171   2.635   2.827  16.142 -0.1356  0.4452 -0.3651
  824MPD2    C112172   2.651   2.937  16.066  0.1076 -0.4770 -0.2408
  824MPD2    C212173   2.706   2.920  15.938 -0.5242 -0.1215  0.2207
  824MPD2    C312174   2.751   2.801  15.894 -0.3332  0.3003 -0.8998
  824MPD2    C412175   2.739   2.693  15.978 -0.4681 -0.4083  0.1757
  824MPD2    C512176   2.680   2.702  16.101  0.1626  0.4012 -0.1840
  824MPD2     H12177   2.725   3.009  15.878  0.0797 -0.4712 -0.1092
  824MPD2    H112178   2.765   2.590  15.957  0.6012  0.4134 -2.4608
  824MPD2    H212179   2.599   2.830  16.245 -0.1393 -0.9615 -0.3305
  824MPD2    H312180   2.669   2.610  16.157 -0.0992 -0.1933 -1.2026
  824MPD2     N12181   2.809   2.793  15.772  0.2347  0.2685 -0.2420
  824MPD2    H512182   2.798   2.876  15.713 -0.3223 -1.1427 -2.1281
  824MPD2    N112183   2.627   3.068  16.103  0.1873  0.6720 -0.4120
  824MPD2    H712184   2.642   3.143  16.035 -0.7645  0.1264 -1.2059
  825MPD2     C12185   3.423   2.908  15.167 -0.4804 -0.6254  0.1822
  825MPD2    C112186   3.344   2.962  15.260 -0.3266 -0.0539  0.3374
  825MPD2    C212187   3.370   3.085  15.318  0.0554 -0.8969  0.8570
  825MPD2    C312188   3.479   3.152  15.271  0.0806  0.2734 -0.0522
  825MPD2    C412189   3.553   3.100  15.167  0.1828  0.3102  0.5050
  825MPD2    C512190   3.525   2.975  15.120 -0.7357  0.0845 -0.2509
  825MPD2     H12191   3.313   3.122  15.402 -1.4204  0.8742 -0.9296
  825MPD2    H112192   3.631   3.165  15.128  0.6017  1.6410  3.5496
  825MPD2    H212193   3.398   2.811  15.125 -1.0526 -0.9177  1.1993
  825MPD2    H312194   3.585   2.932  15.041 -0.1066 -0.3996  0.4845
  825MPD2     N12195   3.513   3.276  15.317  0.5995 -0.3540  0.5658
  825MPD2    H512196   3.566   3.337  15.256  0.2451 -1.4183 -0.7962
  825MPD2    N112197   3.229   2.884  15.296  0.0074 -0.0473 -0.5836
  825MPD2    H712198   3.233   2.794  15.248 -0.5805 -0.0494 -0.6258
  826MPD2     C12199   3.151   2.551  14.094 -0.2467  0.1469  0.0534
  826MPD2    C112200   3.115   2.623  13.979 -0.0075 -0.1361  0.0638
  826MPD2    C212201   3.056   2.746  13.992  0.2868 -0.1452  0.1333
  826MPD2    C312202   3.033   2.793  14.122 -0.2666  0.4486  0.1802
  826MPD2    C412203   3.062   2.716  14.235  0.0103  0.3203  0.7762
  826MPD2    C512204   3.123   2.595  14.219  0.5371 -0.0861 -0.5817
  826MPD2     H12205   3.016   2.798  13.906  2.0649  1.9196  0.5558
  826MPD2    H112206   3.035   2.744  14.336  0.5942  0.1116  0.9895
  826MPD2    H212207   3.190   2.451  14.080 -0.7833  0.0435 -0.6955
  826MPD2    H312208   3.141   2.534  14.307 -0.4171 -1.8542 -1.6218
  826MPD2     N12209   2.961   2.909  14.147 -0.1318 -0.4848  0.4579
  826MPD2    H512210   2.939   2.924  14.245 -0.1680  1.7752  0.1235
  826MPD2    N112211   3.138   2.558  13.856 -0.0092 -1.0267 -0.2668
  826MPD2    H712212   3.164   2.461  13.864  0.9454 -0.8451 -1.2159
  827MPD2     C12213   3.700   4.383   9.772  0.5762 -0.2500  0.1159
  827MPD2    C112214   3.705   4.266   9.844  0.3609  1.0474 -0.0496
  827MPD2    C212215   3.610   4.165   9.823 -0.2383 -0.0490  0.4362
  827MPD2    C312216   3.508   4.186   9.736 -0.3700 -0.4094  0.2609
  827MPD2    C412217   3.513   4.295   9.653 -0.7606 -0.6474  0.6645
  827MPD2    C512218   3.606   4.389   9.673  0.4534 -0.6983 -0.4378
  827MPD2     H12219   3.602   4.074   9.882  2.1723 -0.2951  0.3882
  827MPD2    H112220   3.444   4.299   9.569 -0.2331  1.1676  0.3348
  827MPD2    H212221   3.774   4.459   9.791  0.9997 -0.9333  1.2017
  827MPD2    H312222   3.607   4.478   9.611 -0.6633 -0.1572  0.3163
  827MPD2     N12223   3.419   4.080   9.723 -0.0908  0.0930 -0.4558
  827MPD2    H512224   3.417   4.003   9.790  2.6080 -0.1033 -0.5981
  827MPD2    N112225   3.811   4.248   9.938  0.3909 -0.7033  0.4262
  827MPD2    H712226   3.874   4.326   9.952 -0.8647  0.2132  1.0452
  828MPD2     C12227   2.497   4.132  12.083 -0.0346  0.7803 -0.7674
  828MPD2    C112228   2.389   4.123  12.006  0.0696  0.6724  0.1017
  828MPD2    C212229   2.405   4.080  11.872 -0.2384  0.3513 -0.5908
  828MPD2    C312230   2.537   4.062  11.821 -0.0996  0.2921  0.0897
  828MPD2    C412231   2.645   4.077  11.907 -0.1511  0.4599 -0.2086
  828MPD2    C512232   2.623   4.101  12.040 -0.1318  0.5580 -0.4052
  828MPD2     H12233   2.318   4.061  11.809 -1.3626  0.3044  0.9946
  828MPD2    H112234   2.746   4.086  11.868 -0.4420 -1.1740 -1.3293
  828MPD2    H212235   2.501   4.169  12.185 -3.0542  2.5918 -1.3062
  828MPD2    H312236   2.706   4.134  12.101 -0.1412 -2.9210  1.4764
  828MPD2     N12237   2.557   4.014  11.686  0.5630  0.5656  0.7237
  828MPD2    H512238   2.654   3.987  11.670  0.0962  0.5424 -2.0180
  828MPD2    N112239   2.259   4.154  12.049  0.7611  0.0059 -0.0686
  828MPD2    H712240   2.189   4.162  11.977  0.9923 -0.8216 -0.3866
  829MPD2     C12241   1.601   4.394  11.584 -0.1370 -0.4003 -0.7751
  829MPD2    C112242   1.533   4.369  11.702  0.5138  0.4915 -0.0293
  829MPD2    C212243   1.603   4.339  11.821 -0.5050 -0.5328  0.5819
  829MPD2    C312244   1.741   4.316  11.815  0.1377 -0.7411 -0.3161
  829MPD2    C412245   1.802   4.325  11.691  0.4435  0.3675 -0.0609
  829MPD2    C512246   1.735   4.368  11.579 -0.3100  1.0198 -0.1780
  829MPD2     H12247   1.555   4.306  11.912 -0.2122  1.9081  1.6308
  829MPD2    H112248   1.906   4.297  11.675  0.5765  1.1029 -0.5207
  829MPD2    H212249   1.548   4.430  11.496 -2.8354 -2.0927  0.1428
  829MPD2    H312250   1.780   4.389  11.482 -1.1071  0.0623 -0.7506
  829MPD2     N12251   1.821   4.293  11.931 -0.8557  0.2249 -0.2641
  829MPD2    H512252   1.917   4.259  11.929 -0.8908  0.1978 -1.1344
  829MPD2    N112253   1.389   4.386  11.696  0.4169  0.0691 -0.4607
  829MPD2    H712254   1.344   4.417  11.610  1.5198  1.3145 -0.5828
  830MPD2     C12255   1.900   1.931  15.719 -0.2404  0.3685  0.0637
  830MPD2    C112256   1.794   1.968  15.644  0.3929  0.6570 -0.3091
  830MPD2    C212257   1.815   1.963  15.504 -0.1405 -0.2269  0.4175
  830MPD2    C312258   1.929   1.923  15.442 -0.4670 -0.0372 -0.4153
  830MPD2    C412259   2.032   1.879  15.525 -0.6282  0.3609 -0.4196
  830MPD2    C512260   2.015   1.890  15.658  1.4122  0.0358 -0.0253
  830MPD2     H12261   1.733   2.001  15.444  0.0739 -1.1066 -0.4290
  830MPD2    H112262   2.129   1.855  15.483 -0.6419  0.4152 -0.4827
  830MPD2    H212263   1.896   1.952  15.825  1.9238 -1.0976  0.4375
  830MPD2    H312264   2.096   1.875  15.729  1.0882 -0.1602  0.3038
  830MPD2     N12265   1.937   1.925  15.304 -0.5055  0.1546 -0.5375
  830MPD2    H512266   2.034   1.925  15.272 -0.0034 -1.2406  0.9638
  830MPD2    N112267   1.670   2.000  15.714 -1.0405  0.4948 -0.7799
  830MPD2    H712268   1.675   2.002  15.815 -0.0403  1.8480 -0.8555
  831MPD2     C12269   2.379   4.221  16.325 -0.1649  0.7579  0.2078
  831MPD2    C112270   2.404   4.102  16.258 -0.3710 -0.4400 -0.2554
  831MPD2    C212271   2.308   4.011  16.273 -0.7096 -0.4914  0.2724
  831MPD2    C312272   2.187   4.024  16.328 -0.6106  0.1715 -0.2011
  831MPD2    C412273   2.175   4.140  16.407  0.4131 -0.1551  0.4997
  831MPD2    C512274   2.265   4.236  16.401 -0.6782  0.1370 -0.2161
  831MPD2     H12275   2.326   3.921  16.214 -1.5857 -1.1548  1.0080
  831MPD2    H112276   2.080   4.144  16.458 -0.5607 -0.0174 -1.3168
  831MPD2    H212277   2.457   4.295  16.317  0.9493 -0.1577  2.5494
  831MPD2    H312278   2.243   4.336  16.438  0.0457 -0.0597  0.7440
  831MPD2     N12279   2.087   3.929  16.317 -0.1626  0.7793  0.0336
  831MPD2    H512280   1.996   3.956  16.353  0.2349  1.1507  0.7496
  831MPD2    N112281   2.517   4.081  16.164 -0.1446  0.0384 -0.1106
  831MPD2    H712282   2.565   4.160  16.123  1.7906 -0.6912  0.7457
  832MPD2     C12283   0.584   0.120  16.929 -0.0899  0.3665 -0.2944
  832MPD2    C112284   0.615   0.251  16.925 -1.2737  0.1042  0.0451
  832MPD2    C212285   0.514   0.344  16.883  0.6654  0.4888 -1.0323
  832MPD2    C312286   0.383   0.309  16.862 -0.3540 -0.2973  0.4287
  832MPD2    C412287   0.360   0.174  16.866  0.3798 -0.4519 -0.7591
  832MPD2    C512288   0.457   0.082  16.894  0.6362 -0.3535  0.2323
  832MPD2     H12289   0.535   0.451  16.877 -1.0343  0.8839  0.3258
  832MPD2    H112290   0.260   0.137  16.843 -0.3713 -0.5033  2.5195
  832MPD2    H212291   0.662   0.049  16.952 -2.1676 -1.8376 -0.0948
  832MPD2    H312292   0.436   4.714  16.883 -1.3745  0.0832 -0.2645
  832MPD2     N12293   0.271   0.393  16.837 -0.3335 -0.2040  0.3471
  832MPD2    H512294   0.187   0.335  16.830 -0.2173 -0.1381 -1.6026
  832MPD2    N112295   0.746   0.297  16.958  0.5749  0.1075  0.1245
  832MPD2    H712296   0.819   0.229  16.943 -1.1385 -1.8695  0.7471
  833MPD2     C12297   3.226   1.831  12.652  0.1196  0.2478 -0.3882
  833MPD2    C112298   3.214   1.887  12.527  0.6628 -0.1049 -0.5086
  833MPD2    C212299   3.297   1.837  12.427  0.1050 -0.0749  0.3657
  833MPD2    C312300   3.391   1.738  12.456 -0.0020  0.3517  0.0218
  833MPD2    C412301   3.399   1.678  12.583  0.1048  0.4123 -0.2111
  833MPD2    C512302   3.317   1.731  12.679  0.2407  0.5891  0.6051
  833MPD2     H12303   3.282   1.863  12.322 -0.7962 -1.6893  0.1002
  833MPD2    H112304   3.474   1.604  12.607 -1.5883 -1.4050 -0.5689
  833MPD2    H212305   3.168   1.870  12.735 -0.7389 -0.7224 -0.5211
  833MPD2    H312306   3.322   1.697  12.782  1.8916  0.2906  0.4171
  833MPD2     N12307   3.487   1.699  12.359 -0.0008 -0.5413 -0.4852
  833MPD2    H512308   3.544   1.620  12.385  0.1851  0.4099  1.9814
  833MPD2    N112309   3.114   1.988  12.506  0.1260 -0.2317  1.2609
  833MPD2    H712310   3.042   2.000  12.577 -1.3279 -0.7551 -0.1145
  834MPD2     C12311   3.007   1.241  11.845 -0.6786 -0.0325  0.0500
  834MPD2    C112312   3.072   1.328  11.757  0.4801 -0.5606  0.4316
  834MPD2    C212313   3.207   1.357  11.782  0.0676  0.1115  0.2950
  834MPD2    C312314   3.269   1.303  11.900 -0.3952 -0.3101  0.1569
  834MPD2    C412315   3.204   1.209  11.975  0.0365  0.5251  0.0894
  834MPD2    C512316   3.076   1.173  11.946  0.3539  0.5722  0.2444
  834MPD2     H12317   3.273   1.414  11.716  2.4925  0.1368  2.7557
  834MPD2    H112318   3.254   1.158  12.057  0.4140  1.6994  0.5864
  834MPD2    H212319   2.903   1.214  11.842 -0.2634 -1.4701 -1.2005
  834MPD2    H312320   3.022   1.103  12.008  1.5522 -0.2689  0.3399
  834MPD2     N12321   3.393   1.370  11.933 -0.7235  0.0583 -0.1696
  834MPD2    H512322   3.429   1.437  11.866 -1.1659  0.6170  0.1424
  834MPD2    N112323   3.001   1.366  11.642 -0.3122 -0.3833 -0.5445
  834MPD2    H712324   2.903   1.340  11.636 -0.0190 -1.5516 -0.3794
  835MPD2     C12325   3.376   4.267  10.687 -0.3078  0.2242  0.6369
  835MPD2    C112326   3.267   4.312  10.750 -0.2896 -0.6526  0.0116
  835MPD2    C212327   3.274   4.358  10.878 -0.1775  0.0342 -0.4876
  835MPD2    C312328   3.388   4.344  10.959  0.0717  0.3000  0.1934
  835MPD2    C412329   3.495   4.292  10.900 -0.2629 -0.5183 -0.8082
  835MPD2    C512330   3.490   4.256  10.768 -0.5218  0.9261 -0.1563
  835MPD2     H12331   3.179   4.386  10.922 -0.2057 -0.0424 -0.5009
  835MPD2    H112332   3.576   4.251  10.961 -0.7137  0.5086  0.4812
  835MPD2    H212333   3.382   4.226  10.587 -0.4240 -1.5357  1.3360
  835MPD2    H312334   3.579   4.212  10.725  0.0074  1.3189  0.5250
  835MPD2     N12335   3.382   4.366  11.097  0.0973  0.3066 -0.2811
  835MPD2    H512336   3.453   4.311  11.144 -0.1276 -0.6993 -1.1057
  835MPD2    N112337   3.149   4.337  10.684  0.3641  0.4988  0.0472
  835MPD2    H712338   3.071   4.368  10.740 -0.4734 -0.6198 -0.4917
  836MPD2     C12339   2.835   0.047  11.455  0.0451  0.6678 -0.2486
  836MPD2    C112340   2.898   4.705  11.548  0.0138 -0.3632  0.0697
  836MPD2    C212341   2.841   4.698  11.669 -0.0358  0.5003  0.4064
  836MPD2    C312342   2.713   0.017  11.703 -0.3728  0.4156 -0.0174
  836MPD2    C412343   2.649   0.090  11.601 -0.3642  0.1645 -0.2114
  836MPD2    C512344   2.713   0.101  11.480 -0.3216 -1.0510 -0.5113
  836MPD2     H12345   2.895   4.646  11.746  0.6649  0.3609 -0.1793
  836MPD2    H112346   2.560   0.146  11.628 -0.9195 -0.1552 -1.3782
  836MPD2    H212347   2.887   0.066  11.362 -2.6628 -0.8365 -2.0296
  836MPD2    H312348   2.653   0.163  11.414  0.3679  0.3057  0.1504
  836MPD2     N12349   2.649   0.002  11.835  0.2166  0.2366  0.4557
  836MPD2    H512350   2.571   0.065  11.849 -0.8985 -1.1852  0.5018
  836MPD2    N112351   3.017   4.639  11.512 -0.8951 -0.2058  0.2372
  836MPD2    H712352   3.029   4.646  11.411 -2.2407 -0.8393  0.0333
  837MPD2     C12353   0.944   3.529  10.213  0.3933  0.6888  0.1045
  837MPD2    C112354   0.808   3.532  10.194  0.0616  0.2261  0.4541
  837MPD2    C212355   0.744   3.655  10.187 -0.2708  0.7330 -0.0320
  837MPD2    C312356   0.812   3.775  10.204  0.2396 -0.1816 -0.4109
  837MPD2    C412357   0.947   3.770  10.234 -1.1919  0.3682  0.0544
  837MPD2    C512358   1.013   3.650  10.234  0.2124  0.3133 -0.2821
  837MPD2     H12359   0.636   3.648  10.178  0.0222 -0.6600 -2.5223
  837MPD2    H112360   0.997   3.867  10.237  0.8124 -0.6817  0.5227
  837MPD2    H212361   0.997   3.435  10.226 -0.3690  0.4746  1.6324
  837MPD2    H312362   1.121   3.652  10.244  0.3202 -1.2625 -1.1060
  837MPD2     N12363   0.739   3.890  10.172 -0.3448  0.0366  0.3870
  837MPD2    H512364   0.639   3.884  10.158 -0.1982 -2.4387  0.4457
  837MPD2    N112365   0.725   3.419  10.182 -0.4941 -0.0580  0.2913
  837MPD2    H712366   0.623   3.421  10.179 -0.5615 -3.8411 -0.2706
  838MPD2     C12367   4.565   2.580  12.250 -0.0266  0.1789 -0.4323
  838MPD2    C112368   4.518   2.466  12.186  0.2351 -0.2551  0.1383
  838MPD2    C212369   4.448   2.367  12.258 -0.5589  0.6046 -0.7765
  838MPD2    C312370   4.438   2.379  12.398 -0.8737  0.4735  0.0194
  838MPD2    C412371   4.483   2.499  12.451 -1.1035  0.4306  0.2876
  838MPD2    C512372   4.543   2.595  12.378  0.0356 -0.2956  0.6680
  838MPD2     H12373   4.401   2.285  12.205 -0.2411 -0.2095  0.2283
  838MPD2    H112374   4.456   2.533  12.550  1.8594 -1.9494  1.9329
  838MPD2    H212375   4.604   2.673  12.209  1.8576 -0.9367 -1.1399
  838MPD2    H312376   4.571   2.684  12.434  0.5477  0.9722 -1.5735
  838MPD2     N12377   4.374   2.292  12.488  0.3862  0.1196 -0.2955
  838MPD2    H512378   4.349   2.334  12.577 -1.2865  3.1877 -2.1986
  838MPD2    N112379   4.521   2.457  12.046  0.3330 -0.0901 -0.2753
  838MPD2    H712380   4.456   2.387  12.010 -2.9511  3.5115 -1.2894
  839MPD2     C12381   3.919   2.017  11.844 -0.9075  0.0452 -0.0420
  839MPD2    C112382   3.971   2.018  11.719  0.5992  0.3366  0.2350
  839MPD2    C212383   4.064   2.110  11.689  0.0319  0.3956 -0.0457
  839MPD2    C312384   4.108   2.207  11.780 -0.5785  0.3653  0.1235
  839MPD2    C412385   4.045   2.213  11.899  0.4730  0.6644  0.4609
  839MPD2    C512386   3.951   2.124  11.930  0.2937 -0.1262 -0.7313
  839MPD2     H12387   4.111   2.115  11.592 -2.2798 -0.2013 -1.1847
  839MPD2    H112388   4.080   2.288  11.969  2.0447  0.5428 -0.1962
  839MPD2    H212389   3.831   1.962  11.873 -0.6287 -1.3764 -1.9135
  839MPD2    H312390   3.900   2.124  12.025 -0.9851 -1.5566 -1.3984
  839MPD2     N12391   4.218   2.290  11.763  0.5371  0.5703 -0.1298
  839MPD2    H512392   4.242   2.346  11.845 -0.1265 -0.9541  1.1142
  839MPD2    N112393   3.948   1.908  11.625  0.3335  0.1995 -0.5998
  839MPD2    H712394   3.999   1.906  11.537 -0.4316 -2.7157 -0.9795
  840MPD2     C12395   4.498   4.335  10.060  0.2218  0.0295 -0.1256
  840MPD2    C112396   4.403   4.420  10.110 -0.5466  0.6661  0.3421
  840MPD2    C212397   4.452   4.537  10.165 -0.1108 -0.2182 -0.5082
  840MPD2    C312398   4.583   4.579  10.156 -0.3134  0.6682  0.1728
  840MPD2    C412399   4.670   4.494  10.104 -0.3911  0.2039 -0.1455
  840MPD2    C512400   4.632   4.372  10.054 -0.8011  0.3610 -1.0404
  840MPD2     H12401   4.387   4.605  10.218  0.0947  0.1229 -0.6953
  840MPD2    H112402   0.035   4.514  10.075 -0.1908 -0.4723  0.1052
  840MPD2    H212403   4.481   4.233  10.027  1.0418  0.9571 -3.4199
  840MPD2    H312404   4.700   4.316   9.990 -0.1022  1.1581 -1.0088
  840MPD2     N12405   4.635   4.704  10.196 -0.1657  0.3304  0.1693
  840MPD2    H512406   4.737   4.703  10.195 -0.1517  0.4474  1.0141
  840MPD2    N112407   4.271   4.375  10.124  0.0796  0.1697  0.1230
  840MPD2    H712408   4.246   4.279  10.101 -1.5812  0.5275  0.4670
  841MPD2     C12409   3.911   3.960  14.131 -0.4079 -0.1723  0.2587
  841MPD2    C112410   3.892   3.930  14.262 -0.3055  0.7751  0.0171
  841MPD2    C212411   3.984   3.976  14.356 -0.4922  0.4923  0.1929
  841MPD2    C312412   4.092   4.047  14.319 -1.3353 -0.5365  0.2761
  841MPD2    C412413   4.104   4.075  14.190 -0.1510  0.1229 -0.4540
  841MPD2    C512414   4.015   4.029  14.096  0.6908 -0.7383 -0.1152
  841MPD2     H12415   3.982   3.931  14.455  0.0336  1.6945  0.7463
  841MPD2    H112416   4.195   4.124  14.156 -0.0639 -0.5464 -1.2078
  841MPD2    H212417   3.841   3.927  14.055 -0.1392 -1.3317  0.5085
  841MPD2    H312418   4.034   4.045  13.991 -2.2696 -0.0333 -0.5480
  841MPD2     N12419   4.180   4.091  14.418  0.5298 -0.6797 -0.2215
  841MPD2    H512420   4.160   4.057  14.511  1.7646 -0.7575  0.0101
  841MPD2    N112421   3.780   3.858  14.308 -0.3105  0.1100 -0.3028
  841MPD2    H712422   3.784   3.838  14.408  3.2793  1.6179 -0.1381
  842MPD2     C12423   4.578   0.931  16.683 -0.3405 -0.1884 -0.7071
  842MPD2    C112424   4.457   0.871  16.653 -0.3759 -0.4799 -0.2833
  842MPD2    C212425   4.393   0.793  16.756 -0.1371 -0.2199 -0.4012
  842MPD2    C312426   4.438   0.784  16.879 -0.2572 -0.8446 -0.0763
  842MPD2    C412427   4.563   0.846  16.909  0.1227  0.4691  0.1927
  842MPD2    C512428   4.632   0.914  16.810 -0.1093  0.1201 -0.3406
  842MPD2     H12429   4.301   0.739  16.737 -1.2505  1.4799  0.1703
  842MPD2    H112430   4.611   0.845  17.006  0.6661 -1.8532 -0.1028
  842MPD2    H212431   4.634   0.995  16.616 -0.3653  0.2109 -0.3488
  842MPD2    H312432   4.729   0.957  16.834 -0.3740  1.2878 -1.3991
  842MPD2     N12433   4.377   0.714  16.986 -0.4815  0.5012 -0.3093
  842MPD2    H512434   4.421   0.726  17.076  0.2008  3.0707 -0.9950
  842MPD2    N112435   4.401   0.895  16.527 -0.1074 -0.4693  0.1489
  842MPD2    H712436   4.456   0.956  16.468 -2.2087  0.5108 -0.8063
  843MPD2     C12437   1.776   1.323  17.499  0.3700  0.0310 -0.3719
  843MPD2    C112438   1.759   1.318  17.637  0.7760 -0.3021  0.9009
  843MPD2    C212439   1.812   1.430  17.708 -0.2282 -0.1757 -0.0056
  843MPD2    C312440   1.886   1.527  17.648 -0.4170  0.2894 -0.3538
  843MPD2    C412441   1.898   1.529  17.514  0.8473  0.5059  0.2663
  843MPD2    C512442   1.849   1.425  17.441  0.3428  0.8394 -0.3597
  843MPD2     H12443   1.795   1.438   0.066 -0.2805 -1.4262  0.0754
  843MPD2    H112444   1.967   1.600  17.469 -1.2503  1.6191 -1.2289
  843MPD2    H212445   1.731   1.241  17.446 -2.1198  1.9175 -1.2080
  843MPD2    H312446   1.859   1.425  17.333  1.9758  0.9114 -0.2131
  843MPD2     N12447   1.951   1.635  17.710  0.1925  0.7096 -0.0700
  843MPD2    H512448   1.993   1.703  17.646 -2.2018  0.8849 -1.4782
  843MPD2    N112449   1.671   1.219  17.688 -0.5848 -0.3819  0.5310
  843MPD2    H712450   1.608   1.186  17.615 -1.5668 -0.4648  1.4173
  844MPD2     C12451   0.199   0.266  16.233 -0.3389 -0.1763 -0.7997
  844MPD2    C112452   0.331   0.212  16.252 -0.3784 -0.3779 -0.1896
  844MPD2    C212453   0.419   0.292  16.307  0.0591 -0.4864  0.7499
  844MPD2    C312454   0.380   0.414  16.365 -0.3536 -0.0614 -0.0056
  844MPD2    C412455   0.251   0.458  16.359 -0.9280 -0.2891  0.0540
  844MPD2    C512456   0.164   0.382  16.286  0.3330 -0.1227 -0.2792
  844MPD2     H12457   0.521   0.255  16.310  0.0807 -0.5010 -0.2820
  844MPD2    H112458   0.227   0.557  16.395 -0.9210 -0.2549 -0.0349
  844MPD2    H212459   0.121   0.218  16.175 -0.2464 -1.2294 -0.0425
  844MPD2    H312460   0.065   0.421  16.264  0.0701 -1.4621 -1.4773
  844MPD2     N12461   0.487   0.493  16.409  0.2612  0.1439 -0.1090
  844MPD2    H512462   0.576   0.445  16.407 -0.4439 -1.1655  0.5063
  844MPD2    N112463   0.374   0.093  16.189  0.6540  0.3029  0.0811
  844MPD2    H712464   0.474   0.076  16.181  0.5341  1.2961 -3.4195
  845MPD2     C12465   0.800   1.222  17.061 -0.2799  0.4603 -0.5351
  845MPD2    C112466   0.666   1.201  17.023  0.3348  0.1214 -0.0688
  845MPD2    C212467   0.634   1.095  16.931 -0.0153 -0.5300 -0.1960
  845MPD2    C312468   0.729   1.007  16.895 -0.6659  0.9409 -0.0897
  845MPD2    C412469   0.858   1.033  16.934  0.1749  0.2732 -0.8321
  845MPD2    C512470   0.897   1.141  17.007 -0.6352  0.2962  0.2567
  845MPD2     H12471   0.537   1.082  16.884 -1.3577  0.1139  2.4045
  845MPD2    H112472   0.947   0.979  16.904  1.2005  0.1169  2.4557
  845MPD2    H212473   0.840   1.300  17.125 -3.0202 -0.7175  2.6113
  845MPD2    H312474   1.003   1.151  17.027 -0.5828 -0.7116  0.4638
  845MPD2     N12475   0.698   0.899  16.808 -0.1585 -0.6926 -0.6638
  845MPD2    H512476   0.600   0.891  16.783 -0.3924 -0.3521  0.1359
  845MPD2    N112477   0.562   1.280  17.068  0.6510  0.1609 -0.0177
  845MPD2    H712478   0.473   1.276  17.020  0.9086  0.7956 -0.5552
  846MPD2     C12479   2.005   1.211  13.323 -0.2524 -0.3135 -0.2420
  846MPD2    C112480   1.948   1.325  13.377  0.0976 -0.2848  0.2318
  846MPD2    C212481   1.909   1.324  13.511  0.8861  0.4868 -0.1215
  846MPD2    C312482   1.918   1.203  13.584  0.9474 -0.5711  0.3578
  846MPD2    C412483   1.987   1.097  13.523 -0.9209  0.0432 -0.1018
  846MPD2    C512484   2.025   1.095  13.395 -0.2228  0.5936  0.5795
  846MPD2     H12485   1.861   1.408  13.560  0.6906 -1.4004  2.9840
  846MPD2    H112486   1.992   0.999  13.567  1.4729  0.2281  0.0722
  846MPD2    H212487   2.046   1.214  13.223  0.2749  1.4576  0.0128
  846MPD2    H312488   2.068   1.006  13.351 -1.9245 -1.0910  2.3582
  846MPD2     N12489   1.871   1.195  13.718  0.1381 -0.4202 -0.2176
  846MPD2    H512490   1.805   1.268  13.743  0.2236 -0.6213  0.5752
  846MPD2    N112491   1.944   1.445  13.304  0.2407 -0.8146  0.0733
  846MPD2    H712492   1.914   1.529  13.354  1.6065  0.0223 -0.4943
  847MPD2     C12493   1.758   1.718  14.242 -0.0889  0.0522 -0.0277
  847MPD2    C112494   1.886   1.742  14.196  0.0109  0.0362  0.1788
  847MPD2    C212495   2.001   1.686  14.255  0.2899  0.0875 -0.4958
  847MPD2    C312496   1.983   1.625  14.381 -0.6586 -0.9305 -0.3152
  847MPD2    C412497   1.853   1.605  14.430 -0.1280 -0.2217 -0.3189
  847MPD2    C512498   1.745   1.634  14.354  0.2830  0.6133  0.2608
  847MPD2     H12499   2.094   1.716  14.210  0.4745 -0.6922 -0.6310
  847MPD2    H112500   1.833   1.561  14.528  2.7291  0.3333  0.5116
  847MPD2    H212501   1.673   1.768  14.196  0.2964  0.3621 -0.4068
  847MPD2    H312502   1.653   1.612  14.407  0.3765 -2.4385 -0.8733
  847MPD2     N12503   2.103   1.601  14.453 -1.0123  0.8185  0.0190
  847MPD2    H512504   2.187   1.646  14.418 -1.5016  0.6617 -1.3718
  847MPD2    N112505   1.915   1.818  14.082 -1.0970  0.5804 -0.0662
  847MPD2    H712506   2.008   1.803  14.044 -0.8590 -1.2089  1.2072
  848MPD2     C12507   4.701   0.763  16.179  0.1845  0.8987 -0.7477
  848MPD2    C112508   0.051   0.789  16.280 -0.1218  0.2698  0.3917
  848MPD2    C212509   0.132   0.896  16.263 -1.0586 -0.0973  0.0366
  848MPD2    C312510   0.142   0.959  16.134  0.2878  0.0425  0.1893
  848MPD2    C412511   0.058   0.917  16.028  0.4331  0.1712  0.1682
  848MPD2    C512512   4.703   0.827  16.058  0.2556 -0.9553 -0.8102
  848MPD2     H12513   0.198   0.916  16.347 -0.3610 -0.0250 -0.5322
  848MPD2    H112514   0.061   0.966  15.931 -1.3264 -0.8043 -0.3949
  848MPD2    H212515   4.634   0.678  16.184  1.4781 -0.0380  0.5320
  848MPD2    H312516   4.630   0.793  15.986  1.1526 -3.0343 -0.7339
  848MPD2     N12517   0.240   1.062  16.109  0.1516  0.3224  0.5855
  848MPD2    H512518   0.223   1.110  16.021  0.9898 -2.3152 -1.0331
  848MPD2    N112519   0.050   0.730  16.406  0.4928  0.1057 -0.0800
  848MPD2    H712520   0.111   0.768  16.478  0.7132 -1.6396  0.6365
  849MPD2     C12521   3.625   0.708  13.527  0.7375  0.2019 -0.8044
  849MPD2    C112522   3.718   0.616  13.487 -0.4501  0.1724 -0.0816
  849MPD2    C212523   3.739   0.503  13.561 -0.0088  0.1980  1.1208
  849MPD2    C312524   3.671   0.473  13.683 -0.2158 -0.6999 -0.1577
  849MPD2    C412525   3.584   0.568  13.725 -0.1563  0.1082  0.6235
  849MPD2    C512526   3.565   0.682  13.649 -0.1981 -0.4456  0.4399
  849MPD2     H12527   3.815   0.441  13.514 -0.7374 -1.0892  1.6274
  849MPD2    H112528   3.523   0.557  13.814 -2.6303  0.7735 -0.9894
  849MPD2    H212529   3.602   0.793  13.464 -0.8640  0.2024 -0.2171
  849MPD2    H312530   3.479   0.741  13.677 -0.7148  0.0174 -2.0717
  849MPD2     N12531   3.686   0.356  13.761  0.1093 -0.3050  0.2844
  849MPD2    H512532   3.626   0.340  13.841 -1.2911  2.2332 -0.2586
  849MPD2    N112533   3.795   0.629  13.371 -0.4099 -0.2209  0.5374
  849MPD2    H712534   3.836   0.543  13.336 -0.6633 -0.2778  0.3840
  850MPD2     C12535   2.230   3.372  14.960  0.2842 -0.2248  0.2035
  850MPD2    C112536   2.274   3.246  15.001  0.1404 -0.7603 -0.0569
  850MPD2    C212537   2.411   3.210  14.989  0.3841 -0.2221 -0.1347
  850MPD2    C312538   2.494   3.300  14.919  0.9120  0.1816  0.5297
  850MPD2    C412539   2.446   3.427  14.876 -0.8731 -0.4667  0.1599
  850MPD2    C512540   2.319   3.463  14.897 -0.0099 -0.2180  0.1798
  850MPD2     H12541   2.443   3.113  15.024 -0.1634  0.4251  2.1725
  850MPD2    H112542   2.515   3.494  14.826 -2.2928 -1.2691 -2.8539
  850MPD2    H212543   2.129   3.409  14.970  0.8682  1.8185 -1.2609
  850MPD2    H312544   2.288   3.563  14.869  1.2287 -0.2252 -1.2079
  850MPD2     N12545   2.633   3.277  14.896  0.0706 -0.0223  0.2250
  850MPD2    H512546   2.694   3.350  14.859 -0.7093  1.1153  1.1557
  850MPD2    N112547   2.186   3.144  15.054 -0.6354 -0.6660  0.0710
  850MPD2    H712548   2.235   3.057  15.076  0.7961 -0.0482 -0.6482
  851MPD2     C12549   2.363   2.573  15.040 -0.7025 -0.3478 -0.5325
  851MPD2    C112550   2.229   2.566  15.079 -0.5898  1.1740  0.8161
  851MPD2    C212551   2.156   2.451  15.053 -0.6835  0.6864 -0.4747
  851MPD2    C312552   2.210   2.342  14.987 -0.3789 -0.6946 -1.2567
  851MPD2    C412553   2.333   2.355  14.934 -0.2303 -0.2735 -0.3279
  851MPD2    C512554   2.408   2.466  14.960  0.3520  0.0947 -0.3153
  851MPD2     H12555   2.050   2.446  15.073 -0.4459 -1.6139  0.2211
  851MPD2    H112556   2.381   2.274  14.880 -2.0148 -1.6472  0.1605
  851MPD2    H212557   2.426   2.656  15.070  0.8891 -1.0744 -1.8419
  851MPD2    H312558   2.509   2.473  14.923  0.7802  2.4990  1.3105
  851MPD2     N12559   2.125   2.227  14.977  0.8691 -0.0567 -0.3176
  851MPD2    H512560   2.030   2.234  15.013  1.8347  2.0422  1.8213
  851MPD2    N112561   2.175   2.678  15.135  0.2440 -0.3771  0.4714
  851MPD2    H712562   2.236   2.759  15.136  0.1152 -0.2761 -0.1015
  852MPD2     C12563   1.464   0.303   9.908 -0.4947  0.0811  0.1193
  852MPD2    C112564   1.437   0.392  10.013 -0.9054  0.8234 -0.1519
  852MPD2    C212565   1.540   0.477  10.047  0.2525  0.3170  0.0074
  852MPD2    C312566   1.669   0.466   9.996  0.7720 -0.4187  0.6878
  852MPD2    C412567   1.692   0.370   9.892  0.2184 -0.8147  0.6495
  852MPD2    C512568   1.589   0.294   9.850 -0.5578 -0.6118 -0.2084
  852MPD2     H12569   1.513   0.543  10.129 -1.3114  1.3392 -1.3401
  852MPD2    H112570   1.784   0.346   9.840 -0.5416  0.1354 -1.1246
  852MPD2    H212571   1.387   0.232   9.879  0.6585 -1.5053  0.9373
  852MPD2    H312572   1.618   0.219   9.777 -2.0375 -1.9025  0.5377
  852MPD2     N12573   1.761   0.553  10.056 -0.5478 -0.1957  0.2520
  852MPD2    H512574   1.725   0.614  10.129  0.0553  1.1889 -0.5978
  852MPD2    N112575   1.310   0.412  10.074 -0.6787  0.0930  0.3369
  852MPD2    H712576   1.306   0.476  10.153 -1.0261  0.8905 -0.3268
  853MPD2     C12577   3.767   0.363  12.124  0.7432 -0.5393 -0.3236
  853MPD2    C112578   3.697   0.481  12.120  1.1578 -0.6698 -0.9089
  853MPD2    C212579   3.702   0.558  12.001  0.1095 -0.6568 -0.1695
  853MPD2    C312580   3.774   0.515  11.891  0.2535 -0.1849  0.1141
  853MPD2    C412581   3.838   0.393  11.897  0.3792  0.1270 -0.4349
  853MPD2    C512582   3.838   0.324  12.015  0.3020  0.3304  0.2350
  853MPD2     H12583   3.645   0.651  12.002 -1.5409 -1.6466 -2.5571
  853MPD2    H112584   3.901   0.368  11.812  0.1403 -3.8194  0.5658
  853MPD2    H212585   3.771   0.294  12.208 -0.0400  0.4158  0.5045
  853MPD2    H312586   3.885   0.227  12.016  0.2777  0.3217  0.6157
  853MPD2     N12587   3.785   0.592  11.780  0.2172  0.4977 -0.2384
  853MPD2    H512588   3.841   0.553  11.705 -0.9818 -0.0692 -0.8418
  853MPD2    N112589   3.624   0.513  12.238 -0.1806  0.0158 -0.0157
  853MPD2    H712590   3.604   0.449  12.314  3.3230 -0.8376  0.2062
  854MPD2     C12591   1.224   1.353  12.651  0.4196 -0.0125 -0.1115
  854MPD2    C112592   1.126   1.260  12.632  0.1661 -0.4666  0.4400
  854MPD2    C212593   1.125   1.146  12.711 -0.1995  0.3833  0.3327
  854MPD2    C312594   1.237   1.126  12.792  0.3600 -0.1554 -0.3025
  854MPD2    C412595   1.339   1.220  12.798  0.6485  0.3142 -0.7923
  854MPD2    C512596   1.326   1.338  12.734 -0.0123 -0.1207 -0.3498
  854MPD2     H12597   1.053   1.068  12.694 -0.7008  0.8737  0.2093
  854MPD2    H112598   1.428   1.206  12.857  0.9420 -1.1234 -1.5777
  854MPD2    H212599   1.229   1.448  12.599 -0.8765  0.4167  0.5396
  854MPD2    H312600   1.396   1.421  12.735 -0.3635  0.1640  0.6114
  854MPD2     N12601   1.252   1.011  12.870 -0.0862 -0.0545 -0.4669
  854MPD2    H512602   1.345   0.999  12.907 -1.3748 -0.6837  2.6350
  854MPD2    N112603   1.025   1.291  12.540 -0.2449 -0.0604 -0.2790
  854MPD2    H712604   1.032   1.371  12.479  2.0392  0.2071  0.3152
  855MPD2     C12605   0.884   0.655  13.724  1.1054  0.2904  0.0782
  855MPD2    C112606   0.920   0.556  13.635 -0.0133  0.3510 -0.0413
  855MPD2    C212607   0.992   0.594  13.518 -0.6035 -0.3773  0.6466
  855MPD2    C312608   1.020   0.723  13.492 -0.8158  0.0886  0.1900
  855MPD2    C412609   0.971   0.819  13.580  0.2001  0.3471 -0.0642
  855MPD2    C512610   0.910   0.787  13.694  0.1458  0.4889 -0.1703
  855MPD2     H12611   1.023   0.515  13.451  1.2618 -0.2395  1.3574
  855MPD2    H112612   0.995   0.924  13.567 -0.4446  0.8437  2.5861
  855MPD2    H212613   0.834   0.632  13.817 -0.4443  1.2690 -0.5041
  855MPD2    H312614   0.869   0.860  13.763 -0.5867 -0.5703  0.5239
  855MPD2     N12615   1.110   0.773  13.386  0.1450 -0.2643  0.1139
  855MPD2    H512616   1.106   0.872  13.363 -1.9064 -0.1572  0.9193
  855MPD2    N112617   0.891   0.419  13.655  0.1757  0.2552  0.5401
  855MPD2    H712618   0.922   0.356  13.581 -0.8318 -1.9446  1.9887
  856MPD2     C12619   2.997   1.388  14.306  0.3693 -0.0552  0.1359
  856MPD2    C112620   3.053   1.496  14.243 -0.3513  0.8130 -0.5668
  856MPD2    C212621   2.979   1.565  14.145  0.3133 -0.6783  0.1193
  856MPD2    C312622   2.849   1.537  14.114  0.8633  0.2137 -0.2775
  856MPD2    C412623   2.801   1.424  14.182 -0.1258  0.1951  0.4718
  856MPD2    C512624   2.870   1.355  14.273  0.7337  0.1242 -0.3423
  856MPD2     H12625   3.030   1.642  14.088  1.2375 -0.5458  1.1368
  856MPD2    H112626   2.705   1.384  14.150  0.4121 -0.6033 -0.1514
  856MPD2    H212627   3.047   1.335  14.385  1.1227 -0.2997 -0.5063
  856MPD2    H312628   2.826   1.264  14.312 -0.3340  1.1253  0.7874
  856MPD2     N12629   2.775   1.605  14.013  0.1848 -0.6409 -0.6683
  856MPD2    H512630   2.675   1.587  14.008 -0.1270  0.5677  1.2936
  856MPD2    N112631   3.185   1.544  14.265  0.1193 -0.7411  0.1269
  856MPD2    H712632   3.214   1.621  14.206  0.1151 -0.3939  0.5774
  857MPD2     C12633   4.562   3.913  12.846 -0.0759 -0.5951 -0.3592
  857MPD2    C112634   4.699   3.882  12.842 -0.8042  0.5745  0.3690
  857MPD2    C212635   0.053   3.982  12.860 -0.8897  0.0700  0.5790
  857MPD2    C312636   0.004   4.114  12.881  0.9135  0.1763  0.3949
  857MPD2    C412637   4.607   4.144  12.883  0.4838  0.8390 -0.1573
  857MPD2    C512638   4.522   4.041  12.864 -0.2117  0.6501  0.2276
  857MPD2     H12639   0.156   3.976  12.825 -1.2486  1.7114 -0.7731
  857MPD2    H112640   4.573   4.244  12.907 -0.3633  0.4599  0.2085
  857MPD2    H212641   4.494   3.836  12.813 -0.3087 -0.4923 -0.1168
  857MPD2    H312642   4.415   4.055  12.874 -0.2034  0.8771 -0.0354
  857MPD2     N12643   0.106   4.213  12.886 -0.1579 -0.5158 -0.1725
  857MPD2    H512644   0.201   4.179  12.878 -0.3304 -1.2568  0.9185
  857MPD2    N112645   4.731   3.749  12.800 -0.4190  0.7631 -0.6185
  857MPD2    H712646   4.665   3.696  12.744  0.1241 -1.5959  0.9652
  858MPD2     C12647   4.604   2.885  16.255  0.3288 -0.0020 -0.0895
  858MPD2    C112648   4.677   2.781  16.303  0.4856 -0.5336 -0.6210
  858MPD2    C212649   0.013   2.803  16.417 -0.9016  0.0140  0.9335
  858MPD2    C312650   0.022   2.931  16.481  0.7487  0.3087 -0.5614
  858MPD2    C412651   4.685   3.032  16.430 -0.7613 -0.6777 -0.0689
  858MPD2    C512652   4.611   3.008  16.320 -0.3436 -0.3982 -0.1213
  858MPD2     H12653   0.066   2.716  16.454 -1.5740 -1.1766 -0.8799
  858MPD2    H112654   4.702   3.136  16.456  0.1694 -0.6160 -0.9005
  858MPD2    H212655   4.542   2.893  16.166 -1.6308  0.0581  1.2833
  858MPD2    H312656   4.552   3.090  16.280 -2.4489 -2.4824 -1.2586
  858MPD2     N12657   0.112   2.960  16.587  0.3088 -0.3529  0.2957
  858MPD2    H512658   0.101   3.055  16.621 -0.1084 -0.1043 -0.5204
  858MPD2    N112659   4.666   2.664  16.223 -0.0857 -0.5861 -0.6485
  858MPD2    H712660   4.607   2.670  16.140  0.7492 -2.6240 -1.3869
  859MPD2     C12661   4.099   0.399  15.679 -0.0657 -0.0546  0.0811
  859MPD2    C112662   4.081   0.315  15.573  0.2644  0.0432  0.1585
  859MPD2    C212663   4.059   0.181  15.602 -0.2093  0.0579  0.2421
  859MPD2    C312664   4.053   0.138  15.734  0.0205 -0.1412 -0.6805
  859MPD2    C412665   4.082   0.231  15.838 -0.3798  0.2487  0.7562
  859MPD2    C512666   4.104   0.360  15.808 -0.3329 -0.5251  0.1577
  859MPD2     H12667   4.037   0.110  15.522  0.3108 -0.9290  0.9683
  859MPD2    H112668   4.089   0.191  15.939  1.8424  0.6599  0.7676
  859MPD2    H212669   4.102   0.506  15.664  0.0184 -0.2466 -1.2786
  859MPD2    H312670   4.117   0.439  15.881 -1.6652 -0.9782  0.9007
  859MPD2     N12671   4.040   0.001  15.764 -0.2201 -0.4187 -0.1653
  859MPD2    H512672   4.046   4.722  15.864 -1.2911 -1.0099 -0.1998
  859MPD2    N112673   4.077   0.366  15.440 -0.1311 -0.2961  0.2270
  859MPD2    H712674   4.088   0.467  15.438 -0.8080 -0.2680 -1.5873
  860MPD2     C12675   2.130   0.295  11.597  0.7291  0.3520 -0.1238
  860MPD2    C112676   2.157   0.347  11.721 -0.4657  0.1107  0.1736
  860MPD2    C212677   2.057   0.349  11.818  0.2722  0.0506  0.4764
  860MPD2    C312678   1.927   0.303  11.800  0.7228 -0.1933 -0.2339
  860MPD2    C412679   1.905   0.246  11.676 -0.5085  0.5118 -0.7767
  860MPD2    C512680   2.007   0.240  11.581 -0.1093 -0.0591 -0.4681
  860MPD2     H12681   2.078   0.418  11.899  1.7223  1.8892 -1.4584
  860MPD2    H112682   1.816   0.195  11.642 -0.1343  0.4751 -1.6999
  860MPD2    H212683   2.204   0.283  11.519  1.3038 -1.8278  0.7488
  860MPD2    H312684   1.985   0.205  11.480  0.5315 -0.9729 -0.2879
  860MPD2     N12685   1.824   0.320  11.899  0.0209  0.0923 -0.2421
  860MPD2    H512686   1.849   0.352  11.992  1.8610 -1.5445 -0.1716
  860MPD2    N112687   2.265   0.423  11.756  0.0073 -0.1344  0.3415
  860MPD2    H712688   2.259   0.470  11.846 -1.6787  2.2045 -0.9751
  861MPD2     C12689   0.451   3.864  11.060 -0.5088 -0.5983  0.3885
  861MPD2    C112690   0.518   3.985  11.051 -0.6149  0.1055 -0.3220
  861MPD2    C212691   0.495   4.058  10.935  0.4164 -0.4766  0.1968
  861MPD2    C312692   0.395   4.025  10.845  0.0801 -0.2827  0.3309
  861MPD2    C412693   0.323   3.909  10.870 -0.3341  0.7558 -0.4605
  861MPD2    C512694   0.350   3.829  10.975 -0.3113  0.3961 -0.3570
  861MPD2     H12695   0.551   4.151  10.924 -0.5073  0.4148  2.9994
  861MPD2    H112696   0.253   3.869  10.798  0.3923 -0.7030 -0.3656
  861MPD2    H212697   0.466   3.795  11.142 -1.6770  1.3932  2.2711
  861MPD2    H312698   0.292   3.738  10.987 -2.1763  1.6591  0.0462
  861MPD2     N12699   0.346   4.095  10.730 -0.2010 -0.3125 -0.6041
  861MPD2    H512700   0.266   4.052  10.685 -0.0621 -0.1888 -0.9709
  861MPD2    N112701   0.613   4.034  11.149 -0.0071  0.2934 -0.3712
  861MPD2    H712702   0.636   4.132  11.136  0.3045  0.3700  0.8344
  862MPD2     C12703   4.597   3.920  10.286 -0.0457  0.1812  0.8172
  862MPD2    C112704   4.619   3.959  10.420 -0.0295  0.3953 -0.7228
  862MPD2    C212705   4.564   3.885  10.521 -0.1729 -0.2881  0.1757
  862MPD2    C312706   4.487   3.775  10.490  0.3451 -0.9647 -0.1072
  862MPD2    C412707   4.466   3.741  10.358 -0.6265 -0.5613 -0.4795
  862MPD2    C512708   4.522   3.809  10.259  0.5047  0.1153  0.8032
  862MPD2     H12709   4.568   3.933  10.618  2.3846  1.0327 -0.5632
  862MPD2    H112710   4.411   3.650  10.340  0.9280 -1.5307 -0.3200
  862MPD2    H212711   4.656   3.970  10.210 -0.9061 -1.3631 -0.8366
  862MPD2    H312712   4.505   3.773  10.158  0.6832  0.3876  0.6772
  862MPD2     N12713   4.411   3.705  10.589 -0.0999  0.5341  0.1186
  862MPD2    H512714   4.341   3.645  10.548 -0.8088  0.7792  0.9707
  862MPD2    N112715   4.702   4.069  10.460  0.5180 -0.1992  0.7512
  862MPD2    H712716   4.729   4.073  10.557  3.4715 -1.1489 -0.0372
  863MPD2     C12717   3.487   2.288  16.638  0.0251  0.3998  0.1858
  863MPD2    C112718   3.474   2.158  16.590  0.4090 -0.0295  0.4885
  863MPD2    C212719   3.547   2.053  16.645  0.2972  0.4867  0.1062
  863MPD2    C312720   3.615   2.078  16.761  0.7503  0.3298  0.2469
  863MPD2    C412721   3.623   2.208  16.815  0.4296 -0.1323  0.4001
  863MPD2    C512722   3.563   2.312  16.746  0.2056 -0.3687 -0.1398
  863MPD2     H12723   3.527   1.952  16.608  0.6566  0.1113  0.9480
  863MPD2    H112724   3.679   2.233  16.904 -1.1179  1.9485  0.8049
  863MPD2    H212725   3.438   2.370  16.585 -0.1558  1.6576  2.3215
  863MPD2    H312726   3.581   2.410  16.788  1.8582 -0.2401 -1.1381
  863MPD2     N12727   3.668   1.975  16.839  0.0160 -0.2684 -0.8410
  863MPD2    H512728   3.700   2.008  16.929  0.4533  1.4916 -1.6502
  863MPD2    N112729   3.400   2.135  16.477  0.3520  0.6971 -0.1130
  863MPD2    H712730   3.348   2.216  16.448 -1.9078 -0.2046  1.4599
  864MPD2     C12731   4.255   3.425  16.922  0.6225  0.1014 -0.4866
  864MPD2    C112732   4.345   3.362  16.841  0.5414 -0.5628  0.1223
  864MPD2    C212733   4.434   3.434  16.760 -0.0288 -0.0595 -0.1360
  864MPD2    C312734   4.449   3.573  16.779  0.8270 -0.4058  0.4725
  864MPD2    C412735   4.359   3.638  16.851 -0.7521 -0.4742  0.5307
  864MPD2    C512736   4.274   3.562  16.933 -0.0506  0.2393  0.3128
  864MPD2     H12737   4.505   3.383  16.696  0.8334 -0.6482  1.3080
  864MPD2    H112738   4.357   3.746  16.855 -1.5410 -0.5430  2.2875
  864MPD2    H212739   4.175   3.374  16.974  2.1654 -2.0341 -0.1935
  864MPD2    H312740   4.205   3.616  16.997 -0.6182  1.2668 -1.1617
  864MPD2     N12741   4.525   3.660  16.703  0.0829 -0.4023 -0.7054
  864MPD2    H512742   4.491   3.754  16.685  2.2367  0.3897 -0.6480
  864MPD2    N112743   4.334   3.219  16.826  0.2551 -0.0902  0.4476
  864MPD2    H712744   4.274   3.182  16.899  0.1752 -0.8214  0.0079
  865MPD2     C12745   4.048   3.591  15.972  0.1977  0.0711  0.5914
  865MPD2    C112746   4.168   3.536  15.935  0.4999  0.1057  0.1090
  865MPD2    C212747   4.284   3.578  15.991 -0.3160 -0.4358  0.2454
  865MPD2    C312748   4.282   3.679  16.085  0.3646  0.2438  0.1296
  865MPD2    C412749   4.162   3.736  16.131 -0.3337 -0.1580 -0.0627
  865MPD2    C512750   4.046   3.690  16.068  0.5708  0.5343 -0.6099
  865MPD2     H12751   4.378   3.535  15.959 -0.0972  0.4779 -0.3261
  865MPD2    H112752   4.157   3.799  16.219  0.0116 -2.2802  1.4869
  865MPD2    H212753   3.955   3.577  15.918  0.3641 -0.0753  0.3410
  865MPD2    H312754   3.951   3.734  16.094  1.2556  1.6251  0.0838
  865MPD2     N12755   4.400   3.708  16.146  0.1686  0.3066  0.6776
  865MPD2    H512756   4.484   3.658  16.117  0.2937 -0.3829  2.2535
  865MPD2    N112757   4.171   3.429  15.842  0.6835  0.1417  0.7991
  865MPD2    H712758   4.262   3.399  15.807 -0.8052 -0.6124 -2.4984
  866MPD2     C12759   1.182   3.689  11.028  0.5080  0.4592 -0.8417
  866MPD2    C112760   1.230   3.793  10.955  0.8726  0.6380  0.4775
  866MPD2    C212761   1.151   3.902  10.929 -0.2891  0.3271 -0.2883
  866MPD2    C312762   1.021   3.906  10.979 -0.7055 -0.1182  0.2529
  866MPD2    C412763   0.972   3.807  11.065  0.3430  0.4441  0.5086
  866MPD2    C512764   1.056   3.701  11.083  0.1040  0.8826  0.3305
  866MPD2     H12765   1.180   3.985  10.866  0.0401 -1.0605 -1.9631
  866MPD2    H112766   0.874   3.807  11.112 -0.3679  1.9325 -0.9794
  866MPD2    H212767   1.241   3.601  11.050  0.0834  0.4953  0.4280
  866MPD2    H312768   1.026   3.624  11.152 -0.1522 -0.8352 -1.7014
  866MPD2     N12769   0.936   4.015  10.952  0.1180  0.2218  0.8331
  866MPD2    H512770   0.845   4.022  10.996  0.2535  1.7416  0.8717
  866MPD2    N112771   1.357   3.779  10.896  0.2338  0.1141  0.3889
  866MPD2    H712772   1.393   3.684  10.896  0.2796  0.1290 -2.6891
  867MPD2     C12773   2.918   3.215  16.234 -0.1006  0.0326 -0.4237
  867MPD2    C112774   2.909   3.136  16.349  0.0885  0.3673  0.5216
  867MPD2    C212775   2.895   3.192  16.473  0.4406  0.6608 -0.6184
  867MPD2    C312776   2.887   3.330  16.480 -0.2629 -0.0543 -0.0621
  867MPD2    C412777   2.916   3.410  16.373  0.2258 -0.1433 -0.3351
  867MPD2    C512778   2.925   3.354  16.249 -0.5067 -0.3803  0.1558
  867MPD2     H12779   2.863   3.129  16.555  1.3014 -0.7271 -1.3657
  867MPD2    H112780   2.908   3.518  16.372  1.4321 -0.0547 -0.1654
  867MPD2    H212781   2.932   3.171  16.136 -2.4834 -0.1041 -0.7064
  867MPD2    H312782   2.941   3.417  16.163  2.7630 -1.4551 -0.0091
  867MPD2     N12783   2.870   3.398  16.600  0.4993  0.1030 -0.0775
  867MPD2    H512784   2.891   3.497  16.605 -3.6533  0.9531  0.1077
  867MPD2    N112785   2.907   2.991  16.331 -0.3851  0.0085 -0.3929
  867MPD2    H712786   2.913   2.967  16.233 -0.2111  1.3097 -0.7111
  868MPD2     C12787   0.184   1.727  12.818  0.7431  0.3009 -0.1137
  868MPD2    C112788   0.234   1.846  12.862 -0.3067 -0.4710 -0.1477
  868MPD2    C212789   0.156   1.915  12.953  0.0029  0.3788 -0.0374
  868MPD2    C312790   0.031   1.870  12.998 -0.1552  0.5192 -1.0501
  868MPD2    C412791   4.720   1.752  12.947 -0.1901  0.4937  0.3627
  868MPD2    C512792   0.063   1.683  12.858 -0.3135  0.6884  0.4880
  868MPD2     H12793   0.205   1.997  13.004 -1.4990  0.4976  1.2390
  868MPD2    H112794   4.625   1.706  12.974 -0.1388 -0.2770 -0.7582
  868MPD2    H212795   0.235   1.660  12.751 -0.8662 -2.5934  1.5721
  868MPD2    H312796   0.021   1.589  12.822  1.2251  0.2337 -0.0971
  868MPD2     N12797   4.699   1.953  13.098  0.3942 -0.3684 -0.0136
  868MPD2    H512798   0.020   2.022  13.144  0.4575 -1.6574  1.8360
  868MPD2    N112799   0.361   1.888  12.821  0.1918  0.2395 -0.2236
  868MPD2    H712800   0.416   1.830  12.758  0.4996 -0.3320  0.5746
  869MPD2     C12801   0.700   1.606   1.650 -0.5026  0.3299  0.5649
  869MPD2    C112802   0.681   1.487   1.579  0.2217 -0.1262 -0.5832
  869MPD2    C212803   0.782   1.443   1.491 -0.2705  0.0768  0.6246
  869MPD2    C312804   0.909   1.501   1.476 -0.1131 -0.5985 -0.4996
  869MPD2    C412805   0.927   1.616   1.550 -0.6373  0.1348  0.3443
  869MPD2    C512806   0.820   1.667   1.627 -0.3291  0.0555 -0.0015
  869MPD2     H12807   0.766   1.349   1.439 -2.0909 -0.1946  1.6855
  869MPD2    H112808   1.014   1.679   1.540  0.7988 -2.2337 -2.1836
  869MPD2    H212809   0.620   1.645   1.713  2.1259  0.9943  3.4727
  869MPD2    H312810   0.846   1.753   1.687 -0.7435 -1.8490  2.8991
  869MPD2     N12811   1.016   1.447   1.401  0.0304  0.4811 -0.4096
  869MPD2    H512812   1.109   1.480   1.425 -0.2706  0.8612  0.2347
  869MPD2    N112813   0.557   1.415   1.600 -0.6432  0.0458 -0.1226
  869MPD2    H712814   0.496   1.451   1.673 -1.1583 -0.1839 -0.4374
  870MPD2     C12815   0.338   3.558   1.251  0.2754  0.0083 -0.5185
  870MPD2    C112816   0.421   3.651   1.308  0.0002  1.0408  0.2297
  870MPD2    C212817   0.403   3.786   1.280  0.0635  0.0620  0.4076
  870MPD2    C312818   0.315   3.834   1.184  0.0418  0.5373 -0.2934
  870MPD2    C412819   0.234   3.739   1.121 -0.0213  0.8497  0.1363
  870MPD2    C512820   0.249   3.610   1.157  0.2753  0.0259  0.3269
  870MPD2     H12821   0.478   3.858   1.313 -2.3211  1.7466  2.1280
  870MPD2    H112822   0.159   3.771   1.050  1.3822 -0.9607 -2.1535
  870MPD2    H212823   0.345   3.451   1.265 -1.2717 -0.2271 -1.6027
  870MPD2    H312824   0.195   3.537   1.098 -0.5638  0.2160  0.8712
  870MPD2     N12825   0.328   3.979   1.146  0.0943  0.2086 -0.1477
  870MPD2    H512826   0.393   4.040   1.195  1.2968  0.2755 -1.8459
  870MPD2    N112827   0.523   3.583   1.382 -0.7610  0.1611 -0.4371
  870MPD2    H712828   0.514   3.483   1.392 -3.1868  0.4194  0.0773
  871MPD2     C12829   2.022   3.485  16.486  0.3210  0.3847 -0.2129
  871MPD2    C112830   1.914   3.401  16.512  0.2246 -0.2693 -0.0262
  871MPD2    C212831   1.917   3.269  16.478  0.5142 -0.5263 -0.1868
  871MPD2    C312832   2.027   3.216  16.417  0.5462  0.3839 -0.2788
  871MPD2    C412833   2.135   3.295  16.397 -0.0838  0.7032  0.4569
  871MPD2    C512834   2.128   3.426  16.423  0.2553  0.7341 -0.6739
  871MPD2     H12835   1.842   3.197  16.508 -0.8009  1.1512  0.5491
  871MPD2    H112836   2.223   3.251  16.351 -0.5073  0.3447 -0.0208
  871MPD2    H212837   2.020   3.592  16.502  2.2685  0.6051 -1.4111
  871MPD2    H312838   2.220   3.479  16.399  0.3526  0.2744 -1.3406
  871MPD2     N12839   2.017   3.083  16.374 -0.6642  0.3817  0.5839
  871MPD2    H512840   1.928   3.038  16.392 -0.6589  0.1103 -0.0920
  871MPD2    N112841   1.816   3.461  16.593 -0.4075 -0.0453 -0.8621
  871MPD2    H712842   1.831   3.558  16.619  1.6384 -0.1991 -1.4619
  872MPD2     C12843   2.718   0.746  14.187  0.6371 -0.0262  0.1440
  872MPD2    C112844   2.710   0.790  14.060  0.0019  0.0158  0.3206
  872MPD2    C212845   2.591   0.782  13.991 -0.2857 -0.0694 -0.3327
  872MPD2    C312846   2.480   0.732  14.054  0.4425  0.0445  0.0037
  872MPD2    C412847   2.493   0.675  14.183 -0.3288 -0.3081  0.2737
  872MPD2    C512848   2.616   0.679  14.245 -0.0669 -0.6604 -0.3403
  872MPD2     H12849   2.595   0.823  13.891 -1.6083  1.5506  0.2765
  872MPD2    H112850   2.409   0.635  14.239  0.3202  1.0756  2.2500
  872MPD2    H212851   2.810   0.748  14.244 -0.5449  2.1460  2.0401
  872MPD2    H312852   2.632   0.649  14.348 -1.5145 -0.4550 -0.0567
  872MPD2     N12853   2.354   0.723  13.985  0.1119  0.0434  0.4608
  872MPD2    H512854   2.277   0.699  14.046 -0.6463 -0.9727 -0.9239
  872MPD2    N112855   2.820   0.864  14.003 -0.1271 -0.3411 -0.2091
  872MPD2    H712856   2.804   0.909  13.914 -0.1362  1.3785  0.6720
  873MPD2     C12857   0.056   1.078   0.760 -0.7078  0.1702 -0.4351
  873MPD2    C112858   4.692   1.024   0.833  0.6062  0.7169  0.0691
  873MPD2    C212859   4.637   0.907   0.790 -0.2650 -0.2563  0.7060
  873MPD2    C312860   4.695   0.839   0.679 -0.3580 -0.0632  0.0347
  873MPD2    C412861   0.066   0.892   0.614 -0.3629 -0.2434  0.8649
  873MPD2    C512862   0.118   1.008   0.659 -0.2740  0.7064 -0.3030
  873MPD2     H12863   4.541   0.867   0.821 -0.6462 -0.7613 -1.1209
  873MPD2    H112864   0.124   0.835   0.542 -0.5286  1.2883 -0.4779
  873MPD2    H212865   0.078   1.184   0.771 -0.7433 -0.0851  2.0670
  873MPD2    H312866   0.196   1.049   0.596  0.9982  0.7013  1.2909
  873MPD2     N12867   4.643   0.723   0.629  0.4331 -0.2314  0.2825
  873MPD2    H512868   4.678   0.689   0.540  0.8239  0.5190  0.1494
  873MPD2    N112869   4.634   1.110   0.928 -0.3728  0.3188 -0.2927
  873MPD2    H712870   4.695   1.188   0.952 -1.1793  1.5043 -2.1197
  874MPD2     C12871   4.549   1.158  15.856 -0.6040  0.3258 -0.3480
  874MPD2    C112872   4.559   1.160  15.988 -0.2672 -0.2314 -0.3746
  874MPD2    C212873   4.665   1.234  16.033 -0.0126  0.1633 -0.2951
  874MPD2    C312874   0.013   1.305  15.954  0.4439 -0.1266  0.7167
  874MPD2    C412875   4.715   1.319  15.818  0.1698 -0.6103 -0.2544
  874MPD2    C512876   4.617   1.238  15.772  0.0501 -0.2834  0.3070
  874MPD2     H12877   4.676   1.241  16.141 -0.8358 -1.0670 -0.1159
  874MPD2    H112878   0.026   1.375  15.739  0.1205 -0.6366 -0.3033
  874MPD2    H212879   4.469   1.102  15.810  0.5220 -1.6568  0.1055
  874MPD2    H312880   4.585   1.242  15.668 -0.5976  0.0866  0.5249
  874MPD2     N12881   0.120   1.365  16.017 -0.1230  0.2217  0.3307
  874MPD2    H512882   0.133   1.347  16.116  1.1410 -0.9724 -0.0443
  874MPD2    N112883   4.470   1.099  16.080  0.1944 -0.5793  0.2413
  874MPD2    H712884   4.492   1.113  16.178  0.8030 -0.3221  0.0701
  875MPD2     C12885   1.049   3.873  14.387  0.5186 -0.5038  0.1332
  875MPD2    C112886   0.921   3.894  14.433 -0.0102 -0.7544  0.4312
  875MPD2    C212887   0.913   3.955  14.559 -0.1310  0.4139 -0.2218
  875MPD2    C312888   1.027   4.001  14.629  0.2914  0.1174  0.5246
  875MPD2    C412889   1.149   3.979  14.573 -0.0769  0.2693  0.2240
  875MPD2    C512890   1.160   3.907  14.458 -0.0572  0.6668 -0.7149
  875MPD2     H12891   0.817   3.970  14.607 -0.4423 -0.8944 -0.4397
  875MPD2    H112892   1.240   4.005  14.626  0.1984 -0.0470 -0.0937
  875MPD2    H212893   1.079   3.815  14.300  0.9038 -1.3054  0.8036
  875MPD2    H312894   1.258   3.895  14.412 -0.3737 -1.0374 -0.9490
  875MPD2     N12895   1.024   4.054  14.762  0.2745  0.8821 -0.0990
  875MPD2    H512896   1.110   4.093  14.799  1.3559 -0.2444 -1.4765
  875MPD2    N112897   0.805   3.864  14.360  0.1948 -0.3924 -0.4286
  875MPD2    H712898   0.725   3.890  14.416  1.3376  1.5795  0.2894
  876MPD2     C12899   4.217   0.668  16.044 -0.4676 -0.2036  0.0299
  876MPD2    C112900   4.327   0.634  15.966 -0.3052  0.1865  0.6799
  876MPD2    C212901   4.395   0.510  15.993 -0.8856  0.0703  0.1094
  876MPD2    C312902   4.347   0.430  16.088 -0.4441  0.6114  0.0340
  876MPD2    C412903   4.227   0.459  16.150 -0.0989  0.7623  0.4044
  876MPD2    C512904   4.164   0.577  16.126 -0.0258  0.3508  0.0308
  876MPD2     H12905   4.481   0.480  15.934 -1.8852 -1.1986 -0.6774
  876MPD2    H112906   4.182   0.397  16.227  0.7087 -1.0386 -0.5620
  876MPD2    H212907   4.167   0.764  16.035 -0.3660 -0.2117 -0.5840
  876MPD2    H312908   4.073   0.600  16.182  1.2039  0.1249  2.1236
  876MPD2     N12909   4.421   0.313  16.115  0.4453  0.2373  0.0908
  876MPD2    H512910   4.511   0.298  16.070  0.6712  0.6334  0.4150
  876MPD2    N112911   4.368   0.721  15.859 -0.3313  0.0630  0.2460
  876MPD2    H712912   4.324   0.812  15.849  1.3225  0.8882  0.3392
  877MPD2     C12913   4.085   0.909  15.196  0.0719  0.1498  0.0478
  877MPD2    C112914   4.218   0.905  15.181  0.2840 -0.5702 -0.4988
  877MPD2    C212915   4.271   0.886  15.055  0.1841  0.2057 -0.2719
  877MPD2    C312916   4.186   0.879  14.944  0.3745 -0.7999  0.3841
  877MPD2    C412917   4.050   0.893  14.963  0.1302 -0.0426 -0.8623
  877MPD2    C512918   4.002   0.902  15.089  0.2663  0.1688 -0.5921
  877MPD2     H12919   4.379   0.879  15.047  0.4331  1.4536  1.9563
  877MPD2    H112920   3.983   0.891  14.878  0.0625 -1.1732 -0.7866
  877MPD2    H212921   4.033   0.916  15.291  0.0703  0.9877 -0.0160
  877MPD2    H312922   3.898   0.925  15.106  0.3370 -1.2554  1.6425
  877MPD2     N12923   4.234   0.883  14.814  0.7794  0.1174 -1.0834
  877MPD2    H512924   4.173   0.857  14.738 -0.4772  0.6605 -0.2568
  877MPD2    N112925   4.309   0.906  15.286 -0.6786  0.6602  0.0437
  877MPD2    H712926   4.408   0.919  15.264 -0.9538  2.8947  0.1552
  878MPD2     C12927   0.012   0.776  12.964 -0.0143  0.2507  0.3591
  878MPD2    C112928   4.661   0.727  12.873  0.0907  0.8812 -0.4625
  878MPD2    C212929   4.528   0.714  12.908  0.0363 -0.0444 -0.3895
  878MPD2    C312930   4.481   0.764  13.028  0.1696 -0.3594 -0.4211
  878MPD2    C412931   4.567   0.828  13.113  0.1050 -0.2809  0.2727
  878MPD2    C512932   4.708   0.821  13.091 -0.1832  0.4677  0.0817
  878MPD2     H12933   4.456   0.660  12.848  0.7996 -0.8069 -0.6092
  878MPD2    H112934   4.539   0.847  13.216 -0.6155 -0.9727  0.2143
  878MPD2    H212935   0.117   0.790  12.943 -0.3271  1.6303 -0.2810
  878MPD2    H312936   0.046   0.868  13.153  2.5801 -1.1977 -2.0126
  878MPD2     N12937   4.348   0.736  13.064 -0.0323  0.3768 -0.0562
  878MPD2    H512938   4.296   0.677  13.000 -0.4234  0.1964  0.4243
  878MPD2    N112939   4.700   0.687  12.741  0.0641  0.1993  0.5156
  878MPD2    H712940   4.621   0.660  12.683  1.1503  0.4678 -1.0916
  879MPD2     C12941   4.069   2.122  16.842 -0.7316  0.1921  0.2036
  879MPD2    C112942   4.107   2.000  16.897 -0.0184 -0.2113 -0.4875
  879MPD2    C212943   4.077   1.886  16.823  0.1886 -0.6258 -0.7738
  879MPD2    C312944   4.000   1.889  16.708  0.3181 -0.2744 -0.4700
  879MPD2    C412945   3.957   2.012  16.655  0.0350  0.2242  0.1525
  879MPD2    C512946   3.996   2.130  16.725 -0.8622  0.4940  0.1034
  879MPD2     H12947   4.120   1.794  16.859 -2.5393 -1.7132 -0.2835
  879MPD2    H112948   3.905   2.015  16.560 -1.0733 -0.3533  0.7522
  879MPD2    H212949   4.107   2.212  16.890  1.6329 -1.2644  1.0486
  879MPD2    H312950   3.980   2.227  16.680  1.3256  1.1208  0.6820
  879MPD2     N12951   3.953   1.773  16.636  0.1047  0.3032 -0.4126
  879MPD2    H512952   3.901   1.788  16.550 -0.4294  1.4917  0.1200
  879MPD2    N112953   4.194   2.000  17.006 -0.3197  0.6599  0.0359
  879MPD2    H712954   4.213   2.090  17.050 -1.3264  1.3483 -0.9586
  880MPD2     C12955   0.449   3.596  17.399  0.2321 -0.0792 -0.3091
  880MPD2    C112956   0.469   3.642  17.529  0.5905 -0.9271 -0.9225
  880MPD2    C212957   0.465   3.547  17.630 -0.0683  0.5001  0.5786
  880MPD2    C312958   0.427   3.413  17.612 -0.4246 -0.3768 -0.4475
  880MPD2    C412959   0.406   3.371  17.486  0.6502  0.1446  0.0637
  880MPD2    C512960   0.427   3.462  17.382  0.1257 -0.0497  0.4449
  880MPD2     H12961   0.475   3.574  17.735  0.6630  0.6467  0.4732
  880MPD2    H112962   0.378   3.269  17.461 -0.2274  0.6068 -0.8371
  880MPD2    H212963   0.456   3.656  17.308  1.6363 -1.0899 -0.8726
  880MPD2    H312964   0.419   3.431  17.279  0.1605 -0.0515  0.4427
  880MPD2     N12965   0.412   3.326  17.732  0.2909 -0.0195  1.1494
  880MPD2    H512966   0.418   3.370   0.074  2.2439 -0.0233  1.0238
  880MPD2    N112967   0.507   3.781  17.547  0.0814  0.2531 -0.3952
  880MPD2    H712968   0.511   3.838  17.463 -0.5093  0.0118 -0.5853
  881MPD2     C12969   1.033   4.610  17.279  0.0272 -0.1842 -0.1160
  881MPD2    C112970   1.005   4.490  17.226  0.7828 -0.3105 -0.4317
  881MPD2    C212971   0.946   4.398  17.315 -0.8114  0.1629 -0.1710
  881MPD2    C312972   0.890   4.429  17.442 -0.0237 -0.5614  0.2668
  881MPD2    C412973   0.916   4.556  17.489 -0.0379  0.6724  0.1602
  881MPD2    C512974   0.992   4.639  17.410 -0.6684 -0.4729 -0.0888
  881MPD2     H12975   0.934   4.293  17.291 -0.1295  0.2891 -1.0663
  881MPD2    H112976   0.882   4.570  17.591 -1.5925 -2.9429  0.1438
  881MPD2    H212977   1.099   4.682  17.232 -4.2828  2.7998 -1.5835
  881MPD2    H312978   1.032   4.726  17.462 -0.7890 -0.1559 -0.5249
  881MPD2     N12979   0.807   4.346  17.522 -0.5524 -0.4992  0.8359
  881MPD2    H512980   0.778   4.382  17.612  2.9436 -0.3720  1.9330
  881MPD2    N112981   1.068   4.453  17.104 -0.2225  0.0080  0.8305
  881MPD2    H712982   1.108   4.529  17.050 -2.3125 -0.4440 -1.3746
  882MPD2     C12983   4.377   1.056  14.054 -0.3978 -0.5818  0.4655
  882MPD2    C112984   4.291   1.022  14.159 -0.2903  0.0042  0.1269
  882MPD2    C212985   4.155   1.013  14.138  0.0576  0.3465 -0.0439
  882MPD2    C312986   4.100   1.024  14.006 -0.4466 -0.4036 -0.0349
  882MPD2    C412987   4.185   1.037  13.899 -0.1508  0.1594 -0.0369
  882MPD2    C512988   4.319   1.067  13.923 -0.3238  0.1781 -0.5290
  882MPD2     H12989   4.110   0.968  14.226  1.1764 -0.3079  0.1864
  882MPD2    H112990   4.146   1.035  13.798 -0.1181  3.7494 -0.1214
  882MPD2    H212991   4.473   1.100  14.080 -0.4173 -1.2501  1.6385
  882MPD2    H312992   4.387   1.089  13.842 -1.3062 -0.4085 -1.5079
  882MPD2     N12993   3.960   1.005  13.983  0.0022  0.0567 -0.4047
  882MPD2    H512994   3.923   1.003  13.889 -0.1048 -0.5156 -0.3473
  882MPD2    N112995   4.333   0.995  14.292  0.3292  0.1815  0.1944
  882MPD2    H712996   4.264   0.944  14.346  0.4200  1.8219  1.8753
  883MPD2     C12997   1.283   0.917  15.690 -0.0007 -0.2114 -0.2915
  883MPD2    C112998   1.279   0.830  15.582 -0.3206 -0.7681 -1.0397
  883MPD2    C212999   1.389   0.751  15.562 -0.0601 -0.2408  0.0190
  883MPD2    C313000   1.502   0.759  15.635  0.1867 -1.1207 -0.2576
  883MPD2    C413001   1.504   0.849  15.739 -0.3293  0.4568 -0.3925
  883MPD2    C513002   1.398   0.926  15.768 -0.4359 -0.5189  0.5666
  883MPD2     H13003   1.384   0.676  15.484 -1.4218 -0.7074  0.5361
  883MPD2    H113004   1.585   0.866  15.809  0.4117  0.7025 -1.3138
  883MPD2    H213005   1.196   0.979  15.708  0.5136 -0.0153  1.5646
  883MPD2    H313006   1.408   0.997  15.850 -0.8714  1.7658 -1.3570
  883MPD2     N13007   1.609   0.671  15.619 -0.6563  0.6246 -0.1737
  883MPD2    H513008   1.611   0.610  15.538 -1.1922 -1.1085  1.0984
  883MPD2    N113009   1.161   0.808  15.508  0.2704 -0.6398  0.4130
  883MPD2    H713010   1.164   0.733  15.439 -1.9993  1.2058 -1.7063
  884MPD2     C13011   3.429   1.478  15.101  0.7226 -0.0085 -0.4783
  884MPD2    C113012   3.336   1.497  14.997  0.1881  0.4902 -0.1157
  884MPD2    C213013   3.212   1.542  15.033 -0.1376 -0.0711 -1.2789
  884MPD2    C313014   3.175   1.563  15.163  0.4317 -0.4350 -1.0379
  884MPD2    C413015   3.267   1.547  15.266 -0.1080  1.9142  0.4250
  884MPD2    C513016   3.393   1.498  15.228  0.6657 -0.0908 -0.0504
  884MPD2     H13017   3.135   1.541  14.958 -2.7416  0.5277  1.3864
  884MPD2    H113018   3.242   1.567  15.369 -1.8749  1.4856  0.0723
  884MPD2    H213019   3.530   1.450  15.071  0.1959 -1.7609 -0.5744
  884MPD2    H313020   3.459   1.476  15.311  0.6201 -2.8406 -0.7449
  884MPD2     N13021   3.035   1.585  15.188 -0.0550 -0.2121 -0.0001
  884MPD2    H513022   2.972   1.587  15.109  0.3447  2.4247 -0.2626
  884MPD2    N113023   3.366   1.473  14.860 -0.7924  0.2467 -0.7698
  884MPD2    H713024   3.300   1.504  14.789 -1.3009  1.5384  0.2603
  885MPD2     C13025   1.813   1.737   0.534 -0.6003 -0.5105  0.2293
  885MPD2    C113026   1.782   1.867   0.565 -0.6479 -0.2278  0.8006
  885MPD2    C213027   1.735   1.944   0.458  0.1168 -0.5591  0.4507
  885MPD2    C313028   1.714   1.889   0.332  0.0114  0.3557  0.2654
  885MPD2    C413029   1.743   1.755   0.310 -0.7628  0.1369  0.4090
  885MPD2    C513030   1.785   1.680   0.410 -0.0329  0.6371  0.2739
  885MPD2     H13031   1.729   2.050   0.479 -2.7458 -0.6198  0.0149
  885MPD2    H113032   1.748   1.710   0.211 -0.3203  2.1742 -0.4913
  885MPD2    H213033   1.860   1.672   0.607 -0.8165 -0.9534 -0.0224
  885MPD2    H313034   1.823   1.582   0.384 -2.0414  0.3160 -1.4465
  885MPD2     N13035   1.680   1.974   0.220  0.4745 -0.1901  0.0239
  885MPD2    H513036   1.659   2.069   0.250  1.1646  0.0925 -0.3793
  885MPD2    N113037   1.813   1.913   0.697 -0.3586 -0.1126 -0.4223
  885MPD2    H713038   1.847   1.846   0.765 -0.9303  0.1497  0.1239
  886MPD2     C13039   3.168   4.602  15.333  0.5605  0.2607  0.1240
  886MPD2    C113040   3.273   4.694  15.334  0.2345 -0.2552  0.1307
  886MPD2    C213041   3.271   0.055  15.240  0.0066  0.5467  0.6783
  886MPD2    C313042   3.176   0.067  15.145 -0.0189 -0.1026 -0.1501
  886MPD2    C413043   3.070   4.726  15.151  0.3046 -0.2498  0.4395
  886MPD2    C513044   3.067   4.625  15.242  0.7892 -0.7194 -0.2467
  886MPD2     H13045   3.361   0.116  15.238  0.6897 -0.5601 -2.1021
  886MPD2    H113046   2.986   4.731  15.083  0.0954 -0.8658  0.6545
  886MPD2    H213047   3.150   4.537  15.418 -1.5232 -1.2192 -1.4511
  886MPD2    H313048   2.986   4.555  15.258  0.6576 -0.7840 -1.1563
  886MPD2     N13049   3.187   0.178  15.055 -0.2151 -0.2538  0.5753
  886MPD2    H513050   3.264   0.236  15.086 -1.5195  1.6736  0.1494
  886MPD2    N113051   3.382   4.694  15.428  0.2430  0.3194  0.4210
  886MPD2    H713052   3.445   0.036  15.422 -0.8577  1.1993  0.5765
  887MPD2     C13053   3.782   0.312  15.991  0.2471 -0.5674  0.7297
  887MPD2    C113054   3.741   0.318  15.857 -0.3631 -0.5601 -0.3081
  887MPD2    C213055   3.756   0.434  15.788  0.5100 -0.0116  0.7825
  887MPD2    C313056   3.810   0.549  15.847  0.3869  0.0663  0.3060
  887MPD2    C413057   3.855   0.539  15.981 -0.5719  0.1233  1.0071
  887MPD2    C513058   3.838   0.424  16.052 -0.6030  0.1941  0.2362
  887MPD2     H13059   3.752   0.432  15.679  0.8957  2.2457  0.7338
  887MPD2    H113060   3.902   0.621  16.033  1.4850 -0.3583 -0.1157
  887MPD2    H213061   3.773   0.225  16.054 -0.0486 -0.7004  0.5005
  887MPD2    H313062   3.872   0.422  16.155  0.3543  2.0797 -0.0350
  887MPD2     N13063   3.828   0.663  15.764  0.0570  0.1072 -0.6451
  887MPD2    H513064   3.785   0.661  15.672 -1.0627  0.3433 -0.1326
  887MPD2    N113065   3.702   0.207  15.787 -0.8088  0.2466 -0.1287
  887MPD2    H713066   3.670   0.224  15.692  0.3882  0.2733 -0.5272
  888MPD2     C13067   0.418   0.400  14.617  0.0240  0.3386  0.3173
  888MPD2    C113068   0.527   0.390  14.708 -0.1654  0.4698  0.1562
  888MPD2    C213069   0.608   0.493  14.728  0.4312 -0.6684  0.1014
  888MPD2    C313070   0.599   0.607  14.653 -1.1066 -0.2475 -0.0386
  888MPD2    C413071   0.505   0.615  14.555  0.0697  0.3535 -0.1880
  888MPD2    C513072   0.409   0.516  14.548  0.0954  0.4861  0.0452
  888MPD2     H13073   0.693   0.485  14.796  0.6499 -0.7261 -0.1803
  888MPD2    H113074   0.493   0.690  14.478  1.7799  1.3291  0.5117
  888MPD2    H213075   0.362   0.313  14.586 -1.0831  1.3410 -0.5124
  888MPD2    H313076   0.342   0.523  14.464  2.4040 -0.3932 -1.8756
  888MPD2     N13077   0.689   0.712  14.683  0.0984  0.6745 -0.0888
  888MPD2    H513078   0.751   0.708  14.763  0.2676 -3.1515 -0.4250
  888MPD2    N113079   0.539   0.273  14.787 -0.5742  0.2703  0.3273
  888MPD2    H713080   0.619   0.263  14.850  0.2282 -0.2732 -0.7794
  889MPD2     C13081   0.190   0.273  13.003  0.7878  0.0715 -0.8858
  889MPD2    C113082   0.200   0.174  13.104 -0.0137 -0.4953  0.3004
  889MPD2    C213083   0.102   0.190  13.202 -0.5418 -0.5891  0.1079
  889MPD2    C313084   0.023   0.303  13.214 -0.4603 -0.0518 -0.0816
  889MPD2    C413085   0.025   0.408  13.115  0.7889 -0.2934 -0.5893
  889MPD2    C513086   0.111   0.381  13.013  0.1018  0.5515  0.4755
  889MPD2     H13087   0.085   0.115  13.278  0.2408  1.1804  2.0360
  889MPD2    H113088   4.712   0.504  13.109 -2.0115 -1.6698  0.8231
  889MPD2    H213089   0.266   0.269  12.926  1.6283  0.0147 -0.0433
  889MPD2    H313090   0.115   0.459  12.937  1.4554 -0.3602 -0.3839
  889MPD2     N13091   4.687   0.324  13.330 -0.5750  0.1806  0.3539
  889MPD2    H513092   4.695   0.261  13.409  0.6112  0.9213  0.8110
  889MPD2    N113093   0.249   0.045  13.074  0.7803  0.4832  0.4764
  889MPD2    H713094   0.213   4.706  13.128 -0.8358  1.3921  0.6748
  890MPD2     C13095   4.269   1.545  14.527  0.3510 -0.3851  0.9748
  890MPD2    C113096   4.391   1.610  14.537  0.2358  0.3330  0.1439
  890MPD2    C213097   4.454   1.620  14.660  0.6194 -0.6477  0.7605
  890MPD2    C313098   4.398   1.553  14.771  0.0104 -0.3831 -0.2502
  890MPD2    C413099   4.277   1.491  14.761 -0.5851 -0.2591 -0.9689
  890MPD2    C513100   4.216   1.488  14.640 -0.6031  0.1208 -0.4688
  890MPD2     H13101   4.546   1.675  14.673  0.3348 -0.1112  0.5020
  890MPD2    H113102   4.223   1.456  14.848 -2.9701  1.7570 -1.6051
  890MPD2    H213103   4.220   1.522  14.433  1.2738 -0.6539  0.5583
  890MPD2    H313104   4.126   1.428  14.636 -1.4664  1.2878  1.2324
  890MPD2     N13105   4.476   1.549  14.886 -0.3061 -0.0648 -0.7648
  890MPD2    H513106   4.567   1.593  14.884 -0.3907  0.0674 -1.9472
  890MPD2    N113107   4.452   1.665  14.425 -0.1096 -0.7038 -0.1144
  890MPD2    H713108   4.397   1.675  14.340 -1.9214 -0.1574  1.1157
  891MPD2     C13109   2.734   0.274  16.324  0.1543 -0.3183  0.4843
  891MPD2    C113110   2.617   0.280  16.394 -0.0338 -0.2706 -0.3749
  891MPD2    C213111   2.620   0.242  16.530 -0.0826 -0.1612 -0.1484
  891MPD2    C313112   2.735   0.186  16.586 -0.4315 -0.7755  0.0063
  891MPD2    C413113   2.849   0.180  16.511 -0.0748 -0.2402 -0.1893
  891MPD2    C513114   2.853   0.228  16.383 -0.2503  0.2584 -1.0661
  891MPD2     H13115   2.528   0.234  16.586 -1.0951  1.6701 -1.5707
  891MPD2    H113116   2.943   0.133  16.538  0.1613 -0.4956 -1.4299
  891MPD2    H213117   2.738   0.299  16.219  0.2853 -1.5952  0.1879
  891MPD2    H313118   2.947   0.227  16.327  0.7165 -3.0860  0.5741
  891MPD2     N13119   2.739   0.149  16.724  0.2295 -0.5710  0.5262
  891MPD2    H513120   2.655   0.157  16.781 -1.9096  0.5630 -2.7403
  891MPD2    N113121   2.506   0.332  16.326 -0.5459 -0.8696  0.1705
  891MPD2    H713122   2.518   0.350  16.227  3.3318 -0.1433  0.7883
  892MPD2     C13123   3.453   1.000  14.810  0.6730 -0.8092 -0.3826
  892MPD2    C113124   3.359   1.041  14.716 -0.0290 -0.1922  0.7658
  892MPD2    C213125   3.382   1.049  14.579 -0.0041  0.3790  0.0324
  892MPD2    C313126   3.507   1.008  14.537 -0.3400 -1.2198 -0.4387
  892MPD2    C413127   3.604   0.977  14.626 -0.0414  0.5927  0.6389
  892MPD2    C513128   3.578   0.974  14.760 -0.3503  0.2974  0.7434
  892MPD2     H13129   3.302   1.071  14.509  0.6804 -1.3524 -1.2971
  892MPD2    H113130   3.702   0.938  14.598 -0.1515  0.6557  0.1716
  892MPD2    H213131   3.434   0.992  14.916  2.6037  1.0806  0.1128
  892MPD2    H313132   3.668   0.942  14.811 -0.9466 -0.7543  1.1458
  892MPD2     N13133   3.547   0.992  14.406  0.6030  0.4317  1.1168
  892MPD2    H513134   3.641   0.962  14.385 -0.9367 -3.7371  0.3517
  892MPD2    N113135   3.230   1.066  14.759 -0.3315  0.1506  0.3900
  892MPD2    H713136   3.170   1.122  14.700 -0.7366 -0.2758  0.3909
  893MPD2     C13137   4.666   0.258   0.421 -0.0031  0.7191 -0.1906
  893MPD2    C113138   4.704   0.259   0.553  0.4135 -0.0457  0.2921
  893MPD2    C213139   4.648   0.167   0.637  0.2432  0.5432  0.4785
  893MPD2    C313140   4.565   0.070   0.588  0.2113 -0.3798  0.5204
  893MPD2    C413141   4.536   0.067   0.455 -0.7330  0.4061  0.1668
  893MPD2    C513142   4.579   0.164   0.374 -0.8054 -0.1622  1.0488
  893MPD2     H13143   4.667   0.182   0.743 -0.1911 -1.4486  0.8450
  893MPD2    H113144   4.480   4.720   0.417 -3.0698  2.0295 -0.0037
  893MPD2    H213145   4.703   0.328   0.347  0.0413  1.3987  0.4709
  893MPD2    H313146   4.539   0.157   0.274  3.6395  1.3098 -0.8552
  893MPD2     N13147   4.501   4.704   0.667  0.0996 -0.1728 -0.0162
  893MPD2    H513148   4.443   4.644   0.609  0.6161 -2.5832  1.9555
  893MPD2    N113149   0.049   0.362   0.600 -0.0365 -0.4733  0.5807
  893MPD2    H713150   0.087   0.430   0.535  0.0823 -0.2210  0.9143
  894MPD2     C13151   2.549   2.009   1.432 -0.4541  0.5693 -0.0995
  894MPD2    C113152   2.481   2.064   1.322  0.2203 -0.6347 -0.1751
  894MPD2    C213153   2.540   2.046   1.196 -0.4190  0.4819  0.7949
  894MPD2    C313154   2.659   1.979   1.173 -0.5026  0.1565 -0.5499
  894MPD2    C413155   2.720   1.920   1.282 -0.6857 -0.4969  0.9142
  894MPD2    C513156   2.666   1.928   1.411 -0.1665  0.3488  0.1277
  894MPD2     H13157   2.486   2.073   1.106  0.9552  0.1200 -0.1467
  894MPD2    H113158   2.815   1.870   1.270 -0.5384  0.2253 -1.0203
  894MPD2    H213159   2.501   2.018   1.529 -2.4599 -2.3050 -0.8226
  894MPD2    H313160   2.714   1.887   1.498  1.7074 -0.7934 -1.4529
  894MPD2     N13161   2.716   1.980   1.046  0.3391  0.0232 -0.7454
  894MPD2    H513162   2.664   2.041   0.985 -0.6343 -1.5798 -1.5192
  894MPD2    N113163   2.369   2.146   1.328 -0.3549  0.5985 -0.0485
  894MPD2    H713164   2.342   2.202   1.247 -0.0151  1.0405  0.1455
  895MPD2     C13165   2.835   0.506  13.300  0.2214  0.5873  0.7958
  895MPD2    C113166   2.742   0.580  13.227 -0.4091 -0.3807 -0.0064
  895MPD2    C213167   2.687   0.514  13.118 -0.2581 -0.6274  0.0973
  895MPD2    C313168   2.716   0.381  13.087  0.0428 -0.0226  0.3519
  895MPD2    C413169   2.801   0.317  13.168  0.7874  0.5167  0.3435
  895MPD2    C513170   2.858   0.376  13.274 -0.5516  1.2253 -0.4470
  895MPD2     H13171   2.607   0.561  13.064 -1.6543 -0.5227  2.2508
  895MPD2    H113172   2.830   0.214  13.152  0.6804  0.8386 -2.0138
  895MPD2    H213173   2.893   0.545  13.383  2.6079  2.2602 -1.6529
  895MPD2    H313174   2.924   0.321  13.340 -0.8851  1.5665  0.1740
  895MPD2     N13175   2.666   0.310  12.977 -0.3643 -0.5630 -0.1781
  895MPD2    H513176   2.686   0.211  12.962  1.0809 -0.4546  0.9882
  895MPD2    N113177   2.695   0.709  13.262 -0.0362  0.7473 -0.2680
  895MPD2    H713178   2.617   0.739  13.206 -0.2263 -2.4693 -1.7608
  896MPD2     C13179   4.559   2.991   1.350 -0.0782  0.0489  0.0160
  896MPD2    C113180   4.562   2.925   1.233 -0.7916 -0.2338 -0.4527
  896MPD2    C213181   4.455   2.846   1.188  0.5689 -0.5025 -0.0785
  896MPD2    C313182   4.341   2.844   1.267 -0.5773  0.5577 -0.1668
  896MPD2    C413183   4.344   2.908   1.388  0.2750 -0.4674 -0.8451
  896MPD2    C513184   4.452   2.979   1.428  0.2504 -0.1710  0.6761
  896MPD2     H13185   4.455   2.794   1.093  0.8934  1.0616 -0.9294
  896MPD2    H113186   4.257   2.908   1.453  0.8220 -0.0592 -0.1101
  896MPD2    H213187   4.634   3.060   1.386  0.0922  0.3345 -0.8799
  896MPD2    H313188   4.445   3.029   1.524  1.9508  3.5356 -1.1007
  896MPD2     N13189   4.225   2.782   1.210  0.5338 -0.2539  0.1874
  896MPD2    H513190   4.238   2.746   1.116 -1.0029 -0.6724  0.1288
  896MPD2    N113191   4.683   2.924   1.158  0.3033  0.3797  0.2606
  896MPD2    H713192   0.026   2.960   1.208 -1.9208 -0.1627  4.2452
  897MPD2     C13193   1.330   4.408  10.500 -0.1127 -0.0867  0.3088
  897MPD2    C113194   1.337   4.542  10.461  0.5056 -0.6745  0.5854
  897MPD2    C213195   1.233   4.624  10.505  0.1924  0.1752 -0.1880
  897MPD2    C313196   1.137   4.580  10.596 -0.9092  0.4431  0.1279
  897MPD2    C413197   1.141   4.453  10.642  0.2789  0.0590  0.1305
  897MPD2    C513198   1.232   4.370  10.586  0.6044  0.3855  0.1265
  897MPD2     H13199   1.213   4.722  10.464  3.9522  0.8400 -0.4699
  897MPD2    H113200   1.067   4.417  10.714  0.3626  0.6012  0.4868
  897MPD2    H213201   1.419   4.348  10.509  0.2477  0.3686 -0.2338
  897MPD2    H313202   1.243   4.274  10.635  1.4153 -0.0101 -0.8461
  897MPD2     N13203   1.040   4.676  10.627  0.3700 -0.2458  0.1604
  897MPD2    H513204   1.054   0.023  10.575  1.0760 -0.5263 -0.1001
  897MPD2    N113205   1.447   4.593  10.376  0.4215 -0.5320  0.0588
  897MPD2    H713206   1.513   4.528  10.336 -1.6040 -2.7800  0.3616
  898MPD2     C13207   2.590   0.696   0.046 -0.1159  0.0254 -0.1416
  898MPD2    C113208   2.674   0.689  17.687  0.2212 -0.5444 -0.7588
  898MPD2    C213209   2.636   0.733  17.562  0.8389 -0.8075 -0.5076
  898MPD2    C313210   2.518   0.785  17.541 -0.2239  0.6154  0.6411
  898MPD2    C413211   2.424   0.789  17.646  0.3769  0.4087 -0.4619
  898MPD2    C513212   2.463   0.746   0.023  0.6851 -1.1062  0.2188
  898MPD2     H13213   2.707   0.743  17.480 -1.7725  0.6316 -2.6252
  898MPD2    H113214   2.323   0.828  17.632 -0.0032 -0.7383 -0.9118
  898MPD2    H213215   2.606   0.657   0.146 -0.5915 -0.4029 -0.2356
  898MPD2    H313216   2.393   0.746   0.105 -0.0529  0.3015 -0.4009
  898MPD2     N13217   2.485   0.848  17.419  0.4841 -0.0571 -0.1312
  898MPD2    H513218   2.562   0.867  17.356  1.4283  0.7500  1.2652
  898MPD2    N113219   2.813   0.648  17.704 -0.2696 -0.0986 -0.2845
  898MPD2    H713220   2.874   0.661  17.624 -1.1473  3.2352 -0.4176
  899MPD2     C13221   3.600   1.196  16.927 -0.4213 -0.0719 -0.1935
  899MPD2    C113222   3.683   1.250  17.024  0.3287 -0.1219 -0.3740
  899MPD2    C213223   3.711   1.168  17.133 -0.4433  0.2006  0.9132
  899MPD2    C313224   3.667   1.035  17.146  0.4167 -0.7524 -0.2078
  899MPD2    C413225   3.595   0.985  17.040  0.3974 -0.8344  0.5464
  899MPD2    C513226   3.552   1.069  16.936  0.2522 -1.1084  0.0879
  899MPD2     H13227   3.756   1.217  17.218 -1.3845  0.4665  1.2549
  899MPD2    H113228   3.565   0.881  17.048 -1.6109 -0.3148 -0.2594
  899MPD2    H213229   3.561   1.256  16.845 -1.2023  0.8088  0.8157
  899MPD2    H313230   3.495   1.024  16.856 -1.0994 -2.4856  1.8231
  899MPD2     N13231   3.684   0.957  17.265 -0.0408  0.1691 -0.2471
  899MPD2    H513232   3.692   0.856  17.255 -0.6779  0.0342  0.6447
  899MPD2    N113233   3.709   1.388  17.015  0.1111  1.0035  0.2641
  899MPD2    H713234   3.672   1.431  16.931 -0.5847  1.2298  0.6902
  900MPD2     C13235   3.423   2.528  13.073 -0.2875 -0.4621 -0.0396
  900MPD2    C113236   3.403   2.434  12.974  0.7378  0.5608 -0.2998
  900MPD2    C213237   3.324   2.470  12.867 -0.4758  0.2800 -0.0733
  900MPD2    C313238   3.267   2.588  12.847 -0.0782 -0.0668  0.5900
  900MPD2    C413239   3.301   2.678  12.944  0.1486  0.8730 -0.6785
  900MPD2    C513240   3.367   2.648  13.061 -0.3970 -0.0132  0.4944
  900MPD2     H13241   3.310   2.398  12.788  0.5240  0.8351 -0.7538
  900MPD2    H113242   3.267   2.780  12.928  0.3306  0.9354 -0.6688
  900MPD2    H213243   3.488   2.508  13.158  0.1497  1.5488  0.1155
  900MPD2    H313244   3.370   2.719  13.143  0.2272  0.9335 -0.3384
  900MPD2     N13245   3.201   2.618  12.727  0.2017  0.8668 -0.1183
  900MPD2    H513246   3.171   2.547  12.661 -0.0808 -0.6351  1.6046
  900MPD2    N113247   3.474   2.310  12.963  0.1732  0.2092  0.0822
  900MPD2    H713248   3.451   2.248  12.887 -3.0250 -0.8120  1.8876
  901MPD2     C13249   3.495   1.294  12.938 -0.4343  0.4626 -0.1468
  901MPD2    C113250   3.569   1.340  12.831 -0.6802 -0.5887  0.7856
  901MPD2    C213251   3.615   1.473  12.826  0.3958  0.7063  0.9040
  901MPD2    C313252   3.575   1.562  12.920  0.1573 -0.6302 -0.2505
  901MPD2    C413253   3.486   1.516  13.014 -0.0747  0.4732  0.3584
  901MPD2    C513254   3.448   1.386  13.026 -0.8280  0.1729 -0.1215
  901MPD2     H13255   3.673   1.511  12.742  0.5789 -1.9529 -0.1793
  901MPD2    H113256   3.445   1.584  13.088 -1.0778 -0.3240  0.5480
  901MPD2    H213257   3.468   1.189  12.944 -0.4495  0.4860  0.1996
  901MPD2    H313258   3.378   1.352  13.101 -0.1226 -0.6917  0.1442
  901MPD2     N13259   3.623   1.694  12.921 -0.3495  0.0108 -0.6836
  901MPD2    H513260   3.710   1.714  12.873 -1.0828 -2.3943 -3.0255
  901MPD2    N113261   3.603   1.239  12.735  0.4729 -1.0273  0.5096
  901MPD2    H713262   3.561   1.148  12.750  0.0538 -0.8398  0.4841
  902MPD2     C13263   2.992   0.847  12.571  0.0763 -0.7829  0.9413
  902MPD2    C113264   2.975   0.919  12.457  0.3312  0.1771 -0.1192
  902MPD2    C213265   3.030   0.884  12.336  0.0312 -0.6859  0.4890
  902MPD2    C313266   3.097   0.760  12.322  0.0580  0.6249 -0.1440
  902MPD2    C413267   3.098   0.678  12.430  0.3939  0.2185  0.3377
  902MPD2    C513268   3.043   0.718  12.548  0.0375 -0.1781 -0.1527
  902MPD2     H13269   3.029   0.945  12.247 -0.3932 -1.0472  0.2479
  902MPD2    H113270   3.148   0.582  12.432  2.6078  1.3446 -1.6254
  902MPD2    H213271   2.966   0.882  12.670  0.7702  0.2858  0.7536
  902MPD2    H313272   3.044   0.641  12.625 -0.3588  0.3066  0.3417
  902MPD2     N13273   3.169   0.711  12.209  0.1326  0.4266  0.6595
  902MPD2    H513274   3.219   0.622  12.215  2.1603  1.4775 -0.5471
  902MPD2    N113275   2.905   1.043  12.467 -0.0860  0.9461 -0.5307
  902MPD2    H713276   2.867   1.079  12.553 -2.4986  0.3063 -1.3427
  903MPD2     C13277   3.130   0.979  11.516 -0.4922  0.6327 -0.9299
  903MPD2    C113278   3.118   0.955  11.653  0.8767 -0.9443  0.0319
  903MPD2    C213279   2.987   0.938  11.698  0.0017 -0.7435 -0.4399
  903MPD2    C313280   2.877   0.933  11.619  0.6354  0.4951  0.7753
  903MPD2    C413281   2.891   0.961  11.478  0.5164  0.2311  0.1346
  903MPD2    C513282   3.021   0.976  11.430 -0.4270  0.6454 -0.2407
  903MPD2     H13283   2.981   0.906  11.801  0.1502 -0.1535 -0.2473
  903MPD2    H113284   2.805   0.953  11.412 -0.0794  1.4236  0.7516
  903MPD2    H213285   3.229   0.987  11.473 -0.4028 -0.0939 -0.8642
  903MPD2    H313286   3.032   0.997  11.324  0.3158 -1.1566 -0.5224
  903MPD2     N13287   2.761   0.895  11.683  0.7120  0.7920 -0.1415
  903MPD2    H513288   2.783   0.888  11.782  0.4665  1.9734 -0.0003
  903MPD2    N113289   3.225   0.940  11.739 -0.3132 -0.8219  0.2752
  903MPD2    H713290   3.203   0.918  11.836  0.9220  0.5125  0.8515
  904MPD2     C13291   2.668   4.303  13.616  0.0658 -0.3954  0.7953
  904MPD2    C113292   2.641   4.333  13.750  0.4991  0.4048  0.8154
  904MPD2    C213293   2.755   4.341  13.838 -0.3019 -0.3946  0.2414
  904MPD2    C313294   2.882   4.331  13.784 -0.8974  0.2307  0.5849
  904MPD2    C413295   2.897   4.309  13.649  0.2225  0.6023 -0.5844
  904MPD2    C513296   2.795   4.299  13.566 -0.2613 -0.4571 -1.0502
  904MPD2     H13297   2.754   4.368  13.943 -0.6263 -0.2440  0.2005
  904MPD2    H113298   2.995   4.307  13.603 -0.2629 -0.3397 -1.5865
  904MPD2    H213299   2.588   4.292  13.544  1.2748 -1.9221 -0.3179
  904MPD2    H313300   2.815   4.284  13.461  0.9510 -0.8890 -0.7559
  904MPD2     N13301   2.990   4.350  13.874  0.2986  0.5143 -0.1773
  904MPD2    H513302   2.962   4.379  13.967 -1.2676 -1.4383 -0.0303
  904MPD2    N113303   2.513   4.368  13.794 -0.3141  0.2562  0.1210
  904MPD2    H713304   2.498   4.415  13.883 -3.2724  0.3740 -0.4605
  905MPD2     C13305   1.913   0.141  13.316  0.2650  0.3482  0.3413
  905MPD2    C113306   2.026   0.070  13.338  0.9741 -0.0332 -0.0835
  905MPD2    C213307   2.118   0.058  13.234  0.0630  0.2938 -0.4501
  905MPD2    C313308   2.098   0.123  13.114  0.3055  0.3187  0.2117
  905MPD2    C413309   1.975   0.180  13.089 -0.2757 -0.0906  0.1728
  905MPD2    C513310   1.885   0.196  13.194  0.4152  0.2588 -0.1768
  905MPD2     H13311   2.210   0.006  13.256  0.9119  2.3110  0.7435
  905MPD2    H113312   1.944   0.228  12.997  0.4931  0.4158  0.1810
  905MPD2    H213313   1.839   0.169  13.390 -0.6353 -1.3813  0.0954
  905MPD2    H313314   1.795   0.250  13.165 -0.4623 -0.4832  1.1757
  905MPD2     N13315   2.202   0.112  13.016  0.0397 -0.0671 -0.2094
  905MPD2    H513316   2.283   0.059  13.047  0.6959  1.6791  1.0546
  905MPD2    N113317   2.055   0.017  13.469  0.3924  0.5002 -0.1115
  905MPD2    H713318   1.998   0.051  13.545  0.5862 -0.3252  0.4001
  906MPD2     C13319   4.591   0.435  10.845  0.6249 -0.5688  0.2416
  906MPD2    C113320   4.557   0.327  10.775  0.6099  0.2479 -0.2812
  906MPD2    C213321   4.520   0.209  10.845 -0.2300  0.1769  1.5154
  906MPD2    C313322   4.510   0.210  10.986 -0.4934  1.2345 -0.0916
  906MPD2    C413323   4.550   0.322  11.054 -0.0773  0.3242  0.0378
  906MPD2    C513324   4.601   0.424  10.982 -0.6401 -0.4036  0.6471
  906MPD2     H13325   4.488   0.121  10.790  1.1543  0.8616 -0.3584
  906MPD2    H113326   4.543   0.324  11.162  2.9825 -0.1177  0.2511
  906MPD2    H213327   4.610   0.533  10.802 -0.4650  0.1016  1.2551
  906MPD2    H313328   4.626   0.514  11.037 -1.2283  1.5512 -2.2764
  906MPD2     N13329   4.467   0.093  11.044 -0.3943 -0.0305 -0.1079
  906MPD2    H513330   4.451   0.017  10.978  1.1956  2.0424 -2.8717
  906MPD2    N113331   4.572   0.310  10.636 -0.0514  0.5246 -0.4967
  906MPD2    H713332   4.549   0.219  10.599  1.6922 -1.3222  2.9155
  907MPD2     C13333   3.532   3.862  15.937  0.8841  0.3946 -0.4697
  907MPD2    C113334   3.594   3.744  15.901  0.7092 -0.4188 -0.5624
  907MPD2    C213335   3.667   3.671  15.995 -0.1566 -0.3520  0.5537
  907MPD2    C313336   3.667   3.710  16.129  0.0513  0.2096  0.4002
  907MPD2    C413337   3.606   3.826  16.164  0.3963  0.7400  0.8726
  907MPD2    C513338   3.541   3.902  16.065  0.1577  0.4867  0.5260
  907MPD2     H13339   3.712   3.575  15.972  1.5162  0.4737  0.3361
  907MPD2    H113340   3.615   3.870  16.262 -2.2149  1.2112  0.9069
  907MPD2    H213341   3.470   3.915  15.866  0.8450 -0.3561 -0.9987
  907MPD2    H313342   3.500   4.001  16.084  1.4466  0.6863  2.2065
  907MPD2     N13343   3.741   3.636  16.224 -0.4043  0.4317 -0.3794
  907MPD2    H513344   3.799   3.561  16.186 -0.8925  0.0614 -0.3931
  907MPD2    N113345   3.584   3.682  15.770 -0.0256 -0.2762  0.2221
  907MPD2    H713346   3.626   3.589  15.768 -3.2183 -1.6481 -2.0147
  908MPD2     C13347   1.460   4.443   9.501 -0.0165 -0.1995 -0.0954
  908MPD2    C113348   1.362   4.526   9.555  0.0839  0.5895  0.1154
  908MPD2    C213349   1.395   4.595   9.677 -0.2848 -0.1122  0.7275
  908MPD2    C313350   1.518   4.580   9.739  0.3969  0.1902  0.2405
  908MPD2    C413351   1.610   4.502   9.672  0.0148  0.1803  0.4413
  908MPD2    C513352   1.590   4.444   9.548  0.0206  0.2954  0.0666
  908MPD2     H13353   1.324   4.661   9.726 -1.2366 -1.2215  0.8563
  908MPD2    H113354   1.712   4.501   9.709  0.5222 -2.6823 -1.0264
  908MPD2    H213355   1.445   4.389   9.408  3.0683 -2.2239  0.5823
  908MPD2    H313356   1.675   4.394   9.502 -1.8016 -2.5010 -0.2345
  908MPD2     N13357   1.544   4.632   9.871  0.2600  0.1103 -0.2589
  908MPD2    H513358   1.463   4.668   9.920  1.3741 -0.0934  1.7237
  908MPD2    N113359   1.230   4.523   9.506  0.5274  0.1050 -0.2703
  908MPD2    H713360   1.201   4.460   9.432  2.0633  1.1052 -1.6996
  909MPD2     C13361   1.003   3.073  11.419 -0.4069  0.7726  0.1999
  909MPD2    C113362   1.116   3.095  11.495  0.0954  0.3867  0.2319
  909MPD2    C213363   1.102   3.136  11.633 -0.3164  0.5664  0.2599
  909MPD2    C313364   0.973   3.154  11.687  0.1989  0.1562  0.6052
  909MPD2    C413365   0.865   3.118  11.609 -0.3528 -0.5610  0.0010
  909MPD2    C513366   0.878   3.074  11.479 -0.0616  0.5656  0.3370
  909MPD2     H13367   1.198   3.160  11.677 -0.3286 -0.2005  0.6922
  909MPD2    H113368   0.765   3.108  11.651 -1.0094  3.1397 -0.6553
  909MPD2    H213369   1.002   3.028  11.320 -2.5641  0.4160  0.3764
  909MPD2    H313370   0.796   3.041  11.417  0.7458 -0.1968 -0.3292
  909MPD2     N13371   0.964   3.217  11.812 -0.0829 -0.2308 -0.3115
  909MPD2    H513372   1.058   3.223  11.850 -0.4955 -1.5094  0.8946
  909MPD2    N113373   1.254   3.084  11.448  0.2327 -0.5172  0.1991
  909MPD2    H713374   1.333   3.096  11.510  0.2929  1.1991 -0.2234
  910MPD2     C13375   3.194   3.592  15.610  0.5480 -0.0010 -0.0650
  910MPD2    C113376   3.186   3.687  15.712 -0.6782 -0.1137  0.1189
  910MPD2    C213377   3.124   3.808  15.683 -0.1044 -0.0749  0.5250
  910MPD2    C313378   3.101   3.843  15.547  0.1681 -0.7698 -0.7073
  910MPD2    C413379   3.108   3.752  15.446  0.4579 -0.1000 -0.1707
  910MPD2    C513380   3.146   3.625  15.487  0.3617  0.7607  0.2871
  910MPD2     H13381   3.115   3.883  15.760 -0.8621 -0.9153  1.2392
  910MPD2    H113382   3.074   3.753  15.343  0.4902 -2.3979 -0.2006
  910MPD2    H213383   3.219   3.487  15.623 -2.1847 -0.4795  1.2805
  910MPD2    H313384   3.148   3.539  15.421  0.7411  0.2177  1.0032
  910MPD2     N13385   3.059   3.975  15.516  0.1146 -0.1463  0.2222
  910MPD2    H513386   3.042   3.978  15.416 -0.8013  0.8671  0.4077
  910MPD2    N113387   3.215   3.659  15.844 -0.0844 -0.2417 -0.6135
  910MPD2    H713388   3.189   3.732  15.911 -2.2401 -0.2241 -1.4554
  911MPD2     C13389   0.809   0.282  15.885  0.2161 -0.5702  0.1752
  911MPD2    C113390   0.816   0.338  16.011 -0.3492  0.5060 -0.5463
  911MPD2    C213391   0.705   0.416  16.044 -0.1548  0.4991 -0.2427
  911MPD2    C313392   0.592   0.436  15.963  0.2199 -0.0277  0.5099
  911MPD2    C413393   0.600   0.375  15.835  0.2590  0.1959 -0.6340
  911MPD2    C513394   0.703   0.299  15.802 -0.5870  0.0811  0.1731
  911MPD2     H13395   0.710   0.468  16.139  0.9359 -0.6828  0.3452
  911MPD2    H113396   0.523   0.395  15.761  0.7833 -2.4081 -1.8887
  911MPD2    H213397   0.891   0.228  15.838  0.1590 -0.1367 -0.4235
  911MPD2    H313398   0.716   0.272  15.698 -1.7170 -0.4391  0.1707
  911MPD2     N13399   0.484   0.513  16.000  0.4351 -0.1400 -1.0263
  911MPD2    H513400   0.409   0.503  15.932 -0.4207 -0.1742 -0.0938
  911MPD2    N113401   0.941   0.326  16.079 -0.2751 -0.1228 -0.0516
  911MPD2    H713402   1.011   0.268  16.035 -0.4966  1.4236 -2.3974
  912MPD2     C13403   0.288   0.440  15.526 -0.3299 -0.2729  0.1928
  912MPD2    C113404   0.257   0.433  15.658 -0.1120 -0.5480  0.6771
  912MPD2    C213405   0.280   0.323  15.735  0.2107 -0.0343 -1.2479
  912MPD2    C313406   0.354   0.224  15.672 -0.2047  0.2230  0.3617
  912MPD2    C413407   0.389   0.230  15.541 -0.3319  0.0672  0.5505
  912MPD2    C513408   0.356   0.342  15.465  0.7521  0.0970 -0.3340
  912MPD2     H13409   0.244   0.320  15.838 -0.0275  0.8745 -1.3021
  912MPD2    H113410   0.443   0.146  15.499  1.2871  1.9332 -1.0727
  912MPD2    H213411   0.264   0.523  15.461  1.5819  0.2334  0.1184
  912MPD2    H313412   0.383   0.360  15.361  1.5472 -1.8012 -0.4523
  912MPD2     N13413   0.389   0.115  15.755  0.4657 -0.1884 -0.2923
  912MPD2    H513414   0.363   0.135  15.851  0.8746  2.6119 -0.7740
  912MPD2    N113415   0.205   0.556  15.712  0.4345  0.3930 -0.2500
  912MPD2    H713416   0.208   0.638  15.653  0.7069  0.2621 -0.4131
  913MPD2     C13417   1.292   1.810  10.404  0.1191  0.3064 -0.3276
  913MPD2    C113418   1.163   1.779  10.359 -0.1707 -0.2876  0.8166
  913MPD2    C213419   1.110   1.850  10.253  0.0025 -0.5560  0.2841
  913MPD2    C313420   1.167   1.970  10.210 -0.3354 -0.6649  0.3401
  913MPD2    C413421   1.288   2.010  10.268 -0.5833  0.1226 -0.3409
  913MPD2    C513422   1.351   1.929  10.365  0.3415 -0.8927  0.0302
  913MPD2     H13423   1.011   1.823  10.218  1.1450  0.7942 -3.9647
  913MPD2    H113424   1.332   2.104  10.238 -0.4961  0.2733  0.2594
  913MPD2    H213425   1.334   1.746  10.480  1.6225  0.1026 -1.3460
  913MPD2    H313426   1.438   1.963  10.420  0.8964 -0.3156 -1.2265
  913MPD2     N13427   1.103   2.061  10.122  0.2844  0.2212 -0.0187
  913MPD2    H513428   1.152   2.147  10.101 -1.4548  0.7453 -1.8923
  913MPD2    N113429   1.096   1.668  10.424  0.3196 -0.0193  0.2666
  913MPD2    H713430   1.152   1.615  10.489 -0.1749 -0.0116  0.6947
  914MPD2     C13431   4.023   1.710  12.122 -0.3954  0.1320 -0.7614
  914MPD2    C113432   4.029   1.695  12.255 -0.6702  0.1957 -0.3979
  914MPD2    C213433   4.006   1.572  12.300  0.1676 -0.2944  0.7621
  914MPD2    C313434   3.956   1.468  12.215  0.6714  0.2047  0.7443
  914MPD2    C413435   3.954   1.487  12.081  0.5588 -0.2682  0.0807
  914MPD2    C513436   3.991   1.610  12.030 -0.6074  1.1233  0.5254
  914MPD2     H13437   4.024   1.561  12.406  1.6728  2.1676  0.7606
  914MPD2    H113438   3.916   1.418  12.007 -1.2383 -2.0661  2.6900
  914MPD2    H213439   4.050   1.808  12.084 -0.8644  0.8610  0.7864
  914MPD2    H313440   3.978   1.633  11.925 -1.9376 -0.0146  0.4360
  914MPD2     N13441   3.911   1.348  12.279  0.6621  0.2391 -0.3093
  914MPD2    H513442   3.902   1.351  12.380  0.4516  0.5832 -0.3387
  914MPD2    N113443   4.070   1.801  12.343 -0.8387  0.7206  0.3221
  914MPD2    H713444   4.108   1.886  12.303 -0.3345  0.7538  0.8772
  915MPD2     C13445   1.755   1.587  15.660  0.1572 -0.3502  0.0834
  915MPD2    C113446   1.661   1.649  15.589 -0.1615 -0.4228 -0.0774
  915MPD2    C213447   1.554   1.711  15.650 -0.4222 -0.5035 -0.3151
  915MPD2    C313448   1.542   1.714  15.794  0.0020 -1.3302  0.7761
  915MPD2    C413449   1.651   1.665  15.865 -0.3858  0.4960  0.4888
  915MPD2    C513450   1.759   1.609  15.800  0.1404 -0.8719  0.3586
  915MPD2     H13451   1.471   1.763  15.604 -2.2425 -0.1855  3.3217
  915MPD2    H113452   1.672   1.667  15.971 -1.2515  0.2359  0.6689
  915MPD2    H213453   1.838   1.537  15.611  0.2552  0.1551 -0.2635
  915MPD2    H313454   1.844   1.581  15.861 -0.6575 -0.0484  1.8458
  915MPD2     N13455   1.432   1.774  15.855 -0.4379  0.2001 -0.3306
  915MPD2    H513456   1.370   1.833  15.802 -4.6599 -2.3474  1.7547
  915MPD2    N113457   1.668   1.627  15.451  0.2112 -0.8878 -0.3135
  915MPD2    H713458   1.735   1.555  15.426  0.7560 -0.2761 -0.6214
  916MPD2     C13459   0.040   0.065  15.688 -0.1903 -0.6572  1.0320
  916MPD2    C113460   0.028   4.705  15.782  0.2534 -0.8230 -0.2938
  916MPD2    C213461   0.095   4.584  15.740 -0.0732 -0.2743  0.0626
  916MPD2    C313462   0.150   4.564  15.612 -0.4342 -0.2629  1.4453
  916MPD2    C413463   0.146   4.669  15.518 -0.5667  0.3431  0.3358
  916MPD2    C513464   0.096   0.050  15.565 -0.6689 -0.2709 -0.5270
  916MPD2     H13465   0.087   4.495  15.803  0.9219  0.8200  1.7430
  916MPD2    H113466   0.176   4.664  15.414 -1.7028  1.0323 -0.0320
  916MPD2    H213467   4.729   0.159  15.709 -0.4504 -0.7711  0.9379
  916MPD2    H313468   0.098   0.141  15.507  1.1185  0.7688  1.1542
  916MPD2     N13469   0.215   4.440  15.582  0.0783 -0.8174  0.5035
  916MPD2    H513470   0.213   4.365  15.651  2.0847 -2.7726 -1.5487
  916MPD2    N113471   4.701   4.724  15.905 -0.2949 -0.1975  0.1093
  916MPD2    H713472   4.681   0.081  15.936 -0.2703 -0.9130  2.3690
  917MPD2     C13473   0.123   2.564  11.450 -0.1571  0.5895 -0.1801
  917MPD2    C113474   0.136   2.586  11.584  0.4080  0.3294  0.2898
  917MPD2    C213475   0.156   2.712  11.630 -0.1563  0.2137 -0.7884
  917MPD2    C313476   0.152   2.815  11.543 -0.3345  0.1617  0.3453
  917MPD2    C413477   0.129   2.796  11.407  0.4913  0.1214 -0.0383
  917MPD2    C513478   0.118   2.673  11.364  0.4096  0.3592 -0.4123
  917MPD2     H13479   0.178   2.730  11.735 -0.5746  0.0683 -0.6781
  917MPD2    H113480   0.117   2.872  11.331 -0.7305 -1.9336 -1.8991
  917MPD2    H213481   0.104   2.468  11.403  2.6900 -1.8294  3.5566
  917MPD2    H313482   0.118   2.660  11.257 -0.0838 -1.4699 -0.1831
  917MPD2     N13483   0.156   2.946  11.591  0.4270  0.5317  0.6447
  917MPD2    H513484   0.190   3.016  11.526 -0.9341  0.4448 -0.1573
  917MPD2    N113485   0.129   2.475  11.671  0.4374 -0.0759  0.4103
  917MPD2    H713486   0.095   2.385  11.638  0.5118  0.3112 -0.7459
  918MPD2     C13487   0.192   2.637  12.650 -0.4782  0.1981 -0.5118
  918MPD2    C113488   0.279   2.681  12.551 -0.1585 -0.2736  0.1199
  918MPD2    C213489   0.262   2.631  12.423  0.4219  0.4081 -0.1921
  918MPD2    C313490   0.183   2.516  12.407  0.8573 -0.1343 -1.0675
  918MPD2    C413491   0.111   2.464  12.510 -0.2476  0.3239  0.0577
  918MPD2    C513492   0.108   2.531  12.628  0.7448 -0.0906 -0.1341
  918MPD2     H13493   0.325   2.660  12.339  1.0761 -0.9450 -0.1746
  918MPD2    H113494   0.033   2.390  12.501 -1.1245  1.1802  0.5814
  918MPD2    H213495   0.191   2.676  12.751  0.9329 -4.2951  1.2146
  918MPD2    H313496   0.039   2.485  12.698  0.9216  2.2509  1.5832
  918MPD2     N13497   0.178   2.457  12.282  0.0813 -0.5924  0.0308
  918MPD2    H513498   0.217   2.510  12.205 -1.1445 -0.3428 -0.4084
  918MPD2    N113499   0.381   2.784  12.564 -0.7974  0.3702 -0.1156
  918MPD2    H713500   0.443   2.794  12.484 -1.0616 -2.6450 -0.6758
  919MPD2     C13501   1.341   1.435  11.475  0.4486  0.1048 -0.1212
  919MPD2    C113502   1.228   1.360  11.458  0.0996  0.2531 -0.8023
  919MPD2    C213503   1.130   1.419  11.378  0.1602 -0.5148  0.2001
  919MPD2    C313504   1.147   1.548  11.323 -0.6642 -0.0382 -0.5799
  919MPD2    C413505   1.262   1.616  11.348 -0.2396 -0.0166  0.0905
  919MPD2    C513506   1.361   1.555  11.416 -0.3909  0.5628 -0.1416
  919MPD2     H13507   1.043   1.355  11.364 -0.8621  1.4341 -2.3556
  919MPD2    H113508   1.277   1.707  11.292 -1.2166 -0.2191 -0.4969
  919MPD2    H213509   1.429   1.409  11.533  1.1341  0.7318 -0.8879
  919MPD2    H313510   1.456   1.605  11.432 -0.2549  0.0673  0.6350
  919MPD2     N13511   1.067   1.599  11.222 -0.3794  0.1015 -0.3001
  919MPD2    H513512   1.091   1.691  11.187  0.8054 -0.8285 -1.9248
  919MPD2    N113513   1.206   1.234  11.522 -0.4393  0.4678  0.0063
  919MPD2    H713514   1.116   1.191  11.503 -0.5654  1.0125 -0.6441
  920MPD2     C13515   0.935   2.191  10.404 -0.5456 -0.8910  0.4286
  920MPD2    C113516   0.812   2.159  10.444 -0.1099  0.4477  0.4454
  920MPD2    C213517   0.801   2.068  10.547  0.0351 -0.4649  0.3299
  920MPD2    C313518   0.903   2.022  10.618  0.3349 -0.4634  0.3478
  920MPD2    C413519   1.033   2.041  10.571 -0.1700  0.2863  0.4758
  920MPD2    C513520   1.046   2.137  10.471  0.2680  1.2396  0.1579
  920MPD2     H13521   0.703   2.026  10.566  0.5546 -2.3202 -1.0811
  920MPD2    H113522   1.124   1.994  10.608 -0.7684 -2.1682 -1.1740
  920MPD2    H213523   0.952   2.255  10.318  1.6405 -1.2034  0.6272
  920MPD2    H313524   1.141   2.162  10.425  0.5286  1.7160  0.9750
  920MPD2     N13525   0.872   1.917  10.715 -0.1268 -0.2069  0.1795
  920MPD2    H513526   0.773   1.908  10.736 -0.3873 -0.8005 -1.2802
  920MPD2    N113527   0.692   2.224  10.394 -0.3366  0.1092  0.5733
  920MPD2    H713528   0.607   2.200  10.445 -1.5109 -1.2520 -1.9601
  921MPD2     C13529   1.825   0.738  16.567 -0.5600 -0.2789 -0.2001
  921MPD2    C113530   1.840   0.674  16.448 -0.3084  0.2271  0.1072
  921MPD2    C213531   1.719   0.619  16.394  0.8540 -0.2446 -0.4227
  921MPD2    C313532   1.591   0.646  16.447 -0.1479 -0.1971  0.0268
  921MPD2    C413533   1.576   0.733  16.556  0.2844  0.3345  0.3485
  921MPD2    C513534   1.694   0.771  16.612  0.3976 -0.4612  0.4335
  921MPD2     H13535   1.727   0.561  16.303  2.9184 -0.3484 -0.1873
  921MPD2    H113536   1.478   0.765  16.590 -0.2839  0.0559 -1.0372
  921MPD2    H213537   1.902   0.789  16.623 -0.9595  0.8369 -0.6638
  921MPD2    H313538   1.699   0.847  16.690 -0.0797 -0.5334  0.5327
  921MPD2     N13539   1.482   0.586  16.381 -0.0042 -0.6028 -0.2198
  921MPD2    H513540   1.498   0.535  16.295 -1.7654 -1.7460  0.1242
  921MPD2    N113541   1.974   0.651  16.402  0.3067  0.2769 -0.3616
  921MPD2    H713542   2.049   0.692  16.456 -0.5725  1.9431 -0.4127
  922MPD2     C13543   1.145   2.789  17.106  0.7199 -0.0375  0.6372
  922MPD2    C113544   1.229   2.863  17.026  0.3175  0.2954  0.5266
  922MPD2    C213545   1.183   2.900  16.901  0.5712 -0.4803  0.1850
  922MPD2    C313546   1.060   2.856  16.854  0.3071 -0.1082 -0.6834
  922MPD2    C413547   0.982   2.783  16.944  0.0956  0.7835  0.4581
  922MPD2    C513548   1.025   2.756  17.075 -0.2567  0.3955  0.8203
  922MPD2     H13549   1.238   2.971  16.840 -0.5870 -0.8581 -1.2856
  922MPD2    H113550   0.885   2.741  16.920  0.6819  0.8974 -2.1543
  922MPD2    H213551   1.186   2.761  17.202 -1.2029 -0.4924  1.3162
  922MPD2    H313552   0.973   2.689  17.142  1.6152 -0.0097  1.8842
  922MPD2     N13553   1.033   2.872  16.721 -0.6033  0.0466  0.8341
  922MPD2    H513554   1.088   2.932  16.660  0.2108 -1.0038  0.5339
  922MPD2    N113555   1.365   2.902  17.062  0.2916  0.1792  0.0545
  922MPD2    H713556   1.417   2.952  16.991 -1.0573  1.2479 -0.1745
  923MPD2     C13557   3.794   0.432   9.302  0.4338  0.4007  0.3136
  923MPD2    C113558   3.825   0.560   9.273  0.1126 -0.0249  0.0619
  923MPD2    C213559   3.940   0.616   9.328 -0.4153 -0.2754 -0.2184
  923MPD2    C313560   4.027   0.542   9.405  0.3712  0.1521 -0.5007
  923MPD2    C413561   4.001   0.408   9.428  0.1390 -0.0071  0.1208
  923MPD2    C513562   3.878   0.358   9.381 -0.1429  0.1794  0.7348
  923MPD2     H13563   3.971   0.718   9.308  1.6235 -0.9882 -0.7429
  923MPD2    H113564   4.072   0.347   9.483 -1.6369 -2.5210 -0.3377
  923MPD2    H213565   3.707   0.381   9.261 -1.1983  2.4802  1.2035
  923MPD2    H313566   3.842   0.257   9.397  0.9207 -0.4686 -0.9385
  923MPD2     N13567   4.144   0.599   9.467 -0.2155  0.0763 -0.0776
  923MPD2    H513568   4.198   0.548   9.536 -0.4904  2.3364  1.8417
  923MPD2    N113569   3.722   0.630   9.201 -0.0435 -0.2051 -0.5879
  923MPD2    H713570   3.642   0.575   9.171 -0.6633  1.9617 -2.8364
  924MPD2     C13571   3.944   2.860  16.562 -0.0920 -0.2914  0.2038
  924MPD2    C113572   3.934   2.944  16.673 -0.3509 -0.4494  0.0324
  924MPD2    C213573   3.976   3.073  16.654  0.5921  0.0857 -0.1977
  924MPD2    C313574   4.012   3.125  16.530 -0.2701  0.4393  0.3615
  924MPD2    C413575   4.003   3.041  16.418  0.1967  0.4538 -0.2191
  924MPD2    C513576   3.975   2.912  16.438 -0.8130 -0.7429  0.0927
  924MPD2     H13577   3.967   3.146  16.734  0.4751  1.0428 -1.0831
  924MPD2    H113578   4.032   3.065  16.316  0.9024  2.0699  0.3487
  924MPD2    H213579   3.917   2.755  16.574  1.5377 -0.7297  0.0609
  924MPD2    H313580   3.984   2.856  16.346 -0.2826 -0.1277 -0.2321
  924MPD2     N13581   4.039   3.269  16.521 -0.0254 -0.4892 -0.0815
  924MPD2    H513582   4.030   3.316  16.611 -0.4974  2.6116 -1.7607
  924MPD2    N113583   3.889   2.883  16.792 -0.1529 -0.3682  0.1896
  924MPD2    H713584   3.874   2.782  16.792  0.7500 -0.5141  2.7401
  925MPD2     C13585   1.612   0.710  14.109  0.2346 -0.2357 -0.0961
  925MPD2    C113586   1.733   0.650  14.135 -0.0125 -0.1792  0.3079
  925MPD2    C213587   1.756   0.590  14.259 -0.0433  0.0566  0.1971
  925MPD2    C313588   1.652   0.584  14.355  0.8637 -0.3183  0.1821
  925MPD2    C413589   1.531   0.644  14.317  0.6946  0.1392  0.3619
  925MPD2    C513590   1.511   0.702  14.196 -0.3589 -0.9455  0.7914
  925MPD2     H13591   1.851   0.539  14.274  0.2722  0.4750 -0.3847
  925MPD2    H113592   1.455   0.663  14.392 -0.8358  3.0718 -1.9217
  925MPD2    H213593   1.590   0.774  14.024  1.0905  1.3117  0.8339
  925MPD2    H313594   1.412   0.737  14.170 -1.0073 -2.6756  0.9456
  925MPD2     N13595   1.661   0.532  14.487 -0.1106 -0.4677 -0.0038
  925MPD2    H513596   1.590   0.562  14.553  1.2715  0.7842  0.9115
  925MPD2    N113597   1.837   0.655  14.038 -0.4070 -0.3488 -0.4182
  925MPD2    H713598   1.920   0.597  14.049  1.0244  1.4766 -1.6173
  926MPD2     C13599   1.618   4.251  13.091  0.4111 -0.7838 -0.4955
  926MPD2    C113600   1.526   4.305  13.006  0.3575  0.2859 -0.7665
  926MPD2    C213601   1.575   4.371  12.893  0.4370 -0.3757  0.0003
  926MPD2    C313602   1.706   4.372  12.861 -0.7214 -0.1829 -0.3807
  926MPD2    C413603   1.790   4.312  12.947  0.3773  0.2773 -0.2478
  926MPD2    C513604   1.750   4.257  13.064 -0.0002 -0.5967 -0.3851
  926MPD2     H13605   1.516   4.425  12.820  0.9972  0.6191  0.2808
  926MPD2    H113606   1.895   4.305  12.921  1.0129  3.9364  1.3431
  926MPD2    H213607   1.599   4.198  13.184 -0.1945  0.8987  0.3500
  926MPD2    H313608   1.813   4.198  13.130  0.5586 -0.8564 -1.1642
  926MPD2     N13609   1.765   4.429  12.744  0.1961  0.2501 -0.0540
  926MPD2    H513610   1.866   4.433  12.750  0.1128 -0.1924  1.6727
  926MPD2    N113611   1.391   4.293  13.030  0.1549  0.4300 -0.1741
  926MPD2    H713612   1.330   4.336  12.961  0.6423 -1.7169 -1.9537
  927MPD2     C13613   1.226   1.347   0.216  0.3735  0.1142  0.0678
  927MPD2    C113614   1.118   1.343   0.132  0.1053 -0.6110  0.8257
  927MPD2    C213615   1.138   1.361  17.741 -0.0718  0.3716  0.4392
  927MPD2    C313616   1.262   1.381  17.692  0.2123  0.4011 -0.1876
  927MPD2    C413617   1.366   1.391   0.032  0.1985  0.0478  0.4031
  927MPD2    C513618   1.348   1.378   0.165  0.5964 -0.0831  0.6692
  927MPD2     H13619   1.059   1.362  17.666  1.2852  2.3591 -0.9657
  927MPD2    H113620   1.465   1.414  17.744  0.7375  0.8560  2.3521
  927MPD2    H213621   1.224   1.337   0.324 -1.0911  0.2387  0.0432
  927MPD2    H313622   1.440   1.377   0.223  0.4885 -2.8145  0.7841
  927MPD2     N13623   1.283   1.399  17.553  0.3432  0.1164 -0.3357
  927MPD2    H513624   1.204   1.430  17.497 -1.7116 -2.1218  1.3488
  927MPD2    N113625   0.991   1.326   0.180 -0.6559  0.3922 -1.0442
  927MPD2    H713626   0.983   1.292   0.276 -0.2497  0.1078 -1.1116
  928MPD2     C13627   3.130   0.607   0.920 -0.0817  0.9531 -0.0257
  928MPD2    C113628   3.260   0.581   0.952 -0.0184 -0.0172 -0.0975
  928MPD2    C213629   3.354   0.560   0.857 -0.6330 -0.3347 -0.4091
  928MPD2    C313630   3.327   0.545   0.725 -0.0887  0.7199  0.7622
  928MPD2    C413631   3.192   0.562   0.694  0.2748 -0.4535  0.1779
  928MPD2    C513632   3.095   0.600   0.790 -0.1127  0.3312 -0.3863
  928MPD2     H13633   3.457   0.547   0.888 -0.9695 -0.3314  0.7335
  928MPD2    H113634   3.162   0.551   0.591 -0.6355 -2.3007  0.6443
  928MPD2    H213635   3.071   0.624   1.009  1.5515 -1.5387  1.5188
  928MPD2    H313636   2.992   0.619   0.763  0.4635  1.8195 -1.4763
  928MPD2     N13637   3.425   0.540   0.625 -0.1187  0.2249 -0.0398
  928MPD2    H513638   3.388   0.532   0.530  0.6982  0.8809 -0.4060
  928MPD2    N113639   3.297   0.586   1.092 -0.0252  0.3335 -1.0664
  928MPD2    H713640   3.230   0.634   1.151 -1.0399 -1.3363 -0.8756
  929MPD2     C13641   4.199   0.402   9.932 -0.4442  0.0612  0.3325
  929MPD2    C113642   4.067   0.363   9.936 -0.1776  0.7663 -0.2442
  929MPD2    C213643   3.973   0.437   9.866  0.0762 -0.2063 -0.3116
  929MPD2    C313644   3.999   0.569   9.825  0.2022 -0.2265 -0.0615
  929MPD2    C413645   4.133   0.614   9.838 -0.1926 -0.4597 -0.3957
  929MPD2    C513646   4.226   0.529   9.889  0.7381  0.1740  0.1105
  929MPD2     H13647   3.870   0.404   9.855 -0.2351  0.7550 -0.3370
  929MPD2    H113648   4.163   0.714   9.808  0.9730 -0.4613  0.7560
  929MPD2    H213649   4.278   0.333   9.960  0.0000  1.0216  1.4844
  929MPD2    H313650   4.332   0.554   9.887  0.0890  2.8563 -0.2704
  929MPD2     N13651   3.894   0.634   9.750  0.5095 -0.7194  0.1325
  929MPD2    H513652   3.799   0.599   9.749  1.0865 -2.2236 -1.5469
  929MPD2    N113653   4.033   0.250  10.010  0.0981 -0.3169 -0.2460
  929MPD2    H713654   4.112   0.195  10.041 -0.0986  0.2267  1.2209
  930MPD2     C13655   0.376   2.278  13.754  0.6241 -0.0741  0.6789
  930MPD2    C113656   0.504   2.244  13.716  0.3731  0.2016 -0.7040
  930MPD2    C213657   0.521   2.158  13.616  0.1960  0.0101  0.1510
  930MPD2    C313658   0.409   2.100  13.556 -0.4687 -0.0656 -0.1487
  930MPD2    C413659   0.283   2.134  13.599  0.6549 -0.5100  0.2307
  930MPD2    C513660   0.270   2.226  13.695  0.7213  0.0776  0.1943
  930MPD2     H13661   0.620   2.131  13.579 -0.0680  0.4162 -0.8690
  930MPD2    H113662   0.192   2.094  13.555  1.2587  0.0117 -1.4570
  930MPD2    H213663   0.352   2.348  13.833 -0.1649  1.4100 -0.8660
  930MPD2    H313664   0.170   2.234  13.736 -0.4421  3.2704 -3.3395
  930MPD2     N13665   0.415   2.008  13.448 -0.0628 -0.7434  0.2274
  930MPD2    H513666   0.331   1.954  13.430 -0.2709 -0.0335 -0.8887
  930MPD2    N113667   0.614   2.302  13.786 -0.4447  0.1412  0.2919
  930MPD2    H713668   0.595   2.352  13.872  1.4015  0.1944  0.6686
  931MPD2     C13669   0.628   1.078   0.766 -0.4445 -0.1664 -0.0984
  931MPD2    C113670   0.698   1.185   0.712 -0.0119  0.0084  0.7026
  931MPD2    C213671   0.752   1.275   0.801  0.2616  0.3935  0.5661
  931MPD2    C313672   0.713   1.275   0.934 -0.3937  0.4495 -0.2293
  931MPD2    C413673   0.664   1.155   0.985 -0.3335 -0.0018 -0.1075
  931MPD2    C513674   0.624   1.065   0.897 -0.2178 -0.3066  0.0313
  931MPD2     H13675   0.788   1.373   0.774  2.5510 -1.0444 -1.6568
  931MPD2    H113676   0.633   1.145   1.088  2.8692 -0.0511  0.8174
  931MPD2    H213677   0.581   0.995   0.715  1.2407 -1.7644  0.9725
  931MPD2    H313678   0.571   0.976   0.929  2.3952 -1.1747  1.9755
  931MPD2     N13679   0.746   1.374   1.025  0.3439  0.1270 -0.2735
  931MPD2    H513680   0.700   1.369   1.115  1.7353 -0.6528  0.3868
  931MPD2    N113681   0.714   1.203   0.575  0.5010 -0.5608 -0.0906
  931MPD2    H713682   0.782   1.272   0.544 -0.1042 -0.2612 -0.7632
  932MPD2     C13683   2.478   1.013  11.269 -0.3936 -0.3233  0.1689
  932MPD2    C113684   2.602   0.988  11.215  0.6405 -1.1743 -0.1319
  932MPD2    C213685   2.628   0.875  11.142 -0.4113  0.1004 -0.6655
  932MPD2    C313686   2.539   0.774  11.142  0.0548 -0.0489 -0.4823
  932MPD2    C413687   2.418   0.793  11.201  0.2950 -0.0188  0.3066
  932MPD2    C513688   2.391   0.905  11.269  0.1093  0.8489 -0.3174
  932MPD2     H13689   2.729   0.868  11.104 -0.1783 -1.7633  0.3389
  932MPD2    H113690   2.354   0.706  11.209  2.9271 -2.1078 -0.9328
  932MPD2    H213691   2.443   1.106  11.313  0.5993 -1.5758  3.6407
  932MPD2    H313692   2.300   0.920  11.327  1.6916  0.4618  2.2506
  932MPD2     N13693   2.581   0.646  11.099  0.0860  0.2887  0.7351
  932MPD2    H513694   2.532   0.563  11.132  0.0834 -0.2220 -0.5591
  932MPD2    N113695   2.701   1.086  11.223 -0.1794 -0.1977  0.4801
  932MPD2    H713696   2.786   1.071  11.169 -0.9776  2.0290 -1.3758
  933MPD2     C13697   3.176   0.784   1.910 -0.5923 -0.6708 -0.7234
  933MPD2    C113698   3.159   0.793   1.772 -0.3413 -0.1791 -0.0023
  933MPD2    C213699   3.038   0.832   1.718 -0.3258 -0.4248 -0.0876
  933MPD2    C313700   2.925   0.840   1.801  0.4578  0.2218 -0.2233
  933MPD2    C413701   2.939   0.830   1.938 -0.0828 -0.6445 -0.6401
  933MPD2    C513702   3.071   0.807   1.994  0.4660 -1.3169 -0.3934
  933MPD2     H13703   3.011   0.835   1.613 -0.8967  0.2273  0.0754
  933MPD2    H113704   2.859   0.848   2.008 -0.8064 -2.7171 -0.9396
  933MPD2    H213705   3.268   0.763   1.963 -1.0145  0.2676  0.3664
  933MPD2    H313706   3.071   0.787   2.100 -1.6693  1.2783  0.0867
  933MPD2     N13707   2.800   0.849   1.734  0.5583  0.4287  0.1967
  933MPD2    H513708   2.808   0.854   1.633 -2.4167 -1.0581 -0.0998
  933MPD2    N113709   3.270   0.748   1.696  0.5944 -0.2858 -0.5822
  933MPD2    H713710   3.351   0.712   1.745  0.2848  0.1030  0.2068
  934MPD2     C13711   4.003   2.527   1.533 -0.4523 -0.0655  0.1138
  934MPD2    C113712   4.116   2.471   1.482  0.0462 -0.0196  0.0140
  934MPD2    C213713   4.099   2.380   1.380  0.7806 -0.8410  0.5998
  934MPD2    C313714   3.976   2.334   1.340 -0.0908 -0.3757 -0.5293
  934MPD2    C413715   3.865   2.397   1.389 -0.4486  0.0842 -0.4932
  934MPD2    C513716   3.878   2.485   1.496  0.4453  0.3154 -0.3553
  934MPD2     H13717   4.192   2.337   1.346  0.3723  1.0354 -2.9189
  934MPD2    H113718   3.767   2.372   1.350 -0.2696 -0.5564 -0.5410
  934MPD2    H213719   4.008   2.600   1.613  0.2628 -0.1911  0.1773
  934MPD2    H313720   3.790   2.537   1.531  0.4179  0.1612 -0.1963
  934MPD2     N13721   3.962   2.224   1.249 -0.2336  0.4708  0.0383
  934MPD2    H513722   3.864   2.210   1.226 -0.6243  0.7172  1.5459
  934MPD2    N113723   4.246   2.511   1.524  0.1142 -0.0063 -0.3225
  934MPD2    H713724   4.326   2.474   1.474  0.7619  2.3295 -1.0437
  935MPD2     C13725   4.560   1.539   0.858  0.1423 -0.6149 -0.1149
  935MPD2    C113726   4.434   1.515   0.796  0.3150 -0.0138  0.1089
  935MPD2    C213727   4.321   1.579   0.851 -0.7289 -0.1192 -0.4693
  935MPD2    C313728   4.336   1.669   0.951 -0.7538  0.0287  0.2647
  935MPD2    C413729   4.452   1.679   1.015  0.0073  0.7957 -0.4276
  935MPD2    C513730   4.566   1.625   0.966  0.4856  0.0147 -0.0337
  935MPD2     H13731   4.227   1.555   0.802 -0.9020  0.1849 -0.2898
  935MPD2    H113732   4.472   1.737   1.105 -2.9502 -0.7340  1.2021
  935MPD2    H213733   4.651   1.482   0.842  0.5985  0.4562 -1.3757
  935MPD2    H313734   4.661   1.634   1.018  0.9450  0.5458 -0.9873
  935MPD2     N13735   4.226   1.735   1.004 -0.1756  0.2596 -0.3017
  935MPD2    H513736   4.241   1.784   1.092  2.3159 -2.0054  0.5652
  935MPD2    N113737   4.423   1.419   0.696 -0.0885 -0.2266  0.2122
  935MPD2    H713738   4.328   1.417   0.659 -0.0629  2.1555  0.0254
  936MPD2     C13739   3.211   3.556  12.685  0.2105 -0.0001 -1.1906
  936MPD2    C113740   3.296   3.653  12.637 -0.0207  0.6251  0.1147
  936MPD2    C213741   3.278   3.693  12.502 -0.0719  0.1716  0.0662
  936MPD2    C313742   3.160   3.667  12.436 -0.1140 -0.1312  0.3854
  936MPD2    C413743   3.077   3.575  12.490 -0.0755 -0.1342  0.4917
  936MPD2    C513744   3.108   3.516  12.609  0.1334  0.5297 -0.4194
  936MPD2     H13745   3.346   3.770  12.468 -0.1021  0.7702  1.3657
  936MPD2    H113746   2.980   3.550  12.448 -0.2849  0.2181  0.7645
  936MPD2    H213747   3.214   3.517  12.787 -2.5307  0.5818 -0.8989
  936MPD2    H313748   3.029   3.460  12.658 -0.2188 -0.3613 -2.0226
  936MPD2     N13749   3.107   3.749  12.332 -0.0733  0.5306  0.4138
  936MPD2    H513750   3.011   3.729  12.305  0.6253 -1.0202 -0.8942
  936MPD2    N113751   3.396   3.716  12.718 -0.0672  0.4503  0.2632
  936MPD2    H713752   3.443   3.797  12.678  3.4694 -1.3447  0.7979
  937MPD2     C13753   1.644   0.532  11.445 -0.6548  0.1958  0.7538
  937MPD2    C113754   1.614   0.669  11.413  0.3724 -0.3914 -0.1670
  937MPD2    C213755   1.698   0.731  11.325  0.3548  0.6984 -0.3220
  937MPD2    C313756   1.819   0.677  11.280  0.1295 -0.5303  0.2581
  937MPD2    C413757   1.843   0.545  11.320  0.3758  0.3819 -0.1789
  937MPD2    C513758   1.756   0.471  11.387 -0.5690 -0.5360  0.0506
  937MPD2     H13759   1.667   0.827  11.286 -0.8249  0.7441  0.7094
  937MPD2    H113760   1.934   0.495  11.288 -1.6404 -1.4207 -3.1292
  937MPD2    H213761   1.572   0.471  11.498 -1.1783  1.2144  1.2070
  937MPD2    H313762   1.776   0.365  11.393  1.5083 -0.0749  1.4263
  937MPD2     N13763   1.889   0.747  11.175  0.0672 -0.2888 -0.1473
  937MPD2    H513764   1.866   0.845  11.170 -1.1018 -0.6617 -2.1004
  937MPD2    N113765   1.494   0.730  11.458  0.3425  0.4806 -0.2869
  937MPD2    H713766   1.463   0.820  11.423  0.0582 -0.3934 -2.2563
  938MPD2     C13767   3.370   1.876  17.638 -0.3108  0.0661 -0.1995
  938MPD2    C113768   3.434   1.907   0.009  0.2650 -1.1441  0.3766
  938MPD2    C213769   3.457   1.806   0.108 -0.6131  0.3962 -0.4827
  938MPD2    C313770   3.403   1.678   0.088 -1.0420  0.1599 -0.9601
  938MPD2    C413771   3.352   1.645  17.710  0.5250  0.0284 -0.8174
  938MPD2    C513772   3.342   1.740  17.615 -0.4712  0.0585  0.7625
  938MPD2     H13773   3.501   1.837   0.202  0.4012 -0.8494 -0.5524
  938MPD2    H113774   3.305   1.550  17.690 -0.5216  0.0918  1.4341
  938MPD2    H213775   3.346   1.950  17.562  1.0559  0.0355 -0.6649
  938MPD2    H313776   3.293   1.712  17.523  0.3970  1.1502 -0.0354
  938MPD2     N13777   3.377   1.583   0.192 -0.3938  0.6504 -0.7818
  938MPD2    H513778   3.312   1.507   0.173  1.6511 -0.8647 -1.7658
  938MPD2    N113779   3.484   2.034   0.040  0.0356  0.7910 -0.0688
  938MPD2    H713780   3.536   2.034   0.127  1.1764 -0.7716 -0.7480
  939MPD2     C13781   0.010   2.602   0.697  0.3455  0.0300  0.1380
  939MPD2    C113782   4.668   2.663   0.598  0.5214  0.0785  0.8419
  939MPD2    C213783   4.707   2.647   0.466  0.0085 -0.2440  0.1071
  939MPD2    C313784   0.070   2.562   0.430  0.2581 -0.2280 -1.0284
  939MPD2    C413785   0.142   2.499   0.521  0.0141 -0.1149  0.4039
  939MPD2    C513786   0.112   2.518   0.657 -0.5115  0.3758  0.3208
  939MPD2     H13787   4.647   2.696   0.389 -2.1570  2.3571  3.4648
  939MPD2    H113788   0.229   2.439   0.498 -0.0444 -0.1325  0.2313
  939MPD2    H213789   4.728   2.611   0.804  1.7250 -3.0915  0.6493
  939MPD2    H313790   0.178   2.475   0.731 -1.0594  2.0148  1.7462
  939MPD2     N13791   0.106   2.551   0.289 -0.6737  0.0162 -0.2134
  939MPD2    H513792   0.044   2.604   0.229  0.4712  1.2388 -0.3060
  939MPD2    N113793   4.567   2.746   0.636 -1.0055 -0.1041 -0.7556
  939MPD2    H713794   4.561   2.776   0.733 -2.3745 -1.1655 -0.5172
  940MPD2     C13795   4.204   3.054  13.371  0.0063  0.3837 -0.2138
  940MPD2    C113796   4.079   3.080  13.322  0.4555  0.5801  0.6044
  940MPD2    C213797   4.067   3.167  13.214  0.2687  0.1876  0.3641
  940MPD2    C313798   4.173   3.205  13.139  0.5026  0.1015 -0.1192
  940MPD2    C413799   4.299   3.166  13.178 -0.6220 -0.2234 -0.3164
  940MPD2    C513800   4.316   3.097  13.297 -0.1954  0.0834 -0.9100
  940MPD2     H13801   3.969   3.207  13.192  0.0003  0.3891  1.9159
  940MPD2    H113802   4.390   3.191  13.125 -1.0824 -0.1436 -1.0793
  940MPD2    H213803   4.215   2.992  13.460 -0.3909 -0.3367 -0.6731
  940MPD2    H313804   4.414   3.077  13.338  0.4147  2.5726 -1.1818
  940MPD2     N13805   4.163   3.279  13.019 -0.6734  0.0918 -0.1341
  940MPD2    H513806   4.250   3.310  12.977 -0.3462  1.7406  1.7692
  940MPD2    N113807   3.954   3.039  13.374  0.0075  0.0938 -0.2034
  940MPD2    H713808   3.871   3.076  13.329  0.5116 -1.7016 -2.6099
  941MPD2     C13809   2.807   3.023   9.566  0.1617 -0.7418 -0.1773
  941MPD2    C113810   2.807   3.034   9.702  0.3934  0.5237 -0.3629
  941MPD2    C213811   2.737   2.944   9.779 -0.4707 -0.7544  0.3266
  941MPD2    C313812   2.680   2.835   9.719  0.1514  0.4152 -0.4026
  941MPD2    C413813   2.665   2.828   9.583 -0.2440  0.0144 -0.4578
  941MPD2    C513814   2.739   2.917   9.511  0.1543 -0.5882 -0.4045
  941MPD2     H13815   2.745   2.951   9.886 -1.5397  1.6948  0.2395
  941MPD2    H113816   2.608   2.748   9.538 -1.9180  0.9461 -0.0173
  941MPD2    H213817   2.873   3.080   9.502  0.7997 -2.4078 -0.9864
  941MPD2    H313818   2.757   2.890   9.408  1.5687  1.6869 -0.7604
  941MPD2     N13819   2.621   2.731   9.791 -0.7593 -0.0754 -0.2790
  941MPD2    H513820   2.579   2.655   9.738  0.5954 -2.0892  1.4920
  941MPD2    N113821   2.881   3.135   9.771  0.2818  0.5501  0.0081
  941MPD2    H713822   2.901   3.118   9.869 -1.0083  1.2419  0.4014
  942MPD2     C13823   2.689   4.386   9.149  0.3090  0.1696  0.1497
  942MPD2    C113824   2.759   4.429   9.261 -0.6300  0.2355 -0.9014
  942MPD2    C213825   2.876   4.505   9.236 -0.3906  0.0574  0.1170
  942MPD2    C313826   2.933   4.518   9.106  0.1113 -0.4180  0.0748
  942MPD2    C413827   2.869   4.454   9.003 -0.1971  0.5576  0.4381
  942MPD2    C513828   2.746   4.401   9.024 -0.2284 -0.1235 -0.0567
  942MPD2     H13829   2.918   4.563   9.317 -0.3027 -0.8544  0.7146
  942MPD2    H113830   2.906   4.449   8.901  0.1857 -1.6841  0.6908
  942MPD2    H213831   2.594   4.336   9.160  0.3641  0.0093 -0.0990
  942MPD2    H313832   2.689   4.359   8.942  0.0176 -0.2800 -0.1471
  942MPD2     N13833   3.065   4.562   9.078 -0.2686 -0.0619  0.0116
  942MPD2    H513834   3.088   4.571   8.979 -1.0544  0.3942 -0.1321
  942MPD2    N113835   2.717   4.419   9.398 -0.0757 -0.3503 -0.2299
  942MPD2    H713836   2.774   4.464   9.469 -0.4507  2.2858 -1.5685
  943MPD2     C13837   1.632   3.516   9.206 -0.5812 -0.0213 -0.4457
  943MPD2    C113838   1.627   3.407   9.287 -0.0054  0.4531 -0.0780
  943MPD2    C213839   1.737   3.379   9.364  0.2469 -0.5033 -0.1194
  943MPD2    C313840   1.846   3.463   9.370  0.4471  0.3960  0.6143
  943MPD2    C413841   1.853   3.566   9.274  0.1680  0.0445 -0.2439
  943MPD2    C513842   1.750   3.588   9.185  0.0684  0.2878 -0.3942
  943MPD2     H13843   1.742   3.291   9.427  3.1659 -0.2601 -0.0255
  943MPD2    H113844   1.930   3.643   9.268  0.5119 -0.3439 -0.8810
  943MPD2    H213845   1.548   3.558   9.153 -0.0813 -0.0869 -1.2886
  943MPD2    H313846   1.762   3.677   9.124 -0.2237  1.6868  1.5834
  943MPD2     N13847   1.957   3.452   9.464  0.1050 -0.0720 -0.4033
  943MPD2    H513848   2.037   3.514   9.466  1.0505 -1.3171  0.4086
  943MPD2    N113849   1.509   3.332   9.297  0.3363  0.4400  0.9284
  943MPD2    H713850   1.432   3.376   9.247  0.9623  0.2581 -0.1921
  944MPD2     C13851   1.712   2.222  11.931  0.3240 -0.0167  0.0269
  944MPD2    C113852   1.678   2.219  11.792  0.0923  0.8048  0.5370
  944MPD2    C213853   1.574   2.300  11.748  0.2374  0.6509 -0.0612
  944MPD2    C313854   1.510   2.390  11.836  0.4030 -0.2527 -0.5819
  944MPD2    C413855   1.549   2.395  11.969  0.2979  0.3185  0.0064
  944MPD2    C513856   1.650   2.310  12.014 -0.4689 -0.2703  0.7940
  944MPD2     H13857   1.554   2.293  11.641  1.6429  2.2873 -0.4366
  944MPD2    H113858   1.509   2.467  12.039  0.7912  1.5929 -1.0374
  944MPD2    H213859   1.776   2.143  11.970  0.3549 -0.0417 -0.0740
  944MPD2    H313860   1.700   2.316  12.110  1.1434  2.1069 -0.1681
  944MPD2     N13861   1.411   2.476  11.781  0.4618  0.0049 -0.1251
  944MPD2    H513862   1.415   2.487  11.680 -1.9868 -3.4612 -0.6054
  944MPD2    N113863   1.748   2.130  11.709  0.7795  0.6608 -0.0848
  944MPD2    H713864   1.829   2.081  11.747  0.5090  2.6894  3.0974
    1TMC1    C113865   4.369   2.487  14.548 -0.5891 -0.3587 -0.5770
    1TMC1    C213866   4.398   2.355  14.577  0.3500  0.6630  0.1872
    1TMC1    C313867   4.335   2.263  14.496 -0.2774  0.5455 -0.1825
    1TMC1    C413868   4.283   2.526  14.449 -0.5912 -0.2669 -0.2418
    1TMC1    C513869   4.230   2.430  14.367  0.5115  0.4633 -0.0467
    1TMC1    C613870   4.266   2.299  14.384 -0.1931 -0.0124 -0.0349
    1TMC1     C13871   4.425   2.589  14.636  0.1672 -0.0889  0.2109
    1TMC1     O13872   4.402   2.572  14.756  0.5328  0.0679  0.8093
    1TMC1     H13873   4.440   2.320  14.671 -1.0939 -1.2162  0.1357
    1TMC1    H113874   4.266   2.632  14.429 -1.4672 -0.2533  0.6053
    1TMC1    H213875   4.227   2.225  14.315 -0.9295 -0.6498  1.0801
    1TMC1    C713876   4.165   2.462  14.240  0.0756 -0.1933 -0.1581
    1TMC1    C813877   4.384   2.126  14.521 -0.5567  0.0355 -0.8095
    1TMC1    O113878   4.104   2.375  14.184 -0.2675 -0.2132 -0.3997
    1TMC1    O213879   4.480   2.096  14.590  0.5142 -0.0098  0.6092
    1TMC1    O313880   4.283   2.522  14.186 -0.2085  0.0684 -0.4105
    1TMC1    H313881   4.342   2.563  14.252  2.3480 -2.2615 -1.2538
    1TMC1    O513882   4.306   2.039  14.463  0.3477 -0.3346 -0.0692
    1TMC1    H513883   4.226   2.079  14.424  0.7850  2.2193  1.6612
    2MPD2     C13884   4.661   3.053  14.714 -0.8962 -0.6020 -0.0243
    2MPD2    C113885   4.639   3.032  14.582 -0.0055  0.1274  0.0366
    2MPD2    C213886   4.572   2.912  14.532  0.1521  0.9769  0.0758
    2MPD2    C313887   4.531   2.820  14.624 -0.0108  0.5211 -0.2340
    2MPD2    C413888   4.561   2.833  14.758  0.1752  0.3654 -0.0398
    2MPD2    C513889   4.623   2.949  14.798  0.0280 -0.0953  0.3125
    2MPD2     H13890   4.547   2.886  14.430  1.8379 -0.4862  0.0316
    2MPD2    H113891   4.537   2.763  14.838 -0.6224 -2.8164 -3.0558
    2MPD2    H213892   4.707   3.137  14.765 -1.3836  1.4966 -3.0878
    2MPD2    H313893   4.637   2.964  14.904 -1.4456 -0.0179  0.4851
    2MPD2     N13894   4.468   2.703  14.567  0.3289 -0.0258  0.6997
    2MPD2    H513895   4.465   2.695  14.465 -0.9167  1.0531  0.6558
    2MPD2    N113896   4.680   3.129  14.483  0.1344 -0.2283  0.0023
    2MPD2    H713897   4.665   3.099  14.387  0.6398  0.2148 -0.2164
    3TMC2    C113898   0.054   3.319  14.390  0.5450  0.3395  0.2706
    3TMC2    C213899   0.108   3.442  14.416  0.6165 -0.4296 -0.1216
    3TMC2    C313900   0.162   3.505  14.304  0.4086  0.6212  0.5210
    3TMC2    C413901   0.066   3.266  14.262  1.0043  0.0654  0.2804
    3TMC2    C513902   0.131   3.332  14.156  0.1337 -0.0727 -0.2172
    3TMC2    C613903   0.166   3.462  14.169  0.4639  0.8511 -0.1274
    3TMC2     C13904   0.002   3.250  14.506  0.5190 -0.6262 -0.6079
    3TMC2     O13905   0.024   3.307  14.612 -0.0674 -0.3731  0.1376
    3TMC2     H13906   0.100   3.488  14.514  0.6117 -1.2384  0.2600
    3TMC2    H113907   0.026   3.167  14.243  0.8885  0.5168 -1.8841
    3TMC2    H213908   0.210   3.523  14.091 -2.0643  2.0139 -0.6355
    3TMC2    C713909   0.111   3.273  14.028  0.0329  0.1797 -0.4815
    3TMC2    C813910   0.214   3.635  14.333  0.0685  0.2081  0.7201
    3TMC2    O113911   0.101   3.151  14.028 -0.1126 -0.4332 -0.3830
    3TMC2    O213912   0.253   3.672  14.443  0.0194  0.3644  0.1136
    3TMC2    O513913   0.190   3.720  14.224 -0.3321  0.1033 -0.7590
    3TMC2    H513914   0.146   3.670  14.151  1.5423 -1.3029 -0.9114
    4TMC2    C113915   4.304   3.815  13.453  0.5313 -0.2132 -0.4566
    4TMC2    C213916   4.344   3.946  13.437 -0.2115  0.0212  0.2603
    4TMC2    C313917   4.470   3.981  13.482  0.4214  0.2053  0.7799
    4TMC2    C413918   4.392   3.716  13.502  0.2943  0.1048  0.0289
    4TMC2    C513919   4.521   3.760  13.510 -0.7441  0.2864  0.3286
    4TMC2    C613920   4.565   3.893  13.508 -0.1636  0.2048  0.7595
    4TMC2     C13921   4.165   3.783  13.462 -0.6711  0.1571 -1.0414
    4TMC2     O13922   4.149   3.683  13.528 -0.5407  0.2535 -0.1105
    4TMC2     H13923   4.276   4.025  13.408 -2.0528 -0.9062  2.0098
    4TMC2    H113924   4.359   3.612  13.500  2.4396 -0.6240  1.8271
    4TMC2    H213925   4.668   3.922  13.528  0.1173 -1.3633  1.5515
    4TMC2    C713926   4.617   3.673  13.565  0.0686  0.2085  0.5048
    4TMC2    C813927   4.508   4.115  13.455 -0.0180 -0.4011  0.5384
    4TMC2    O113928   4.715   3.726  13.615  0.1060 -0.3795  0.1177
    4TMC2    O213929   4.453   4.177  13.365  0.3675 -0.7899 -0.2626
    4TMC2    O513930   4.630   4.151  13.499  0.6416  0.3513 -0.6938
    4TMC2    H513931   4.654   4.097  13.577 -0.8532 -0.8089 -1.0444
    5MPD2     C13932   3.673   3.886  13.574 -0.0377 -0.1544 -0.2312
    5MPD2    C113933   3.722   3.999  13.511 -0.6666  0.0379  0.3270
    5MPD2    C213934   3.855   3.989  13.476 -0.1840  0.7697 -0.3169
    5MPD2    C313935   3.930   3.874  13.486  0.5726  0.4185 -0.4638
    5MPD2    C413936   3.873   3.763  13.546  0.1250  0.4526  1.1121
    5MPD2    C513937   3.753   3.775  13.600  0.1334 -0.2702  0.1563
    5MPD2     H13938   3.906   4.075  13.434 -1.5448  0.9206 -1.6842
    5MPD2    H113939   3.915   3.663  13.541 -0.6723  0.1675  0.1438
    5MPD2    H213940   3.570   3.892  13.606 -0.5571  1.9406 -2.2329
    5MPD2    H313941   3.703   3.699  13.659 -0.8126  0.7899  0.7277
    5MPD2     N13942   4.062   3.879  13.437 -0.8502 -0.4347  0.6697
    5MPD2    H513943   4.079   3.967  13.389 -2.8921 -0.1008  0.5373
    5MPD2    N113944   3.636   4.111  13.479 -0.5504 -0.5937 -0.1513
    5MPD2    H713945   3.544   4.116  13.522 -0.8010  1.3365 -0.9571
    6MPD1     C13946   2.599   1.015  12.942  0.1238  0.2038 -0.1660
    6MPD1    C113947   2.594   0.887  12.884 -0.3230 -0.0959 -0.9052
    6MPD1    C213948   2.701   0.805  12.912 -0.0033 -0.1447 -0.1842
    6MPD1    C313949   2.815   0.845  12.979 -0.0341  0.6684 -0.6564
    6MPD1    C413950   2.813   0.966  13.044 -0.1721  0.4829  0.5369
    6MPD1    C513951   2.699   1.045  13.027  0.2362 -0.7141  0.2687
    6MPD1     H13952   2.700   0.707  12.864 -0.7602  0.2430 -0.9634
    6MPD1    H113953   2.896   0.998  13.106  0.9911 -0.7264 -0.3949
    6MPD1    H213954   2.524   1.093  12.929 -0.8251 -0.6682  0.0635
    6MPD1    H313955   2.699   1.145  13.068 -1.9571 -0.4333 -0.4266
    6MPD1     N13956   2.931   0.762  12.989  0.3503  0.0598  0.7273
    6MPD1    H513957   3.014   0.796  13.038  1.0315  0.9370 -1.0220
    6MPD1    N113958   2.476   0.839  12.824 -0.4126  0.2422  0.0239
    6MPD1    H613959   2.511   0.783  12.747 -2.6222 -1.0601 -0.0336
    6MPD1    H713960   2.427   0.912  12.772 -0.1100  1.3414  1.2930
    7MPD2     C13961   3.336   0.328  13.545  1.0646 -0.2942 -0.0215
    7MPD2    C113962   3.284   0.268  13.429  0.6800 -0.2330 -0.1377
    7MPD2    C213963   3.308   0.127  13.416  0.2939  0.9161 -0.0943
    7MPD2    C313964   3.353   0.047  13.518 -0.3353  0.0065 -0.4094
    7MPD2    C413965   3.395   0.107  13.636  0.2302 -0.0854 -0.5188
    7MPD2    C513966   3.390   0.246  13.643  0.0511  0.5065 -0.2224
    7MPD2     H13967   3.276   0.075  13.327 -0.2325 -0.8896  1.1587
    7MPD2    H113968   3.415   0.038  13.718 -1.9234 -0.7787 -0.5697
    7MPD2    H213969   3.328   0.435  13.561 -1.0709 -0.2743 -1.2195
    7MPD2    H313970   3.427   0.286  13.737  0.8800  0.1455 -0.3952
    7MPD2     N13971   3.343   4.649  13.490  0.0371 -0.1995 -0.1416
    7MPD2    H513972   3.314   4.620  13.397  1.0743 -0.1316 -0.4903
    7MPD2    N113973   3.217   0.335  13.325  0.1399 -0.0351 -0.0980
    7MPD2    H713974   3.190   0.274  13.248 -0.9094  0.6923 -0.3040
    8TMC3    C113975   3.379   4.418  13.483 -0.3548  0.8292 -0.5019
    8TMC3    C213976   3.489   4.338  13.506 -0.0941 -0.3687  0.1159
    8TMC3    C313977   3.562   4.315  13.388 -0.8724  0.1243 -0.2295
    8TMC3    C413978   3.327   4.434  13.354  0.4035  0.4351 -0.0436
    8TMC3    C513979   3.401   4.394  13.241 -0.5504  0.6939 -0.0980
    8TMC3    C613980   3.530   4.356  13.262  0.4642 -0.1700 -0.5277
    8TMC3     C13981   3.392   4.546  13.560 -0.0205  0.9416 -0.0888
    8TMC3     O13982   3.450   4.554  13.666  0.3062 -0.4552 -0.1554
    8TMC3     H13983   3.521   4.328  13.610 -2.0174  1.1147  0.8572
    8TMC3    H113984   3.233   4.485  13.343  0.7676  1.0951 -0.0951
    8TMC3    H213985   3.590   4.318  13.179  0.4382 -1.6051  0.1116
    8TMC3    C713986   3.372   4.481  13.134 -0.1244  0.3899 -0.0767
    8TMC3    C813987   3.668   4.211  13.394 -0.8768  0.4156 -0.5686
    8TMC3    O113988   3.257   4.526  13.125  0.3278 -0.5645 -0.4267
    8TMC3    O213989   3.757   4.213  13.309 -0.4255 -0.3762  0.1726
    9TMC3    C113990   3.078   0.584  12.973 -0.5162 -0.2236  1.5188
    9TMC3    C213991   3.143   0.507  12.875  0.5122 -0.0646  0.1738
    9TMC3    C313992   3.223   0.410  12.930 -0.4339  1.1109  0.6873
    9TMC3    C413993   3.099   0.576  13.111  0.5986 -0.2832 -0.0265
    9TMC3    C513994   3.185   0.484  13.156  0.0643  0.4443  0.7242
    9TMC3    C613995   3.253   0.406  13.064 -0.0959  0.2617  0.4012
    9TMC3     C13996   2.956   0.646  12.924  0.4681  0.6347 -0.1305
    9TMC3     O13997   2.897   0.591  12.833  0.2200 -0.1952  0.2019
    9TMC3     H13998   3.125   0.529  12.771  0.0956  3.4136  0.9847
    9TMC3    H113999   3.035   0.626  13.183  0.6231  1.3777 -1.1411
    9TMC3    H214000   3.331   0.339  13.096  1.4473  1.6015 -0.5697
    9TMC3    C714001   3.205   0.467  13.300  0.7261  0.8481  0.4087
    9TMC3    C814002   3.286   0.318  12.846 -0.6270  0.9735  0.0989
    9TMC3    O114003   3.214   0.559  13.379  0.5385 -0.1864 -0.0782
    9TMC3    O214004   3.318   0.351  12.729 -0.1092  0.3530  0.4544
   10MPD2     C14005   3.585   4.648  12.888  0.1967  0.6506 -0.2913
   10MPD2    C114006   3.485   4.643  12.982 -0.0298  0.2427 -0.6082
   10MPD2    C214007   3.395   4.737  12.989 -0.1401  0.4490 -0.7009
   10MPD2    C314008   3.395   0.104  12.893  0.0377 -0.4402  0.6952
   10MPD2    C414009   3.496   0.108  12.797 -0.5927 -0.0323  0.2661
   10MPD2    C514010   3.585   0.008  12.792  0.2064  0.2620 -1.1187
   10MPD2     H14011   3.333   0.008  13.077  0.0643 -0.6266 -0.4493
   10MPD2    H114012   3.506   0.193  12.730 -0.7772 -0.2990 -0.1010
   10MPD2    H214013   3.657   4.567  12.881  1.4767  1.7318  0.5724
   10MPD2    H314014   3.664   0.012  12.718  0.4241 -0.0336 -0.9053
   10MPD2     N14015   3.297   0.203  12.913  0.5481 -0.1751  0.7371
   10MPD2    H514016   3.234   0.189  12.992 -3.5697  1.7185 -2.2194
   10MPD2    N114017   3.482   4.536  13.076 -0.4871 -0.0835 -0.0789
   10MPD2    H714018   3.570   4.487  13.088 -0.3805  0.1509  0.1111
   11MPD2     C14019   4.724   3.208  13.759 -0.3168  0.1733 -0.2352
   11MPD2    C114020   0.005   3.336  13.812  0.3124 -0.1174  0.0084
   11MPD2    C214021   4.710   3.451  13.734 -0.9358  0.8127 -0.8834
   11MPD2    C314022   4.647   3.435  13.614  0.0743 -0.5575 -0.0934
   11MPD2    C414023   4.626   3.310  13.569  0.4869  0.3785 -0.7032
   11MPD2    C514024   4.665   3.201  13.641  0.1098  0.5815 -0.8292
   11MPD2     H14025   4.723   3.553  13.768  0.7796 -0.1403  1.3459
   11MPD2    H114026   4.572   3.292  13.476  3.4494 -4.0975 -1.6138
   11MPD2    H214027   0.028   3.120  13.807 -0.2755  0.3346  0.0269
   11MPD2    H314028   4.662   3.105  13.590 -0.5182  0.3300 -0.3166
   11MPD2     N14029   4.585   3.540  13.546  0.7055  0.3097 -0.0694
   11MPD2    H514030   4.508   3.514  13.486 -0.3266 -0.2109  1.4978
   11MPD2    N114031   0.059   3.366  13.936 -0.5428  0.4220  0.2127
   11MPD2    H714032   0.052   3.464  13.960  0.6432  0.8200 -1.1320
    1MPD1     C14033   3.590   0.421  16.656  0.2031  1.0737 -0.3974
    1MPD1    C114034   3.620   0.440  16.793  0.1809 -0.8625 -0.1920
    1MPD1    C214035   3.526   0.507  16.873 -0.6543 -0.2061  0.6163
    1MPD1    C314036   3.416   0.567  16.809 -0.2687 -0.1324  0.2300
    1MPD1    C414037   3.392   0.556  16.677  0.0623 -0.0186 -0.3243
    1MPD1    C514038   3.482   0.489  16.598  0.2762 -0.6404 -0.2048
    1MPD1     H14039   3.553   0.514  16.978  0.3053  3.1840  0.1755
    1MPD1    H114040   3.302   0.596  16.631 -1.4064 -3.1973 -0.2230
    1MPD1    H214041   3.657   0.370  16.588  0.0296 -1.6234  1.4715
    1MPD1    H314042   3.466   0.467  16.493  0.2330  1.4118 -0.6290
    1MPD1     N14043   3.312   0.627  16.883  0.5860  0.1851  0.1636
    1MPD1    H514044   3.232   0.660  16.830  0.4695  0.9334  0.8042
    1MPD1    N114045   3.732   0.375  16.856 -0.5179 -0.2138 -0.0072
    1MPD1    H614046   3.805   0.371  16.785  1.3647  0.9526  1.8872
    1MPD1    H714047   3.773   0.432  16.930  1.6639 -0.9219 -0.6470
    2MPD1     C14048   3.184   1.029   0.072  0.2277 -0.1466  0.3134
    2MPD1    C114049   3.300   1.003   0.001  0.4809  0.3599  0.0939
    2MPD1    C214050   3.280   0.961  17.620 -0.6581  0.4012 -0.1679
    2MPD1    C314051   3.163   0.908  17.577  0.3820 -0.2840 -0.6634
    2MPD1    C414052   3.053   0.909  17.662  0.1554  0.1463 -0.0971
    2MPD1    C514053   3.062   0.977   0.034 -0.8230 -0.4324  0.0819
    2MPD1     H14054   3.366   0.958  17.553 -0.2949  1.8784  0.2401
    2MPD1    H114055   2.958   0.859  17.648  0.1500  0.0649  0.2301
    2MPD1    H214056   3.187   1.079   0.168 -1.9432 -2.1703  1.4203
    2MPD1    H314057   2.978   0.983   0.102 -0.6621 -2.4829  0.4660
    2MPD1     N14058   3.161   0.848  17.451  0.6105  0.2017 -0.8911
    2MPD1    H514059   3.235   0.873  17.385  2.1370  1.2322  1.2028
    2MPD1    N114060   3.426   1.054   0.046 -0.4011  0.0294  0.3454
    2MPD1    H614061   3.503   1.001   0.005  0.7657  1.1758  1.0886
    2MPD1    H714062   3.440   1.057   0.147 -0.0648 -4.1245  0.4282
    3TMC3    C114063   3.071   0.726  17.265  0.4539  0.2061  0.6249
    3TMC3    C214064   2.954   0.666  17.217  0.2155  0.0678  0.5314
    3TMC3    C314065   2.966   0.602  17.093  0.2476 -0.1452  0.3432
    3TMC3    C414066   3.193   0.718  17.207  0.6403 -0.4662 -0.3434
    3TMC3    C514067   3.190   0.665  17.078 -0.2176  0.0421 -0.2659
    3TMC3    C614068   3.079   0.603  17.017  0.4284 -0.1054 -0.7184
    3TMC3     C14069   3.057   0.766  17.410  0.1164  0.4021 -0.4062
    3TMC3     O14070   2.960   0.722  17.466 -0.8896  0.1882  0.0352
    3TMC3     H14071   2.865   0.654  17.279 -0.2426 -1.2143 -0.3797
    3TMC3    H114072   3.280   0.772  17.246  0.1219 -0.8649  1.3648
    3TMC3    H214073   3.085   0.537  16.931 -0.3883 -1.2796  0.1103
    3TMC3    C714074   3.319   0.652  17.022 -0.0807  0.0177 -0.4826
    3TMC3    C814075   2.849   0.536  17.024  1.0581 -0.4122 -0.8127
    3TMC3    O114076   3.419   0.647  17.093  0.0939 -0.8204  0.5451
    3TMC3    O214077   2.867   0.437  16.956 -0.1990 -0.4812  0.2118
    4MPD1     C14078   2.363   0.509  16.862  0.1912  0.0061  0.6384
    4MPD1    C114079   2.368   0.595  16.975 -0.0341 -0.1548 -0.6756
    4MPD1    C214080   2.484   0.625  17.038 -0.1658  0.2371 -0.5587
    4MPD1    C314081   2.600   0.569  16.986  0.0335  0.3855 -0.2727
    4MPD1    C414082   2.593   0.488  16.871  0.9442  0.4543 -0.3429
    4MPD1    C514083   2.478   0.454  16.809 -0.1423  0.5164  0.4640
    4MPD1     H14084   2.477   0.695  17.120 -0.9695  0.1916 -0.5915
    4MPD1    H114085   2.676   0.456  16.810  0.8703 -1.3242  0.4900
    4MPD1    H214086   2.270   0.483  16.812  0.9669 -1.2428 -0.1465
    4MPD1    H314087   2.470   0.388  16.723 -1.0477 -0.2538  1.1392
    4MPD1     N14088   2.727   0.600  17.050 -0.4694  0.4466  0.3379
    4MPD1    H514089   2.726   0.668  17.124  0.0459  0.5496  0.2520
    4MPD1    N114090   2.251   0.659  17.018 -0.5545  0.1932  0.5079
    4MPD1    H614091   2.170   0.618  16.973  0.6125 -0.6975 -0.7849
    4MPD1    H714092   2.241   0.647  17.119  0.8001 -1.1063  0.5048
    1TCq1    O114093   3.484   0.473  11.334  0.7676  0.7996  0.3178
    1TCq1    C114094   3.560   0.555  11.261 -0.4496  0.6144  0.0842
    1TCq1    O214095   3.678   0.588  11.278 -0.6767  0.4626 -0.1948
    1TCq1    C214096   3.485   0.584  11.139 -0.4588  0.1210  0.4170
    1TCq1    C314097   3.369   0.513  11.111 -0.3954  0.0021 -0.2234
    1TCq1    C414098   3.285   0.560  11.009  0.4147  0.2951  0.4526
    1TCq1    C514099   3.331   0.655  10.924  0.2130  0.4121 -0.6176
    1TCq1    C614100   3.441   0.734  10.960 -0.2630 -0.4858 -0.7280
    1TCq1    C714101   3.514   0.703  11.077 -0.5594 -0.1139  0.6140
    1TCq1    C814102   3.507   0.798  10.844  0.0273  0.1120 -0.2336
    1TCq1    O414103   3.469   0.771  10.731  0.3214 -0.1402  0.2817
    1TCq1    C914104   3.187   0.473  10.949  0.0735 -0.5892  0.0470
    1TCq1    O514105   3.188   0.355  10.985  0.5814  0.5233 -0.1626
    1TCq1    O614106   3.114   0.525  10.863 -0.0169  0.0943 -0.6858
    1TCq1    H114107   3.391   0.501  11.317  1.4403  1.2056 -2.6284
    1TCq1    H214108   3.373   0.408  11.138 -1.4996 -0.5855 -2.3632
    1TCq1    H314109   3.285   0.669  10.827  1.5352  2.3332 -0.9730
    1TCq1    H414110   3.584   0.776  11.117 -0.7088  0.6778 -0.5679
    2MPD1     C14111   3.847   1.150  10.669 -0.6125  0.3368  0.0639
    2MPD1    C114112   3.861   1.152  10.804 -0.2760  0.0340  0.1723
    2MPD1    C214113   3.773   1.068  10.882 -0.2429  0.3977  0.7602
    2MPD1    C314114   3.694   0.972  10.819  0.4316  0.3766 -0.0851
    2MPD1    C414115   3.699   0.968  10.684 -0.3024  0.0184  0.3336
    2MPD1    C514116   3.770   1.058  10.604  0.5649  0.5905 -0.3690
    2MPD1     H14117   3.774   1.079  10.989 -0.0251  2.7034  0.5329
    2MPD1    H114118   3.629   0.898  10.639 -2.1371  1.9184  0.2439
    2MPD1    H214119   3.897   1.221  10.604  0.9911  0.1648  1.0893
    2MPD1    H314120   3.760   1.061  10.496 -0.4337 -0.2372 -0.3039
    2MPD1     N14121   3.602   0.890  10.891  0.4105 -0.2362 -1.1641
    2MPD1    H514122   3.620   0.899  10.990  0.3672  3.4417 -1.4759
    2MPD1    N114123   3.927   1.252  10.875  0.2062 -0.0117 -0.1947
    2MPD1    H614124   4.010   1.279  10.823  0.7916 -1.4247  0.0170
    2MPD1    H714125   3.961   1.206  10.959  1.8258  1.0192 -0.2969
    1TMC1    C114126   0.623   1.770   0.833  0.4603  0.4542 -0.2719
    1TMC1    C214127   0.499   1.758   0.895  0.5013  0.8983  0.3459
    1TMC1    C314128   0.409   1.677   0.834  0.2911  0.0061 -0.4367
    1TMC1    C414129   0.647   1.689   0.722 -0.0535 -0.2444  0.4659
    1TMC1    C514130   0.556   1.599   0.682  0.0511  0.1702  0.2805
    1TMC1    C614131   0.437   1.581   0.739 -0.3706 -0.1978 -0.0356
    1TMC1     C14132   0.730   1.844   0.889  0.0444 -0.0727  0.9548
    1TMC1     O14133   0.845   1.820   0.849 -0.5330 -0.4519 -0.3137
    1TMC1     H14134   0.458   1.813   0.979  1.6543 -0.0972  1.5509
    1TMC1    H114135   0.738   1.706   0.667  0.6570 -1.3537  1.2948
    1TMC1    H214136   0.362   1.515   0.697 -0.7773 -1.0139  1.9860
    1TMC1    C714137   0.571   1.530   0.558  0.3215 -0.4799 -0.1537
    1TMC1    C814138   0.323   1.619   0.933 -0.5725  0.3640 -0.1627
    1TMC1    O114139   0.479   1.477   0.496  0.4049 -0.1438 -0.4076
    1TMC1    O214140   0.367   1.573   1.039 -0.5096 -0.2951  0.3587
    1TMC1    O314141   0.697   1.534   0.505 -0.2816  0.1927  0.2641
    1TMC1    H314142   0.772   1.551   0.566 -1.0234  0.1106  1.1993
    1TMC1    O514143   0.209   1.583   0.880  0.0586  0.2564 -0.5746
    1TMC1    H514144   0.209   1.613   0.787  0.4104  0.8870 -0.3700
    2MPD1     C14145   0.876   2.233   1.191 -0.6544  0.4484  0.1732
    2MPD1    C114146   0.740   2.207   1.207 -0.0686 -0.0326 -0.8270
    2MPD1    C214147   0.676   2.110   1.133 -0.0925  0.0385 -0.1804
    2MPD1    C314148   0.746   2.034   1.040 -0.2562 -0.1152 -0.3104
    2MPD1    C414149   0.883   2.055   1.027  0.3939  0.1423 -0.1631
    2MPD1    C514150   0.948   2.154   1.103 -0.8248  0.6665  0.2426
    2MPD1     H14151   0.575   2.089   1.165  0.1164  0.8900  1.0453
    2MPD1    H114152   0.948   2.003   0.957  0.6876  1.4114 -0.8346
    2MPD1    H214153   0.929   2.304   1.254 -2.4111  0.7814  1.2716
    2MPD1    H314154   1.054   2.170   1.088 -0.5617 -0.3885  0.9353
    2MPD1     N14155   0.677   1.935   0.977 -0.1822 -0.1296  1.3450
    2MPD1    H514156   0.576   1.944   0.980 -0.2781 -1.0538  0.8613
    2MPD1    N114157   0.672   2.252   1.326  0.4192  0.0224 -0.2283
    2MPD1    H614158   0.696   2.349   1.348 -2.4675  0.0753  2.6647
    2MPD1    H714159   0.571   2.246   1.316  0.1472  3.7520  0.1034
    1MPD1     C14160   4.485   4.333  12.201 -0.9658 -0.1277  0.1494
    1MPD1    C114161   4.401   4.430  12.255 -0.0876 -0.3218 -0.1378
    1MPD1    C214162   4.441   4.561  12.252 -0.0481  0.4703 -0.0994
    1MPD1    C314163   4.550   4.600  12.173  0.1137 -0.6324 -1.0262
    1MPD1    C414164   4.619   4.500  12.107  1.3345  0.0298 -0.2259
    1MPD1    C514165   4.597   4.368  12.126 -0.2588 -0.4590  0.2784
    1MPD1     H14166   4.384   4.630  12.313 -1.2394  1.2476 -2.0765
    1MPD1    H114167   4.715   4.530  12.068 -0.2729  3.1218 -1.7581
    1MPD1    H214168   4.466   4.227  12.212 -0.0182 -0.3820 -0.7067
    1MPD1    H314169   4.664   4.296  12.080 -3.9195 -2.3424 -2.0379
    1MPD1     N14170   4.585   4.733  12.187 -0.0266  0.6461  0.2927
    1MPD1    H514171   4.544   0.041  12.268 -2.1598 -0.0274 -0.4142
    1MPD1    N114172   4.313   4.390  12.358  0.8024 -0.4183  0.1495
    1MPD1    H614173   4.231   4.451  12.359 -0.9218 -2.7584  0.6233
    1MPD1    H714174   4.277   4.297  12.337  0.9311 -0.2995 -0.5860
    2MPD1     C14175   3.862   1.718  10.709  0.2593  0.3155 -0.4455
    2MPD1    C114176   3.867   1.581  10.679 -0.0592  0.1531  0.0626
    2MPD1    C214177   3.991   1.525  10.679 -0.0940  0.0449  0.5487
    2MPD1    C314178   4.109   1.599  10.681  0.4043  0.2502 -0.4082
    2MPD1    C414179   4.104   1.735  10.698 -0.0563 -0.2690 -0.2844
    2MPD1    C514180   3.975   1.794  10.710  0.5720 -0.0008  0.2969
    2MPD1     H14181   4.000   1.418  10.660  1.2377 -0.1529  2.2617
    2MPD1    H114182   4.190   1.799  10.710  0.2088 -1.2000  2.7585
    2MPD1    H214183   3.771   1.775  10.724 -0.2219 -0.0941 -1.8088
    2MPD1    H314184   3.965   1.901  10.714 -0.9389 -0.0882 -1.2772
    2MPD1     N14185   4.239   1.543  10.676 -0.1966 -0.1503 -0.4999
    2MPD1    H514186   4.311   1.613  10.669 -0.0822 -0.4746 -2.5713
    2MPD1    N114187   3.749   1.508  10.706  0.4683  0.4999 -0.3743
    2MPD1    H614188   3.670   1.567  10.683  0.0980 -0.0346 -0.4744
    2MPD1    H714189   3.755   1.423  10.651 -1.2850 -2.2687  3.6950
    3MPD1     C14190   0.347   1.693  10.270 -0.3495 -0.3824  0.6844
    3MPD1    C114191   0.385   1.623  10.377  0.0222  0.5012  0.3023
    3MPD1    C214192   0.290   1.543  10.436  0.1340  0.7214  0.7672
    3MPD1    C314193   0.161   1.540  10.392  0.7723  0.4524 -0.5093
    3MPD1    C414194   0.124   1.633  10.292  0.4713  0.7450 -0.5062
    3MPD1    C514195   0.218   1.703  10.223  1.4087 -0.6734 -0.0761
    3MPD1     H14196   0.321   1.479  10.517 -1.1133 -1.7891 -0.7609
    3MPD1    H114197   0.021   1.631  10.258 -0.7398  1.2735  3.1292
    3MPD1    H214198   0.421   1.741  10.207  0.4044 -1.4330  0.7665
    3MPD1    H314199   0.191   1.775  10.146  0.9359  0.4734  1.1646
    3MPD1     N14200   0.068   1.468  10.464 -0.3355 -0.3021  0.2516
    3MPD1    H514201   0.104   1.428  10.550  0.9778  0.1392 -0.0864
    3MPD1    N114202   0.522   1.615  10.412  0.1772 -0.5133 -0.5532
    3MPD1    H614203   0.576   1.689  10.368  0.8818 -0.6873  0.0178
    3MPD1    H714204   0.548   1.590  10.507 -0.9197 -0.7805 -0.3188
    4MPD2     C14205   4.407   0.688  11.889 -0.1596  0.2508  0.0537
    4MPD2    C114206   4.542   0.660  11.886 -0.2208  0.0275  0.1951
    4MPD2    C214207   4.623   0.718  11.794  0.5728  0.1847  0.8102
    4MPD2    C314208   4.581   0.776  11.680  0.2203 -1.0007 -0.3320
    4MPD2    C414209   4.446   0.811  11.681 -0.5035 -0.5982  0.6413
    4MPD2    C514210   4.363   0.768  11.782  0.6109 -0.0025  0.6397
    4MPD2     H14211   4.728   0.691  11.798  0.3820 -0.4644  1.4089
    4MPD2    H114212   4.402   0.862  11.595 -0.5966 -0.3593  0.8297
    4MPD2    H214213   4.345   0.649  11.968 -1.9353  1.8272 -0.5771
    4MPD2    H314214   4.258   0.795  11.777  1.3039  2.4811 -0.6247
    4MPD2     N14215   4.662   0.837  11.586 -0.6185  0.1941  0.2316
    4MPD2    H514216   4.610   0.899  11.524  0.7832  0.8759 -0.2507
    4MPD2    N114217   4.602   0.576  11.984  0.6296 -0.0599  0.3268
    4MPD2    H714218   4.702   0.566  11.970  1.0214  2.1738  1.6461
    5TMC3    C114219   4.630   0.419  12.151  0.1002 -0.7985  0.1294
    5TMC3    C214220   4.597   0.286  12.140 -0.1642  0.0816 -0.0813
    5TMC3    C314221   4.705   0.205  12.130 -0.1732  0.6376  0.1249
    5TMC3    C414222   0.021   0.461  12.163  0.0181  0.4269 -0.2192
    5TMC3    C514223   0.122   0.374  12.122 -0.3565  0.0218 -0.1604
    5TMC3    C614224   0.098   0.239  12.111  0.2809  0.4971  0.1622
    5TMC3     C14225   4.537   0.501  12.082 -0.9818 -0.4636 -0.6181
    5TMC3     O14226   4.422   0.484  12.113  0.2980  1.2377 -0.1792
    5TMC3     H14227   4.495   0.253  12.151 -1.1576  2.7044 -1.2746
    5TMC3    H114228   0.029   0.569  12.171 -0.6580  0.4142  0.6064
    5TMC3    H214229   0.175   0.169  12.080 -0.2710  0.4371 -1.0463
    5TMC3    C714230   0.194   0.441  12.018  0.9546  0.2697  0.2773
    5TMC3    C814231   4.679   0.059  12.105  0.0198  0.3349  0.4070
    5TMC3    O114232   0.141   0.541  11.977  0.3490 -0.1894  0.0366
    5TMC3    O214233   0.006   0.009  12.016  0.3954 -0.6973 -0.0393
    6TMC3    C114234   4.399   1.367  10.669 -0.8435 -0.3201 -0.0130
    6TMC3    C214235   4.485   1.444  10.593  0.2898 -0.4699  0.3044
    6TMC3    C314236   4.604   1.387  10.551 -0.1965 -0.0623  0.1201
    6TMC3    C414237   4.424   1.233  10.685 -0.7961 -0.0520 -0.0927
    6TMC3    C514238   4.544   1.180  10.640 -0.1891 -0.5068 -0.4979
    6TMC3    C614239   4.634   1.252  10.565  0.2304  0.4306 -0.5347
    6TMC3     C14240   4.260   1.402  10.689  0.1592 -0.2374 -0.1386
    6TMC3     O14241   4.176   1.308  10.715  0.0740  0.4569  0.2099
    6TMC3     H14242   4.460   1.541  10.551 -0.3201 -1.3728 -1.4162
    6TMC3    H114243   4.354   1.174  10.742 -1.0238  0.5954  0.3015
    6TMC3    H214244   4.722   1.208  10.519  0.5241 -0.5597  0.9682
    6TMC3    C714245   4.573   1.050  10.686  0.0998  0.4648  0.5987
    6TMC3    C814246   4.664   1.466  10.450  0.4489  0.5719  0.2383
    6TMC3    O114247   4.504   0.996  10.768  0.0432 -0.5082  0.1492
    6TMC3    O214248   4.587   1.511  10.363  0.3676  0.9245 -0.4001
    7MPD2     C14249   0.486   0.426  11.594 -0.3296  0.2378  0.3797
    7MPD2    C114250   0.392   0.516  11.628 -0.4719 -0.0326 -0.5042
    7MPD2    C214251   0.330   0.499  11.753 -0.6339 -0.3615 -0.0806
    7MPD2    C314252   0.362   0.396  11.838 -0.5424 -0.3944 -0.1318
    7MPD2    C414253   0.459   0.307  11.798  0.5213 -0.6808 -0.5152
    7MPD2    C514254   0.524   0.326  11.677 -0.3211  0.7278 -0.0029
    7MPD2     H14255   0.251   0.570  11.769 -0.0186 -0.1407  2.0324
    7MPD2    H114256   0.500   0.232  11.864  0.8529  0.1505  0.2200
    7MPD2    H214257   0.544   0.442  11.504  0.9343  3.0125  1.6938
    7MPD2    H314258   0.610   0.265  11.651 -0.4746  0.2746  0.5573
    7MPD2     N14259   0.297   0.370  11.964 -0.3722  0.1331  0.0885
    7MPD2    H514260   0.330   0.287  12.012 -1.5132 -0.3080  0.0891
    7MPD2    N114261   0.342   0.616  11.537 -0.1301 -0.1517  0.1415
    7MPD2    H714262   0.264   0.669  11.574  0.6342  1.9058 -1.2064
    8TMC3    C114263   0.295   0.743  11.346  0.2998  0.6020  0.6534
    8TMC3    C214264   0.213   0.709  11.240  0.8247 -0.4083 -0.1807
    8TMC3    C314265   0.090   0.774  11.233 -0.5668  0.2189  0.3746
    8TMC3    C414266   0.248   0.833  11.442  0.0762 -0.2446  0.2461
    8TMC3    C514267   0.118   0.880  11.444  0.3142 -0.6209 -0.2005
    8TMC3    C614268   0.039   0.863  11.332  0.1768 -0.3889 -0.3315
    8TMC3     C14269   0.380   0.640  11.408 -0.0083  0.0542  0.1235
    8TMC3     O14270   0.472   0.596  11.339  0.0300 -0.2484  0.0341
    8TMC3     H14271   0.250   0.641  11.165 -1.5432 -2.6357  0.6453
    8TMC3    H114272   0.311   0.856  11.527  0.3947  0.3137 -0.1481
    8TMC3    H214273   4.680   0.911  11.335 -0.0198 -0.7891 -0.2851
    8TMC3    C714274   0.059   0.820  11.573  0.1602 -0.0511 -0.0257
    8TMC3    C814275   0.042   0.803  11.100 -0.0224 -0.6904  0.9838
    8TMC3    O114276   0.140   0.760  11.644  0.2826 -0.0126 -0.3409
    8TMC3    O214277   4.719   0.911  11.094 -0.1346  0.3111  0.0782
    9MPD2     C14278   0.161   0.660  10.785  0.2295  0.1584 -0.0874
    9MPD2    C114279   0.080   0.740  10.871  0.4220 -0.2407 -0.7606
    9MPD2    C214280   0.005   0.842  10.819  0.2870 -0.2717  0.2748
    9MPD2    C314281   0.016   0.876  10.686 -0.6864  0.1121  0.1181
    9MPD2    C414282   0.101   0.798  10.604  0.9989  0.1879  0.0623
    9MPD2    C514283   0.186   0.709  10.660  0.0619  0.2194 -0.3750
    9MPD2     H14284   4.668   0.897  10.875  3.3540  0.2281  3.9356
    9MPD2    H114285   0.125   0.830  10.503 -0.9980  0.9223 -0.1720
    9MPD2    H214286   0.211   0.574  10.827  2.0376  1.6279  0.7806
    9MPD2    H314287   0.251   0.647  10.598 -0.3314 -0.1233 -0.4511
    9MPD2     N14288   4.696   1.000  10.642  0.2128  0.5318 -0.4487
    9MPD2    H514289   0.013   1.053  10.576  0.9135 -0.7173 -0.8657
    9MPD2    N114290   0.082   0.710  11.010  0.2959 -0.4059 -0.3241
    9MPD2    H714291   0.128   0.625  11.042  1.0515  0.4043  0.7546
    1MPD1     C14292   0.481   0.026  16.561 -0.1759  0.2069  0.2180
    1MPD1    C114293   0.518   4.664  16.474 -0.9732  0.0577 -0.3831
    1MPD1    C214294   0.423   4.574  16.431 -0.5980 -0.3749 -0.2826
    1MPD1    C314295   0.291   4.585  16.466 -0.3376 -0.0756  0.9958
    1MPD1    C414296   0.255   4.688  16.542  0.1391  0.1081  0.1699
    1MPD1    C514297   0.348   0.041  16.587 -0.6758  0.4553  0.1048
    1MPD1     H14298   0.456   4.492  16.368 -0.9712 -0.6213 -0.1545
    1MPD1    H114299   0.155   4.709  16.578 -0.6075 -1.2328 -1.1209
    1MPD1    H214300   0.544   0.102  16.605 -1.8172  1.2340  0.8122
    1MPD1    H314301   0.319   0.136  16.630  1.9114  1.4867 -0.4348
    1MPD1     N14302   0.187   4.492  16.431 -0.5032 -0.6363 -0.0899
    1MPD1    H514303   0.090   4.510  16.456 -0.3138 -0.4934  0.5179
    1MPD1    N114304   0.652   4.638  16.451  0.3252  0.7670  0.0277
    1MPD1    H614305   0.679   4.585  16.368  1.0458  1.1575  0.0072
    1MPD1    H714306   0.709   4.722  16.438  1.9276 -0.3596 -0.1950
    2TMC2    C114307   4.667   4.198  16.175  0.5430  0.5479  0.4721
    2TMC2    C214308   4.600   4.157  16.284  0.3961  0.2653 -0.2234
    2TMC2    C314309   4.638   4.186  16.405 -0.7679 -0.0759  0.4837
    2TMC2    C414310   0.033   4.270  16.188 -0.3638 -0.9939  0.1153
    2TMC2    C514311   0.066   4.317  16.314  0.0252  0.6697 -0.6563
    2TMC2    C614312   0.007   4.267  16.424  0.4665  0.0236  0.6196
    2TMC2     C14313   4.617   4.151  16.044  0.6020  0.0121 -1.0731
    2TMC2     O14314   4.548   4.051  16.045 -0.5444 -0.6588 -0.0529
    2TMC2     H14315   4.529   4.076  16.270  2.3706 -1.4967 -0.0611
    2TMC2    H114316   0.093   4.288  16.099  0.1592 -0.5333  0.5571
    2TMC2    H214317   0.046   4.283  16.524  1.4463  1.5567  0.0025
    2TMC2    C714318   0.199   4.386  16.337  0.0515  0.4697 -0.2559
    2TMC2    C814319   4.602   4.099  16.512 -0.5375  0.1922 -0.3638
    2TMC2    O114320   0.291   4.353  16.263 -0.2777  0.3484 -0.1215
    2TMC2    O214321   4.481   4.064  16.512  0.2544  0.0530  0.1154
    2TMC2    O514322   4.708   4.011  16.511  0.8426  0.1900  0.0187
    2TMC2    H514323   0.050   4.058  16.478  0.7964  1.4750  1.7215
    3MPD1     C14324   4.560   4.216  15.544  0.0270  0.0733  0.2781
    3MPD1    C114325   4.605   4.333  15.600 -0.2315  0.7020  0.2595
    3MPD1    C214326   4.600   4.342  15.735 -0.1802 -0.1568  0.3827
    3MPD1    C314327   4.601   4.234  15.817 -0.1160 -0.5065 -0.0341
    3MPD1    C414328   4.580   4.115  15.761  0.7910  0.0446  0.1410
    3MPD1    C514329   4.559   4.106  15.624 -0.0113  0.0303  0.0868
    3MPD1     H14330   4.621   4.441  15.773 -3.4527  0.9802 -0.7649
    3MPD1    H114331   4.581   4.028  15.826  3.0492 -0.4405 -0.5184
    3MPD1    H214332   4.535   4.197  15.440 -0.4741 -0.1686  0.4431
    3MPD1    H314333   4.535   4.013  15.573 -0.0146  0.1746 -0.1742
    3MPD1     N14334   4.638   4.249  15.948  0.6996 -0.2959 -0.8678
    3MPD1    H514335   4.676   4.338  15.978 -0.4647 -0.7763  2.0660
    3MPD1    N114336   4.588   4.451  15.529 -0.0326 -0.0539 -0.3081
    3MPD1    H614337   4.603   4.428  15.431  2.8580  1.7967 -0.3043
    3MPD1    H714338   4.653   4.525  15.552  0.9358 -0.8853 -0.3749
    1TMC1    C114339   2.645   2.912  13.219 -0.8008 -0.1598 -0.7158
    1TMC1    C214340   2.712   2.801  13.257  0.2053 -0.7481  0.7250
    1TMC1    C314341   2.671   2.684  13.203  0.8991 -0.5465  0.1649
    1TMC1    C414342   2.557   2.910  13.112 -0.4172 -0.3066 -0.9580
    1TMC1    C514343   2.535   2.792  13.052 -0.2230  0.0707 -0.7500
    1TMC1    C614344   2.582   2.675  13.097 -0.5018  0.2446 -0.4498
    1TMC1     C14345   2.677   3.037  13.276  0.4326  0.0267  0.0042
    1TMC1     O14346   2.637   3.129  13.209 -0.3799 -0.3794 -0.3483
    1TMC1     H14347   2.784   2.803  13.338  2.0036 -0.1629 -0.8833
    1TMC1    H114348   2.485   2.992  13.108 -1.4993 -1.1255  1.8482
    1TMC1    H214349   2.568   2.583  13.041 -0.1321 -0.9709  1.4160
    1TMC1    C714350   2.417   2.783  12.964 -0.2313 -0.6302  0.4089
    1TMC1    C814351   2.749   2.562  13.232 -0.0806 -0.1240  0.5195
    1TMC1    O114352   2.365   2.673  12.952  0.1935 -0.0103  0.2423
    1TMC1    O214353   2.756   2.474  13.152 -0.0248  0.0317 -0.2360
    1TMC1    O314354   2.374   2.899  12.917 -0.5690  0.1459 -0.3779
    1TMC1    H314355   2.444   2.967  12.926 -0.2748 -0.1898 -0.1083
    1TMC1    O514356   2.801   2.571  13.358 -0.1256 -0.8411 -0.5628
    1TMC1    H514357   2.748   2.620  13.425 -2.4268 -1.5368 -1.8728
    2MPD2     C14358   2.733   3.274  13.431  0.3837 -0.1824 -0.8166
    2MPD2    C114359   2.785   3.155  13.465 -0.2428  0.5560 -0.5842
    2MPD2    C214360   2.874   3.144  13.567 -0.0575 -0.6211  0.8480
    2MPD2    C314361   2.917   3.260  13.637  0.1776  0.2410  0.3318
    2MPD2    C414362   2.865   3.381  13.606  0.6191 -0.7051  0.0194
    2MPD2    C514363   2.771   3.383  13.507 -0.0160 -0.6554  1.1234
    2MPD2     H14364   2.915   3.048  13.596 -0.8406 -1.5394 -1.0742
    2MPD2    H114365   2.891   3.468  13.665 -0.5163 -0.6282  0.4131
    2MPD2    H214366   2.646   3.282  13.367 -0.8957  1.9425  1.2005
    2MPD2    H314367   2.721   3.478  13.490 -0.4732 -1.4562 -1.9648
    2MPD2     N14368   3.013   3.243  13.746 -0.0001 -0.1087  0.3058
    2MPD2    H514369   3.055   3.151  13.756  0.2549 -0.1669 -1.2908
    2MPD2    N114370   2.754   3.039  13.391 -0.0464 -0.1141  0.1851
    2MPD2    H714371   2.797   2.955  13.430  3.0566  1.0165 -0.8391
    3TCq1    O114372   3.212   3.253  14.408 -0.2221  0.1587 -0.1113
    3TCq1    C114373   3.145   3.317  14.316 -0.2939  0.1059  0.1623
    3TCq1    O214374   3.082   3.422  14.339 -0.4976 -0.0478  0.0401
    3TCq1    C214375   3.169   3.268  14.185  0.3479  0.7839  0.3963
    3TCq1    C314376   3.261   3.161  14.157 -0.1124 -0.3668 -0.5026
    3TCq1    C414377   3.271   3.112  14.028 -0.4354  0.8990 -0.1280
    3TCq1    C514378   3.209   3.171  13.925  0.0413 -0.7854  0.1455
    3TCq1    C614379   3.122   3.275  13.955  0.5633  0.3081 -0.4043
    3TCq1    C714380   3.108   3.330  14.086 -0.1353 -0.3726 -0.3842
    3TCq1    C814381   3.040   3.332  13.848 -0.8060 -0.0998  0.0420
    3TCq1    O414382   2.972   3.423  13.876 -0.2931 -0.5191  0.5447
    3TCq1    C914383   3.349   2.992  13.998 -0.4859  0.5531 -0.6088
    3TCq1    O514384   3.418   2.949  14.096  0.2622 -0.4485  0.3907
    3TCq1    O614385   3.346   2.944  13.881  0.4573 -0.5496  0.8474
    3TCq1    H114386   3.206   3.158  14.386  0.5348  0.6917 -2.7156
    3TCq1    H214387   3.317   3.108  14.233 -0.3901  0.0199 -0.0269
    3TCq1    H314388   3.242   3.138  13.827 -2.2145  2.1700 -1.6188
    3TCq1    H414389   3.041   3.412  14.106 -2.3709 -1.8892 -1.7003
    1MPD2     C14390   2.285   3.624  15.273  0.7081  0.7687 -0.1083
    1MPD2    C114391   2.175   3.658  15.343  0.4520 -0.2052  0.0605
    1MPD2    C214392   2.115   3.562  15.423 -0.0281 -0.5739  1.1821
    1MPD2    C314393   2.150   3.431  15.424  0.6549  0.2616 -0.9258
    1MPD2    C414394   2.263   3.398  15.344  0.0913  0.5063  0.4886
    1MPD2    C514395   2.332   3.497  15.273 -0.4428  0.2480 -0.0529
    1MPD2     H14396   2.027   3.597  15.476 -0.7447 -1.3116  0.4802
    1MPD2    H114397   2.298   3.296  15.341 -2.8974 -0.4613 -1.4222
    1MPD2    H214398   2.343   3.704  15.228  4.0229 -1.3118  0.4996
    1MPD2    H314399   2.433   3.482  15.237 -0.4960 -2.3883  0.8469
    1MPD2     N14400   2.074   3.325  15.485  0.0256 -0.3959  0.5702
    1MPD2    H514401   2.109   3.230  15.482  2.2111  0.5399 -2.5274
    1MPD2    N114402   2.138   3.792  15.342 -0.9444 -0.1913  0.3648
    1MPD2    H714403   2.194   3.848  15.277  0.9530 -1.9285  0.5015
    2TMC3    C114404   2.034   3.993  15.407  0.3145  0.4704  0.2122
    2TMC3    C214405   1.978   4.050  15.518 -0.1230 -0.7319  0.0075
    2TMC3    C314406   1.855   4.114  15.509  0.6253 -0.1642  0.4842
    2TMC3    C414407   1.987   4.028  15.278  0.0372 -0.3538  0.2039
    2TMC3    C514408   1.864   4.089  15.279  0.6894 -0.2839 -0.3330
    2TMC3    C614409   1.793   4.130  15.389  0.3011 -0.2292 -0.9969
    2TMC3     C14410   2.063   3.855  15.440  0.1187 -0.2856 -0.3067
    2TMC3     O14411   2.020   3.811  15.546 -0.2252  1.0268 -0.8633
    2TMC3     H14412   2.026   4.038  15.614 -1.4890  1.2330  0.9571
    2TMC3    H114413   2.025   3.985  15.186 -0.8602 -0.5600 -0.0697
    2TMC3    H214414   1.686   4.149  15.381 -0.2055 -2.6001  0.0518
    2TMC3    C714415   1.788   4.080  15.152  0.1640  0.0629 -0.9027
    2TMC3    C814416   1.759   4.068  15.616 -0.1607 -0.1066  0.5591
    2TMC3    O114417   1.669   4.056  15.156 -0.1631  0.4697  0.3977
    2TMC3    O214418   1.659   4.140  15.628 -0.4702  0.2514  0.1823
    3TCq1    O114419   2.102   4.540  14.001 -0.1797  0.2365  0.2996
    3TCq1    C114420   2.023   4.550  14.111 -0.1022  0.3173  0.1844
    3TCq1    O214421   1.965   4.651  14.142 -0.2173 -0.0985  0.2779
    3TCq1    C214422   2.081   4.466  14.209 -0.6690  0.0620 -0.0086
    3TCq1    C314423   2.216   4.463  14.234  0.6452 -0.1281  0.0878
    3TCq1    C414424   2.252   4.367  14.327 -0.3907 -0.3870 -0.8411
    3TCq1    C514425   2.166   4.287  14.387  0.0267 -0.9682  0.3160
    3TCq1    C614426   2.030   4.310  14.368  0.8779 -0.2437 -0.7435
    3TCq1    C714427   1.990   4.385  14.267 -0.1662  0.1663  0.3831
    3TCq1    C814428   1.925   4.249  14.448 -0.5918 -0.0441  0.5545
    3TCq1    O414429   1.815   4.235  14.390  0.4797  0.3309  0.0501
    3TCq1    C914430   2.390   4.369  14.372  0.0956  0.1168 -0.1858
    3TCq1    O514431   2.461   4.466  14.334  0.3741 -0.4679  0.1634
    3TCq1    O614432   2.425   4.284  14.458 -0.2278  0.1838  0.0491
    3TCq1    H114433   2.142   4.451  13.990 -0.6403 -0.2218  2.3240
    3TCq1    H214434   2.288   4.519  14.176 -0.5058  1.1485 -0.1137
    3TCq1    H314435   2.202   4.216  14.461  2.5340 -0.1946 -0.1745
    3TCq1    H414436   1.890   4.397  14.228 -0.8983 -0.4630  2.0646
    4MPD2     C14437   1.740   4.118  14.648 -0.2766  0.4510 -0.7518
    4MPD2    C114438   1.866   4.168  14.678 -0.6554  0.2357  0.0480
    4MPD2    C214439   1.901   4.162  14.813 -0.0158 -0.6324 -0.0632
    4MPD2    C314440   1.821   4.109  14.902 -0.5869 -0.2093 -0.9214
    4MPD2    C414441   1.696   4.057  14.874 -1.0350  0.2454 -0.3207
    4MPD2    C514442   1.660   4.057  14.744 -0.2813  0.1566 -0.5140
    4MPD2     H14443   2.000   4.194  14.844  0.5021 -3.1319  0.8348
    4MPD2    H114444   1.631   4.007  14.945 -3.3268  0.0289 -2.5711
    4MPD2    H214445   1.697   4.120  14.548 -1.4399 -1.0033 -0.2796
    4MPD2    H314446   1.564   4.011  14.721  0.5686 -0.8335 -2.0661
    4MPD2     N14447   1.862   4.101  15.038 -0.3358 -0.4384  0.4867
    4MPD2    H514448   1.960   4.127  15.043 -0.0134 -1.5915  0.2317
    4MPD2    N114449   1.956   4.224  14.578 -0.4753 -0.7295 -0.4637
    4MPD2    H714450   2.045   4.259  14.614  1.0412 -1.4849 -3.5167
    5TMC2    C114451   1.698   3.268  15.766  0.2110  0.2959 -0.2881
    5TMC2    C214452   1.755   3.190  15.858 -0.3700 -0.5011  0.1303
    5TMC2    C314453   1.881   3.144  15.819  0.0747 -1.0121 -0.1370
    5TMC2    C414454   1.750   3.279  15.641  0.0236 -0.7604 -0.3342
    5TMC2    C514455   1.879   3.237  15.608 -0.3357  0.1024 -0.4818
    5TMC2    C614456   1.948   3.163  15.700  0.3380  0.4050 -0.1496
    5TMC2     C14457   1.643   3.384  15.811 -0.5435 -0.1394 -0.1093
    5TMC2     O14458   1.561   3.372  15.905 -0.1376  0.6724  0.1576
    5TMC2     H14459   1.705   3.176  15.953 -1.1081  0.2679 -0.1410
    5TMC2    H114460   1.687   3.327  15.567  1.3434  2.6332  0.7341
    5TMC2    H214461   2.048   3.122  15.698 -0.4038 -1.4241 -0.3821
    5TMC2    C714462   1.948   3.345  15.538 -0.2984  0.2912  1.0250
    5TMC2    C814463   1.942   3.033  15.883 -0.5318  0.2722 -0.2186
    5TMC2    O114464   1.883   3.451  15.547 -0.4679  0.5874 -0.5088
    5TMC2    O214465   1.987   2.942  15.818  0.2720  0.1113 -0.3148
    5TMC2    O514466   1.929   3.058  16.014  0.5782  0.2086 -0.0829
    5TMC2    H514467   1.908   3.152  16.033 -1.2741 -0.2396  0.1122
    6MPD2     C14468   1.600   3.900  15.803  0.5044  0.3625  0.1493
    6MPD2    C114469   1.713   3.856  15.733 -0.5260  1.1449  0.9131
    6MPD2    C214470   1.733   3.725  15.714  0.9421  0.0397 -0.3861
    6MPD2    C314471   1.652   3.624  15.763 -0.2509  0.4957 -0.1624
    6MPD2    C414472   1.536   3.663  15.829  0.1953  0.5571 -0.6770
    6MPD2    C514473   1.516   3.799  15.843  0.2664 -0.0594  0.1647
    6MPD2     H14474   1.820   3.694  15.657  2.4753 -0.3080  2.1283
    6MPD2    H114475   1.456   3.601  15.867  0.4159 -0.1240 -1.3265
    6MPD2    H214476   1.569   4.003  15.809  0.6284  0.3861  0.3744
    6MPD2    H314477   1.421   3.828  15.885 -0.3558 -1.3606 -0.3219
    6MPD2     N14478   1.695   3.494  15.746 -0.0468  0.4169  0.2224
    6MPD2    H514479   1.774   3.481  15.683 -1.3679  0.5558 -1.4825
    6MPD2    N114480   1.795   3.942  15.663 -0.0647 -0.1929  0.0248
    6MPD2    H714481   1.880   3.900  15.627 -0.2297 -1.8703  1.6048
  945NH3     N114482   3.278   0.938   7.543 -0.0889 -1.1780  0.9381
  945NH3     H214483   3.304   1.032   7.516 -0.2275 -1.7395 -1.1036
  945NH3     H314484   3.367   0.892   7.559  0.8709 -0.3558 -2.0605
  945NH3     H414485   3.244   0.948   7.638 -1.1490  1.6474  0.2680
  946SOD     NA14486   1.512   2.001  15.313  0.6885 -0.0140 -0.4078
  947SOD     NA14487   3.707   3.200  12.992 -0.0852  0.0407  0.5263
  948SOD     NA14488   3.117   0.553   7.320  0.0096 -0.2478 -0.2151
  949SOD     NA14489   3.322   4.123   5.817 -0.4983  0.5891 -0.4612
  950SOD     NA14490   0.418   2.159   8.822 -0.1437  0.3971  0.1422
  951SOD     NA14491   4.509   3.561   9.203  0.1069 -0.1259 -0.2136
  952SOD     NA14492   1.402   1.688  16.643 -0.1775  0.4384  0.1465
  953SOD     NA14493   2.650   1.602  16.680  0.5843  0.3556  0.1206
  954SOL     OW14494   2.659   3.325   1.741  0.2446 -0.0916 -0.1931
  954SOL    HW114495   2.573   3.293   1.713 -0.4697  3.4170 -1.9912
  954SOL    HW214496   2.715   3.248   1.746  1.6398  0.8999 -0.6849
  955SOL     OW14497   3.673   0.366   5.972 -0.3679 -0.2644 -0.4949
  955SOL    HW114498   3.630   0.427   5.913 -0.0244  0.8814  0.4408
  955SOL    HW214499   3.610   0.342   6.040  0.9574  0.8744  1.1251
  956SOL     OW14500   3.553   3.949   6.715  0.1921  0.2713 -0.4433
  956SOL    HW114501   3.532   4.034   6.675  1.3554  0.0990 -1.3896
  956SOL    HW214502   3.647   3.949   6.733  0.4077 -0.6529 -1.6022
  957SOL     OW14503   2.188   3.309   2.862  0.0459 -0.1802 -0.4902
  957SOL    HW114504   2.145   3.374   2.807  2.5906 -0.4230 -2.7959
  957SOL    HW214505   2.230   3.370   2.923  0.9530 -1.4162  0.1193
  958SOL     OW14506   3.466   3.461   7.219  0.1154 -0.1749  0.4467
  958SOL    HW114507   3.413   3.392   7.258 -1.2591  0.2578 -0.6479
  958SOL    HW214508   3.407   3.509   7.161  0.1252  1.3173  1.6591
  959SOL     OW14509   1.473   1.745   3.033  0.5538 -0.5648 -0.0188
  959SOL    HW114510   1.445   1.692   2.958  1.2141  0.4054 -0.9421
  959SOL    HW214511   1.545   1.693   3.068  2.8873  2.1006 -0.8833
  960SOL     OW14512   4.245   3.978   4.217  0.6766 -0.3161 -0.3337
  960SOL    HW114513   4.156   3.999   4.187  0.7675  0.3727 -0.1118
  960SOL    HW214514   4.296   4.056   4.198  0.3101  0.3881  1.5654
  961SOL     OW14515   1.345   1.929   8.647 -0.2799  0.2045 -0.0092
  961SOL    HW114516   1.327   1.983   8.724 -1.9359 -2.2603  1.3325
  961SOL    HW214517   1.345   1.996   8.579 -2.8479  0.0693 -0.1401
  962SOL     OW14518   1.659   1.781   6.412  0.1567  0.3935  0.1993
  962SOL    HW114519   1.751   1.779   6.385  0.5383 -0.1091  1.5439
  962SOL    HW214520   1.633   1.692   6.391  1.9401 -0.0819 -0.0118
  963SOL     OW14521   4.503   3.921   0.598  0.3554  0.0455  0.6187
  963SOL    HW114522   4.451   3.988   0.642  0.1176  0.9872 -1.1001
  963SOL    HW214523   4.535   3.966   0.521  1.2275 -2.7925 -0.7032
  964SOL     OW14524   0.257   0.761  15.533 -0.2840 -0.0069  0.0836
  964SOL    HW114525   0.191   0.830  15.526 -0.2824  0.1325  1.3117
  964SOL    HW214526   0.302   0.780  15.451  1.7794  0.2741  1.3019
  965SOL     OW14527   3.071   2.651   1.171 -0.0038 -0.8239  0.0144
  965SOL    HW114528   3.157   2.640   1.212 -0.7585  0.0223  1.8242
  965SOL    HW214529   3.036   2.727   1.218  0.5440  0.1262 -1.1121
  966SOL     OW14530   1.169   0.631   1.600 -0.5145 -0.2092 -0.0424
  966SOL    HW114531   1.239   0.640   1.535 -0.7689  2.7860  0.0818
  966SOL    HW214532   1.097   0.665   1.547 -1.3573 -1.2499  0.4310
  967SOL     OW14533   1.471   3.795   1.242 -0.7977  0.4680 -0.1136
  967SOL    HW114534   1.381   3.826   1.254 -0.6127  0.2057  1.9829
  967SOL    HW214535   1.516   3.870   1.281 -1.2951 -0.3615  2.0542
  968SOL     OW14536   0.862   0.650   1.650 -0.4643  0.2068 -0.2517
  968SOL    HW114537   0.925   0.617   1.715  0.1777  0.6468 -0.6520
  968SOL    HW214538   0.812   0.716   1.698  1.4454  0.9058  0.7653
  969SOL     OW14539   1.900   0.587   6.243  0.5791  0.5990  0.3230
  969SOL    HW114540   1.913   0.645   6.318  1.4054 -0.3522  0.9154
  969SOL    HW214541   1.992   0.584   6.215  0.2391  0.3249 -0.7699
  970SOL     OW14542   0.082   4.055  17.449  0.3517 -0.0934 -0.1679
  970SOL    HW114543   0.031   4.121  17.401 -2.5194 -1.2857  1.2745
  970SOL    HW214544   0.060   3.970  17.412  0.9766 -0.9081  1.3580
  971SOL     OW14545   2.827   0.296   3.837 -0.0432 -0.2021 -0.3642
  971SOL    HW114546   2.833   0.279   3.743  0.8672 -1.4377 -0.0807
  971SOL    HW214547   2.761   0.228   3.849  0.9539 -1.4006 -1.7874
  972SOL     OW14548   4.144   2.031   8.910 -0.4376  0.2339 -0.0684
  972SOL    HW114549   4.068   2.048   8.966 -1.3145  1.3219 -1.5630
  972SOL    HW214550   4.182   2.119   8.907  1.3026 -0.5159 -0.0926
  973SOL     OW14551   2.459   4.510  10.069 -0.2179  0.8840  0.9443
  973SOL    HW114552   2.364   4.495  10.070 -0.0072 -0.5974 -0.6686
  973SOL    HW214553   2.473   4.554  10.153 -1.0860  0.9625  1.0528
  974SOL     OW14554   0.412   0.257   2.875  0.1723  0.1497 -0.3743
  974SOL    HW114555   0.471   0.191   2.910 -0.6873 -0.2119  0.3893
  974SOL    HW214556   0.347   0.250   2.945  1.1326 -0.8756  0.4033
  975SOL     OW14557   1.577   0.859   2.826  0.4041 -0.4439 -0.3012
  975SOL    HW114558   1.633   0.819   2.892  0.4989 -0.7906 -0.5917
  975SOL    HW214559   1.643   0.873   2.758  1.7787 -1.1975  0.8684
  976SOL     OW14560   1.366   0.522   7.753  0.5829 -0.1589 -0.1478
  976SOL    HW114561   1.442   0.530   7.810  2.1683 -1.7001 -2.0557
  976SOL    HW214562   1.316   0.452   7.795 -1.1948  1.5489  0.5808
  977SOL     OW14563   2.816   2.968   2.478 -0.2805  0.8285 -0.7075
  977SOL    HW114564   2.896   3.017   2.463 -0.9575  2.3900  0.7381
  977SOL    HW214565   2.802   2.936   2.389  0.8160  1.0755 -0.9649
  978SOL     OW14566   4.716   2.620   3.757 -0.3861 -0.3481  0.6496
  978SOL    HW114567   0.018   2.688   3.810 -1.9607  2.0196 -1.2285
  978SOL    HW214568   0.039   2.549   3.779  0.9529  0.8883  0.8771
  979SOL     OW14569   1.243   3.713   0.217 -0.3276  0.3155 -0.5976
  979SOL    HW114570   1.173   3.657   0.182 -0.5937  0.6652 -0.6274
  979SOL    HW214571   1.202   3.799   0.206 -1.0013  0.2688  1.5216
  980SOL     OW14572   1.839   2.557   4.166  0.4170 -0.1167 -0.2379
  980SOL    HW114573   1.927   2.532   4.194  0.6548  1.1188  0.1251
  980SOL    HW214574   1.851   2.651   4.154  0.8571 -0.0620  0.6259
  981SOL     OW14575   3.967   1.645   2.540 -0.1374  0.0070 -0.5286
  981SOL    HW114576   3.980   1.573   2.601  0.7298 -0.9270 -1.8014
  981SOL    HW214577   3.946   1.601   2.457 -0.8981  0.0975 -0.3769
  982SOL     OW14578   0.505   2.144   1.554 -0.5382 -0.7839 -0.3165
  982SOL    HW114579   0.527   2.226   1.599 -0.2332 -0.3628 -1.2475
  982SOL    HW214580   0.590   2.114   1.523 -0.8056  0.2988 -2.0827
  983SOL     OW14581   3.825   1.581   9.994 -0.2011  0.2597 -0.1473
  983SOL    HW114582   3.810   1.668  10.029 -0.2603  0.9791 -1.9544
  983SOL    HW214583   3.811   1.523  10.069 -0.5049  0.2809 -0.1887
  984SOL     OW14584   0.420   3.359  16.290  1.0054 -0.8381  0.1315
  984SOL    HW114585   0.340   3.399  16.255  2.7850  1.4634 -1.3059
  984SOL    HW214586   0.433   3.399  16.376  0.4548 -0.1482 -0.1069
  985SOL     OW14587   2.506   0.459   3.004  0.5293  0.1859 -0.2060
  985SOL    HW114588   2.481   0.405   3.079  1.1492  0.7168  0.3867
  985SOL    HW214589   2.583   0.505   3.039 -0.4432 -0.7029  3.0511
  986SOL     OW14590   4.151   4.621   9.441  0.2450 -0.4465  0.6698
  986SOL    HW114591   4.130   4.580   9.357 -0.4879  1.4296 -0.0758
  986SOL    HW214592   4.119   4.564   9.511 -2.0278 -2.0700 -1.6623
  987SOL     OW14593   3.365   1.644   2.629  0.7520  0.2510 -0.0621
  987SOL    HW114594   3.458   1.635   2.611  0.4527  0.2166 -1.5904
  987SOL    HW214595   3.323   1.575   2.578  1.1270 -0.2879  0.3656
  988SOL     OW14596   1.285   0.438  13.037  1.1359 -0.2616  0.3556
  988SOL    HW114597   1.346   0.365  13.026  2.2830  0.5322  1.5208
  988SOL    HW214598   1.292   0.441  13.132 -3.3085  0.7180  0.6565
  989SOL     OW14599   0.311   0.842   2.324 -0.2776  0.8402  0.4804
  989SOL    HW114600   0.292   0.795   2.406 -0.0789 -0.3460 -0.1500
  989SOL    HW214601   0.273   0.771   2.272  0.2717  1.0384 -0.1843
  990SOL     OW14602   0.740   3.897   5.231  0.1267 -0.0211  0.3782
  990SOL    HW114603   0.753   3.807   5.201 -0.6261  0.8791 -2.6449
  990SOL    HW214604   0.735   3.875   5.324  2.6869  0.9645  0.7692
  991SOL     OW14605   2.034   1.102   6.446 -0.5673 -0.2646 -0.6895
  991SOL    HW114606   1.995   1.131   6.529 -0.4268  0.4576 -0.8758
  991SOL    HW214607   2.117   1.059   6.467 -0.9159  0.2162  1.7455
  992SOL     OW14608   1.544   3.946   3.719 -0.1088 -1.1065 -0.2206
  992SOL    HW114609   1.501   3.861   3.725  0.3610 -1.4222 -1.4357
  992SOL    HW214610   1.495   3.991   3.788  0.2071 -2.5722  0.9526
  993SOL     OW14611   0.087   3.183  11.190 -0.0679 -0.6327  0.1500
  993SOL    HW114612   0.044   3.236  11.257  0.3846  1.4834 -1.2123
  993SOL    HW214613   0.174   3.164  11.225  0.5976  2.1418  0.0193
  994SOL     OW14614   1.396   4.197   0.690  0.2528  0.0289 -0.1751
  994SOL    HW114615   1.350   4.211   0.607 -1.1512 -1.2642  0.3931
  994SOL    HW214616   1.319   4.209   0.746  0.3539  2.0042 -0.4468
  995SOL     OW14617   4.694   3.417   8.413  0.4774  0.0537 -0.1534
  995SOL    HW114618   4.708   3.399   8.320  0.5743 -2.7968  0.4194
  995SOL    HW214619   0.008   3.348   8.454 -0.4945 -1.0656 -0.7917
  996SOL     OW14620   3.188   0.543   3.215  0.0601 -0.1840 -0.3591
  996SOL    HW114621   3.170   0.631   3.248  2.7438  0.5036 -0.7696
  996SOL    HW214622   3.165   0.487   3.289  0.7651 -0.7110 -0.5408
  997SOL     OW14623   0.219   1.187   8.433  0.7871  0.5102  0.5078
  997SOL    HW114624   0.216   1.199   8.338  1.1072  2.1906  0.7128
  997SOL    HW214625   0.203   1.273   8.471 -0.1342  1.4236 -2.0181
  998SOL     OW14626   4.295   0.010   4.313 -0.0458 -0.8484  0.0872
  998SOL    HW114627   4.289   0.092   4.362 -1.5177  0.8847 -2.9636
  998SOL    HW214628   4.370   4.699   4.348 -0.6492 -1.1282  0.9866
  999SOL     OW14629   2.722   3.196   6.697  0.1907  0.0730  0.3947
  999SOL    HW114630   2.732   3.111   6.739  1.3888  0.5069  1.0001
  999SOL    HW214631   2.671   3.241   6.765  0.4113  0.1145  0.5341
 1000SOL     OW14632   1.535   4.487  15.757  0.2968  0.1981 -0.4583
 1000SOL    HW114633   1.516   4.403  15.798  1.7264  0.4605  0.7530
 1000SOL    HW214634   1.531   4.462  15.665 -0.8268  0.6321 -0.5259
 1001SOL     OW14635   2.269   0.261   8.926  0.0933 -0.3113 -0.3053
 1001SOL    HW114636   2.341   0.318   8.953  1.9855 -1.3397 -3.1802
 1001SOL    HW214637   2.257   0.203   9.001 -1.9877 -0.0509 -0.4292
 1002SOL     OW14638   1.911   0.645   8.582  0.2474 -0.2840 -0.2576
 1002SOL    HW114639   1.843   0.580   8.600 -0.1171 -0.4473 -2.1347
 1002SOL    HW214640   1.960   0.599   8.514  0.0399 -1.9020  0.6977
 1003SOL     OW14641   3.187   2.278   1.913  0.2321 -0.1341  0.1057
 1003SOL    HW114642   3.194   2.242   2.002  0.6498  1.2524  0.6367
 1003SOL    HW214643   3.223   2.203   1.864 -2.1477  0.7476 -2.9808
 1004SOL     OW14644   2.381   0.550   2.026 -0.1114 -0.4345  0.1856
 1004SOL    HW114645   2.357   0.486   2.093  0.6984 -1.2700 -0.3101
 1004SOL    HW214646   2.407   0.487   1.959  1.8871  1.1179 -0.5239
 1005SOL     OW14647   1.545   3.107   5.840 -0.1463  0.1601  0.4615
 1005SOL    HW114648   1.616   3.144   5.788 -1.4635  2.1245  0.0612
 1005SOL    HW214649   1.590   3.027   5.867  2.3720  1.2707 -0.4768
 1006SOL     OW14650   4.632   2.493   2.757  0.5431 -0.1089  0.3730
 1006SOL    HW114651   4.613   2.432   2.686 -1.0002  0.7642  0.0264
 1006SOL    HW214652   4.543   2.492   2.794  0.0322 -0.9243 -0.8762
 1007SOL     OW14653   4.249   1.769   8.340  0.5124 -0.0115  0.3481
 1007SOL    HW114654   4.287   1.681   8.345 -2.3678 -1.2413  0.3272
 1007SOL    HW214655   4.311   1.826   8.295 -2.3167  2.3493 -0.5012
 1008SOL     OW14656   4.204   1.197   3.205 -0.7573  0.4528  0.3478
 1008SOL    HW114657   4.144   1.246   3.262 -1.4286 -1.7497  1.5635
 1008SOL    HW214658   4.186   1.235   3.119 -1.1631 -2.4517 -0.8739
 1009SOL     OW14659   4.630   3.876   6.927 -0.5519  0.6402 -0.1812
 1009SOL    HW114660   4.589   3.872   6.841  0.4626  0.1680 -0.6460
 1009SOL    HW214661   4.668   3.964   6.933 -0.0512  0.2636  2.2370
 1010SOL     OW14662   3.350   4.447   9.366 -0.7917  0.3000 -0.2557
 1010SOL    HW114663   3.258   4.428   9.344 -0.2524 -1.2297 -1.1872
 1010SOL    HW214664   3.342   4.514   9.434  3.5612 -1.3006  1.8081
 1011SOL     OW14665   1.125   4.456   6.863 -0.3018  0.6506 -0.4096
 1011SOL    HW114666   1.143   4.534   6.916 -0.6887 -0.3580  1.2288
 1011SOL    HW214667   1.151   4.479   6.774 -0.0428  2.2916  0.0839
 1012SOL     OW14668   2.012   4.420   3.692  0.3892  0.8018  0.7160
 1012SOL    HW114669   2.002   4.470   3.773 -3.2347  0.0417  0.7253
 1012SOL    HW214670   1.996   4.485   3.623  3.6957 -1.1928 -1.9348
 1013SOL     OW14671   1.841   1.947   5.574  0.2344 -0.4485  0.1803
 1013SOL    HW114672   1.778   1.979   5.509 -1.3311  0.3658  2.1162
 1013SOL    HW214673   1.780   1.924   5.644  0.2502 -2.5748 -0.5011
 1014SOL     OW14674   1.199   0.579   3.085  0.0974  0.4723 -0.6057
 1014SOL    HW114675   1.277   0.590   3.031 -0.2899  0.3636 -1.1897
 1014SOL    HW214676   1.151   0.658   3.058  0.4388  0.3109 -1.6746
 1015SOL     OW14677   3.060   2.974  17.291 -0.3827  0.7068 -0.2728
 1015SOL    HW114678   3.135   2.954  17.346 -0.4526  0.0775 -0.4134
 1015SOL    HW214679   3.023   3.053  17.331 -1.1217  0.5670 -0.6632
 1016SOL     OW14680   1.097   4.039   6.788  0.2599 -0.1745  0.3608
 1016SOL    HW114681   1.059   4.123   6.813  0.9324  0.5217 -0.9560
 1016SOL    HW214682   1.186   4.068   6.767  0.2175  1.0358  1.7776
 1017SOL     OW14683   1.063   3.095  10.662 -0.3917  0.3989 -0.2651
 1017SOL    HW114684   1.131   3.162  10.659  0.1789 -0.1961 -0.4988
 1017SOL    HW214685   1.064   3.083  10.757 -0.8250  0.5312 -0.2427
 1018SOL     OW14686   2.157   0.223  15.418 -0.1216 -0.2972  0.4506
 1018SOL    HW114687   2.168   0.159  15.488 -1.6133 -1.7237 -0.6578
 1018SOL    HW214688   2.219   0.184  15.357 -0.1631  1.4210 -0.7020
 1019SOL     OW14689   1.849   2.781   9.726  0.4051  0.7541  0.2001
 1019SOL    HW114690   1.800   2.765   9.646  1.3341  1.7298 -0.5674
 1019SOL    HW214691   1.850   2.877   9.721 -0.6766  0.7484 -0.0818
 1020SOL     OW14692   4.065   1.951   2.874 -0.0459  0.0214  0.1984
 1020SOL    HW114693   3.973   1.952   2.900 -0.5567  0.8147 -1.7066
 1020SOL    HW214694   4.088   1.871   2.923 -0.8269 -0.5195 -0.3360
 1021SOL     OW14695   3.772   2.410   5.496 -0.3006  0.3434 -0.6573
 1021SOL    HW114696   3.693   2.456   5.466  0.4371  1.2199 -1.2509
 1021SOL    HW214697   3.746   2.319   5.504  1.4101 -0.1728 -0.9323
 1022SOL     OW14698   1.905   1.333   2.047 -0.3183  0.2088  0.2124
 1022SOL    HW114699   1.971   1.327   1.978 -1.1623 -1.0701 -0.4803
 1022SOL    HW214700   1.965   1.309   2.117  0.8694 -2.2217 -1.6368
 1023SOL     OW14701   3.110   0.971   7.833  0.0795 -0.0164  0.2734
 1023SOL    HW114702   3.115   0.877   7.846  0.4910  0.0337  0.4607
 1023SOL    HW214703   3.058   0.981   7.752  1.5916 -4.1011 -1.2049
 1024SOL     OW14704   1.675   1.299   9.308 -0.2736 -0.5859  0.2066
 1024SOL    HW114705   1.588   1.338   9.304  0.2441  0.4580 -1.0738
 1024SOL    HW214706   1.732   1.375   9.307 -0.0628 -0.7727 -1.6424
 1025SOL     OW14707   2.696   4.086   8.473 -0.2727  0.3599  0.1622
 1025SOL    HW114708   2.645   4.145   8.417  0.0373  0.2524 -0.2308
 1025SOL    HW214709   2.632   4.066   8.542 -1.4997  2.7054 -0.2933
 1026SOL     OW14710   1.143   2.158   1.398  0.3283 -0.1562 -0.3501
 1026SOL    HW114711   1.205   2.128   1.332  2.0574  4.8496 -1.0582
 1026SOL    HW214712   1.055   2.133   1.369  0.4224  1.8183 -2.3670
 1027SOL     OW14713   0.864   0.035   7.367 -0.0219  0.0140  0.0360
 1027SOL    HW114714   0.834   0.119   7.401 -1.3080 -0.7588  0.8072
 1027SOL    HW214715   0.956   0.054   7.389 -0.6517  0.1354  2.5654
 1028SOL     OW14716   1.321   3.697   4.146 -0.5510 -0.0063  0.0034
 1028SOL    HW114717   1.240   3.648   4.150  0.1948 -1.4840 -3.0300
 1028SOL    HW214718   1.374   3.620   4.168  1.9410  1.3396 -1.2036
 1029SOL     OW14719   3.868   0.483   6.826  0.9789  0.0960  0.2819
 1029SOL    HW114720   3.919   0.469   6.746  0.1650  1.1801 -0.4168
 1029SOL    HW214721   3.781   0.505   6.795  0.6171 -2.2119 -0.3759
 1030SOL     OW14722   4.525   1.755   4.726 -0.0521 -0.0627 -0.4346
 1030SOL    HW114723   4.503   1.699   4.801  0.3714  1.3063  0.7152
 1030SOL    HW214724   4.445   1.808   4.721 -0.9525 -1.3450  0.4508
 1031SOL     OW14725   0.118   0.689   9.909  0.1294  0.2459 -0.5926
 1031SOL    HW114726   0.191   0.637   9.875 -0.0062 -0.9626  0.9861
 1031SOL    HW214727   0.066   0.711   9.831 -0.4012  0.7024 -0.1162
 1032SOL     OW14728   0.525   0.146   8.071  0.2623  0.2713 -0.2815
 1032SOL    HW114729   0.604   0.092   8.067  0.4229  0.5051 -0.2573
 1032SOL    HW214730   0.521   0.178   7.981  1.6208  0.5803 -0.2344
 1033SOL     OW14731   0.858   2.771   4.196 -0.1271  0.2199 -0.0551
 1033SOL    HW114732   0.833   2.723   4.275 -1.1970  2.2912  0.8375
 1033SOL    HW214733   0.772   2.781   4.156 -0.2186  1.0094  0.3431
 1034SOL     OW14734   3.840   3.127   3.629 -0.0328 -0.4525  0.2660
 1034SOL    HW114735   3.882   3.130   3.716  1.6421 -0.9169 -0.5243
 1034SOL    HW214736   3.830   3.219   3.603 -0.7335 -0.7037 -0.3415
 1035SOL     OW14737   3.076   0.539  15.648  0.0164 -0.1323  0.0648
 1035SOL    HW114738   3.144   0.572  15.589  1.0945 -0.1641  1.2953
 1035SOL    HW214739   3.005   0.505  15.594 -0.6684 -1.7650  2.0026
 1036SOL     OW14740   1.022   2.497   7.112 -0.4407  0.5042  0.1141
 1036SOL    HW114741   0.987   2.509   7.201  0.4505 -1.1607  0.6762
 1036SOL    HW214742   0.995   2.581   7.074  0.6289  0.4771 -0.6932
 1037SOL     OW14743   0.645   1.561   2.557 -0.1875 -0.2939  0.3099
 1037SOL    HW114744   0.565   1.608   2.534 -0.6697  0.0561  2.7597
 1037SOL    HW214745   0.680   1.529   2.473 -0.3671 -0.1599  0.1836
 1038SOL     OW14746   3.769   1.334   5.507  0.0038  0.4767 -0.2928
 1038SOL    HW114747   3.728   1.247   5.504  1.1244  0.0725 -4.2476
 1038SOL    HW214748   3.712   1.392   5.557 -2.2136 -0.5103 -1.6443
 1039SOL     OW14749   4.411   1.168   8.618  0.6625  0.4235 -0.2019
 1039SOL    HW114750   4.439   1.094   8.671 -0.6747 -0.7423 -1.1453
 1039SOL    HW214751   4.339   1.125   8.573 -0.5622 -0.6528  2.7956
 1040SOL     OW14752   1.124   3.239   2.085 -0.0336 -0.2163 -0.5670
 1040SOL    HW114753   1.174   3.217   2.006  0.3061  0.1858 -0.4617
 1040SOL    HW214754   1.038   3.202   2.065 -0.1069 -1.0942  1.4036
 1041SOL     OW14755   1.142   0.154  13.139  0.1860 -0.5313 -0.4060
 1041SOL    HW114756   1.220   0.173  13.086 -1.2575  1.5026 -1.8533
 1041SOL    HW214757   1.177   0.071  13.171  3.1435  0.7343 -0.3173
 1042SOL     OW14758   3.343   4.223   6.289 -0.6272  0.1358  0.4015
 1042SOL    HW114759   3.370   4.309   6.255 -2.0183  0.3411 -0.1651
 1042SOL    HW214760   3.319   4.260   6.374 -1.2251  1.9496 -0.5601
 1043SOL     OW14761   0.111   0.288   8.487  0.0118 -0.0234 -0.2168
 1043SOL    HW114762   0.201   0.297   8.456  0.0605  1.8816  0.4766
 1043SOL    HW214763   0.130   0.253   8.574  0.3419  0.8854  0.0772
 1044SOL     OW14764   1.466   0.577   2.979 -0.1000  0.3330  0.1949
 1044SOL    HW114765   1.543   0.629   2.958 -0.3641  0.9937  0.8774
 1044SOL    HW214766   1.506   0.493   3.001  3.2529  1.8788  0.0034
 1045SOL     OW14767   4.510   1.844   5.119 -0.0783 -0.0434  0.0155
 1045SOL    HW114768   4.469   1.774   5.068  1.7494 -2.2134  1.5580
 1045SOL    HW214769   4.436   1.905   5.114  0.7196  0.7411 -2.4015
 1046SOL     OW14770   3.010   4.224   7.432 -0.2459  0.4896  0.2117
 1046SOL    HW114771   2.945   4.234   7.363 -0.0995  3.2703  0.4618
 1046SOL    HW214772   2.991   4.305   7.480 -2.7004 -0.8301  1.4296
 1047SOL     OW14773   1.767   1.288   5.028 -0.2807  0.2227  0.1975
 1047SOL    HW114774   1.747   1.382   5.028 -1.3672 -0.0210  0.9806
 1047SOL    HW214775   1.851   1.300   4.983 -0.5446  0.3949 -0.2490
 1048SOL     OW14776   4.224   3.253   4.821  0.1749 -0.3259 -0.4771
 1048SOL    HW114777   4.205   3.210   4.905 -3.3708  0.3393 -0.9512
 1048SOL    HW214778   4.135   3.266   4.790  0.8792 -0.3955 -2.5097
 1049SOL     OW14779   4.635   3.650   7.308 -0.2435 -0.1562  0.0585
 1049SOL    HW114780   4.586   3.727   7.336 -0.7185  0.2452 -1.9105
 1049SOL    HW214781   4.718   3.663   7.354  0.2088 -1.4187 -0.3997
 1050SOL     OW14782   4.223   0.512   5.434 -0.0323 -0.0214  0.1415
 1050SOL    HW114783   4.276   0.518   5.513 -1.5745  0.0049  1.1814
 1050SOL    HW214784   4.137   0.543   5.463  0.9610  3.1109 -0.2427
 1051SOL     OW14785   0.823   4.363   1.590 -0.0852  0.4491  0.1763
 1051SOL    HW114786   0.762   4.290   1.576 -0.9865  1.2194  0.0857
 1051SOL    HW214787   0.868   4.363   1.506  0.0671  0.7417  0.2580
 1052SOL     OW14788   3.346   1.645   6.952  0.2227  0.6322  0.1819
 1052SOL    HW114789   3.326   1.699   7.029  3.0557 -0.5585  1.7288
 1052SOL    HW214790   3.406   1.583   6.993 -1.9098 -0.5369  1.4978
 1053SOL     OW14791   0.123   1.367   5.108 -0.2562  0.4622  0.2758
 1053SOL    HW114792   0.209   1.380   5.148  0.3124  1.8460 -1.4162
 1053SOL    HW214793   0.113   1.428   5.036 -1.1284  0.6163  0.5266
 1054SOL     OW14794   0.958   2.997   7.167 -0.2673  0.1395 -0.3837
 1054SOL    HW114795   1.031   3.004   7.105  1.7819  1.2920  2.1823
 1054SOL    HW214796   0.901   3.070   7.147  0.8109  1.7160  2.3869
 1055SOL     OW14797   1.800   2.879   2.818 -0.0423  0.7920 -0.3963
 1055SOL    HW114798   1.779   2.844   2.905  1.0044 -0.6851 -0.7308
 1055SOL    HW214799   1.812   2.972   2.835  3.5344  0.0793  1.1731
 1056SOL     OW14800   1.982   4.682   8.903  0.1201  0.5770  0.0689
 1056SOL    HW114801   2.016   4.664   8.815  1.9205  1.3513  0.6024
 1056SOL    HW214802   2.061   4.650   8.945  0.5332 -1.3447 -2.1382
 1057SOL     OW14803   1.973   2.242   0.374 -0.3844 -0.5403 -0.1068
 1057SOL    HW114804   2.001   2.329   0.403 -1.1272 -0.2655 -0.2179
 1057SOL    HW214805   1.882   2.261   0.352 -1.0329 -1.8506  1.4394
 1058SOL     OW14806   3.945   2.084   8.280  0.1734 -0.6046 -0.0159
 1058SOL    HW114807   3.888   2.145   8.328  0.1256  0.2587 -1.1648
 1058SOL    HW214808   3.989   2.039   8.352 -2.7359  1.2168  2.9013
 1059SOL     OW14809   1.621   0.611   9.675 -0.2784  0.4550 -0.1055
 1059SOL    HW114810   1.715   0.604   9.656 -0.2632 -0.2561  0.2259
 1059SOL    HW214811   1.602   0.518   9.687 -1.6646  0.9143  1.2358
 1060SOL     OW14812   4.056   1.229   6.775 -0.6151  0.6276 -0.5181
 1060SOL    HW114813   3.970   1.221   6.817 -0.8867 -2.4405 -1.6626
 1060SOL    HW214814   4.111   1.184   6.838 -0.1287  1.3946 -0.3835
 1061SOL     OW14815   3.333   1.116   8.520 -0.1532  0.1479  0.1945
 1061SOL    HW114816   3.316   1.050   8.587  0.9111 -0.9937 -0.6476
 1061SOL    HW214817   3.273   1.184   8.552 -0.1836 -0.3352  1.1527
 1062SOL     OW14818   3.987   1.194   2.995 -0.7224 -0.0287  0.1059
 1062SOL    HW114819   3.931   1.270   2.980  0.6634  0.8907 -0.3463
 1062SOL    HW214820   4.042   1.186   2.918  0.2448 -1.7734  0.9638
 1063SOL     OW14821   1.507   3.633  17.582  0.2421 -0.2305 -0.1975
 1063SOL    HW114822   1.456   3.713  17.570 -0.9785 -1.0931 -0.8562
 1063SOL    HW214823   1.464   3.604  17.663 -1.1015  1.2348 -0.3830
 1064SOL     OW14824   4.458   2.422   3.086 -0.2444 -0.1360  0.1087
 1064SOL    HW114825   4.436   2.432   2.993 -0.7773  1.0984  0.3549
 1064SOL    HW214826   4.375   2.392   3.123 -0.0008  1.0792  1.6897
 1065SOL     OW14827   3.002   0.092   7.238 -0.4482 -0.2217 -0.1835
 1065SOL    HW114828   3.052   0.042   7.174 -0.3933 -1.0790  0.5280
 1065SOL    HW214829   3.021   0.042   7.317  2.2171  1.2719  0.1266
 1066SOL     OW14830   1.587   2.663   1.801 -0.2640 -0.1612  0.0631
 1066SOL    HW114831   1.563   2.604   1.873  0.8247  1.0689  1.4117
 1066SOL    HW214832   1.588   2.591   1.738  0.6156 -0.1210  0.0345
 1067SOL     OW14833   1.755   2.028   4.031  0.1963 -0.2414 -0.4848
 1067SOL    HW114834   1.848   2.010   4.038 -0.3644 -2.4270  1.1979
 1067SOL    HW214835   1.728   1.962   3.967  0.3281 -0.5278 -0.2469
 1068SOL     OW14836   2.506   1.284   6.417  0.6806  0.3621  0.0720
 1068SOL    HW114837   2.563   1.300   6.493  0.0900 -0.9835  0.7921
 1068SOL    HW214838   2.526   1.191   6.407  0.0256  0.2261  0.0249
 1069SOL     OW14839   1.881   1.711  16.167  0.0731 -0.0259  0.2420
 1069SOL    HW114840   1.861   1.799  16.197  1.5257  0.5348 -0.4303
 1069SOL    HW214841   1.809   1.661  16.205 -0.3103 -2.2957 -3.3828
 1070SOL     OW14842   4.586   2.599   6.058 -0.5890  0.3254  0.4160
 1070SOL    HW114843   4.667   2.650   6.058 -1.0527  1.0635  1.0709
 1070SOL    HW214844   4.552   2.621   6.145 -2.8773  0.0233 -0.4022
 1071SOL     OW14845   4.493   2.627   8.010 -0.2947  0.2156 -0.3011
 1071SOL    HW114846   4.403   2.615   8.039 -0.4582 -0.5993 -1.1599
 1071SOL    HW214847   4.508   2.703   8.067 -0.2057 -0.1140  0.1180
 1072SOL     OW14848   0.773   0.598   2.405  0.2066 -0.6547  0.0948
 1072SOL    HW114849   0.822   0.632   2.480 -0.8779 -2.5991  1.6896
 1072SOL    HW214850   0.745   0.681   2.367 -1.4161  0.1954  3.1160
 1073SOL     OW14851   2.902   1.780   2.793 -0.0677  0.3370 -0.2222
 1073SOL    HW114852   2.885   1.690   2.763 -2.0482  0.1051  1.6038
 1073SOL    HW214853   2.941   1.822   2.716  1.4242 -1.2263 -0.3170
 1074SOL     OW14854   2.134   1.086   2.629 -0.7332  0.5548 -0.0356
 1074SOL    HW114855   2.089   1.039   2.559 -0.7922  0.4240  0.0898
 1074SOL    HW214856   2.222   1.053   2.612 -0.6311 -0.9491  3.4069
 1075SOL     OW14857   2.087   3.973   2.204  0.0338  0.1200  0.0952
 1075SOL    HW114858   2.025   4.036   2.240  0.1702  0.6185 -0.5498
 1075SOL    HW214859   2.047   3.893   2.239 -0.6504  0.4383  0.0309
 1076SOL     OW14860   1.787   2.913   5.615 -0.9054  0.0816 -0.0168
 1076SOL    HW114861   1.870   2.958   5.631  0.1139 -1.2242 -1.5582
 1076SOL    HW214862   1.821   2.830   5.579 -1.4816 -0.8084  1.4897
 1077SOL     OW14863   2.793   3.318   1.409  0.6381  0.0749 -0.2926
 1077SOL    HW114864   2.756   3.282   1.328  1.4028 -1.4435  0.0449
 1077SOL    HW214865   2.813   3.408   1.382  0.8352  0.5350  1.3868
 1078SOL     OW14866   1.517   0.029   1.695  0.8518 -0.6745 -0.3715
 1078SOL    HW114867   1.461   0.022   1.617  1.7184  0.6398 -1.1038
 1078SOL    HW214868   1.576   0.099   1.671  1.4912 -0.9058  0.5483
 1079SOL     OW14869   0.968   4.502   8.811  0.7970 -0.1579  0.1115
 1079SOL    HW114870   0.928   4.490   8.725  0.5500  1.0229  0.0643
 1079SOL    HW214871   0.915   4.572   8.848 -0.5198  0.0476 -2.2390
 1080SOL     OW14872   1.244   3.168  16.087 -0.3881 -0.9340 -0.0868
 1080SOL    HW114873   1.241   3.183  16.182  3.0287 -0.3880 -0.0959
 1080SOL    HW214874   1.149   3.167  16.074 -0.0960 -0.1556 -2.1728
 1081SOL     OW14875   1.343   2.919   4.996  0.1407 -0.2991 -0.0583
 1081SOL    HW114876   1.287   2.842   4.986  1.2882 -0.9507 -1.5019
 1081SOL    HW214877   1.344   2.914   5.091  1.2741 -2.6178 -0.1997
 1082SOL     OW14878   4.384   3.513   2.470  0.0895 -0.1180 -0.1012
 1082SOL    HW114879   4.315   3.538   2.408 -1.0142 -1.8608  0.4337
 1082SOL    HW214880   4.452   3.580   2.456  0.3501 -0.3734 -0.0389
 1083SOL     OW14881   1.153   2.890   4.681 -0.1876 -0.1740  0.6636
 1083SOL    HW114882   1.074   2.848   4.714 -1.5560  1.5154 -0.4734
 1083SOL    HW214883   1.185   2.916   4.767  0.1095  0.8116  0.2613
 1084SOL     OW14884   2.029   2.446   9.687 -0.4141 -0.5489 -0.0883
 1084SOL    HW114885   2.035   2.493   9.770  0.4369 -0.3125 -0.2877
 1084SOL    HW214886   2.112   2.399   9.682  0.0649  0.4131 -1.0710
 1085SOL     OW14887   1.486   4.015   5.357  0.3955  0.3511  0.3457
 1085SOL    HW114888   1.432   4.045   5.285  0.8404 -0.1608 -0.2072
 1085SOL    HW214889   1.443   4.047   5.436  0.9224  1.9815 -0.0366
 1086SOL     OW14890   0.746   0.803   4.588 -0.2096  0.0771 -0.5786
 1086SOL    HW114891   0.722   0.865   4.519 -0.4909  1.3641  0.6651
 1086SOL    HW214892   0.831   0.834   4.618  0.5088 -1.2565 -1.2590
 1087SOL     OW14893   0.338   1.054  14.138 -0.1841 -0.4150 -0.4394
 1087SOL    HW114894   0.401   0.985  14.159  1.9049  2.1294  1.5527
 1087SOL    HW214895   0.278   1.001  14.084 -2.1425  1.4120 -0.0575
 1088SOL     OW14896   4.133   3.122  17.029  0.0069 -0.1691  0.1176
 1088SOL    HW114897   4.048   3.082  17.010 -0.5061  0.8348  0.2760
 1088SOL    HW214898   4.110   3.201  17.078  1.7993 -1.8627  3.6765
 1089SOL     OW14899   0.082   1.545   3.520 -0.7468  0.3410 -0.3512
 1089SOL    HW114900   0.091   1.471   3.580  2.6959  0.8918 -0.1825
 1089SOL    HW214901   0.021   1.593   3.577 -0.7591  0.5566 -0.5454
 1090SOL     OW14902   2.366   4.495   1.773 -0.1885 -0.8470 -0.4150
 1090SOL    HW114903   2.433   4.541   1.722 -0.8500  0.2754 -0.2735
 1090SOL    HW214904   2.317   4.560   1.824  3.4122  1.1705  0.4786
 1091SOL     OW14905   2.485   3.744   8.716  0.1591 -0.0391 -0.3040
 1091SOL    HW114906   2.422   3.684   8.676 -0.4178  0.1127  0.3790
 1091SOL    HW214907   2.542   3.761   8.641 -0.6730  0.0992 -0.8958
 1092SOL     OW14908   4.214   3.165   4.004 -0.2513  0.0301 -0.2761
 1092SOL    HW114909   4.232   3.094   4.065  0.4705  1.9904  1.7723
 1092SOL    HW214910   4.261   3.239   4.042  0.2426 -1.3854  1.8941
 1093SOL     OW14911   1.688   2.376   0.593 -0.7844 -0.2873  0.3246
 1093SOL    HW114912   1.690   2.297   0.647  0.0605  0.2779  1.1165
 1093SOL    HW214913   1.595   2.371   0.570 -0.9384 -0.5463  1.0098
 1094SOL     OW14914   0.725   1.012   5.449 -0.3790 -0.2446 -0.2938
 1094SOL    HW114915   0.671   0.945   5.490  2.3368 -1.6108  1.0668
 1094SOL    HW214916   0.742   1.074   5.520 -1.4190  1.1648 -1.2650
 1095SOL     OW14917   1.639   4.500   3.914 -0.0466  0.3229  0.0297
 1095SOL    HW114918   1.719   4.519   3.962 -0.6205 -1.0190  1.5278
 1095SOL    HW214919   1.587   4.575   3.941 -0.5054 -0.8739  2.5134
 1096SOL     OW14920   4.546   3.178   0.491 -0.8242  0.4525 -0.3397
 1096SOL    HW114921   4.536   3.246   0.425  0.0165  2.1053  1.2158
 1096SOL    HW214922   4.475   3.208   0.548 -0.2893  0.8554  0.1171
 1097SOL     OW14923   4.563   4.685   4.317  0.3111  0.1372 -0.2175
 1097SOL    HW114924   4.584   4.642   4.234 -0.2969  1.8804 -1.2971
 1097SOL    HW214925   4.628   4.647   4.376 -0.9396 -1.9092 -0.1919
 1098SOL     OW14926   0.251   3.545  15.060  0.1677  0.1802 -0.1578
 1098SOL    HW114927   0.225   3.628  15.019 -1.6366  0.6765  1.9979
 1098SOL    HW214928   0.164   3.514  15.085  0.5031 -1.6186 -1.2729
 1099SOL     OW14929   3.279   0.149   6.522 -0.0622 -0.3376  0.4058
 1099SOL    HW114930   3.365   0.146   6.563  0.7110 -1.1603 -1.2568
 1099SOL    HW214931   3.307   0.161   6.431  0.6244 -1.7955  0.4171
 1100SOL     OW14932   3.143   1.943   8.548  0.6633 -0.1522 -0.3340
 1100SOL    HW114933   3.227   1.897   8.553  0.2267 -0.9183 -0.0701
 1100SOL    HW214934   3.092   1.885   8.491 -1.5523  2.2398 -0.7952
 1101SOL     OW14935   1.736   2.907   3.288 -0.0462  0.0491  0.4146
 1101SOL    HW114936   1.685   2.951   3.355  0.7709  0.7005  0.6136
 1101SOL    HW214937   1.772   2.837   3.342 -0.0653  0.4653  0.9575
 1102SOL     OW14938   2.761   4.313   3.250 -0.6515  0.0109  0.7839
 1102SOL    HW114939   2.761   4.404   3.220 -1.4105  0.0408  0.8980
 1102SOL    HW214940   2.704   4.321   3.326 -0.3831 -0.2528  1.0120
 1103SOL     OW14941   4.145   3.011   4.307 -0.2662  0.0245 -0.4681
 1103SOL    HW114942   4.077   3.076   4.293  0.5677  1.0605  0.2553
 1103SOL    HW214943   4.192   3.049   4.382 -0.9224 -1.4300  0.6795
 1104SOL     OW14944   3.107   1.333  16.922 -0.1563 -0.4744  0.2789
 1104SOL    HW114945   3.131   1.356  16.832 -0.7570 -1.1837 -0.0650
 1104SOL    HW214946   3.148   1.246  16.919  0.5062 -0.1696  0.4131
 1105SOL     OW14947   3.482   4.007   0.038 -0.1552  0.5059 -0.1765
 1105SOL    HW114948   3.470   4.062  17.710  0.2185  0.8584  0.0149
 1105SOL    HW214949   3.393   3.992   0.070 -0.0573 -0.8357 -0.5416
 1106SOL     OW14950   3.945   4.434   1.748  0.1807 -0.0185  0.3935
 1106SOL    HW114951   3.897   4.497   1.694 -3.2052 -0.5523  2.7747
 1106SOL    HW214952   3.895   4.353   1.733  1.7463 -0.8236 -0.4499
 1107SOL     OW14953   4.683   1.935   4.305  0.0127 -0.2254  0.0594
 1107SOL    HW114954   4.674   2.024   4.270 -0.7068  0.1362  1.1479
 1107SOL    HW214955   0.035   1.938   4.337  0.0571 -1.0035  0.0230
 1108SOL     OW14956   4.598   0.473   1.346  0.1436 -0.5762  0.3450
 1108SOL    HW114957   4.643   0.398   1.308  0.0534 -0.7813  0.6466
 1108SOL    HW214958   4.624   0.465   1.438 -1.1363 -1.8045  0.5996
 1109SOL     OW14959   0.740   0.941   7.753 -0.7352 -0.3478 -0.4393
 1109SOL    HW114960   0.728   1.029   7.788 -3.3571 -0.8566 -0.0870
 1109SOL    HW214961   0.812   0.912   7.811 -0.3967 -3.3841 -2.3749
 1110SOL     OW14962   0.542   2.980  15.808 -0.2904  0.2311  0.1708
 1110SOL    HW114963   0.567   3.054  15.752 -1.0312  1.9895  2.1467
 1110SOL    HW214964   0.531   2.906  15.749 -0.6381  0.0117  0.5180
 1111SOL     OW14965   0.107   2.613  10.821  0.4969 -0.1649 -0.2061
 1111SOL    HW114966   0.105   2.618  10.726  0.7443 -0.8408 -0.2425
 1111SOL    HW214967   0.201   2.617  10.842  0.7691 -0.2806 -1.4396
 1112SOL     OW14968   0.271   2.210   0.713  0.5974  0.3507  0.3569
 1112SOL    HW114969   0.210   2.239   0.644 -0.0011  1.0699  1.1882
 1112SOL    HW214970   0.211   2.183   0.782  0.0819 -3.0967 -1.4482
 1113SOL     OW14971   1.741   3.069   2.388 -0.2391 -0.0301 -0.0431
 1113SOL    HW114972   1.825   3.043   2.424  0.0068 -1.4868 -1.6662
 1113SOL    HW214973   1.754   3.163   2.400  1.0365 -0.0126 -1.5541
 1114SOL     OW14974   2.750   4.264   0.065 -0.1255  0.6071 -0.6697
 1114SOL    HW114975   2.701   4.247   0.145  1.8792 -0.3815  0.3630
 1114SOL    HW214976   2.804   4.339   0.088  0.4376  0.4668 -1.5320
 1115SOL     OW14977   1.616   2.066  10.630  0.5930  0.4119  0.2368
 1115SOL    HW114978   1.527   2.084  10.659  0.8466  0.2834  1.0999
 1115SOL    HW214979   1.642   2.151  10.596  1.3928 -0.7667 -2.1834
 1116SOL     OW14980   1.395   0.379  13.360  0.1226  0.1951  0.4129
 1116SOL    HW114981   1.324   0.441  13.348 -1.6358 -1.6894  0.9468
 1116SOL    HW214982   1.346   0.312  13.409  0.2580  1.1596  1.8675
 1117SOL     OW14983   1.794   2.438   4.854 -0.0571  0.2147  0.0004
 1117SOL    HW114984   1.851   2.471   4.785  0.3631  0.4200  0.4436
 1117SOL    HW214985   1.726   2.383   4.815 -0.2615  0.8119 -0.4771
 1118SOL     OW14986   4.730   0.376   6.943  0.0224 -0.8774  0.0500
 1118SOL    HW114987   4.676   0.354   7.019 -0.9363 -1.4288 -0.7952
 1118SOL    HW214988   0.002   0.470   6.958 -1.8888 -0.6736 -0.0164
 1119SOL     OW14989   3.066   2.385  12.558 -0.6322  0.1224  0.1270
 1119SOL    HW114990   2.977   2.412  12.539 -0.2562  1.6392  0.5126
 1119SOL    HW214991   3.056   2.310  12.616  1.2499 -0.8354 -0.7461
 1120SOL     OW14992   2.290   0.470   8.331 -0.8124 -0.4600 -0.5300
 1120SOL    HW114993   2.330   0.522   8.261  0.0405 -1.0351 -0.4637
 1120SOL    HW214994   2.305   0.382   8.297  1.8896  0.2434 -1.2159
 1121SOL     OW14995   0.751   4.312  17.067  0.2104 -0.5051  0.3895
 1121SOL    HW114996   0.733   4.220  17.090 -1.8189 -0.3040 -0.3506
 1121SOL    HW214997   0.846   4.323  17.066  0.3401 -1.6859 -1.0406
 1122SOL     OW14998   4.280   3.151   4.510  0.4041  1.0358 -0.3155
 1122SOL    HW114999   4.246   3.196   4.588 -0.7101  2.8605 -1.8672
 1122SOL    HW215000   4.338   3.220   4.478  2.0427  1.0779  2.7271
 1123SOL     OW15001   0.114   0.939   4.071 -0.1794  0.3054  0.1264
 1123SOL    HW115002   0.088   0.969   3.985 -2.8081 -5.1258 -0.9844
 1123SOL    HW215003   0.067   1.000   4.127  1.6474  0.5698  1.3854
 1124SOL     OW15004   2.819   4.451   3.697  0.3033 -0.0584  0.6548
 1124SOL    HW115005   2.892   4.453   3.635  0.1167  0.9255  0.4701
 1124SOL    HW215006   2.847   4.509   3.768  0.2748  0.6536  0.0814
 1125SOL     OW15007   3.171   3.064   0.397 -1.0016 -0.4922 -0.0837
 1125SOL    HW115008   3.110   3.074   0.324 -0.1216 -0.0884 -0.7625
 1125SOL    HW215009   3.205   2.976   0.382  0.3023 -0.4958  2.7943
 1126SOL     OW15010   1.195   3.065  16.589  0.1757 -0.2159  0.4484
 1126SOL    HW115011   1.157   3.098  16.508  2.1826 -2.1529 -1.2715
 1126SOL    HW215012   1.285   3.099  16.588  0.8707 -2.0405  1.0478
 1127SOL     OW15013   0.916   1.883   1.941  0.2546 -0.2677  0.0451
 1127SOL    HW115014   0.883   1.805   1.985  0.1019  0.0296  0.4582
 1127SOL    HW215015   0.848   1.891   1.874  0.3568  2.0393  0.2273
 1128SOL     OW15016   1.141   4.251   0.834  0.0875 -0.2439 -0.1783
 1128SOL    HW115017   1.191   4.314   0.888 -0.6224  0.7653 -0.6933
 1128SOL    HW215018   1.076   4.305   0.790  1.1231  0.0381 -1.3572
 1129SOL     OW15019   1.174   1.389   9.587  0.1615  0.1292  0.7433
 1129SOL    HW115020   1.168   1.484   9.573  2.6258  0.0437 -0.8843
 1129SOL    HW215021   1.134   1.358   9.505 -1.6767  2.5647  0.6925
 1130SOL     OW15022   2.428   3.482   9.184 -0.0161 -0.3094 -0.3605
 1130SOL    HW115023   2.482   3.539   9.129 -0.6089  0.7930  0.2055
 1130SOL    HW215024   2.409   3.546   9.253  0.0402  1.3169 -1.8322
 1131SOL     OW15025   0.347   3.426   6.477 -0.1976 -0.0269 -0.0867
 1131SOL    HW115026   0.335   3.514   6.512 -2.4729  0.1154 -1.2108
 1131SOL    HW215027   0.433   3.436   6.436  0.1585 -3.0588 -0.0249
 1132SOL     OW15028   3.584   3.490   6.970 -0.8047 -0.2664 -0.0996
 1132SOL    HW115029   3.568   3.583   6.982  0.7294 -0.1516  1.0933
 1132SOL    HW215030   3.587   3.464   7.062 -2.9537 -2.5598 -0.6870
 1133SOL     OW15031   0.024   3.812  10.851  0.3541 -0.5953  0.1183
 1133SOL    HW115032   0.036   3.718  10.845 -2.1426 -0.9477  0.5591
 1133SOL    HW215033   4.667   3.818  10.837  0.1752 -0.4322  1.4098
 1134SOL     OW15034   3.333   1.042   1.411 -0.6577  0.1797  0.1599
 1134SOL    HW115035   3.384   1.076   1.485 -0.4074  0.2879 -0.0629
 1134SOL    HW215036   3.249   1.020   1.451 -0.3636  0.7358  1.0955
 1135SOL     OW15037   4.414   3.330   8.886 -0.2874 -0.1485 -0.0757
 1135SOL    HW115038   4.489   3.273   8.901 -0.8106 -0.6899  0.5002
 1135SOL    HW215039   4.377   3.332   8.974 -0.4854  3.7212 -0.2568
 1136SOL     OW15040   3.124   0.642   6.748  0.2390 -0.1158 -0.4556
 1136SOL    HW115041   3.187   0.574   6.770 -0.7736 -1.0609 -0.5098
 1136SOL    HW215042   3.183   0.712   6.720 -0.5608  0.5598 -0.4514
 1137SOL     OW15043   1.465   1.921   6.124 -0.4076 -0.7891  0.1629
 1137SOL    HW115044   1.450   1.864   6.200  1.2131 -1.7110 -0.2074
 1137SOL    HW215045   1.396   1.985   6.140  2.5446  2.4248  0.0667
 1138SOL     OW15046   3.840   2.659  12.690  0.0420  0.6097 -0.1898
 1138SOL    HW115047   3.788   2.739  12.685 -0.1102  0.4130 -1.5696
 1138SOL    HW215048   3.787   2.600  12.745 -0.6634  0.8298 -0.6298
 1139SOL     OW15049   1.088   4.322   7.325  0.2505  0.0363  0.1260
 1139SOL    HW115050   1.091   4.378   7.403 -0.1081  0.4458 -0.1517
 1139SOL    HW215051   1.066   4.390   7.261  1.6164  2.6630  2.4660
 1140SOL     OW15052   2.422   0.358  13.210 -0.0065 -0.2683 -0.2507
 1140SOL    HW115053   2.329   0.344  13.228  0.4655  1.5811  3.6757
 1140SOL    HW215054   2.414   0.445  13.170  2.8329  0.4052  0.6464
 1141SOL     OW15055   0.006   0.643   6.997  0.0627 -0.0867  0.3855
 1141SOL    HW115056   4.676   0.641   7.064  0.6290  3.5597  1.0575
 1141SOL    HW215057   4.693   0.672   6.921  2.2376  0.4226 -0.8768
 1142SOL     OW15058   3.813   3.743  17.539  0.1214 -0.0557 -0.3383
 1142SOL    HW115059   3.778   3.791  17.464  1.5977  0.0944 -0.9320
 1142SOL    HW215060   3.737   3.686  17.550  0.0175  0.3530  1.0564
 1143SOL     OW15061   0.783   3.947   4.331 -0.2953  0.3551 -0.6250
 1143SOL    HW115062   0.850   3.903   4.382 -0.4507  0.5028 -0.2978
 1143SOL    HW215063   0.771   3.891   4.254 -2.4397  1.1518 -0.8619
 1144SOL     OW15064   2.634   3.872   7.349  0.6013  0.1749 -0.1648
 1144SOL    HW115065   2.593   3.933   7.287 -0.1928 -0.3330 -0.1351
 1144SOL    HW215066   2.561   3.849   7.406  0.5092  3.3211  0.9963
 1145SOL     OW15067   0.238   1.148  13.339 -0.0788  0.2976 -0.3611
 1145SOL    HW115068   0.168   1.192  13.291  1.2132  0.7676 -1.8197
 1145SOL    HW215069   0.305   1.211  13.315  0.0761  1.3301  2.9034
 1146SOL     OW15070   2.704   1.101  11.951 -0.4233 -0.0007 -0.5534
 1146SOL    HW115071   2.656   1.105  12.034  1.0410  0.2935  0.2759
 1146SOL    HW215072   2.760   1.028  11.978  1.7186  1.5967 -0.6511
 1147SOL     OW15073   1.414   1.064   8.562  0.2089 -0.3080 -0.1009
 1147SOL    HW115074   1.392   0.978   8.597 -1.7498  0.5424  0.7536
 1147SOL    HW215075   1.452   1.101   8.641 -1.2221 -0.8547  0.8326
 1148SOL     OW15076   4.649   0.991   5.366 -0.1164  0.1504  0.7578
 1148SOL    HW115077   4.645   1.066   5.307  0.4108 -1.1931 -0.9765
 1148SOL    HW215078   4.599   1.011   5.445  0.9852 -0.3673  1.5877
 1149SOL     OW15079   2.918   1.898   7.665 -0.1562 -0.2087 -0.5875
 1149SOL    HW115080   2.871   1.979   7.644 -0.7637 -0.0709  1.2376
 1149SOL    HW215081   2.883   1.864   7.748 -1.0878  0.1551 -0.8362
 1150SOL     OW15082   2.520   0.214   8.563  0.4150  0.0037 -0.1851
 1150SOL    HW115083   2.445   0.274   8.567 -0.9782 -1.7325 -0.3600
 1150SOL    HW215084   2.523   0.205   8.658  0.6018 -0.4339 -0.2333
 1151SOL     OW15085   4.222   1.982  12.187  0.2798  0.6255 -0.2604
 1151SOL    HW115086   4.158   2.048  12.213 -0.8262 -0.3029 -0.6171
 1151SOL    HW215087   4.293   2.011  12.244  1.6523  0.1909 -1.7729
 1152SOL     OW15088   0.670   0.018  14.066 -0.4317 -0.1418  0.1439
 1152SOL    HW115089   0.740   4.695  14.090  0.5606  0.9547  0.0486
 1152SOL    HW215090   0.647   0.054  14.151 -0.4450  0.2688 -0.0328
 1153SOL     OW15091   2.994   2.501   6.566  0.2786  0.2194 -0.5234
 1153SOL    HW115092   2.934   2.427   6.572  0.4866  0.1186  0.2753
 1153SOL    HW215093   3.058   2.460   6.623 -1.7750 -0.6639  1.1581
 1154SOL     OW15094   0.349   0.902  12.941 -0.0303  0.3719  0.2509
 1154SOL    HW115095   0.373   0.912  13.033  3.7998  2.4471 -0.9410
 1154SOL    HW215096   0.374   0.811  12.927  1.4675  0.7699  0.3296
 1155SOL     OW15097   2.846   2.575   5.802  0.0591 -0.1846  0.0199
 1155SOL    HW115098   2.844   2.512   5.730  0.8039  0.8634 -0.9053
 1155SOL    HW215099   2.908   2.527   5.857 -0.9884 -0.0579  1.3302
 1156SOL     OW15100   0.697   4.131   3.417  0.1558 -0.5077  0.2465
 1156SOL    HW115101   0.698   4.161   3.508  2.7221 -0.8552  0.3247
 1156SOL    HW215102   0.762   4.063   3.433 -0.1045 -0.9644 -0.6223
 1157SOL     OW15103   3.289   3.311   0.168  0.6441 -0.1736 -0.2829
 1157SOL    HW115104   3.326   3.388   0.123  0.9404  0.0423  0.3313
 1157SOL    HW215105   3.197   3.338   0.168  0.1362 -1.9346  1.5491
 1158SOL     OW15106   3.408   0.248   0.916  0.4721 -0.0727 -0.6895
 1158SOL    HW115107   3.407   0.329   0.967 -0.4687  0.7624 -2.0314
 1158SOL    HW215108   3.503   0.249   0.904  0.6083 -0.6982  0.3628
 1159SOL     OW15109   2.695   3.552   4.831  0.0507 -0.2801  0.6296
 1159SOL    HW115110   2.736   3.619   4.776 -1.3756  1.0104  1.1483
 1159SOL    HW215111   2.731   3.593   4.910  0.6325 -0.5262  0.4952
 1160SOL     OW15112   0.105   3.239   2.618 -0.5152  0.2247 -0.1010
 1160SOL    HW115113   0.080   3.147   2.633 -1.3238  0.6486  1.1871
 1160SOL    HW215114   0.044   3.282   2.678  0.8596  0.8765  0.8318
 1161SOL     OW15115   3.522   4.038   4.767  0.4019 -0.0702 -0.1119
 1161SOL    HW115116   3.555   4.011   4.853 -4.2251  0.3724  1.8051
 1161SOL    HW215117   3.510   3.950   4.732  1.8603 -0.0415 -0.6700
 1162SOL     OW15118   2.164   4.655  16.557 -0.2596 -0.0211  0.5297
 1162SOL    HW115119   2.095   4.592  16.579 -1.2425  1.1559  0.7900
 1162SOL    HW215120   2.167   4.634  16.464  1.0064 -3.0671  1.2531
 1163SOL     OW15121   4.366   3.636  13.803 -0.1519  0.1834 -0.0444
 1163SOL    HW115122   4.379   3.554  13.850 -0.2010  0.5124  0.5528
 1163SOL    HW215123   4.277   3.630  13.767 -0.3043 -0.0678  0.3706
 1164SOL     OW15124   2.990   4.718   0.084 -0.3030  0.0551 -0.1347
 1164SOL    HW115125   3.013   4.716  17.740  0.9210  3.4375  0.0823
 1164SOL    HW215126   2.996   4.623   0.098  0.1955 -0.1762 -1.9466
 1165SOL     OW15127   1.438   3.740  13.425  0.7226  0.7804 -0.6641
 1165SOL    HW115128   1.403   3.724  13.337  1.8624  1.3499 -1.2300
 1165SOL    HW215129   1.360   3.776  13.468 -0.3263 -0.8681 -1.1809
 1166SOL     OW15130   1.790   2.569  14.918 -0.0703 -0.0731 -0.3885
 1166SOL    HW115131   1.863   2.631  14.915 -0.1944  0.1732  1.5126
 1166SOL    HW215132   1.824   2.493  14.965  2.7392  1.0292 -0.6410
 1167SOL     OW15133   0.654   1.510  15.183  0.0019  0.3034 -0.1772
 1167SOL    HW115134   0.567   1.475  15.163 -0.0245  0.1086  0.2709
 1167SOL    HW215135   0.641   1.587  15.238 -3.6274 -0.8768  0.5977
 1168SOL     OW15136   0.261   2.278   7.195 -0.3408 -0.4013  0.4345
 1168SOL    HW115137   0.278   2.196   7.240 -2.1996 -1.3588 -0.5983
 1168SOL    HW215138   0.207   2.258   7.119 -2.9276 -1.6183  2.5998
 1169SOL     OW15139   1.368   0.175   8.917  0.1604 -0.4510 -0.6098
 1169SOL    HW115140   1.362   0.091   8.962  4.5822  0.2355  1.2664
 1169SOL    HW215141   1.364   0.239   8.988 -0.2812  1.9121 -2.7536
 1170SOL     OW15142   1.040   2.557   1.969 -0.9312 -0.1082 -0.5811
 1170SOL    HW115143   1.124   2.532   1.931  0.3547  1.6215  1.0715
 1170SOL    HW215144   1.005   2.474   2.000 -2.8490  1.3810  1.3356
 1171SOL     OW15145   2.508   3.163   0.730 -0.0954  0.2062  0.7807
 1171SOL    HW115146   2.588   3.126   0.693 -1.7834 -2.6735  0.0056
 1171SOL    HW215147   2.457   3.200   0.657 -2.4185 -0.4372  2.0908
 1172SOL     OW15148   1.468   1.688   4.869  0.2934 -0.4191 -0.1463
 1172SOL    HW115149   1.549   1.637   4.863 -0.2278 -0.9194 -2.8329
 1172SOL    HW215150   1.461   1.687   4.965 -1.1964 -0.6377 -0.2622
 1173SOL     OW15151   2.985   0.886   4.560  0.7096 -0.0358  0.2389
 1173SOL    HW115152   3.040   0.847   4.628  0.0516 -2.1161 -0.4197
 1173SOL    HW215153   2.983   0.974   4.596 -0.6986  0.4546 -1.0428
 1174SOL     OW15154   3.076   4.474   6.663  0.2183  0.2746  0.4420
 1174SOL    HW115155   3.068   4.527   6.583  1.3612 -1.2198 -0.6584
 1174SOL    HW215156   2.989   4.435   6.676  1.0871 -1.9724 -0.5158
 1175SOL     OW15157   0.498   0.115  10.922 -0.0867 -0.0642  0.1125
 1175SOL    HW115158   0.494   0.076  10.835  0.4380 -1.8465  0.8922
 1175SOL    HW215159   0.410   0.149  10.935  0.1591  0.8984 -0.7969
 1176SOL     OW15160   1.681   3.650   3.099  0.5036 -0.6207  0.2381
 1176SOL    HW115161   1.587   3.671   3.097  0.4206 -0.8465  1.8828
 1176SOL    HW215162   1.709   3.714   3.165 -1.0441 -1.3035  1.5501
 1177SOL     OW15163   1.193   1.775   9.311 -0.0778 -0.2783 -0.4558
 1177SOL    HW115164   1.215   1.724   9.388  1.5290  1.2677  0.1226
 1177SOL    HW215165   1.189   1.864   9.347 -1.2067 -0.1963 -0.7821
 1178SOL     OW15166   3.235   4.723   7.414 -1.1733  0.1308 -0.3146
 1178SOL    HW115167   3.285   0.067   7.406  1.0552 -1.0777  1.2069
 1178SOL    HW215168   3.226   4.693   7.324 -2.4180  2.0518 -0.8333
 1179SOL     OW15169   2.760   0.294   2.090  0.3874  0.3461  0.4580
 1179SOL    HW115170   2.745   0.388   2.073  0.2889  0.3063  0.3215
 1179SOL    HW215171   2.670   0.264   2.099  0.3130  0.5468  0.3884
 1180SOL     OW15172   2.016   2.333   6.574  0.0343 -0.5932 -0.2158
 1180SOL    HW115173   2.084   2.391   6.540 -0.5534  0.7028  0.8323
 1180SOL    HW215174   1.947   2.378   6.525  0.0717 -2.0928 -1.6401
 1181SOL     OW15175   3.178   4.184   4.801  0.0957 -0.0599 -0.0802
 1181SOL    HW115176   3.111   4.237   4.758  0.5175  1.1429  0.7466
 1181SOL    HW215177   3.243   4.183   4.732  2.7886  0.9545  2.4305
 1182SOL     OW15178   3.858   4.683   5.908 -0.1383 -0.4701 -0.3403
 1182SOL    HW115179   3.896   0.027   5.875  2.9030 -2.1738 -1.1161
 1182SOL    HW215180   3.801   4.696   5.983  1.7688 -1.6009  1.3273
 1183SOL     OW15181   1.051   0.049   6.212  0.2304 -0.4153  0.2653
 1183SOL    HW115182   1.137   0.087   6.230  0.6445 -2.3016  2.2319
 1183SOL    HW215183   1.036   0.104   6.135  1.0931 -1.6471 -0.7995
 1184SOL     OW15184   1.680   2.891   7.940 -0.4209  0.1762 -0.2958
 1184SOL    HW115185   1.740   2.833   7.987 -0.7397  3.1477  3.7468
 1184SOL    HW215186   1.605   2.895   7.999 -0.5061 -0.0635 -0.3837
 1185SOL     OW15187   0.572   3.908   7.368 -0.2469 -0.6158  0.2865
 1185SOL    HW115188   0.636   3.839   7.352  0.2696 -0.0001 -0.2636
 1185SOL    HW215189   0.574   3.965   7.291  0.3558 -0.3559  0.4941
 1186SOL     OW15190   0.007   0.430   2.478 -0.4234 -0.4099 -0.4180
 1186SOL    HW115191   0.052   0.458   2.399  1.1150  0.9319  0.9415
 1186SOL    HW215192   0.062   0.358   2.509 -1.0167 -0.2568  0.9870
 1187SOL     OW15193   2.477   2.297   8.240  0.3700  0.0970  0.3694
 1187SOL    HW115194   2.568   2.307   8.268  1.4159  0.7646 -3.1708
 1187SOL    HW215195   2.451   2.226   8.299  2.3230 -3.2754 -2.8263
 1188SOL     OW15196   3.291   1.903   4.252 -0.2683  0.2585 -0.3515
 1188SOL    HW115197   3.208   1.863   4.227 -0.3354  0.1432  0.0527
 1188SOL    HW215198   3.293   1.978   4.193 -1.2501 -1.9618 -3.2248
 1189SOL     OW15199   1.089   3.565   2.352  0.0469  0.2496 -0.9031
 1189SOL    HW115200   1.001   3.568   2.314  0.1407  0.9718 -1.0554
 1189SOL    HW215201   1.094   3.473   2.326 -1.6023  0.4572 -1.9665
 1190SOL     OW15202   2.333   3.872   4.066  0.4840  0.7071 -0.3622
 1190SOL    HW115203   2.255   3.919   4.036 -1.4995 -1.6358  1.1483
 1190SOL    HW215204   2.393   3.904   3.998  0.1177  2.3320  0.0999
 1191SOL     OW15205   3.493   1.170   4.445 -0.2473 -0.4555 -0.0165
 1191SOL    HW115206   3.471   1.118   4.522 -0.2709 -1.6775 -0.8568
 1191SOL    HW215207   3.555   1.230   4.486  0.5460 -1.2516 -0.0721
 1192SOL     OW15208   0.378   1.351   5.296  0.2704  0.4349 -0.5613
 1192SOL    HW115209   0.452   1.290   5.299  0.6077  0.9331  1.3214
 1192SOL    HW215210   0.358   1.369   5.388  2.6952 -2.1804  0.4763
 1193SOL     OW15211   2.721   1.768  15.976 -0.1482  0.1556 -0.5570
 1193SOL    HW115212   2.810   1.800  15.993  0.4911 -1.4456 -0.9326
 1193SOL    HW215213   2.714   1.696  16.038 -2.3692  0.6515 -0.2311
 1194SOL     OW15214   4.116   2.659   5.343  0.4985 -0.3404 -0.2035
 1194SOL    HW115215   4.126   2.706   5.426 -3.9819 -0.5507  0.4254
 1194SOL    HW215216   4.098   2.570   5.375  0.4214 -0.5957 -0.9501
 1195SOL     OW15217   3.853   2.890   9.064 -0.1202 -0.2043 -0.1232
 1195SOL    HW115218   3.904   2.948   9.121  1.2538  0.5571 -2.1505
 1195SOL    HW215219   3.893   2.921   8.983 -1.9600 -2.4207 -1.8522
 1196SOL     OW15220   2.557   4.596  13.507 -0.1358 -0.1314 -0.3707
 1196SOL    HW115221   2.489   4.549  13.458  0.5685  0.2585 -1.7369
 1196SOL    HW215222   2.574   4.522  13.566  1.5464  0.4402 -0.1343
 1197SOL     OW15223   1.757   4.674   1.111 -0.0189  0.1684 -0.6020
 1197SOL    HW115224   1.704   4.685   1.033  0.7615 -1.1217 -1.3084
 1197SOL    HW215225   1.735   4.585   1.139  0.1008  0.6533  1.0415
 1198SOL     OW15226   0.875   1.326   4.413 -0.1596  0.4868  0.3884
 1198SOL    HW115227   0.784   1.315   4.386  0.6502 -2.1989 -1.2958
 1198SOL    HW215228   0.907   1.370   4.335  1.2286  1.5326  1.5510
 1199SOL     OW15229   1.508   2.867  13.496 -0.0471  0.2525 -0.1500
 1199SOL    HW115230   1.520   2.871  13.591  1.9110 -1.9615 -0.3103
 1199SOL    HW215231   1.481   2.953  13.465  3.6220  1.8527  1.0717
 1200SOL     OW15232   3.823   0.962  17.745  0.0288 -0.5245 -0.6342
 1200SOL    HW115233   3.914   0.933  17.747  0.3504  0.5800  0.7338
 1200SOL    HW215234   3.789   0.900  17.681  1.7450 -1.1811 -0.8988
 1201SOL     OW15235   1.026   0.636   0.125 -0.3293  0.6232  0.2810
 1201SOL    HW115236   1.073   0.629   0.042 -1.4594 -0.9126 -0.2346
 1201SOL    HW215237   0.962   0.568   0.104  1.0751 -0.9546  1.1019
 1202SOL     OW15238   3.539   1.307   3.703  0.4574  0.9163 -0.5444
 1202SOL    HW115239   3.556   1.321   3.797  1.2671  2.4457 -0.9175
 1202SOL    HW215240   3.620   1.278   3.662  0.5621  2.2808 -1.2784
 1203SOL     OW15241   3.271   3.383   4.654  0.7076  0.1963  0.1388
 1203SOL    HW115242   3.304   3.465   4.692 -2.3824  1.8225 -0.6941
 1203SOL    HW215243   3.184   3.369   4.691  0.7755 -0.1825  0.1589
 1204SOL     OW15244   1.580   0.095   5.953 -0.6345  0.2310 -0.1839
 1204SOL    HW115245   1.630   0.014   5.964 -0.7461  0.2094  0.1914
 1204SOL    HW215246   1.511   0.074   6.016 -0.3936 -0.1183 -0.0318
 1205SOL     OW15247   4.437   3.729  17.249 -0.0080  0.2589 -0.3356
 1205SOL    HW115248   4.344   3.709  17.263  0.3980 -1.2452  0.2015
 1205SOL    HW215249   4.473   3.643  17.229  2.5215  0.7821  2.0321
 1206SOL     OW15250   4.609   1.667   8.385  0.2694 -0.3063  0.6182
 1206SOL    HW115251   4.670   1.672   8.311 -0.9826 -0.0539 -0.4174
 1206SOL    HW215252   4.671   1.660   8.457 -1.2481 -1.3241  1.8195
 1207SOL     OW15253   2.231   3.450   3.209 -0.4617 -0.1867 -0.3041
 1207SOL    HW115254   2.140   3.459   3.181 -0.2635  0.8625 -0.6220
 1207SOL    HW215255   2.242   3.356   3.202  0.9159  0.0377 -1.1650
 1208SOL     OW15256   1.648   4.139  13.539 -0.3348  0.0467  0.9768
 1208SOL    HW115257   1.632   4.092  13.456  1.3356  1.5611 -0.2014
 1208SOL    HW215258   1.716   4.085  13.581  0.6900  0.1060 -0.5739
 1209SOL     OW15259   4.137   3.466  13.996 -0.6884  0.0431 -0.0118
 1209SOL    HW115260   4.118   3.501  13.909 -1.8757 -2.1700 -0.6265
 1209SOL    HW215261   4.079   3.390  13.998 -2.2273  1.1552 -2.5033
 1210SOL     OW15262   0.855   1.059  11.025 -0.2882 -0.0106  0.8600
 1210SOL    HW115263   0.894   1.127  10.969  1.3301 -1.3077  0.4200
 1210SOL    HW215264   0.805   1.013  10.958  0.1419 -0.3967  0.8063
 1211SOL     OW15265   3.352   3.370   8.445  0.3450 -0.2460 -0.4320
 1211SOL    HW115266   3.383   3.306   8.510 -0.1239  0.7525  0.7649
 1211SOL    HW215267   3.368   3.317   8.367 -0.1701 -1.2313  0.1287
 1212SOL     OW15268   3.055   4.154  17.658 -0.3952 -0.4755 -0.8472
 1212SOL    HW115269   3.056   4.234  17.606  0.7868  2.3296  3.5347
 1212SOL    HW215270   2.982   4.176  17.716 -0.8270  1.2991 -2.0631
 1213SOL     OW15271   1.870   1.003   2.092 -0.1853  0.1696 -0.0316
 1213SOL    HW115272   1.779   1.032   2.087 -0.3066  0.2714  2.3974
 1213SOL    HW215273   1.864   0.913   2.125 -1.3558  1.4253  3.1973
 1214SOL     OW15274   0.753   2.529   9.170 -0.5989 -0.3125  0.6572
 1214SOL    HW115275   0.772   2.495   9.257  0.3113  1.3556  1.1223
 1214SOL    HW215276   0.795   2.456   9.124  1.7254  2.2774 -1.3789
 1215SOL     OW15277   1.241   2.214   8.814  0.3769 -0.1215 -0.2006
 1215SOL    HW115278   1.175   2.147   8.793 -1.6501  1.4794  1.0287
 1215SOL    HW215279   1.248   2.260   8.731  1.6395  0.6890  0.3544
 1216SOL     OW15280   2.173   1.682  13.534  0.4679  0.1422  0.1904
 1216SOL    HW115281   2.194   1.742  13.463  3.0907 -1.4401 -0.3777
 1216SOL    HW215282   2.261   1.645  13.537 -0.2791 -1.8626 -2.8861
 1217SOL     OW15283   2.012   2.492   0.440 -0.1177 -0.3465  0.1526
 1217SOL    HW115284   1.928   2.531   0.463  0.5449  1.0855  0.1870
 1217SOL    HW215285   2.064   2.508   0.519  0.2695 -0.0778 -0.1540
 1218SOL     OW15286   1.208   4.639  13.180 -0.0585  0.3230  0.3029
 1218SOL    HW115287   1.270   4.582  13.225  0.2454 -0.4388 -1.1014
 1218SOL    HW215288   1.135   4.581  13.158  0.6537 -0.9546  1.3104
 1219SOL     OW15289   3.772   3.025   6.524  0.0857 -0.0252 -0.3564
 1219SOL    HW115290   3.736   3.033   6.613 -0.5646  0.5839 -0.6728
 1219SOL    HW215291   3.793   2.932   6.521 -0.2034 -0.1564  1.3654
 1220SOL     OW15292   1.420   2.152   2.721 -0.0999 -0.2621 -0.3064
 1220SOL    HW115293   1.375   2.078   2.762 -0.8165  0.5902  0.4418
 1220SOL    HW215294   1.360   2.222   2.743  0.3123 -0.0003 -0.0039
 1221SOL     OW15295   1.983   3.473  17.569 -0.4585 -0.5804 -0.2188
 1221SOL    HW115296   2.031   3.554  17.554 -3.3488  1.4695  1.3956
 1221SOL    HW215297   1.942   3.452  17.485  0.4867  3.0080 -1.5743
 1222SOL     OW15298   1.669   4.122   9.205  0.2564 -0.5299  0.1430
 1222SOL    HW115299   1.636   4.210   9.190 -0.2480 -1.3076 -3.2287
 1222SOL    HW215300   1.652   4.108   9.298  0.1035 -1.3473 -0.0100
 1223SOL     OW15301   1.596   0.459   7.309 -0.0129 -0.2474 -0.0302
 1223SOL    HW115302   1.583   0.545   7.348  0.5121 -0.4538  0.5886
 1223SOL    HW215303   1.568   0.407   7.384  1.4036 -0.1892  0.5256
 1224SOL     OW15304   3.665   0.892   3.532  0.0427  0.4294  0.1902
 1224SOL    HW115305   3.658   0.822   3.467  1.5258 -2.0535  2.6827
 1224SOL    HW215306   3.747   0.876   3.580  0.1476 -0.6017 -0.3111
 1225SOL     OW15307   1.154   2.158   8.539  0.3208 -0.5874 -0.8857
 1225SOL    HW115308   1.086   2.220   8.565  0.3623 -0.2695 -1.5313
 1225SOL    HW215309   1.117   2.101   8.472  1.5256 -1.2441 -0.9803
 1226SOL     OW15310   3.267   2.148   2.150  0.0967 -0.1851  0.7689
 1226SOL    HW115311   3.339   2.176   2.094 -0.2785 -0.2632  0.2419
 1226SOL    HW215312   3.238   2.062   2.121  1.2119 -0.6724  1.1211
 1227SOL     OW15313   4.522   2.260   8.532  0.4885  0.4411 -0.1829
 1227SOL    HW115314   4.487   2.209   8.605  0.3745 -0.6208 -0.9723
 1227SOL    HW215315   4.486   2.211   8.457  0.6712  0.3892 -0.2360
 1228SOL     OW15316   3.947   3.252   2.920 -0.1647 -0.1216 -0.7311
 1228SOL    HW115317   3.948   3.159   2.941 -0.6551  0.1698  0.6012
 1228SOL    HW215318   3.926   3.299   3.001  1.3611  2.8480 -2.0794
 1229SOL     OW15319   0.796   1.104  15.780  0.4515 -0.8784 -0.0124
 1229SOL    HW115320   0.755   1.165  15.718  0.8067 -0.6168  0.0044
 1229SOL    HW215321   0.722   1.046  15.796 -0.8655  0.6206 -0.6009
 1230SOL     OW15322   4.403   4.291   2.258 -0.3283  0.2712  0.1801
 1230SOL    HW115323   4.308   4.304   2.259 -0.3366 -0.0288  2.1305
 1230SOL    HW215324   4.427   4.375   2.298  0.5413  0.7305 -1.2874
 1231SOL     OW15325   2.067   2.567   6.966  0.1224 -0.0004 -0.4080
 1231SOL    HW115326   1.972   2.556   6.970  0.2289 -0.4316  0.8356
 1231SOL    HW215327   2.078   2.641   6.906 -1.1497  0.1322 -0.4732
 1232SOL     OW15328   1.793   4.212   0.518 -0.1388 -0.0162  0.4759
 1232SOL    HW115329   1.811   4.305   0.514 -1.1896  0.2146  1.0118
 1232SOL    HW215330   1.753   4.202   0.605 -0.7797  0.6493  0.2544
 1233SOL     OW15331   4.549   4.004  16.962  0.0234 -0.1808 -0.5934
 1233SOL    HW115332   4.585   4.092  16.946 -1.6263  0.7501  0.8406
 1233SOL    HW215333   4.483   3.989  16.894  0.2002 -1.0435 -0.5733
 1234SOL     OW15334   1.315   0.604   7.044  0.0451 -1.0088 -0.2476
 1234SOL    HW115335   1.398   0.643   7.074 -0.3081  0.5580 -1.3232
 1234SOL    HW215336   1.246   0.642   7.099 -0.1034  0.9690 -1.7946
 1235SOL     OW15337   2.272   1.700   7.292  0.1221  0.6280  0.3980
 1235SOL    HW115338   2.288   1.683   7.385  3.1386 -1.3533 -0.4821
 1235SOL    HW215339   2.340   1.764   7.270  1.5829 -0.3849  1.9720
 1236SOL     OW15340   2.145   3.393  12.122 -0.2426 -0.1186 -0.3732
 1236SOL    HW115341   2.210   3.463  12.132  0.1573 -0.5433 -0.0178
 1236SOL    HW215342   2.167   3.339  12.197  1.9204  1.7662  0.3526
 1237SOL     OW15343   1.988   2.353   6.216  0.7643 -0.1805  0.1504
 1237SOL    HW115344   2.079   2.340   6.240  0.1761 -3.4392  0.6665
 1237SOL    HW215345   1.942   2.409   6.280  3.4580  0.8390  1.2152
 1238SOL     OW15346   2.000   0.448   7.459  0.3280  0.4139  0.1845
 1238SOL    HW115347   1.979   0.530   7.414 -0.5263 -1.0285 -2.0461
 1238SOL    HW215348   1.969   0.389   7.389 -2.1348 -0.0461  1.6417
 1239SOL     OW15349   4.040   4.543   8.787 -0.0492 -0.0499 -0.1188
 1239SOL    HW115350   3.978   4.553   8.715 -1.5786 -1.4940  0.9946
 1239SOL    HW215351   4.021   4.452   8.811  0.4670 -0.3185 -0.7310
 1240SOL     OW15352   2.378   1.560   1.610  0.1216  0.5064  0.3923
 1240SOL    HW115353   2.345   1.650   1.619 -2.1227 -0.1924 -0.7446
 1240SOL    HW215354   2.427   1.546   1.690  1.7234 -1.3494 -0.9232
 1241SOL     OW15355   4.676   0.814   8.924 -0.3651  0.9900 -0.2377
 1241SOL    HW115356   4.603   0.775   8.972  0.6688 -2.7902 -1.7004
 1241SOL    HW215357   4.636   0.858   8.849 -1.0743  1.1888  0.2493
 1242SOL     OW15358   2.145   4.578   2.066 -0.4278  0.2685  0.4556
 1242SOL    HW115359   2.229   4.583   2.113  0.3409 -0.4353 -0.8488
 1242SOL    HW215360   2.169   4.605   1.977  0.4665  0.6028  0.7880
 1243SOL     OW15361   1.756   3.677   8.309 -0.4469  0.0162 -0.3338
 1243SOL    HW115362   1.684   3.691   8.371  0.6763  1.1897  0.7003
 1243SOL    HW215363   1.745   3.586   8.283 -0.1967 -0.3459  0.8436
 1244SOL     OW15364   2.356   3.423   7.253 -0.4505 -0.4048  0.4536
 1244SOL    HW115365   2.397   3.343   7.220  1.8440  0.6276  0.7330
 1244SOL    HW215366   2.408   3.490   7.207 -1.6968  0.1689 -0.1053
 1245SOL     OW15367   4.595   1.205   7.848 -0.5852 -0.5032 -0.2634
 1245SOL    HW115368   4.616   1.130   7.793  1.1761 -0.1185 -0.1035
 1245SOL    HW215369   4.679   1.251   7.849 -1.0296  0.2523  2.8915
 1246SOL     OW15370   0.424   1.741   2.830  0.2968 -0.8107  0.1215
 1246SOL    HW115371   0.332   1.711   2.830 -0.1353  0.5308 -0.0560
 1246SOL    HW215372   0.405   1.823   2.784  1.4477 -0.5225  0.1681
 1247SOL     OW15373   3.226   0.743  14.306  0.4380 -0.2009  0.2147
 1247SOL    HW115374   3.133   0.749  14.284  1.1404 -1.9965 -3.3015
 1247SOL    HW215375   3.249   0.836  14.302  1.6280 -0.3867  2.7720
 1248SOL     OW15376   2.649   0.619   9.193 -0.3242 -0.0302  0.0495
 1248SOL    HW115377   2.654   0.599   9.286 -2.2663  2.6217  0.7402
 1248SOL    HW215378   2.602   0.703   9.193 -0.4776 -0.1055  2.2511
 1249SOL     OW15379   2.740   3.279   9.362 -0.0917 -0.5756  0.4977
 1249SOL    HW115380   2.792   3.305   9.438 -0.8621  3.8192 -0.4610
 1249SOL    HW215381   2.652   3.306   9.388 -0.0929 -1.3944  1.3210
 1250SOL     OW15382   2.007   1.778  13.712  0.3798 -0.1223  0.0227
 1250SOL    HW115383   2.075   1.745  13.654  1.0756  2.6007 -0.7282
 1250SOL    HW215384   1.928   1.740  13.673 -0.1218  1.4818 -0.5238
 1251SOL     OW15385   2.825   2.594   2.117 -0.5441  0.8775 -0.2740
 1251SOL    HW115386   2.838   2.612   2.024  0.4366 -0.2550 -0.3552
 1251SOL    HW215387   2.832   2.679   2.159 -1.3118  1.5510 -1.5118
 1252SOL     OW15388   2.505   1.553   8.147 -0.1511 -0.6465  0.5510
 1252SOL    HW115389   2.472   1.588   8.064 -0.0999 -0.3778  0.6425
 1252SOL    HW215390   2.431   1.495   8.165 -2.6049  3.0724  2.5628
 1253SOL     OW15391   4.590   2.232   3.310  0.0849 -0.1625 -0.1236
 1253SOL    HW115392   4.615   2.308   3.362  0.5433  0.6791 -1.5750
 1253SOL    HW215393   4.604   2.263   3.221  1.1323  2.0869  0.8405
 1254SOL     OW15394   3.334   0.963   8.757 -0.3651 -0.5749 -0.1081
 1254SOL    HW115395   3.406   1.016   8.790  0.1209 -1.3504  0.0957
 1254SOL    HW215396   3.266   0.981   8.822  0.8450  0.0547  0.9816
 1255SOL     OW15397   4.694   1.881   5.992 -0.0729  0.5425 -0.4549
 1255SOL    HW115398   4.681   1.963   5.946  2.3611 -0.5102 -3.0529
 1255SOL    HW215399   4.701   1.812   5.926 -0.4083  0.1018 -0.0290
 1256SOL     OW15400   1.238   2.600   2.764 -0.1240  0.0623 -0.1122
 1256SOL    HW115401   1.239   2.690   2.731  0.6050  0.3730  0.7608
 1256SOL    HW215402   1.304   2.598   2.833 -0.0850  0.9013 -0.1285
 1257SOL     OW15403   3.604   2.430   8.045 -0.0571 -0.7066 -0.4406
 1257SOL    HW115404   3.564   2.383   8.118 -0.5074  2.4688  1.3218
 1257SOL    HW215405   3.583   2.374   7.969  1.9856 -0.8025 -0.9287
 1258SOL     OW15406   2.956   2.015   7.077 -0.0039  0.0139  0.2262
 1258SOL    HW115407   2.927   2.104   7.059 -2.3411 -0.5356  1.1382
 1258SOL    HW215408   3.042   2.012   7.036 -0.4399  1.0412 -0.7495
 1259SOL     OW15409   0.416   2.731   3.811  0.1711 -0.5237  0.0631
 1259SOL    HW115410   0.410   2.639   3.787  2.0187 -0.5414 -0.3702
 1259SOL    HW215411   0.489   2.763   3.758  0.1359 -0.8648 -0.1843
 1260SOL     OW15412   2.427   0.662   6.207  0.4527  0.0269  0.3507
 1260SOL    HW115413   2.482   0.740   6.206  0.9584 -0.3261  1.5606
 1260SOL    HW215414   2.484   0.603   6.157  0.4903  0.2667  0.1087
 1261SOL     OW15415   1.378   3.608   0.456 -0.6882 -0.5678  0.2527
 1261SOL    HW115416   1.336   3.557   0.387 -1.2783 -1.2248  1.1041
 1261SOL    HW215417   1.330   3.690   0.445  2.4346  1.2183 -0.1776
 1262SOL     OW15418   3.135   1.039   8.916  0.3858 -0.6458  0.3985
 1262SOL    HW115419   3.048   1.079   8.910  1.2825  1.0653 -1.0093
 1262SOL    HW215420   3.182   1.118   8.892  0.6207 -0.9579 -0.1637
 1263SOL     OW15421   2.324   0.099   8.724 -0.4053  0.0470  0.2578
 1263SOL    HW115422   2.295   0.151   8.799 -1.1455 -1.0328  0.7340
 1263SOL    HW215423   2.380   0.036   8.768  0.2109 -0.1246 -0.7704
 1264SOL     OW15424   2.811   3.669   8.655 -0.4320 -0.2914 -0.2222
 1264SOL    HW115425   2.786   3.578   8.674 -0.5586  0.1845  1.9419
 1264SOL    HW215426   2.814   3.669   8.560  0.5960 -0.6711 -0.1962
 1265SOL     OW15427   3.938   1.101   2.175 -0.6240  0.6938 -0.0273
 1265SOL    HW115428   3.916   1.059   2.258  1.0965  1.7626  0.9647
 1265SOL    HW215429   3.950   1.191   2.206 -0.8738  0.3655  1.0258
 1266SOL     OW15430   3.882   3.506  17.371  0.8292 -0.0767 -0.6117
 1266SOL    HW115431   3.833   3.578  17.330 -0.8694 -1.6495 -1.2958
 1266SOL    HW215432   3.873   3.535  17.462 -1.2400  0.2867 -0.9204
 1267SOL     OW15433   1.423   1.144   6.390 -0.0325 -0.4669 -0.9440
 1267SOL    HW115434   1.400   1.214   6.451  0.6527 -0.3938 -0.7764
 1267SOL    HW215435   1.518   1.150   6.378 -0.2240  0.3624 -1.9974
 1268SOL     OW15436   3.612   1.102   5.528 -0.6566  0.0736 -0.3746
 1268SOL    HW115437   3.628   1.087   5.435  2.3406  0.4898  0.0456
 1268SOL    HW215438   3.518   1.090   5.532 -0.3608 -1.4428  1.9871
 1269SOL     OW15439   0.529   2.642   1.695 -0.2269 -0.3033  0.2032
 1269SOL    HW115440   0.567   2.724   1.664 -1.5978  0.8502  1.6047
 1269SOL    HW215441   0.581   2.572   1.655  0.7706  0.2890  0.4458
 1270SOL     OW15442   0.505   0.586   4.237  0.3081 -0.3939 -0.0274
 1270SOL    HW115443   0.464   0.504   4.210  2.2797 -0.6118 -2.3133
 1270SOL    HW215444   0.429   0.625   4.279  1.3741  0.7814  0.7976
 1271SOL     OW15445   3.599   2.292  11.669  0.0192 -0.0505  0.2616
 1271SOL    HW115446   3.645   2.363  11.713  1.7238  0.0244 -1.6648
 1271SOL    HW215447   3.550   2.341  11.603  1.7106  1.2531 -0.0112
 1272SOL     OW15448   1.439   1.055   2.229  0.4208 -0.1374  0.0260
 1272SOL    HW115449   1.352   1.073   2.193  0.5415  0.2074 -0.0841
 1272SOL    HW215450   1.425   0.972   2.276  2.0326 -1.3304 -1.5761
 1273SOL     OW15451   0.966   4.063   2.215 -0.5344 -0.3448  0.4417
 1273SOL    HW115452   0.995   4.027   2.131 -1.9369 -1.1845  0.3165
 1273SOL    HW215453   0.986   4.157   2.213 -0.0130 -0.4053  2.8445
 1274SOL     OW15454   1.828   3.596  15.273  0.3313  0.1859 -0.2008
 1274SOL    HW115455   1.822   3.569  15.364  1.3126  0.8910  0.0784
 1274SOL    HW215456   1.774   3.676  15.276  0.3051  0.2177 -1.3058
 1275SOL     OW15457   2.657   4.671   3.241  0.3572  0.2597 -0.3326
 1275SOL    HW115458   2.715   4.649   3.167 -0.3251  0.2984 -0.8832
 1275SOL    HW215459   2.577   4.677   3.189 -0.4832 -0.8193  0.8238
 1276SOL     OW15460   2.462   2.947   7.371 -0.3724  0.3087  0.4568
 1276SOL    HW115461   2.522   2.888   7.326 -1.0826 -0.5031  0.5725
 1276SOL    HW215462   2.382   2.896   7.385 -0.7739  1.0215  0.7571
 1277SOL     OW15463   1.435   3.046   2.358  0.1067  0.2101  0.7908
 1277SOL    HW115464   1.503   2.980   2.344 -1.6276 -1.1967 -0.9245
 1277SOL    HW215465   1.487   3.102   2.416  1.8671  1.2374 -1.8223
 1278SOL     OW15466   3.240   4.473   0.251  0.3985  0.1879 -0.6355
 1278SOL    HW115467   3.235   4.491   0.345  1.0342 -1.7993 -0.2273
 1278SOL    HW215468   3.307   4.536   0.225  0.0814  1.3652  1.3655
 1279SOL     OW15469   0.257   1.346  15.558  0.0203  0.0494 -0.1122
 1279SOL    HW115470   0.304   1.422  15.525 -1.9369  0.2136 -2.4831
 1279SOL    HW215471   0.290   1.336  15.648  1.4985  0.6866 -0.5871
 1280SOL     OW15472   1.885   1.046   7.020  0.6976  0.0723 -0.2379
 1280SOL    HW115473   1.850   0.971   7.067  2.2458 -0.4912  0.0056
 1280SOL    HW215474   1.801   1.084   6.991  1.0645  1.9147  1.1790
 1281SOL     OW15475   1.570   2.606   8.130  0.4671  0.2088  0.3557
 1281SOL    HW115476   1.484   2.575   8.159 -0.3887  2.0606 -0.1987
 1281SOL    HW215477   1.598   2.681   8.183  2.7478 -1.0108  0.8800
 1282SOL     OW15478   2.976   0.831   9.207 -0.6738  0.1963  0.3178
 1282SOL    HW115479   3.035   0.816   9.281 -1.4362 -1.2847  0.6388
 1282SOL    HW215480   2.960   0.922   9.230 -0.5672 -0.4779  3.0659
 1283SOL     OW15481   3.580   3.340   6.708 -1.2088  0.4276  0.4827
 1283SOL    HW115482   3.651   3.277   6.720 -2.0045 -0.2666  1.5529
 1283SOL    HW215483   3.565   3.369   6.798  1.2668  1.4793  0.5425
 1284SOL     OW15484   0.531   3.142   4.587 -0.1683  0.6351 -0.1266
 1284SOL    HW115485   0.565   3.085   4.518 -0.9863 -0.8209  0.6505
 1284SOL    HW215486   0.598   3.124   4.653 -0.3389 -0.8435 -0.3608
 1285SOL     OW15487   2.668   1.202   8.289 -0.2414 -0.2209  0.1956
 1285SOL    HW115488   2.751   1.165   8.259  0.2362 -0.2856  1.5792
 1285SOL    HW215489   2.693   1.292   8.310  1.2639 -0.7775  0.8181
 1286SOL     OW15490   2.087   0.452   7.163  0.2326 -0.4139  0.0013
 1286SOL    HW115491   2.147   0.436   7.235 -0.9366 -2.0057  0.6048
 1286SOL    HW215492   2.049   0.534   7.197 -0.5521 -0.7834  0.0167
 1287SOL     OW15493   2.996   3.808   4.011  0.0626 -0.7394 -0.3437
 1287SOL    HW115494   2.924   3.816   3.949 -0.3052 -0.3174  0.1322
 1287SOL    HW215495   2.965   3.847   4.093 -0.2876 -1.2471 -0.2280
 1288SOL     OW15496   2.099   3.330   5.266  0.2173  0.7383 -0.4350
 1288SOL    HW115497   2.126   3.385   5.339  1.3260  1.3723 -1.3222
 1288SOL    HW215498   2.169   3.345   5.203  1.1586 -0.0901  0.4186
 1289SOL     OW15499   4.035   2.416   5.421  0.4653 -0.1298  0.5902
 1289SOL    HW115500   4.041   2.339   5.478  1.0196  2.3784  3.9127
 1289SOL    HW215501   3.941   2.428   5.436 -0.0132 -1.7413 -1.1815
 1290SOL     OW15502   1.973   2.285   7.635  0.0847 -0.0889 -0.5146
 1290SOL    HW115503   1.961   2.366   7.584  3.0098 -0.1364 -1.2844
 1290SOL    HW215504   2.053   2.302   7.686 -0.4434 -0.0873  0.3086
 1291SOL     OW15505   1.583   3.156  13.770  0.0319  0.4663  0.2375
 1291SOL    HW115506   1.565   3.234  13.718 -1.9486 -0.7084 -0.8653
 1291SOL    HW215507   1.503   3.164  13.822  0.3351  0.9803  0.6226
 1292SOL     OW15508   1.379   0.568   1.954  0.5770 -0.5714  0.5100
 1292SOL    HW115509   1.381   0.487   1.904 -0.7495  1.0295 -2.1385
 1292SOL    HW215510   1.461   0.606   1.924  0.0125 -0.4593 -0.9179
 1293SOL     OW15511   4.334   3.216   2.433  0.0714 -0.3815  0.0682
 1293SOL    HW115512   4.424   3.228   2.402  0.0544 -1.4096 -0.3640
 1293SOL    HW215513   4.293   3.297   2.403  1.5633  0.1326 -0.5581
 1294SOL     OW15514   2.515   1.081   4.220 -0.0111  0.3889 -0.1617
 1294SOL    HW115515   2.573   1.129   4.280 -0.5861 -0.2598  0.9043
 1294SOL    HW215516   2.567   1.001   4.207 -0.6837 -0.5092  2.7166
 1295SOL     OW15517   3.076   3.928  17.370  0.1314 -0.3485  0.4738
 1295SOL    HW115518   3.152   3.948  17.425  1.0115  0.2342 -0.9586
 1295SOL    HW215519   3.008   3.985  17.406 -0.0382  0.3511 -0.9343
 1296SOL     OW15520   4.081   4.577   4.202 -0.0335 -0.2940 -0.0675
 1296SOL    HW115521   4.128   4.650   4.243  0.0449  0.3411 -1.2682
 1296SOL    HW215522   4.100   4.501   4.256 -1.6841  1.1383  2.5445
 1297SOL     OW15523   2.057   2.637   8.901 -0.0267 -0.0303 -0.0408
 1297SOL    HW115524   1.967   2.655   8.927  0.7675  2.0099  1.2613
 1297SOL    HW215525   2.114   2.678   8.967  1.5850 -0.8572 -0.9219
 1298SOL     OW15526   4.431   1.748   7.229 -0.0940 -0.9677 -0.0555
 1298SOL    HW115527   4.376   1.812   7.184  0.8151 -0.6581 -0.7170
 1298SOL    HW215528   4.494   1.808   7.269  0.7805 -1.6715 -0.3848
 1299SOL     OW15529   2.619   2.211   6.557  0.3392  0.0284  0.3734
 1299SOL    HW115530   2.554   2.277   6.530  2.6275  1.6665 -1.1334
 1299SOL    HW215531   2.569   2.137   6.592  1.5652 -0.2880  1.4498
 1300SOL     OW15532   2.930   2.971   7.755 -0.3228  0.4933  0.6785
 1300SOL    HW115533   3.004   2.922   7.791 -0.1165 -2.3024 -3.5137
 1300SOL    HW215534   2.908   2.916   7.680 -0.3414  1.1723  0.1825
 1301SOL     OW15535   1.208   3.241  16.846  0.1269 -0.8049 -0.2493
 1301SOL    HW115536   1.290   3.219  16.802  1.1027 -0.6363  1.4539
 1301SOL    HW215537   1.153   3.182  16.795  0.2941  0.1045 -1.4922
 1302SOL     OW15538   2.635   4.351  16.124  0.2799  0.2227 -0.5743
 1302SOL    HW115539   2.712   4.345  16.180 -0.1282  0.5518  0.0315
 1302SOL    HW215540   2.609   4.443  16.133  0.4269  0.2187 -0.1497
 1303SOL     OW15541   0.016   0.949  10.200 -0.1980  0.3505 -0.3457
 1303SOL    HW115542   4.678   0.895  10.224  0.9667 -0.7478  0.8676
 1303SOL    HW215543   4.712   1.012  10.140  0.0480  1.4090  0.6043
 1304SOL     OW15544   3.016   1.828   7.412  0.2172  0.3831  0.3809
 1304SOL    HW115545   3.090   1.769   7.408  1.2882  1.6714  1.0552
 1304SOL    HW215546   3.010   1.849   7.505  1.8302  2.5471 -0.0126
 1305SOL     OW15547   1.961   0.878   8.353  0.5740  0.2752 -0.0440
 1305SOL    HW115548   1.950   0.972   8.365 -1.4596 -0.0156  0.4267
 1305SOL    HW215549   1.978   0.861   8.446  2.5959  2.0844 -0.0797
 1306SOL     OW15550   4.324   1.936   2.995  0.0283  0.0367  0.4103
 1306SOL    HW115551   4.237   1.930   2.957 -1.3581 -1.0284  3.7616
 1306SOL    HW215552   4.319   1.993   3.071  2.3508 -1.8663  2.0061
 1307SOL     OW15553   0.814   1.239   7.098  0.5336  0.0438 -0.5216
 1307SOL    HW115554   0.866   1.237   7.018 -0.3472 -1.0626 -1.0748
 1307SOL    HW215555   0.841   1.160   7.144 -0.8743 -0.6289 -0.8457
 1308SOL     OW15556   2.160   1.826   8.011 -0.2765  0.2468 -0.1902
 1308SOL    HW115557   2.162   1.763   8.083  3.3099  0.9901  0.3528
 1308SOL    HW215558   2.142   1.770   7.936  0.2538  2.2201 -1.7918
 1309SOL     OW15559   0.962   3.691   7.774 -0.1230  0.1230  0.0685
 1309SOL    HW115560   1.020   3.766   7.787 -0.3114  0.4026 -0.6837
 1309SOL    HW215561   0.968   3.645   7.858 -0.2547  0.0082  0.0142
 1310SOL     OW15562   1.328   4.577  15.893  0.3138 -0.3925 -0.2907
 1310SOL    HW115563   1.413   4.576  15.850  0.9388 -2.0193  0.9943
 1310SOL    HW215564   1.266   4.546  15.826 -1.3040  2.3209 -0.0480
 1311SOL     OW15565   4.066   0.710  12.034  0.3193  0.1472  0.3113
 1311SOL    HW115566   3.974   0.737  12.030  0.1282 -0.5367  0.1739
 1311SOL    HW215567   4.104   0.793  12.004  1.0240 -0.5409 -0.6739
 1312SOL     OW15568   2.218   3.073  13.155  0.5096 -0.0369 -1.6079
 1312SOL    HW115569   2.136   3.065  13.107 -2.3196  1.5556  2.8910
 1312SOL    HW215570   2.232   2.980  13.173 -0.9547 -0.4178 -2.4399
 1313SOL     OW15571   0.072   3.158   8.454  0.2895 -0.6747 -0.3043
 1313SOL    HW115572   0.136   3.113   8.398 -0.0960 -0.3781 -0.9810
 1313SOL    HW215573   0.130   3.189   8.523  1.6889  0.8925 -2.1697
 1314SOL     OW15574   0.064   3.829   8.113 -0.8649 -0.1730  0.0821
 1314SOL    HW115575   0.138   3.796   8.164 -0.6077 -0.0512 -0.2174
 1314SOL    HW215576   0.049   3.921   8.136 -0.6985 -0.5817  1.8512
 1315SOL     OW15577   2.113   4.691   7.281 -0.0700 -0.0248 -0.0569
 1315SOL    HW115578   2.090   4.598   7.281 -1.5001  0.3420 -1.1126
 1315SOL    HW215579   2.054   4.724   7.213  0.7731  1.2764 -0.1688
 1316SOL     OW15580   1.951   0.636   5.506 -0.6332 -0.5559  0.2157
 1316SOL    HW115581   1.963   0.541   5.506  2.2218 -0.1828  0.7565
 1316SOL    HW215582   1.855   0.639   5.513 -0.6648 -2.6768  0.8618
 1317SOL     OW15583   3.857   2.069   3.812  0.2020 -0.4431 -0.2361
 1317SOL    HW115584   3.896   2.022   3.885  1.7279  0.3887 -0.5213
 1317SOL    HW215585   3.930   2.089   3.753  0.8932  0.8158  1.0530
 1318SOL     OW15586   0.307   4.338   8.540 -0.1709 -0.0541  0.2751
 1318SOL    HW115587   0.325   4.388   8.461  3.6069 -1.7492  0.0274
 1318SOL    HW215588   0.388   4.359   8.586 -0.1187  1.9949 -0.7603
 1319SOL     OW15589   3.629   2.509   1.927  0.2401  0.1022  0.3867
 1319SOL    HW115590   3.581   2.470   2.000 -0.6203 -0.4291 -0.4618
 1319SOL    HW215591   3.611   2.444   1.858 -0.1229  0.0819  0.5016
 1320SOL     OW15592   0.140   2.388   5.590  0.6464  0.1745  0.1757
 1320SOL    HW115593   0.045   2.397   5.596  0.5726 -1.0683  0.8786
 1320SOL    HW215594   0.167   2.476   5.562 -2.2719  1.3158  0.9380
 1321SOL     OW15595   0.404   1.981   2.682  0.1157  0.4583 -0.5467
 1321SOL    HW115596   0.401   2.069   2.719  0.6828  0.3723 -0.2987
 1321SOL    HW215597   0.337   1.976   2.614  2.1486 -0.0813 -2.5478
 1322SOL     OW15598   0.339   0.169  12.650  0.0288 -0.2262  0.3841
 1322SOL    HW115599   0.251   0.131  12.645  0.0101  0.0106 -1.0257
 1322SOL    HW215600   0.364   0.151  12.741 -0.5897 -1.1434  0.3742
 1323SOL     OW15601   0.375   1.305   4.291  0.0676 -0.0564  0.5847
 1323SOL    HW115602   0.415   1.218   4.290 -2.8959 -1.4255  0.8555
 1323SOL    HW215603   0.324   1.290   4.371  0.9300 -0.1565  1.1240
 1324SOL     OW15604   4.423   2.768   9.350  0.4282 -0.0785  0.5648
 1324SOL    HW115605   4.414   2.718   9.431  3.1019  1.7293  1.9894
 1324SOL    HW215606   4.383   2.855   9.356  1.8774  0.5324  1.3171
 1325SOL     OW15607   1.351   2.925   7.146 -0.6210 -0.3775 -0.3799
 1325SOL    HW115608   1.274   2.955   7.098  0.0753 -1.0689 -1.9442
 1325SOL    HW215609   1.344   2.976   7.226 -0.7685 -0.6152 -0.2390
 1326SOL     OW15610   2.769   1.079   4.968 -0.7609  0.0088 -0.3727
 1326SOL    HW115611   2.714   1.029   4.907 -1.4791  0.9901 -0.5255
 1326SOL    HW215612   2.746   1.039   5.051  0.0738  0.3979  0.0464
 1327SOL     OW15613   3.111   2.347   7.806 -0.3952  0.5569  0.3758
 1327SOL    HW115614   3.176   2.312   7.868 -0.8689 -0.2741  0.4098
 1327SOL    HW215615   3.171   2.363   7.733 -0.3617 -1.2326  0.0085
 1328SOL     OW15616   0.792   3.623   6.328  0.7200  0.3056 -0.0511
 1328SOL    HW115617   0.824   3.570   6.401 -0.6494 -1.7058 -0.9335
 1328SOL    HW215618   0.864   3.610   6.266  0.5257 -0.8607 -0.0180
 1329SOL     OW15619   3.017   1.867  14.845 -0.2550 -0.0566  0.0798
 1329SOL    HW115620   2.986   1.822  14.767 -1.1498  0.5833  0.0673
 1329SOL    HW215621   3.111   1.883  14.835  0.1045 -1.0548  1.8581
 1330SOL     OW15622   0.129   3.622   5.257 -0.3080 -0.8646  0.4897
 1330SOL    HW115623   0.087   3.703   5.285  0.5558  0.1983 -1.2470
 1330SOL    HW215624   0.066   3.576   5.201  1.3174 -1.2346 -1.0386
 1331SOL     OW15625   0.781   2.651   3.749 -0.2078 -0.2764  0.1537
 1331SOL    HW115626   0.731   2.701   3.685  1.1293 -0.4414 -1.0027
 1331SOL    HW215627   0.765   2.561   3.718  0.3011  0.4046 -2.0736
 1332SOL     OW15628   0.352   4.655   3.707 -0.2557  0.0521 -0.0516
 1332SOL    HW115629   0.300   4.644   3.787  0.4280 -0.0446  0.3833
 1332SOL    HW215630   0.440   4.663   3.745 -1.0312 -1.0118  1.9830
 1333SOL     OW15631   4.729   3.610  10.484  0.5218  0.5898 -0.1910
 1333SOL    HW115632   0.061   3.589  10.546 -2.0548 -0.5572  2.2767
 1333SOL    HW215633   4.656   3.635  10.541  1.5680  1.3614  0.8030
 1334SOL     OW15634   1.745   4.573   3.679  0.3124  0.0824  0.1356
 1334SOL    HW115635   1.830   4.606   3.710  1.4113 -0.5376 -2.2370
 1334SOL    HW215636   1.713   4.536   3.761 -1.2034 -0.2821 -0.6242
 1335SOL     OW15637   2.886   3.421   4.223 -0.4131  0.1800  0.2167
 1335SOL    HW115638   2.799   3.432   4.260  0.1399 -0.3110  1.6640
 1335SOL    HW215639   2.942   3.438   4.299  1.9124  0.4715 -1.5606
 1336SOL     OW15640   0.201   0.198   3.653 -0.1834  0.2497  0.4222
 1336SOL    HW115641   0.157   0.115   3.634  1.5617 -0.3619 -0.9951
 1336SOL    HW215642   0.128   0.257   3.669  0.8951  1.4626  0.8649
 1337SOL     OW15643   2.544   1.440   5.874 -0.3252 -0.0470 -0.0377
 1337SOL    HW115644   2.513   1.359   5.915  0.6822 -0.1794  0.4746
 1337SOL    HW215645   2.628   1.458   5.916 -0.2171 -2.0460  0.6311
 1338SOL     OW15646   4.159   2.607   5.077 -0.2012  0.5812  0.1539
 1338SOL    HW115647   4.160   2.512   5.066 -0.4909  0.4715  1.1164
 1338SOL    HW215648   4.142   2.614   5.171  0.5342 -0.7550  0.3881
 1339SOL     OW15649   0.058   2.494   2.017  0.0969 -0.3936  0.0118
 1339SOL    HW115650   0.054   2.547   1.937 -0.3410  0.5131  0.6382
 1339SOL    HW215651   4.718   2.519   2.067 -1.0714 -2.1685 -0.8899
 1340SOL     OW15652   0.669   3.891   0.298 -0.0566 -0.2959  0.5934
 1340SOL    HW115653   0.624   3.809   0.276  0.3634  0.0837 -1.6068
 1340SOL    HW215654   0.597   3.954   0.288  0.5811  0.4641  0.8634
 1341SOL     OW15655   0.882   2.685   9.630  0.1801 -0.1683 -0.4127
 1341SOL    HW115656   0.931   2.605   9.648 -0.3551 -0.7167 -1.4678
 1341SOL    HW215657   0.955   2.743   9.608  0.6070 -0.5921 -0.1188
 1342SOL     OW15658   3.121   1.285  10.728  0.1737 -0.0226  0.1848
 1342SOL    HW115659   3.212   1.265  10.749  0.1480 -0.4161 -0.0674
 1342SOL    HW215660   3.092   1.302  10.818  1.8474  1.7170  0.3917
 1343SOL     OW15661   1.104   0.525   9.732 -0.0079  0.1964 -0.2630
 1343SOL    HW115662   1.032   0.495   9.788  2.7398 -2.5613  1.7593
 1343SOL    HW215663   1.140   0.442   9.701 -0.1529  0.1633 -0.3436
 1344SOL     OW15664   3.234   4.089   2.064 -0.5624  0.6737 -0.1519
 1344SOL    HW115665   3.191   4.007   2.090  0.9452 -0.4187 -1.0992
 1344SOL    HW215666   3.176   4.151   2.108 -0.2334 -1.0812  2.7590
 1345SOL     OW15667   1.264   2.334   0.687 -0.2988 -0.0986 -0.2073
 1345SOL    HW115668   1.272   2.410   0.629  0.4487 -0.8289 -1.0632
 1345SOL    HW215669   1.328   2.276   0.644  0.5304  0.3150  0.4672
 1346SOL     OW15670   4.184   3.544   3.407  0.2743 -0.3449 -0.9178
 1346SOL    HW115671   4.259   3.506   3.454 -0.0723  1.5657  1.1919
 1346SOL    HW215672   4.213   3.536   3.316  1.4886  1.6610 -0.7062
 1347SOL     OW15673   0.893   3.735   2.032  0.0359  0.2120  0.2563
 1347SOL    HW115674   0.859   3.783   2.107 -1.0428  0.7724 -0.6055
 1347SOL    HW215675   0.987   3.742   2.050  0.4960 -0.9887 -1.5502
 1348SOL     OW15676   0.211   4.194   4.253  0.4711 -0.5170 -0.0466
 1348SOL    HW115677   0.252   4.140   4.321  0.5365  1.9064  1.8613
 1348SOL    HW215678   0.197   4.121   4.194 -0.2964  0.0536 -0.5721
 1349SOL     OW15679   1.997   1.879   4.147  0.1372 -0.1490  0.2067
 1349SOL    HW115680   2.086   1.912   4.143  0.2363 -0.3972  0.3490
 1349SOL    HW215681   2.002   1.795   4.194  0.5934  0.4945  1.3057
 1350SOL     OW15682   2.161   1.631   9.215 -0.2267 -0.0010 -0.4199
 1350SOL    HW115683   2.097   1.604   9.281 -0.8951  3.9559  0.5212
 1350SOL    HW215684   2.231   1.566   9.226 -0.8234 -0.4690  0.5477
 1351SOL     OW15685   0.848   3.401   8.850 -0.2394  0.2121  0.4638
 1351SOL    HW115686   0.880   3.406   8.760 -1.5708  0.9379  0.0278
 1351SOL    HW215687   0.816   3.312   8.865 -0.1610 -0.2487 -2.0537
 1352SOL     OW15688   1.015   3.437   4.481  0.0403  0.7075  0.0086
 1352SOL    HW115689   1.014   3.383   4.560 -0.2313 -0.6010 -0.8987
 1352SOL    HW215690   0.939   3.495   4.493  0.0104  0.8136 -0.6963
 1353SOL     OW15691   1.389   3.865   3.496 -0.7053 -0.2541  0.2943
 1353SOL    HW115692   1.394   3.824   3.583 -1.0112 -1.3784 -0.2212
 1353SOL    HW215693   1.360   3.952   3.525  3.9850  0.5317  2.7162
 1354SOL     OW15694   4.633   1.212  16.907 -0.0704  0.3444  0.6149
 1354SOL    HW115695   4.699   1.270  16.944  1.6046 -1.4061  0.3918
 1354SOL    HW215696   4.676   1.176  16.829 -2.7791  0.3585 -0.8523
 1355SOL     OW15697   2.790   0.056   8.905  0.0286 -0.0349 -0.0094
 1355SOL    HW115698   2.876   0.013   8.898 -0.6330 -0.9079 -2.6856
 1355SOL    HW215699   2.793   0.083   8.997  0.3169  3.2316 -0.9643
 1356SOL     OW15700   0.619   3.119  10.475  0.3073 -0.2755 -0.1454
 1356SOL    HW115701   0.629   3.059  10.550  1.9451  1.3810  0.9588
 1356SOL    HW215702   0.687   3.178  10.508 -0.2083  0.6599 -0.7802
 1357SOL     OW15703   3.487   2.252   7.557 -0.1256  0.2445 -0.0255
 1357SOL    HW115704   3.483   2.252   7.653 -0.8017 -0.2385 -0.0529
 1357SOL    HW215705   3.518   2.162   7.543  1.0157  0.8515 -1.3559
 1358SOL     OW15706   3.968   4.485  12.831 -0.0612  0.7146 -0.0316
 1358SOL    HW115707   3.934   4.467  12.743 -2.1188 -2.3276  1.3603
 1358SOL    HW215708   4.045   4.541  12.823  0.0389  0.3911 -1.4608
 1359SOL     OW15709   3.774   0.655   6.460 -0.2990  0.4696 -0.0389
 1359SOL    HW115710   3.705   0.719   6.441 -1.1675 -0.1940  0.8557
 1359SOL    HW215711   3.767   0.608   6.377 -0.6783 -1.1183  0.8986
 1360SOL     OW15712   2.788   0.971  16.381 -0.7836 -0.0803 -0.6562
 1360SOL    HW115713   2.702   0.930  16.373 -1.1303  0.2161  1.3820
 1360SOL    HW215714   2.851   0.903  16.355 -1.7891 -1.4520  0.4455
 1361SOL     OW15715   2.335   3.580   7.886 -0.7897 -0.8386 -0.0370
 1361SOL    HW115716   2.343   3.519   7.960 -1.2803 -2.0326 -0.9783
 1361SOL    HW215717   2.420   3.572   7.843 -0.8665  2.2561 -0.7290
 1362SOL     OW15718   2.101   4.136   1.943 -0.1662 -0.1623  0.0867
 1362SOL    HW115719   2.040   4.071   1.907 -0.9650  0.0802  0.9764
 1362SOL    HW215720   2.171   4.131   1.879  0.1395 -1.5106  0.5263
 1363SOL     OW15721   1.703   2.430   7.950  0.2454 -0.2834  0.0098
 1363SOL    HW115722   1.776   2.394   8.000 -0.2557 -1.3102 -0.0000
 1363SOL    HW215723   1.650   2.477   8.014  0.5228  2.8412 -2.0737
 1364SOL     OW15724   3.531   2.251   8.237 -0.3831  0.4834  0.2544
 1364SOL    HW115725   3.508   2.178   8.180  0.8896 -0.7408  1.3422
 1364SOL    HW215726   3.531   2.219   8.327 -1.6825 -1.4707 -0.4529
 1365SOL     OW15727   2.887   4.394   2.380 -0.7566  0.2113 -0.0805
 1365SOL    HW115728   2.881   4.482   2.342 -0.0825  0.8969  1.4109
 1365SOL    HW215729   2.831   4.343   2.321  2.7793  0.4236 -3.6841
 1366SOL     OW15730   2.476   3.202   7.169  0.0605 -0.4227 -0.0944
 1366SOL    HW115731   2.460   3.119   7.213 -0.0879 -0.3403  0.0086
 1366SOL    HW215732   2.562   3.224   7.206  0.5333  1.5448 -2.3261
 1367SOL     OW15733   1.003   0.838  11.071  0.0605  0.1176  0.5810
 1367SOL    HW115734   0.953   0.917  11.047 -0.6641 -0.7486 -0.7654
 1367SOL    HW215735   1.044   0.869  11.152 -2.3159  1.2808  1.3442
 1368SOL     OW15736   1.092   0.231   9.729 -0.3056  0.2723 -0.0961
 1368SOL    HW115737   1.106   0.143   9.693 -0.9825 -0.5069  1.4956
 1368SOL    HW215738   1.147   0.234   9.807 -1.3703  0.1599  0.6645
 1369SOL     OW15739   0.402   2.267   9.528 -0.2514 -0.2929 -0.0644
 1369SOL    HW115740   0.311   2.288   9.550 -0.6851 -2.4826  0.2492
 1369SOL    HW215741   0.445   2.352   9.535 -2.0489  0.5424  1.1201
 1370SOL     OW15742   4.195   2.137  15.275 -0.5212 -0.4067  0.3517
 1370SOL    HW115743   4.199   2.042  15.264  0.9531 -0.1981 -0.9744
 1370SOL    HW215744   4.114   2.160  15.228 -0.8814 -0.2912  1.0302
 1371SOL     OW15745   0.027   0.705   5.736 -0.0637  0.0531 -0.3083
 1371SOL    HW115746   0.095   0.756   5.780  0.1965 -1.4991  1.1220
 1371SOL    HW215747   4.699   0.703   5.805  0.1754  1.3515 -0.0509
 1372SOL     OW15748   2.120   4.205  15.062 -0.7595 -0.3428  0.2766
 1372SOL    HW115749   2.102   4.293  15.095  1.9666  0.7710 -1.1684
 1372SOL    HW215750   2.207   4.225  15.026 -1.6593  1.5493 -0.8460
 1373SOL     OW15751   3.225   1.585  13.888  0.1589  0.0936  0.0467
 1373SOL    HW115752   3.258   1.566  13.800  1.3103 -0.4933  0.6047
 1373SOL    HW215753   3.133   1.574  13.867  0.4465 -2.0186 -0.0442
 1374SOL     OW15754   2.991   3.591   5.423 -0.3136 -0.0177  0.7025
 1374SOL    HW115755   3.025   3.502   5.436 -1.5702 -0.6479 -0.2784
 1374SOL    HW215756   3.042   3.613   5.345  0.8057 -3.9752  0.3231
 1375SOL     OW15757   2.794   0.996   4.311 -0.6004 -0.2593  0.7476
 1375SOL    HW115758   2.863   0.944   4.351 -0.3962 -1.4035 -1.1212
 1375SOL    HW215759   2.824   1.005   4.221 -0.3394  0.3901  0.8965
 1376SOL     OW15760   1.866   4.362   4.556  0.7419 -0.0461  0.0218
 1376SOL    HW115761   1.881   4.386   4.647 -0.5219  0.5781  0.0598
 1376SOL    HW215762   1.896   4.271   4.554 -0.1567 -0.3331 -0.6543
 1377SOL     OW15763   4.714   1.092   2.161  0.0854  0.1780 -0.0570
 1377SOL    HW115764   0.048   1.124   2.107 -0.4551  0.3436 -0.6720
 1377SOL    HW215765   4.645   1.109   2.097 -1.1090 -1.0761  0.8993
 1378SOL     OW15766   0.402   1.432  15.179 -0.0865  0.2137 -0.1126
 1378SOL    HW115767   0.338   1.482  15.230 -2.0444 -2.0290 -0.3990
 1378SOL    HW215768   0.335   1.384  15.131  1.9623 -3.1212  0.3649
 1379SOL     OW15769   3.111   2.622   3.591  0.7246 -0.0070 -0.1851
 1379SOL    HW115770   3.132   2.620   3.498 -1.3922 -1.7866 -0.6377
 1379SOL    HW215771   3.020   2.593   3.590  1.1608 -1.4238  1.5250
 1380SOL     OW15772   1.990   1.537  10.801 -0.0339 -0.1692 -0.1101
 1380SOL    HW115773   2.055   1.533  10.731 -0.1494  0.6190 -0.2642
 1380SOL    HW215774   2.028   1.572  10.881  0.4169 -3.5467  1.1585
 1381SOL     OW15775   4.560   4.727  10.568  0.8454  0.3845 -0.5570
 1381SOL    HW115776   4.527   4.669  10.499  2.0270 -1.0029  0.0263
 1381SOL    HW215777   4.638   4.681  10.600  0.7592  1.5528  1.2954
 1382SOL     OW15778   0.524   4.450   8.688 -0.2113  0.4290  0.6565
 1382SOL    HW115779   0.579   4.522   8.657 -0.3981  1.4044  2.5759
 1382SOL    HW215780   0.495   4.495   8.768  1.6144  0.0773  1.5203
 1383SOL     OW15781   3.550   4.163  14.471  0.2991 -0.5561  0.4005
 1383SOL    HW115782   3.605   4.129  14.541  0.7372  1.0153  0.8125
 1383SOL    HW215783   3.496   4.234  14.506 -0.1477 -0.3542 -0.6964
 1384SOL     OW15784   2.926   2.479   9.030  0.1043 -0.0745  0.5217
 1384SOL    HW115785   2.904   2.500   9.121 -0.4235  3.7569 -0.4975
 1384SOL    HW215786   2.903   2.558   8.982 -0.3496 -0.2368  0.4686
 1385SOL     OW15787   0.186   4.251   2.965 -0.2270 -0.6726 -0.3671
 1385SOL    HW115788   0.237   4.226   2.889 -0.0130 -0.3450 -0.3310
 1385SOL    HW215789   0.201   4.175   3.022  2.3988 -0.5631 -0.8902
 1386SOL     OW15790   3.545   4.235  12.450 -0.2680 -0.1760 -0.5833
 1386SOL    HW115791   3.592   4.294  12.391 -2.7457  0.6117 -1.7672
 1386SOL    HW215792   3.479   4.295  12.485 -0.6874 -1.5460  0.9841
 1387SOL     OW15793   2.583   0.201  14.635  0.5004 -0.0446 -0.3997
 1387SOL    HW115794   2.655   0.157  14.679  0.6442  1.3376  0.7384
 1387SOL    HW215795   2.527   0.126  14.613 -0.4918  0.6516 -0.2780
 1388SOL     OW15796   1.290   3.552   1.942  0.6419  0.7778 -0.5253
 1388SOL    HW115797   1.258   3.577   1.856  0.1102  0.9326 -0.2821
 1388SOL    HW215798   1.295   3.457   1.929 -0.6939  0.8209 -1.3873
 1389SOL     OW15799   2.724   4.459   0.987 -0.2388 -0.1061 -0.3097
 1389SOL    HW115800   2.763   4.496   0.908  2.9972 -1.8124  0.4767
 1389SOL    HW215801   2.687   4.379   0.950  1.5468 -1.2543  0.3621
 1390SOL     OW15802   2.866   1.383   4.831  0.2698  0.1688 -0.4807
 1390SOL    HW115803   2.895   1.427   4.911  2.6664 -4.0212  0.9278
 1390SOL    HW215804   2.923   1.425   4.766 -0.7682 -1.6216 -2.5533
 1391SOL     OW15805   2.192   2.359   7.745 -0.1936  0.1811  0.2260
 1391SOL    HW115806   2.286   2.340   7.750 -0.2672 -0.1499  0.3631
 1391SOL    HW215807   2.177   2.391   7.835  0.4263  0.3482  0.2683
 1392SOL     OW15808   2.448   1.109  11.610  0.0990 -0.2241  0.2588
 1392SOL    HW115809   2.522   1.110  11.549  0.4808  2.8277  0.7695
 1392SOL    HW215810   2.376   1.117  11.548  1.9281 -1.8944 -2.1039
 1393SOL     OW15811   3.389   1.888   8.338 -0.0856 -0.1550 -0.0149
 1393SOL    HW115812   3.405   1.976   8.372  1.3755 -0.3771 -0.1200
 1393SOL    HW215813   3.358   1.910   8.250 -0.5351 -1.5453 -0.2110
 1394SOL     OW15814   2.093   4.352   2.418  0.4041 -0.4011  0.4061
 1394SOL    HW115815   2.023   4.290   2.436 -0.4726  0.3998 -0.2771
 1394SOL    HW215816   2.113   4.314   2.333 -1.7721 -2.8415  0.9920
 1395SOL     OW15817   0.038   1.692  15.755  0.5793 -0.0154 -0.1310
 1395SOL    HW115818   0.080   1.609  15.778  0.8774 -0.2555 -1.5405
 1395SOL    HW215819   0.002   1.669  15.669 -0.1806 -0.5298  0.3157
 1396SOL     OW15820   3.363   2.622   7.927  0.1086 -0.0640  0.2937
 1396SOL    HW115821   3.338   2.605   8.018 -0.6933  0.4157  0.1730
 1396SOL    HW215822   3.457   2.637   7.929  0.5176 -2.6083 -0.7203
 1397SOL     OW15823   2.733   1.190   8.635  0.0943 -0.6183  0.6626
 1397SOL    HW115824   2.706   1.282   8.627  1.5001 -0.4417 -2.3809
 1397SOL    HW215825   2.655   1.137   8.620 -0.4124  0.4687 -0.5960
 1398SOL     OW15826   1.714   3.340   3.264  0.3468  0.4733 -0.4443
 1398SOL    HW115827   1.669   3.378   3.189  0.5076  0.7200 -0.4143
 1398SOL    HW215828   1.704   3.409   3.329 -0.2874 -0.4385  0.4261
 1399SOL     OW15829   2.118   0.509   0.673 -0.2457  1.0059  0.7505
 1399SOL    HW115830   2.098   0.417   0.691  0.5751  1.0806  2.0515
 1399SOL    HW215831   2.127   0.536   0.764  1.9526 -0.1678  0.8683
 1400SOL     OW15832   3.761   4.405  13.006 -0.1043  0.0843  0.1914
 1400SOL    HW115833   3.804   4.418  12.921 -0.7369 -0.1178 -0.1609
 1400SOL    HW215834   3.717   4.321  12.992  0.6179  0.1985 -2.8218
 1401SOL     OW15835   0.560   3.794   2.987 -0.5377  0.2558 -0.2937
 1401SOL    HW115836   0.642   3.754   2.959 -2.5293 -3.5416 -0.7351
 1401SOL    HW215837   0.547   3.734   3.061 -1.7607 -0.1485 -0.8463
 1402SOL     OW15838   2.305   4.212   7.676  0.4495  0.4647 -0.0126
 1402SOL    HW115839   2.337   4.293   7.715  2.2219  0.0225 -0.5748
 1402SOL    HW215840   2.332   4.153   7.747  0.6611  2.7866  1.8145
 1403SOL     OW15841   1.736   4.212   4.357 -0.2085  0.0817  0.2592
 1403SOL    HW115842   1.683   4.291   4.348 -0.6627 -0.3934 -1.2631
 1403SOL    HW215843   1.805   4.256   4.405  0.6714  0.7099 -1.5772
 1404SOL     OW15844   0.524   0.344   9.396  0.0140 -0.4694 -0.1018
 1404SOL    HW115845   0.610   0.319   9.429  0.4737  0.0657 -0.8744
 1404SOL    HW215846   0.478   0.402   9.456  0.6412 -2.0351  1.8910
 1405SOL     OW15847   0.249   4.689   4.578 -0.0545  0.2429 -0.0144
 1405SOL    HW115848   0.317   4.629   4.609 -1.5921 -1.4687  0.0663
 1405SOL    HW215849   0.254   0.020   4.644 -2.2666  0.7642 -0.3985
 1406SOL     OW15850   2.731   1.106   2.822 -0.0106 -0.1706  0.4300
 1406SOL    HW115851   2.745   1.110   2.728 -2.8306  1.2055  0.0694
 1406SOL    HW215852   2.736   1.011   2.832  1.0437 -0.1112  0.4156
 1407SOL     OW15853   1.960   4.117   4.560 -0.3387 -0.2013 -0.3099
 1407SOL    HW115854   1.918   4.041   4.519  0.9165 -0.6102 -0.8240
 1407SOL    HW215855   2.050   4.083   4.558  0.0855  0.8053  1.6633
 1408SOL     OW15856   0.657   2.236  17.196  0.3860  0.5940 -0.2343
 1408SOL    HW115857   0.562   2.236  17.196  0.3809 -2.2653 -1.8310
 1408SOL    HW215858   0.670   2.291  17.119 -1.6932  0.6957 -0.5038
 1409SOL     OW15859   0.874   3.598   3.874  0.3146  0.3585 -0.8131
 1409SOL    HW115860   0.817   3.554   3.812  1.6821  0.4169 -2.1218
 1409SOL    HW215861   0.854   3.542   3.949 -1.1933 -0.6215 -1.9532
 1410SOL     OW15862   0.266   4.321  13.500  0.5065  0.7681 -0.1893
 1410SOL    HW115863   0.252   4.387  13.567  1.0568 -1.3119  1.9683
 1410SOL    HW215864   0.198   4.336  13.434 -2.1871 -1.4865  2.0835
 1411SOL     OW15865   0.641   3.126  17.500  0.0794  0.3171 -0.6016
 1411SOL    HW115866   0.559   3.142  17.547  1.1975  0.0994  1.4256
 1411SOL    HW215867   0.596   3.080  17.430  0.8865  2.2984 -2.4058
 1412SOL     OW15868   3.584   2.916   3.288  0.6314 -0.5844  0.0081
 1412SOL    HW115869   3.579   2.997   3.237  1.6484 -1.4430 -1.4493
 1412SOL    HW215870   3.601   2.952   3.376  3.7588 -0.0710 -0.7871
 1413SOL     OW15871   3.156   1.682   3.654  0.4917  0.1951  0.3178
 1413SOL    HW115872   3.235   1.730   3.631 -0.5626  1.0929 -1.4331
 1413SOL    HW215873   3.191   1.597   3.629 -2.8672 -0.8046 -1.0808
 1414SOL     OW15874   0.956   0.626  14.745 -0.0165 -0.4303 -0.0942
 1414SOL    HW115875   1.016   0.701  14.747 -1.0701  0.3978  0.1821
 1414SOL    HW215876   0.976   0.591  14.658  2.2896 -2.0782  1.1004
 1415SOL     OW15877   3.958   0.018  12.627 -0.0055 -0.1717  0.2172
 1415SOL    HW115878   3.916   4.670  12.621 -1.5798  0.6559 -0.4693
 1415SOL    HW215879   3.885   0.078  12.642 -1.3470 -2.1590  1.6197
 1416SOL     OW15880   4.189   2.256   3.664  0.2258  0.0656  0.1795
 1416SOL    HW115881   4.131   2.185   3.637  0.3883  0.1047 -0.2797
 1416SOL    HW215882   4.157   2.276   3.752  0.5184  0.2641  0.2406
 1417SOL     OW15883   4.056   2.776   4.525  0.0038  0.0808  0.3944
 1417SOL    HW115884   4.139   2.766   4.479 -0.6996 -0.0745 -0.8403
 1417SOL    HW215885   4.007   2.835   4.467 -0.2810 -0.7524 -0.2118
 1418SOL     OW15886   1.084   3.220   3.781  0.3518 -0.9415  0.2611
 1418SOL    HW115887   1.015   3.189   3.841  2.0976 -2.4007  1.4892
 1418SOL    HW215888   1.156   3.235   3.843  0.4551 -1.1655  0.1928
 1419SOL     OW15889   2.344   3.514   5.729  0.0013 -0.5054  0.2640
 1419SOL    HW115890   2.260   3.507   5.773  0.5057 -1.2868  1.0990
 1419SOL    HW215891   2.369   3.605   5.744 -3.1573 -0.1897  3.4903
 1420SOL     OW15892   4.074   0.781   7.270  0.0045  0.2480  0.3160
 1420SOL    HW115893   4.166   0.804   7.254 -0.2122  1.6321  1.0501
 1420SOL    HW215894   4.042   0.746   7.187  1.1546  0.6819 -0.3245
 1421SOL     OW15895   0.898   2.106  16.327  0.6771 -0.2335 -0.4480
 1421SOL    HW115896   0.806   2.132  16.321  1.2131  1.7880  0.0595
 1421SOL    HW215897   0.912   2.152  16.410 -2.0977  1.1482 -0.7490
 1422SOL     OW15898   1.099   1.035   3.534  0.3544  0.1428  0.3924
 1422SOL    HW115899   1.078   1.071   3.620 -0.4855 -0.7152  0.5455
 1422SOL    HW215900   1.032   0.969   3.517 -0.4141  0.0695  3.7829
 1423SOL     OW15901   4.193   4.703   6.142 -0.0182  0.2549 -0.0543
 1423SOL    HW115902   4.266   4.643   6.124 -1.4244 -1.0279 -1.4616
 1423SOL    HW215903   4.239   0.049   6.143  1.0581 -0.3425  1.9657
 1424SOL     OW15904   0.494   4.551  10.214 -0.2293  0.2594 -0.2633
 1424SOL    HW115905   0.439   4.605  10.269 -2.0027 -1.9948  0.1864
 1424SOL    HW215906   0.554   4.615  10.177  0.1425 -0.4154 -0.8453
 1425SOL     OW15907   2.819   0.523  12.204  0.4955  0.1249 -0.0708
 1425SOL    HW115908   2.875   0.587  12.159  2.4120 -0.1742  1.9026
 1425SOL    HW215909   2.804   0.460  12.134 -2.3620  0.6813  0.0656
 1426SOL     OW15910   2.283   1.419  13.267 -0.9916 -0.0739  0.1022
 1426SOL    HW115911   2.299   1.325  13.261  0.9268  0.3637 -1.7599
 1426SOL    HW215912   2.274   1.432  13.173 -1.0400  0.8333  0.2288
 1427SOL     OW15913   2.973   4.010   8.449  0.1473  0.0107  0.5363
 1427SOL    HW115914   2.880   4.025   8.465  0.0097  0.3703 -0.6022
 1427SOL    HW215915   2.978   4.037   8.357  1.3476 -0.6110  0.4223
 1428SOL     OW15916   2.333   1.842   1.588  0.0657 -0.0809  0.2209
 1428SOL    HW115917   2.337   1.931   1.554  2.2074 -1.3976 -2.8989
 1428SOL    HW215918   2.371   1.860   1.674 -0.5660  1.4926  0.1698
 1429SOL     OW15919   3.729   3.459  13.538 -0.2456  0.0640 -0.0726
 1429SOL    HW115920   3.637   3.470  13.513 -0.2218  0.1579 -0.1202
 1429SOL    HW215921   3.773   3.460  13.453  1.0785 -0.8716  0.6075
 1430SOL     OW15922   3.036   3.273   1.039 -0.2934 -0.2369 -0.2177
 1430SOL    HW115923   3.006   3.184   1.058  2.1558 -0.4819  2.6674
 1430SOL    HW215924   3.033   3.258   0.945  1.1515  1.0644 -0.4662
 1431SOL     OW15925   2.584   2.409   5.669 -0.1008 -0.2226  0.3568
 1431SOL    HW115926   2.547   2.322   5.684 -1.9462  0.7794  1.7383
 1431SOL    HW215927   2.537   2.418   5.586  0.7919 -0.6535 -0.1962
 1432SOL     OW15928   0.837   3.919   3.471 -0.1470 -0.1196 -0.3953
 1432SOL    HW115929   0.867   3.835   3.436 -1.4336  0.6502 -3.3840
 1432SOL    HW215930   0.851   3.915   3.565 -1.3733  0.0483 -0.2110
 1433SOL     OW15931   1.209   0.500  13.753  0.0476  0.5041  0.2114
 1433SOL    HW115932   1.157   0.563  13.803  0.3843  0.7091  0.3065
 1433SOL    HW215933   1.234   0.444  13.827  0.3392  2.6225  1.7228
 1434SOL     OW15934   3.619   2.990   6.297  0.0362 -0.1413 -0.0029
 1434SOL    HW115935   3.659   3.003   6.383  1.0839 -0.5717 -0.4243
 1434SOL    HW215936   3.661   2.910   6.264  0.0339 -0.4634  0.7700
 1435SOL     OW15937   3.400   0.958   3.604 -0.0760 -0.3903  0.0307
 1435SOL    HW115938   3.492   0.943   3.584  0.1676 -0.1923  0.9842
 1435SOL    HW215939   3.383   0.872   3.642 -0.9454  0.6475  2.0293
 1436SOL     OW15940   4.435   0.304   4.085  0.1314 -0.7663  0.3181
 1436SOL    HW115941   4.385   0.224   4.066  0.1836 -0.9360  0.9030
 1436SOL    HW215942   4.495   0.272   4.153 -3.5882 -2.2384  2.9596
 1437SOL     OW15943   3.109   0.804  15.816 -0.2013  0.6574  0.1604
 1437SOL    HW115944   3.134   0.838  15.730 -0.3157  0.2365 -0.0408
 1437SOL    HW215945   3.148   0.716  15.819 -1.4986  0.0504 -0.7959
 1438SOL     OW15946   2.129   0.163   4.512 -0.0163  0.1889 -0.2611
 1438SOL    HW115947   2.053   0.109   4.531  1.0590 -1.0301  0.6165
 1438SOL    HW215948   2.139   0.226   4.583  1.8810  0.0807 -0.4088
 1439SOL     OW15949   0.190   1.498  11.162 -0.3247 -0.1147  0.0394
 1439SOL    HW115950   0.108   1.533  11.197 -0.0597 -1.5308  2.0967
 1439SOL    HW215951   0.230   1.452  11.236 -1.1601  1.3870  1.4532
 1440SOL     OW15952   2.100   3.167   1.646 -0.9785  0.3940 -0.8094
 1440SOL    HW115953   2.117   3.236   1.710  0.6649 -1.3965  0.6829
 1440SOL    HW215954   2.183   3.168   1.597 -0.7402 -1.4348 -0.4596
 1441SOL     OW15955   0.122   1.070   7.257  0.4738 -0.3793  0.3855
 1441SOL    HW115956   0.163   1.147   7.295  1.6236 -0.8899  0.1859
 1441SOL    HW215957   0.201   1.028   7.223  1.6424  0.2600  2.3272
 1442SOL     OW15958   2.257   0.350  12.123  0.2085 -0.7610  0.5293
 1442SOL    HW115959   2.278   0.432  12.168 -1.2878  0.1393 -0.3929
 1442SOL    HW215960   2.184   0.311  12.171 -1.6145  4.4575  2.0096
 1443SOL     OW15961   1.946   2.668   5.221 -0.1889  0.2295  0.4839
 1443SOL    HW115962   1.993   2.595   5.179 -2.0347  0.4000 -1.8650
 1443SOL    HW215963   1.889   2.608   5.269 -1.9821  0.3487 -1.5139
 1444SOL     OW15964   3.823   2.499  17.034  0.3152  0.5736 -0.1285
 1444SOL    HW115965   3.811   2.543  17.118 -2.4611  0.3678 -0.4310
 1444SOL    HW215966   3.851   2.409  17.052  0.1100  0.3158 -1.1097
 1445SOL     OW15967   1.315   0.645   7.517 -0.3486  0.1971 -0.1797
 1445SOL    HW115968   1.239   0.593   7.492 -0.8347  0.7008  0.2238
 1445SOL    HW215969   1.337   0.605   7.601  1.4241  0.7585 -0.3822
 1446SOL     OW15970   1.842   4.713   5.131  0.0590  0.4786  0.1448
 1446SOL    HW115971   1.759   4.693   5.175  0.3563 -2.1634 -0.5482
 1446SOL    HW215972   1.852   0.062   5.170  1.6051  0.0311  0.7449
 1447SOL     OW15973   0.084   1.552   6.041 -0.5493 -0.7903 -0.4096
 1447SOL    HW115974   0.153   1.582   6.101 -0.9786 -1.3567  0.3724
 1447SOL    HW215975   0.029   1.504   6.103 -0.8720  0.4856  0.2963
 1448SOL     OW15976   2.730   2.665   6.102 -0.4345 -0.0031 -0.8665
 1448SOL    HW115977   2.704   2.578   6.072 -0.1402  0.1245 -1.5063
 1448SOL    HW215978   2.797   2.634   6.164 -1.7598 -1.0116  0.0462
 1449SOL     OW15979   1.601   2.911   8.534 -0.4188 -0.3214  0.3265
 1449SOL    HW115980   1.671   2.962   8.574 -0.2804 -0.8166  0.7130
 1449SOL    HW215981   1.535   2.910   8.603 -1.4845 -2.3522 -0.7223
 1450SOL     OW15982   0.446   3.476   9.147 -0.0592  0.3802 -0.0901
 1450SOL    HW115983   0.495   3.484   9.065 -1.2923 -1.2631 -0.9932
 1450SOL    HW215984   0.452   3.562   9.188 -2.0181  0.4631  0.0263
 1451SOL     OW15985   1.939   0.335   6.430  0.0295 -0.3437  0.2043
 1451SOL    HW115986   1.926   0.240   6.425 -1.4000 -0.1393 -0.1054
 1451SOL    HW215987   1.923   0.380   6.347  0.9027 -1.1707 -0.4151
 1452SOL     OW15988   0.346   3.286  12.349  0.9325 -0.1406  0.3901
 1452SOL    HW115989   0.438   3.268  12.333  1.1737  0.2055  1.3877
 1452SOL    HW215990   0.299   3.284  12.265 -0.5579  1.0824  1.1921
 1453SOL     OW15991   1.473   0.003   9.341  0.1370 -0.2862 -0.2413
 1453SOL    HW115992   1.418   4.668   9.310 -0.8426  0.1444  0.4754
 1453SOL    HW215993   1.504   0.047   9.263 -1.3732  0.2230 -0.5561
 1454SOL     OW15994   0.481   2.544   6.635 -0.0987 -0.0490 -0.1839
 1454SOL    HW115995   0.424   2.600   6.583  0.1974  0.2787 -0.1556
 1454SOL    HW215996   0.435   2.551   6.719  2.3827 -1.1351  1.2614
 1455SOL     OW15997   1.004   3.022  12.800 -0.1864 -0.5207 -0.3364
 1455SOL    HW115998   0.965   3.109  12.807  0.8331 -0.0174 -1.0556
 1455SOL    HW215999   0.997   2.977  12.885  0.6803 -2.2734 -1.1938
 1456SOL     OW16000   0.387   0.040   9.333  0.2652  0.1852  0.1014
 1456SOL    HW116001   0.449   0.094   9.283  2.2763 -1.3123  1.0083
 1456SOL    HW216002   0.317   0.025   9.270 -0.2282 -2.1673  1.2127
 1457SOL     OW16003   1.915   4.035   3.229  0.3334 -0.2183 -0.1495
 1457SOL    HW116004   1.841   4.019   3.288  0.6178 -1.3084 -0.0885
 1457SOL    HW216005   1.884   4.112   3.181  2.9692  0.1726 -1.2403
 1458SOL     OW16006   2.661   2.399   3.109  0.1243 -1.0253  0.5361
 1458SOL    HW116007   2.652   2.308   3.078 -2.4729  0.1728 -2.2054
 1458SOL    HW216008   2.568   2.422   3.107  0.1115 -1.2037 -1.9905
 1459SOL     OW16009   1.523   3.728   2.770 -0.0478  0.6941  0.0465
 1459SOL    HW116010   1.514   3.706   2.863  2.5678  4.0349  1.0847
 1459SOL    HW216011   1.525   3.646   2.720  0.6098  1.4564 -1.1904
 1460SOL     OW16012   4.044   4.362   2.651 -0.1943 -0.6025 -0.0458
 1460SOL    HW116013   4.073   4.452   2.637 -0.5449 -0.4191  0.3791
 1460SOL    HW216014   3.987   4.345   2.577 -1.1266  2.7815 -0.1020
 1461SOL     OW16015   0.431   2.431   6.918  0.5328 -0.3369  0.6374
 1461SOL    HW116016   0.510   2.377   6.912  0.1181 -1.1125  2.2155
 1461SOL    HW216017   0.438   2.473   7.003  0.8543  0.6901  0.0938
 1462SOL     OW16018   2.511   0.869   6.881 -0.4481  0.5829 -0.7155
 1462SOL    HW116019   2.600   0.852   6.850 -0.9278 -2.2859 -0.5404
 1462SOL    HW216020   2.458   0.837   6.807  1.2902 -0.7265 -1.3982
 1463SOL     OW16021   3.774   0.220   2.645 -0.0148  0.4160 -0.8142
 1463SOL    HW116022   3.682   0.212   2.670  0.1435 -0.0116 -0.3675
 1463SOL    HW216023   3.796   0.132   2.616 -0.1858 -0.1082  0.6454
 1464SOL     OW16024   1.118   1.503  12.353  0.1786  0.2344 -0.1562
 1464SOL    HW116025   1.190   1.445  12.325 -0.9678 -0.9669 -0.5945
 1464SOL    HW216026   1.158   1.569  12.409  2.4578 -1.3987  0.1875
 1465SOL     OW16027   2.352   0.360   2.797  0.3462 -0.1980 -0.2220
 1465SOL    HW116028   2.412   0.421   2.839 -0.5648  1.0303 -0.7141
 1465SOL    HW216029   2.271   0.409   2.788  0.3191 -0.2338 -0.1715
 1466SOL     OW16030   2.783   2.850   2.213  0.2175 -0.4138 -0.1171
 1466SOL    HW116031   2.688   2.857   2.204  0.0518 -1.4931  0.7988
 1466SOL    HW216032   2.819   2.897   2.138  0.4863  1.5045  1.2164
 1467SOL     OW16033   1.774   1.589   1.398  0.0032 -0.0010 -0.3348
 1467SOL    HW116034   1.862   1.603   1.364  0.0001  1.4383  0.2833
 1467SOL    HW216035   1.779   1.656   1.466  2.3602 -0.6250  0.1168
 1468SOL     OW16036   3.300   4.342   3.138 -0.1347  0.4837  0.2500
 1468SOL    HW116037   3.287   4.252   3.108  2.3498  1.1040 -2.6742
 1468SOL    HW216038   3.291   4.389   3.055 -0.4897  0.7353  0.4322
 1469SOL     OW16039   1.196   0.200   6.971  0.0486 -0.1345 -0.5755
 1469SOL    HW116040   1.108   0.237   6.962 -0.0100 -0.3246 -0.7884
 1469SOL    HW216041   1.254   0.261   6.926  0.9700 -0.3904  0.2698
 1470SOL     OW16042   2.106   2.047   5.631 -0.6658 -0.0316  0.5991
 1470SOL    HW116043   2.013   2.025   5.625 -0.4981 -0.2190 -1.2870
 1470SOL    HW216044   2.133   2.001   5.710  0.8256 -1.6614 -0.8676
 1471SOL     OW16045   4.322   0.480  10.247 -0.1277 -0.2600  0.0670
 1471SOL    HW116046   4.255   0.538  10.212  1.2411  1.1377 -0.2549
 1471SOL    HW216047   4.312   0.497  10.341 -1.4068 -1.2711  0.1004
 1472SOL     OW16048   3.898   0.716  12.846  0.4156  0.2244  0.1529
 1472SOL    HW116049   3.977   0.764  12.825  0.7222 -1.0888 -1.7587
 1472SOL    HW216050   3.859   0.713  12.758 -1.8349  0.2252  1.1341
 1473SOL     OW16051   1.390   1.139   5.204 -0.2634  0.6959  0.5007
 1473SOL    HW116052   1.326   1.068   5.211  1.2948 -0.5467  2.0151
 1473SOL    HW216053   1.434   1.121   5.121 -1.2108 -2.5119  0.6733
 1474SOL     OW16054   4.123   1.688   2.924 -0.1087  0.0701 -0.3532
 1474SOL    HW116055   4.119   1.625   2.852 -0.3324 -0.7621  0.3775
 1474SOL    HW216056   4.180   1.650   2.991 -0.2220 -1.1665 -0.9549
 1475SOL     OW16057   3.605   0.139  16.935 -0.3152  0.3141 -0.7079
 1475SOL    HW116058   3.651   0.074  16.882 -0.3561  0.0308 -0.3942
 1475SOL    HW216059   3.656   0.217  16.914 -2.5796  1.0892 -3.3489
 1476SOL     OW16060   3.841   3.394  13.769  0.2655 -0.4226 -0.0950
 1476SOL    HW116061   3.771   3.398  13.704 -0.6896 -0.7714  0.9046
 1476SOL    HW216062   3.898   3.464  13.737  0.1175  0.2967  1.2525
 1477SOL     OW16063   4.049   1.684   7.470 -0.7837  0.8645  0.1987
 1477SOL    HW116064   4.105   1.718   7.540  1.6812 -2.5178 -0.1106
 1477SOL    HW216065   4.039   1.761   7.414 -0.9026 -1.0972 -2.4759
 1478SOL     OW16066   1.515   1.765   3.404  0.0819 -0.3246  0.4528
 1478SOL    HW116067   1.559   1.743   3.322 -0.7690 -0.3779  0.0027
 1478SOL    HW216068   1.556   1.707   3.468  0.8655  0.5484  0.7385
 1479SOL     OW16069   2.319   4.423   9.278  0.0319 -0.1230  0.3969
 1479SOL    HW116070   2.358   4.358   9.337 -0.9538  0.4293  1.6754
 1479SOL    HW216071   2.229   4.390   9.274  1.0316 -2.8340 -0.1340
 1480SOL     OW16072   3.200   3.680   3.134 -0.2161 -0.3943 -0.1422
 1480SOL    HW116073   3.194   3.610   3.069 -0.1362 -1.0732  0.5893
 1480SOL    HW216074   3.150   3.747   3.088 -0.3102 -0.1764  0.2840
 1481SOL     OW16075   3.832   2.670   5.226 -0.0750  1.1187 -0.5114
 1481SOL    HW116076   3.921   2.704   5.234  0.3005 -0.0611  0.3583
 1481SOL    HW216077   3.783   2.724   5.288 -2.9740 -1.7316 -0.3066
 1482SOL     OW16078   1.607   2.788  14.213  0.3637 -0.2576  0.0229
 1482SOL    HW116079   1.625   2.820  14.301 -0.9162  0.2103  0.1152
 1482SOL    HW216080   1.547   2.854  14.178 -1.5663 -1.2773  1.4606
 1483SOL     OW16081   1.163   0.654   2.273 -0.0958  0.0054  0.4642
 1483SOL    HW116082   1.088   0.596   2.285 -0.1936  0.1370  0.4898
 1483SOL    HW216083   1.153   0.695   2.359 -0.7808  0.0252  0.3706
 1484SOL     OW16084   2.393   4.558   7.990  0.4951  0.1906 -0.2025
 1484SOL    HW116085   2.453   4.532   8.061 -0.6893 -0.2757  0.6340
 1484SOL    HW216086   2.442   4.635   7.961 -1.4673  2.0517  1.3688
 1485SOL     OW16087   4.065   2.488   3.578 -0.7787  0.2986 -0.3408
 1485SOL    HW116088   4.138   2.437   3.611 -1.7370 -1.0925 -0.3309
 1485SOL    HW216089   4.050   2.452   3.490 -1.8811 -1.0429  0.3914
 1486SOL     OW16090   0.866   4.388   5.792  0.2257 -0.8398  0.1844
 1486SOL    HW116091   0.894   4.346   5.711  0.9444 -2.9876  1.5638
 1486SOL    HW216092   0.911   4.471   5.778  0.6181 -0.8650  1.2762
 1487SOL     OW16093   0.221   3.608   4.420  0.0294  0.2022  0.3506
 1487SOL    HW116094   0.218   3.601   4.516 -0.1906  0.3642  0.3562
 1487SOL    HW216095   0.299   3.661   4.404  0.1719 -0.2986 -0.6302
 1488SOL     OW16096   0.194   3.724   2.311  0.1322 -0.2211  0.4227
 1488SOL    HW116097   0.232   3.637   2.296 -1.0193 -0.8832  1.3377
 1488SOL    HW216098   0.178   3.731   2.405 -1.9926  2.3097 -0.1432
 1489SOL     OW16099   2.771   1.344  10.188  0.2697  0.2803 -0.6969
 1489SOL    HW116100   2.749   1.354  10.096 -0.9847  0.1027 -0.4269
 1489SOL    HW216101   2.766   1.249  10.189 -0.3086  0.3104  1.0778
 1490SOL     OW16102   0.329   0.211   5.022  0.1268 -0.2676  0.6153
 1490SOL    HW116103   0.391   0.282   5.003 -0.5751  0.3889  0.7943
 1490SOL    HW216104   0.249   0.262   5.038 -0.8055 -1.8225  0.8315
 1491SOL     OW16105   4.521   2.134  10.918 -0.7167  0.1086  0.0126
 1491SOL    HW116106   4.605   2.146  10.963 -0.6364  0.2909 -0.1877
 1491SOL    HW216107   4.467   2.106  10.992 -0.6573  0.4266  0.1749
 1492SOL     OW16108   3.936   2.933   4.727 -0.1147  0.0027  0.4229
 1492SOL    HW116109   3.969   2.851   4.690  0.1925 -0.3194  1.3974
 1492SOL    HW216110   3.852   2.945   4.683  0.7000  0.0166 -1.1384
 1493SOL     OW16111   4.179   4.320  17.415 -0.7554 -0.3947  0.0215
 1493SOL    HW116112   4.208   4.252  17.355 -0.8028  2.1970 -2.9433
 1493SOL    HW216113   4.172   4.396  17.358 -2.0527 -0.5910 -0.0970
 1494SOL     OW16114   3.746   4.566   1.012  0.9284 -1.1055  0.1903
 1494SOL    HW116115   3.814   4.538   1.074  0.0102 -0.2828  1.5784
 1494SOL    HW216116   3.766   4.503   0.943  1.4976  1.0037 -1.5940
 1495SOL     OW16117   4.664   0.928  13.456 -0.2831 -0.1969 -0.2276
 1495SOL    HW116118   4.716   0.850  13.436  1.0429  1.0255 -1.4592
 1495SOL    HW216119   4.596   0.889  13.512 -0.8692  1.7742  0.4402
 1496SOL     OW16120   4.290   0.113   4.610 -0.2040  0.0398 -0.0060
 1496SOL    HW116121   4.382   0.095   4.589  0.7743  3.2020  1.6853
 1496SOL    HW216122   4.289   0.209   4.614  0.2545 -0.0548  1.9750
 1497SOL     OW16123   4.086   3.847  12.501  0.0129  0.4864 -0.1298
 1497SOL    HW116124   4.035   3.828  12.422 -0.2154 -2.4646  0.7117
 1497SOL    HW216125   4.066   3.940  12.503  0.2874  0.4911  2.0098
 1498SOL     OW16126   2.656   3.308   7.493  0.1674  0.5807 -0.5255
 1498SOL    HW116127   2.598   3.232   7.497 -0.4229  1.0067 -1.1220
 1498SOL    HW216128   2.617   3.361   7.562 -0.8399  0.5490 -1.0684
 1499SOL     OW16129   0.401   3.246   5.398  0.1278 -0.1781 -0.0708
 1499SOL    HW116130   0.370   3.332   5.426  2.0230  0.8532 -1.1172
 1499SOL    HW216131   0.326   3.216   5.347 -1.0620  1.5901  0.6432
 1500SOL     OW16132   1.857   1.672   3.417 -0.0832  0.0210 -0.2239
 1500SOL    HW116133   1.913   1.642   3.489  2.5301  1.4358 -1.6327
 1500SOL    HW216134   1.795   1.600   3.419 -0.5480  0.3823 -1.5623
 1501SOL     OW16135   2.838   3.605  15.144 -0.0613 -0.3993  0.3234
 1501SOL    HW116136   2.791   3.671  15.196 -1.1970 -1.1251  0.2109
 1501SOL    HW216137   2.805   3.528  15.192  0.5685 -1.7356 -1.4117
 1502SOL     OW16138   4.556   1.153   6.919 -0.0713  0.0495 -0.5000
 1502SOL    HW116139   4.562   1.158   7.014  0.2318  0.8484 -0.5655
 1502SOL    HW216140   4.532   1.242   6.892 -2.9824  1.0240  5.3217
 1503SOL     OW16141   4.182   0.047   4.881  0.4863  0.0591  0.2635
 1503SOL    HW116142   4.199   0.071   4.790  2.2153 -2.7951 -0.1437
 1503SOL    HW216143   4.174   4.690   4.881 -0.3813  0.1410 -0.7635
 1504SOL     OW16144   3.533   2.538   6.279  0.2812 -0.4702  0.1169
 1504SOL    HW116145   3.527   2.549   6.374 -3.3642  0.8439 -0.2440
 1504SOL    HW216146   3.494   2.622   6.253  2.2967 -0.0624 -1.6002
 1505SOL     OW16147   2.161   4.408  14.693  0.0111 -0.0152 -0.1806
 1505SOL    HW116148   2.188   4.481  14.637  0.1385 -0.9539 -1.3580
 1505SOL    HW216149   2.247   4.376  14.720  0.0668 -0.3637 -0.7773
 1506SOL     OW16150   3.028   4.463   3.547  0.7049 -0.1820  0.4940
 1506SOL    HW116151   3.044   4.449   3.453 -1.8622 -1.3477  0.2267
 1506SOL    HW216152   3.111   4.506   3.569  0.1938  0.0245  1.9675
 1507SOL     OW16153   2.032   1.577   1.292 -0.1464  0.6392  0.5372
 1507SOL    HW116154   2.112   1.539   1.257 -1.4511 -1.7929  0.2205
 1507SOL    HW216155   2.053   1.582   1.385 -2.4878  1.7574  1.0230
 1508SOL     OW16156   0.577   3.471   7.801  0.1864  0.2239  1.0044
 1508SOL    HW116157   0.584   3.551   7.853 -0.6626  1.4798 -0.8509
 1508SOL    HW216158   0.482   3.463   7.793  0.2649  2.2628 -1.5315
 1509SOL     OW16159   0.585   2.147   6.910 -0.2024 -0.3096 -0.4240
 1509SOL    HW116160   0.607   2.104   6.828  0.0924 -2.9472  1.0537
 1509SOL    HW216161   0.678   2.158   6.929 -0.1124 -2.5580  0.3738
 1510SOL     OW16162   1.892   0.511   2.561  0.1578  0.7722  0.2773
 1510SOL    HW116163   1.908   0.418   2.541  1.2159  1.2849 -1.2403
 1510SOL    HW216164   1.856   0.504   2.649  0.3643 -0.9701  0.2287
 1511SOL     OW16165   1.341   4.673   3.850 -0.4856 -0.1521 -0.0749
 1511SOL    HW116166   1.414   4.712   3.897 -0.8438  0.5963 -0.1403
 1511SOL    HW216167   1.270   4.726   3.887  0.0512 -0.4293  1.3639
 1512SOL     OW16168   0.280   3.487   5.442  0.4065 -0.1201  0.6269
 1512SOL    HW116169   0.298   3.578   5.468 -0.2481 -0.0568  0.8619
 1512SOL    HW216170   0.224   3.513   5.369 -1.2335  0.0612  1.9460
 1513SOL     OW16171   1.934   3.136   0.619 -0.3379  0.0727  0.2017
 1513SOL    HW116172   1.977   3.069   0.672  0.3406  0.3617  0.0243
 1513SOL    HW216173   1.972   3.109   0.535  2.2823 -0.8945  1.6757
 1514SOL     OW16174   0.788   2.088   3.715  0.4090  0.4643 -0.1128
 1514SOL    HW116175   0.883   2.092   3.709  0.1010  2.4548 -3.3268
 1514SOL    HW216176   0.773   2.062   3.806 -0.0621  1.0565 -0.0232
 1515SOL     OW16177   2.890   0.539   7.792 -0.1726  0.2862 -0.2472
 1515SOL    HW116178   2.846   0.465   7.749 -0.6363  0.5038 -0.1363
 1515SOL    HW216179   2.876   0.514   7.883  2.7628 -1.5883 -0.3114
 1516SOL     OW16180   2.961   0.217  13.981 -0.1107 -0.3205 -0.3290
 1516SOL    HW116181   2.973   0.237  13.888 -0.3586 -0.5580 -0.4101
 1516SOL    HW216182   2.873   0.180  13.992 -0.2321  0.4221  1.2173
 1517SOL     OW16183   3.185   2.982  14.433  0.1034  0.3323 -0.3817
 1517SOL    HW116184   3.262   2.930  14.411 -0.1911  0.1144 -0.8989
 1517SOL    HW216185   3.192   2.975  14.528 -0.7208  0.8571 -0.2821
 1518SOL     OW16186   0.633   0.586   1.121  0.1358 -0.2476  0.2480
 1518SOL    HW116187   0.686   0.600   1.043  0.2889 -2.1149  0.0136
 1518SOL    HW216188   0.601   0.675   1.138 -0.4458 -0.0637 -1.8656
 1519SOL     OW16189   2.425   1.033  16.744  0.3639 -0.3462  0.3350
 1519SOL    HW116190   2.473   1.078  16.814 -2.2679  0.8404  1.3829
 1519SOL    HW216191   2.438   1.093  16.671 -2.0266  1.3672  1.3260
 1520SOL     OW16192   1.362   4.208   0.232 -0.0690  0.2212 -0.0030
 1520SOL    HW116193   1.363   4.241   0.142  0.3925 -0.3307 -0.1984
 1520SOL    HW216194   1.457   4.205   0.246 -0.4225  0.2155  2.5469
 1521SOL     OW16195   0.560   3.132   8.069  0.0501  0.1342  0.2531
 1521SOL    HW116196   0.522   3.045   8.086 -2.3702  1.0393 -0.5206
 1521SOL    HW216197   0.491   3.164   8.011 -1.8810 -3.3024  0.6129
 1522SOL     OW16198   0.630   1.480  11.323 -0.4098  0.1968 -0.0332
 1522SOL    HW116199   0.717   1.508  11.298 -0.1514 -1.4926 -1.0269
 1522SOL    HW216200   0.647   1.404  11.379 -2.2467 -1.0641 -1.1561
 1523SOL     OW16201   4.272   2.696  14.948  0.1124 -0.3257  0.4122
 1523SOL    HW116202   4.322   2.654  14.877  1.7512  1.2184  0.6238
 1523SOL    HW216203   4.204   2.738  14.895  1.0060  0.8349  0.1877
 1524SOL     OW16204   0.738   3.906   6.351  0.1511 -0.3039 -0.3060
 1524SOL    HW116205   0.802   3.915   6.422 -0.6406 -0.9878  0.4984
 1524SOL    HW216206   0.744   3.811   6.341  1.1731 -0.3427  0.6767
 1525SOL     OW16207   4.302   0.358   9.031  0.3149 -0.3481  0.2275
 1525SOL    HW116208   4.320   0.412   9.108  5.2445  1.0165 -1.9185
 1525SOL    HW216209   4.294   0.270   9.067  0.3536 -0.5549 -0.2703
 1526SOL     OW16210   2.023   2.349   8.779  0.1057  0.0907  0.8198
 1526SOL    HW116211   2.013   2.298   8.860  0.6997  0.2284  0.9810
 1526SOL    HW216212   2.018   2.441   8.805 -0.6708  1.2275 -3.4524
 1527SOL     OW16213   1.119   2.291  16.475 -0.1443  0.0728 -0.5667
 1527SOL    HW116214   1.183   2.362  16.478 -0.0540 -0.1058  1.5242
 1527SOL    HW216215   1.039   2.342  16.466 -0.3314 -0.1557 -0.2152
 1528SOL     OW16216   4.165   2.421   7.800  0.5343 -0.0281 -0.0479
 1528SOL    HW116217   4.171   2.516   7.798  2.1492 -0.1324  0.5981
 1528SOL    HW216218   4.078   2.391   7.773  0.0784  1.5300 -0.2673
 1529SOL     OW16219   4.111   3.688   6.273  0.4782  0.5289 -0.1173
 1529SOL    HW116220   4.053   3.734   6.334 -1.5422 -1.1971 -0.7167
 1529SOL    HW216221   4.044   3.653   6.213 -0.5034  1.7752  0.2462
 1530SOL     OW16222   2.884   0.529  13.933 -0.4253  0.2107  0.3445
 1530SOL    HW116223   2.857   0.456  13.877 -1.7342  0.8912  0.0846
 1530SOL    HW216224   2.826   0.597  13.899  0.0545  1.0566  1.2433
 1531SOL     OW16225   2.395   2.433  16.174 -0.0709  0.0517  0.4419
 1531SOL    HW116226   2.367   2.465  16.260  2.2371  0.6017  0.9966
 1531SOL    HW216227   2.350   2.496  16.117  1.8924  1.1288  0.0825
 1532SOL     OW16228   0.572   0.453   3.975 -0.6914  0.4270  0.1211
 1532SOL    HW116229   0.621   0.524   3.933 -0.8243 -0.8326 -2.1983
 1532SOL    HW216230   0.486   0.466   3.934 -0.3727  1.3320 -0.2473
 1533SOL     OW16231   2.227   1.404   5.037  0.7088  0.0422  0.3468
 1533SOL    HW116232   2.136   1.386   5.015  0.2348  2.2485  0.5168
 1533SOL    HW216233   2.219   1.457   5.117  0.9031  1.8284 -0.8207
 1534SOL     OW16234   1.684   1.928   5.789  0.0983 -0.0717  0.0731
 1534SOL    HW116235   1.672   1.841   5.826 -2.2525 -0.3854 -1.4512
 1534SOL    HW216236   1.715   1.970   5.870 -1.7137 -0.5124  0.9977
 1535SOL     OW16237   2.360   1.175   4.945  0.1080 -0.2989 -0.3319
 1535SOL    HW116238   2.430   1.232   4.912  0.5187  1.2462  3.1970
 1535SOL    HW216239   2.317   1.246   4.993  4.9542  0.1498  3.3618
 1536SOL     OW16240   0.739   3.035  16.065  0.4194 -0.1771  0.1606
 1536SOL    HW116241   0.753   2.942  16.083  2.1922 -0.1097 -0.8334
 1536SOL    HW216242   0.685   3.026  15.986  1.0263 -0.0784 -0.2645
 1537SOL     OW16243   1.402   3.955  15.178 -0.3493  0.3677 -0.3606
 1537SOL    HW116244   1.402   3.957  15.273 -1.4267  2.1745 -0.4062
 1537SOL    HW216245   1.490   3.985  15.154 -0.8220  1.2991 -0.9633
 1538SOL     OW16246   1.268   3.343   3.384  0.1931 -0.1848  0.2952
 1538SOL    HW116247   1.321   3.378   3.456  1.2415  2.2288 -1.6576
 1538SOL    HW216248   1.227   3.265   3.423  0.9059  1.1662  3.7380
 1539SOL     OW16249   2.053   1.547   7.979  0.2220  0.2626 -0.1879
 1539SOL    HW116250   1.960   1.523   7.980 -0.1835  1.7013 -3.0753
 1539SOL    HW216251   2.084   1.474   8.033  0.4469  0.6787  0.2331
 1540SOL     OW16252   1.418   1.019   7.367 -0.8456 -0.2274  0.0601
 1540SOL    HW116253   1.352   0.951   7.361 -1.4115  0.4921 -1.8995
 1540SOL    HW216254   1.473   0.999   7.291 -1.5539 -1.0027 -0.2414
 1541SOL     OW16255   2.463   3.762  17.624  0.2563 -0.0003 -0.4071
 1541SOL    HW116256   2.531   3.695  17.618 -0.0114 -0.4059  1.1918
 1541SOL    HW216257   2.497   3.831  17.567 -2.1108 -0.1823 -2.0506
 1542SOL     OW16258   2.042   2.016   1.800 -0.1366  0.0758  0.3777
 1542SOL    HW116259   2.057   1.983   1.711  0.6821  0.6507  0.2997
 1542SOL    HW216260   1.947   2.006   1.810 -0.1020  1.0306  1.7384
 1543SOL     OW16261   1.795   0.377  11.039  0.2493  0.1327 -0.4048
 1543SOL    HW116262   1.811   0.311  10.972 -0.1816  0.5147 -0.8829
 1543SOL    HW216263   1.861   0.442  11.016 -1.3091  1.6903 -0.5556
 1544SOL     OW16264   4.434   4.571   6.054 -0.2328 -0.1536 -0.6218
 1544SOL    HW116265   4.524   4.581   6.085 -0.8953  1.2170  0.8500
 1544SOL    HW216266   4.442   4.484   6.015 -0.6187  0.5642 -2.2976
 1545SOL     OW16267   0.142   0.118  13.814 -0.3387 -0.4640  0.0167
 1545SOL    HW116268   0.194   0.199  13.820 -1.8246  0.6230 -2.0288
 1545SOL    HW216269   0.060   0.148  13.851  0.1678 -1.2055  1.7215
 1546SOL     OW16270   0.817   0.487   0.019  0.4861  0.1844  0.5438
 1546SOL    HW116271   0.779   0.412   0.065  0.7152  0.6522  1.4992
 1546SOL    HW216272   0.836   0.448  17.683 -0.6414 -1.2879  0.9635
 1547SOL     OW16273   3.804   3.759   6.687  0.5143 -0.4217 -0.2783
 1547SOL    HW116274   3.750   3.692   6.644  1.6260 -2.0405  0.8702
 1547SOL    HW216275   3.829   3.714   6.767  1.8069  0.3184 -0.2728
 1548SOL     OW16276   3.494   3.490   4.438 -0.3532 -0.2682 -0.0550
 1548SOL    HW116277   3.444   3.524   4.365  0.8101  3.0949  0.7377
 1548SOL    HW216278   3.515   3.401   4.409  0.8898  1.0457 -3.0835
 1549SOL     OW16279   1.258   3.307  12.251  0.3967 -0.0938  0.7823
 1549SOL    HW116280   1.338   3.297  12.199  1.4769 -1.7280  2.7400
 1549SOL    HW216281   1.201   3.238  12.217  0.2306  1.2414 -1.6863
 1550SOL     OW16282   3.751   3.165  13.890  0.0105 -0.5535  0.5929
 1550SOL    HW116283   3.739   3.253  13.855  1.6592 -0.8609 -0.7076
 1550SOL    HW216284   3.830   3.177  13.943  1.5623 -2.9638 -1.1978
 1551SOL     OW16285   1.272   2.028  15.373 -0.7773 -0.9616 -0.4779
 1551SOL    HW116286   1.225   2.078  15.440 -0.1425  1.6859 -1.9969
 1551SOL    HW216287   1.253   2.084  15.297 -1.7949  0.6188  0.9208
 1552SOL     OW16288   0.283   0.887  13.450 -0.1274  0.4820 -0.0512
 1552SOL    HW116289   0.214   0.928  13.398  1.4273  2.6168 -0.4410
 1552SOL    HW216290   0.319   0.960  13.501 -0.5569  0.4993  0.2222
 1553SOL     OW16291   0.929   0.330   2.793  0.4661 -0.3866  0.9771
 1553SOL    HW116292   1.024   0.331   2.783  0.4214 -0.8448  0.4616
 1553SOL    HW216293   0.913   0.418   2.827  2.2828  0.6967 -0.9492
 1554SOL     OW16294   3.484   0.625  10.517 -0.0591 -0.0132  0.0660
 1554SOL    HW116295   3.446   0.645  10.431  0.5391  1.3029  0.1005
 1554SOL    HW216296   3.450   0.698  10.569 -0.8109 -1.1459  1.1479
 1555SOL     OW16297   1.685   3.507   7.661 -0.8541  0.1092 -0.2237
 1555SOL    HW116298   1.604   3.482   7.616 -0.4936 -2.0488  0.3311
 1555SOL    HW216299   1.762   3.469   7.619 -1.5212  1.1058 -2.3834
 1556SOL     OW16300   2.100   2.647   9.957 -0.0172  0.1186  0.3067
 1556SOL    HW116301   2.109   2.589  10.032 -0.3353 -0.6942 -0.2905
 1556SOL    HW216302   2.162   2.717   9.978  1.1313 -0.9735  0.5808
 1557SOL     OW16303   0.192   4.004  12.546 -0.4663  0.2148 -0.1484
 1557SOL    HW116304   0.144   4.086  12.561  1.0809  1.2461 -0.9061
 1557SOL    HW216305   0.126   3.947  12.507 -1.3779 -1.1764  3.3956
 1558SOL     OW16306   3.422   3.189   1.800 -0.6140 -0.5819  0.2740
 1558SOL    HW116307   3.422   3.156   1.710  2.3886 -1.1561  0.4739
 1558SOL    HW216308   3.492   3.137   1.840 -0.7814  0.3446  1.7858
 1559SOL     OW16309   1.619   4.575   5.292  0.1171  0.6465  0.0504
 1559SOL    HW116310   1.561   4.507   5.259 -1.9182  2.0489  0.7548
 1559SOL    HW216311   1.692   4.522   5.324 -0.2908  0.7755  1.2059
 1560SOL     OW16312   2.236   0.240   0.796  0.4220 -0.6912  0.0238
 1560SOL    HW116313   2.323   0.241   0.754 -0.6119  0.2416 -2.1239
 1560SOL    HW216314   2.194   0.163   0.756  0.4906 -1.1592  0.8657
 1561SOL     OW16315   2.335   1.029   5.251  0.1423 -0.1940  0.3246
 1561SOL    HW116316   2.271   1.050   5.183 -0.0390  0.0512  0.5715
 1561SOL    HW216317   2.272   1.003   5.318 -0.2230 -1.6968 -0.5836
 1562SOL     OW16318   1.144   3.199  13.722 -0.7100  0.4246  0.3031
 1562SOL    HW116319   1.069   3.150  13.687  0.0638 -0.5314 -0.0015
 1562SOL    HW216320   1.165   3.250  13.644  1.3916  1.6278  1.6700
 1563SOL     OW16321   3.311   1.572   4.834 -0.0243 -0.6059  0.4567
 1563SOL    HW116322   3.244   1.580   4.901  1.3527  1.7343  1.5733
 1563SOL    HW216323   3.356   1.489   4.849  1.5940 -0.0700 -1.4251
 1564SOL     OW16324   3.631   0.283   7.671  0.4054  0.0750 -0.7256
 1564SOL    HW116325   3.680   0.284   7.588 -0.8595  0.3076 -1.4777
 1564SOL    HW216326   3.702   0.274   7.734  0.9085 -0.6633 -1.3991
 1565SOL     OW16327   3.055   2.782   7.302 -0.0350  0.3754 -0.1349
 1565SOL    HW116328   3.006   2.700   7.292  1.5365 -0.3190 -1.9993
 1565SOL    HW216329   3.137   2.746   7.268  1.3933  0.1743  3.4622
 1566SOL     OW16330   1.274   4.604   1.878 -0.7035  0.5172  0.4008
 1566SOL    HW116331   1.227   4.687   1.885  0.1476  0.8536  1.9223
 1566SOL    HW216332   1.266   4.595   1.783 -1.0508 -0.3259  0.5039
 1567SOL     OW16333   0.655   3.377   4.488  0.2924 -0.0906  0.2132
 1567SOL    HW116334   0.603   3.298   4.504  0.2882  0.2012  1.6774
 1567SOL    HW216335   0.702   3.343   4.412 -1.1425  1.2418 -1.2779
 1568SOL     OW16336   1.630   2.195   9.822  0.2936 -0.6246  0.4589
 1568SOL    HW116337   1.726   2.186   9.827  0.1199 -2.6274  0.3390
 1568SOL    HW216338   1.598   2.190   9.911 -3.2181 -1.7277 -0.8889
 1569SOL     OW16339   1.555   3.199   8.168 -0.1568 -0.3594  0.0641
 1569SOL    HW116340   1.548   3.264   8.098 -0.5765 -0.4387  0.0329
 1569SOL    HW216341   1.530   3.247   8.247 -1.2615 -2.5396  1.0452
 1570SOL     OW16342   3.369   4.080  15.628  0.2748 -0.6515  0.0360
 1570SOL    HW116343   3.399   3.989  15.628 -0.3299 -0.8493 -0.5567
 1570SOL    HW216344   3.369   4.114  15.717  1.6281  2.1552 -1.0458
 1571SOL     OW16345   3.040   0.708  13.570 -0.2144  0.2428 -0.3993
 1571SOL    HW116346   3.086   0.664  13.499  1.0314  0.1640  0.4501
 1571SOL    HW216347   2.953   0.728  13.538 -1.3360 -2.4616  1.0024
 1572SOL     OW16348   3.345   1.985   7.445  0.1087 -0.1991  0.6182
 1572SOL    HW116349   3.434   1.949   7.453  0.2147 -0.5655 -2.1758
 1572SOL    HW216350   3.316   1.967   7.534  0.5721 -2.1062  0.3914
 1573SOL     OW16351   1.525   0.923   7.147  0.5138  0.1568  0.8767
 1573SOL    HW116352   1.590   0.987   7.120  0.3636 -0.3859 -0.7532
 1573SOL    HW216353   1.532   0.856   7.079  0.4489  2.0911 -1.0039
 1574SOL     OW16354   0.423   2.298   4.342 -0.4057 -0.3521  0.2405
 1574SOL    HW116355   0.436   2.284   4.248 -0.8326  0.4319  0.0688
 1574SOL    HW216356   0.384   2.384   4.326 -0.0451 -0.6750 -2.4713
 1575SOL     OW16357   3.775   0.028  17.325 -0.2764 -0.0006 -0.3792
 1575SOL    HW116358   3.707   4.711  17.285  0.4172 -1.0461 -0.1251
 1575SOL    HW216359   3.806   0.072  17.246  0.5043 -1.0136 -0.6401
 1576SOL     OW16360   4.036   1.669   3.259 -0.0756  0.3563  1.2289
 1576SOL    HW116361   4.108   1.705   3.310 -1.1314  2.7901  0.9683
 1576SOL    HW216362   4.088   1.612   3.201 -0.2889  2.6988 -1.2406
 1577SOL     OW16363   0.827   0.433   9.927 -0.3135  0.4059  0.1577
 1577SOL    HW116364   0.816   0.346   9.965  0.5202  0.4843  0.5593
 1577SOL    HW216365   0.802   0.428   9.835 -1.8144  2.9118  0.4211
 1578SOL     OW16366   3.356   1.574   8.781 -0.1540 -0.2584 -0.1196
 1578SOL    HW116367   3.262   1.566   8.764 -0.1812 -4.5347  2.0088
 1578SOL    HW216368   3.357   1.563   8.876 -1.1819  0.1232 -0.0571
 1579SOL     OW16369   2.600   4.024   7.133  0.5495  0.3535 -0.5778
 1579SOL    HW116370   2.684   3.986   7.107 -0.5674 -1.5271 -1.4828
 1579SOL    HW216371   2.598   4.099   7.074  0.2088  1.9773  1.5191
 1580SOL     OW16372   0.486   4.026  11.924 -0.3722 -0.2492  0.6868
 1580SOL    HW116373   0.494   3.961  11.993 -1.9206  0.3078  1.3945
 1580SOL    HW216374   0.553   4.007  11.859 -0.7738  2.0868 -0.4287
 1581SOL     OW16375   1.385   4.392   0.000 -0.1970  0.2946 -0.2139
 1581SOL    HW116376   1.351   4.400  17.661 -1.7141  0.2165  0.3569
 1581SOL    HW216377   1.459   4.452   0.006  1.5517 -1.8210 -0.6056
 1582SOL     OW16378   0.002   0.468   6.079 -0.7014 -0.3806 -0.0387
 1582SOL    HW116379   4.709   0.507   6.161  0.2384 -2.3842  1.2660
 1582SOL    HW216380   4.694   0.528   6.020 -3.9659 -2.9913 -0.1578
 1583SOL     OW16381   0.767   2.212   1.943 -0.1460  0.1098 -0.7646
 1583SOL    HW116382   0.753   2.130   1.896  0.0876  0.5246 -1.5711
 1583SOL    HW216383   0.701   2.267   1.900 -1.3111 -0.0781  0.7943
 1584SOL     OW16384   1.070   1.617  17.536 -0.0314  0.7374  0.2132
 1584SOL    HW116385   1.024   1.640  17.616  1.3298 -0.5034  1.3470
 1584SOL    HW216386   1.001   1.626  17.469 -0.4060  2.1691  0.7996
 1585SOL     OW16387   0.316   3.637   6.798 -0.4002  0.4615 -0.1529
 1585SOL    HW116388   0.363   3.653   6.717 -1.4318  1.1705 -0.6070
 1585SOL    HW216389   0.226   3.649   6.767 -1.0830 -0.3676  1.4669
 1586SOL     OW16390   2.405   2.071   3.225  0.5199  0.5321 -0.1281
 1586SOL    HW116391   2.325   2.026   3.199  1.2835 -1.0693  0.2625
 1586SOL    HW216392   2.373   2.151   3.266 -1.8223  0.9350 -2.7693
 1587SOL     OW16393   4.319   2.362  14.920 -0.4769  0.1070  0.3831
 1587SOL    HW116394   4.355   2.446  14.890  2.5961 -1.6682 -0.8824
 1587SOL    HW216395   4.251   2.352  14.853 -1.7432  1.1866  1.5108
 1588SOL     OW16396   1.778   3.093   7.734  0.2212  0.2224 -0.0055
 1588SOL    HW116397   1.796   3.131   7.820  2.2709  2.2778 -1.3732
 1588SOL    HW216398   1.744   3.007   7.758  0.8204  0.2139  0.8377
 1589SOL     OW16399   4.628   0.424   1.604 -0.5396  0.6449 -0.3033
 1589SOL    HW116400   4.587   0.508   1.626 -1.8730  0.3037 -1.4998
 1589SOL    HW216401   4.653   0.389   1.690 -0.8046  0.6734 -0.2142
 1590SOL     OW16402   3.314   0.387   8.348  0.1636 -0.5211 -0.4749
 1590SOL    HW116403   3.285   0.296   8.336  0.9050 -1.1726  2.7753
 1590SOL    HW216404   3.274   0.425   8.270 -1.0074 -1.0503 -0.1423
 1591SOL     OW16405   1.631   0.362   2.347  0.1042  0.1495 -0.0978
 1591SOL    HW116406   1.678   0.329   2.271 -0.1495  1.1360 -0.6686
 1591SOL    HW216407   1.573   0.428   2.310  2.4976  1.1710 -2.0196
 1592SOL     OW16408   1.707   1.727   2.060  0.0320  0.0918  0.1242
 1592SOL    HW116409   1.722   1.638   2.093 -0.7980 -0.1298 -0.0876
 1592SOL    HW216410   1.770   1.779   2.109 -1.6735  0.5476  1.8410
 1593SOL     OW16411   0.212   0.097   1.963  0.0222 -0.4740 -0.2641
 1593SOL    HW116412   0.286   0.139   1.918  0.4747 -0.0314  0.8861
 1593SOL    HW216413   0.251   0.044   2.032  1.6190 -0.6020 -1.2573
 1594SOL     OW16414   1.221   4.260   0.466  0.4606 -0.3835 -0.1277
 1594SOL    HW116415   1.251   4.214   0.387  0.7684 -2.3808  1.1572
 1594SOL    HW216416   1.146   4.211   0.501  0.5888 -0.3638  0.1687
 1595SOL     OW16417   1.669   3.583   3.390  0.1009 -0.1692 -0.5213
 1595SOL    HW116418   1.715   3.644   3.448  0.2355 -0.5564 -0.2223
 1595SOL    HW216419   1.625   3.652   3.339 -1.6942 -0.7084  0.3201
 1596SOL     OW16420   1.346   3.297   2.250  0.8798  0.2314 -0.0942
 1596SOL    HW116421   1.283   3.270   2.183  0.5709 -0.7957  0.5958
 1596SOL    HW216422   1.391   3.215   2.275  1.3855  0.9938  1.5347
 1597SOL     OW16423   0.153   3.779  12.001 -0.0261  0.0511 -0.3348
 1597SOL    HW116424   0.081   3.833  12.034  0.5360 -1.2372  2.9328
 1597SOL    HW216425   0.134   3.687  12.019  2.0580  0.0562  1.8030
 1598SOL     OW16426   3.078   3.182   5.757  0.4316 -0.2187 -0.2789
 1598SOL    HW116427   3.026   3.174   5.678  0.4646 -1.3019 -0.1820
 1598SOL    HW216428   3.049   3.268   5.788  0.1510 -0.6886  0.7676
 1599SOL     OW16429   0.163   0.819   3.670 -0.1552  0.4301 -0.6474
 1599SOL    HW116430   0.175   0.732   3.633  1.4119 -0.4413  1.9170
 1599SOL    HW216431   0.249   0.857   3.650 -0.5267  1.3094 -0.5730
 1600SOL     OW16432   3.017   1.363   8.092 -0.0554  0.5242  0.2581
 1600SOL    HW116433   2.954   1.291   8.101 -0.3886  0.5440 -1.7422
 1600SOL    HW216434   3.035   1.382   8.000 -1.0768 -1.0964 -0.2987
 1601SOL     OW16435   2.378   3.008   0.917  0.1340  0.0399 -0.6910
 1601SOL    HW116436   2.451   2.947   0.921 -1.2181 -1.5736 -0.6604
 1601SOL    HW216437   2.419   3.085   0.877  2.0846 -1.1425 -0.9318
 1602SOL     OW16438   1.242   2.340   2.730  0.1876 -0.5255 -0.0241
 1602SOL    HW116439   1.245   2.433   2.754 -1.1111 -0.1790 -1.2172
 1602SOL    HW216440   1.203   2.354   2.644  0.3236  0.3412  0.0590
 1603SOL     OW16441   2.069   2.711   3.707 -0.3215  0.5259 -0.2916
 1603SOL    HW116442   2.054   2.631   3.759 -2.0109  1.4736  0.6985
 1603SOL    HW216443   1.993   2.763   3.735  1.1229  2.4599  0.0219
 1604SOL     OW16444   4.302   1.817   6.841 -0.1268  0.5729 -0.2227
 1604SOL    HW116445   4.355   1.894   6.863  1.1681 -0.4013  0.0461
 1604SOL    HW216446   4.373   1.766   6.803  1.0011  1.2551  1.0051
 1605SOL     OW16447   4.577   2.542   7.046 -1.1946  0.1421  0.4709
 1605SOL    HW116448   4.529   2.524   6.965 -1.4981  1.8495  0.2916
 1605SOL    HW216449   4.622   2.621   7.020 -1.0469  0.4045  1.5067
 1606SOL     OW16450   3.515   1.354   6.478 -0.5275 -0.2830  0.5346
 1606SOL    HW116451   3.595   1.312   6.448 -1.9391 -2.3610 -0.2944
 1606SOL    HW216452   3.539   1.447   6.476 -1.4916 -0.0861 -1.7448
 1607SOL     OW16453   2.831   2.765   5.550  0.1626 -0.1908  0.2393
 1607SOL    HW116454   2.910   2.757   5.497  0.8103 -1.2405  1.3548
 1607SOL    HW216455   2.815   2.674   5.576 -0.4850  0.0406  0.6662
 1608SOL     OW16456   3.719   0.924   6.896 -0.1311 -0.2295  0.3711
 1608SOL    HW116457   3.727   0.848   6.837 -1.6735  2.2425 -2.9996
 1608SOL    HW216458   3.799   0.918   6.948 -0.3673  0.8765  0.8580
 1609SOL     OW16459   1.650   0.802  11.888 -0.3945  0.0209  0.0663
 1609SOL    HW116460   1.690   0.741  11.826 -2.5564  2.0328 -3.3555
 1609SOL    HW216461   1.573   0.751  11.911  0.4753 -1.7334 -0.9573
 1610SOL     OW16462   2.040   3.237   3.420 -0.1289 -0.0022 -0.0662
 1610SOL    HW116463   2.019   3.260   3.329  0.3130  1.5047  0.2093
 1610SOL    HW216464   2.098   3.164   3.399 -1.1597 -1.1446  1.0404
 1611SOL     OW16465   4.318   0.552  10.502  0.2227 -0.5735  0.0889
 1611SOL    HW116466   4.286   0.643  10.501  0.2254 -0.5648  0.7583
 1611SOL    HW216467   4.402   0.579  10.540 -0.2551 -0.7418  1.2718
 1612SOL     OW16468   0.017   0.318   3.345  0.2460 -0.1969 -0.3232
 1612SOL    HW116469   4.668   0.310   3.304  0.5165 -1.9337 -0.5966
 1612SOL    HW216470   0.040   0.233   3.383  0.9721 -0.3667 -1.1460
 1613SOL     OW16471   3.313   4.109  15.897 -0.2322 -0.1989 -0.0588
 1613SOL    HW116472   3.331   4.202  15.907 -1.5789  0.3113 -2.4870
 1613SOL    HW216473   3.218   4.102  15.909  0.0361 -1.1275  1.5456
 1614SOL     OW16474   2.307   0.072  15.211 -0.1612  0.8939  0.2856
 1614SOL    HW116475   2.305   4.715  15.198 -1.0403  1.0629 -0.8333
 1614SOL    HW216476   2.382   0.085  15.152 -1.6363 -0.5109 -1.8986
 1615SOL     OW16477   3.462   1.021   7.831 -0.1243  0.4993  0.1076
 1615SOL    HW116478   3.556   1.025   7.848  0.0044  2.6182 -1.0392
 1615SOL    HW216479   3.459   0.955   7.761  0.6464 -1.8261  2.2664
 1616SOL     OW16480   3.443   3.817   2.757  0.9565 -0.2947 -0.0626
 1616SOL    HW116481   3.421   3.753   2.690  0.9186  2.2120 -2.4126
 1616SOL    HW216482   3.447   3.754   2.829  0.4407  0.8936  1.0059
 1617SOL     OW16483   0.305   1.144  15.361  0.2438 -0.2442 -0.4386
 1617SOL    HW116484   0.388   1.176  15.325  1.1002 -0.3271  1.4938
 1617SOL    HW216485   0.297   1.204  15.434 -2.0334  0.3235 -1.1508
 1618SOL     OW16486   2.295   1.850   9.319 -0.0018  0.0730 -0.4018
 1618SOL    HW116487   2.235   1.788   9.278  0.2883 -0.8306  0.5464
 1618SOL    HW216488   2.263   1.937   9.296  0.4277  0.1229 -0.8060
 1619SOL     OW16489   3.574   4.126   3.646 -0.4316 -0.1888 -0.2079
 1619SOL    HW116490   3.665   4.099   3.641 -0.1858  1.1042 -2.4855
 1619SOL    HW216491   3.567   4.141   3.740  0.5973  0.4152 -0.2296
 1620SOL     OW16492   2.146   0.771  15.321  0.1372 -0.4949 -0.1304
 1620SOL    HW116493   2.079   0.813  15.375 -0.3216  1.5571 -2.3424
 1620SOL    HW216494   2.212   0.840  15.325 -0.9176  0.5857 -1.4219
 1621SOL     OW16495   2.196   2.389  15.802  0.8731 -0.0314 -0.1865
 1621SOL    HW116496   2.275   2.407  15.852  1.2456 -0.3079 -0.6736
 1621SOL    HW216497   2.173   2.473  15.763  1.8685 -0.1755 -1.1017
 1622SOL     OW16498   0.949   2.885   6.343  0.1552  0.3845  0.0153
 1622SOL    HW116499   0.889   2.846   6.406 -2.5614  2.3126 -1.3632
 1622SOL    HW216500   1.025   2.833   6.370 -1.4216 -0.7308  2.3227
 1623SOL     OW16501   2.976   4.692  12.934  0.2911  0.4378  0.1970
 1623SOL    HW116502   3.004   4.620  12.990  1.4951  1.5415  1.0321
 1623SOL    HW216503   2.881   4.685  12.944  0.5567 -2.6664  0.6260
 1624SOL     OW16504   0.695   3.329   7.165 -0.4763  0.2301  0.2449
 1624SOL    HW116505   0.625   3.270   7.138 -1.9630  2.7056 -1.3520
 1624SOL    HW216506   0.762   3.295   7.105 -0.5184  0.5504  0.0133
 1625SOL     OW16507   2.101   3.299   8.549  0.7071 -0.4083 -0.3161
 1625SOL    HW116508   2.085   3.315   8.642  2.4959 -1.4034  0.1416
 1625SOL    HW216509   2.126   3.207   8.550 -0.3374 -0.6974 -0.5312
 1626SOL     OW16510   0.816   1.594   7.760 -0.2191 -0.4618 -0.3613
 1626SOL    HW116511   0.908   1.621   7.759 -0.4814  0.3470 -2.0477
 1626SOL    HW216512   0.764   1.655   7.708 -0.6909  0.5897  1.3393
 1627SOL     OW16513   2.575   0.161   1.085  0.4050  0.2164 -0.0317
 1627SOL    HW116514   2.582   0.107   1.006 -0.9890 -0.0485  0.0347
 1627SOL    HW216515   2.483   0.151   1.107  0.3740  2.7768  1.1056
 1628SOL     OW16516   2.547   3.762   0.468  0.7682 -0.0136 -0.2519
 1628SOL    HW116517   2.596   3.694   0.513 -2.5638 -1.2525  1.5298
 1628SOL    HW216518   2.487   3.802   0.530 -1.0758 -0.9461 -1.4168
 1629SOL     OW16519   4.184   3.822   4.888 -0.1432 -0.0350 -0.1087
 1629SOL    HW116520   4.135   3.782   4.816  0.1868 -1.9452  0.7260
 1629SOL    HW216521   4.237   3.748   4.915  1.0272  1.1725  0.8902
 1630SOL     OW16522   2.565   3.408  15.659  0.2529  0.3314  0.0385
 1630SOL    HW116523   2.539   3.433  15.747  0.2394  3.0207 -0.7317
 1630SOL    HW216524   2.619   3.483  15.632  2.5723 -1.7856 -1.1921
 1631SOL     OW16525   4.469   3.361   8.524  0.3138  0.2562  0.1071
 1631SOL    HW116526   4.558   3.396   8.513 -0.1172  1.0699 -0.8261
 1631SOL    HW216527   4.438   3.374   8.434 -0.9283 -2.2397  0.1935
 1632SOL     OW16528   0.511   4.683   7.081  0.8232 -0.1660  0.0744
 1632SOL    HW116529   0.566   4.703   7.005 -0.5584 -2.5760 -1.5848
 1632SOL    HW216530   0.424   4.708   7.048  0.5965  1.2899  1.7606
 1633SOL     OW16531   0.616   4.226  12.422  0.1681 -0.3536 -0.8332
 1633SOL    HW116532   0.579   4.208  12.336 -0.3755  1.1929 -0.9224
 1633SOL    HW216533   0.601   4.138  12.456  1.4886 -0.5839 -0.8532
 1634SOL     OW16534   0.578   2.995   9.392  0.2222 -0.3445  0.0417
 1634SOL    HW116535   0.495   2.989   9.344 -0.2954  0.8090  0.7948
 1634SOL    HW216536   0.600   3.084   9.365  1.9280 -0.5987  0.6017
 1635SOL     OW16537   1.048   4.041   1.876  0.3486  0.0802 -0.5856
 1635SOL    HW116538   1.122   4.087   1.916 -0.5550  0.4957  0.5879
 1635SOL    HW216539   1.079   4.000   1.795  0.5170 -0.5085 -0.2228
 1636SOL     OW16540   0.673   2.401   1.636 -0.5291 -0.5109  0.7920
 1636SOL    HW116541   0.767   2.382   1.635 -0.7044 -1.2663 -2.0690
 1636SOL    HW216542   0.641   2.367   1.720 -0.6253  0.2545  1.0653
 1637SOL     OW16543   1.139   0.294   0.109 -0.6581  0.2216 -0.1300
 1637SOL    HW116544   1.076   0.249   0.164 -1.2639 -0.0742 -1.0585
 1637SOL    HW216545   1.216   0.265   0.159 -1.2088  1.7732  1.6223
 1638SOL     OW16546   4.521   1.945   0.076 -0.2043 -0.5384  0.0952
 1638SOL    HW116547   4.514   1.903  17.740  0.4385 -0.5838  0.0656
 1638SOL    HW216548   4.595   2.003   0.058 -1.9672  1.2694 -1.3014
 1639SOL     OW16549   3.115   0.746  16.725  0.0270 -0.2436  0.3951
 1639SOL    HW116550   3.105   0.808  16.653 -1.1718 -1.4571 -0.5004
 1639SOL    HW216551   3.096   0.807  16.796  0.5561 -0.1962  0.4983
 1640SOL     OW16552   0.777   3.901  12.537 -0.2815 -0.3491 -0.0725
 1640SOL    HW116553   0.872   3.894  12.551 -0.2598  1.1287  0.4724
 1640SOL    HW216554   0.740   3.870  12.619 -2.2611 -0.8137 -1.1406
 1641SOL     OW16555   0.946   4.340   2.198  0.6728  0.5247  0.1815
 1641SOL    HW116556   1.021   4.347   2.139  1.7028  1.0385  1.5628
 1641SOL    HW216557   0.968   4.418   2.249  1.6202  0.0981  0.4307
 1642SOL     OW16558   2.284   0.427   3.939  0.0584  0.4953 -0.3793
 1642SOL    HW116559   2.237   0.442   4.021  2.7066 -1.7764  1.5733
 1642SOL    HW216560   2.375   0.442   3.965 -0.1399  2.5630 -0.8921
 1643SOL     OW16561   0.139   3.025   3.872  0.0706  0.0485  0.2950
 1643SOL    HW116562   0.101   3.102   3.914  1.6756 -0.0698  1.9536
 1643SOL    HW216563   0.234   3.030   3.881  0.0163  2.4675 -0.5726
 1644SOL     OW16564   3.550   4.447   1.145 -0.2261  0.4473 -0.2022
 1644SOL    HW116565   3.626   4.495   1.113  1.4122 -1.2109  1.1844
 1644SOL    HW216566   3.497   4.457   1.066 -1.5791 -3.2863  0.2249
 1645SOL     OW16567   3.964   2.349  16.327 -0.0140 -0.6835 -0.2349
 1645SOL    HW116568   3.943   2.408  16.399 -0.0992  0.7052 -1.3948
 1645SOL    HW216569   3.885   2.334  16.274  0.8689 -2.3137 -1.0680
 1646SOL     OW16570   0.128   1.721   5.239 -1.0355  0.6346  0.7810
 1646SOL    HW116571   0.093   1.645   5.284  0.0554  0.1730  0.8633
 1646SOL    HW216572   0.168   1.787   5.296 -1.2273  1.5461 -0.1305
 1647SOL     OW16573   4.012   3.717   5.182 -0.2380 -0.0737  0.0804
 1647SOL    HW116574   3.993   3.643   5.240 -1.4186 -0.2606 -0.5327
 1647SOL    HW216575   4.094   3.749   5.219  0.7096  0.3113 -2.3875
 1648SOL     OW16576   3.351   2.212   4.127  0.6835  0.0197 -0.5058
 1648SOL    HW116577   3.279   2.171   4.078  0.7908 -1.2977  0.4207
 1648SOL    HW216578   3.425   2.187   4.071  1.1470  1.1285 -0.3870
 1649SOL     OW16579   3.336   1.478   3.881 -0.3615 -0.3739  0.3385
 1649SOL    HW116580   3.409   1.450   3.825 -0.9385 -0.1606 -0.5326
 1649SOL    HW216581   3.373   1.464   3.968  0.0229  0.7471  0.3618
 1650SOL     OW16582   3.252   2.198   8.534 -0.4274 -0.2486 -0.0947
 1650SOL    HW116583   3.203   2.228   8.610  2.2771 -0.2868  1.6473
 1650SOL    HW216584   3.221   2.108   8.528 -3.2344  0.7730 -1.0906
 1651SOL     OW16585   2.049   0.614  16.793  0.6696  0.3660 -0.2928
 1651SOL    HW116586   2.111   0.687  16.787  1.4833 -0.3745 -0.8463
 1651SOL    HW216587   1.977   0.655  16.842 -0.3950  0.1507 -1.6902
 1652SOL     OW16588   2.758   1.562  10.346 -0.4013 -0.0847 -0.5002
 1652SOL    HW116589   2.705   1.566  10.426 -0.7930 -0.0740 -0.7617
 1652SOL    HW216590   2.770   1.470  10.324 -0.4490 -0.3718  0.6815
 1653SOL     OW16591   3.377   2.461  16.312  0.0380  0.1693  0.0281
 1653SOL    HW116592   3.381   2.543  16.263 -0.0254  1.4303  2.1337
 1653SOL    HW216593   3.470   2.438  16.321  0.3133  0.9830 -0.7217
 1654SOL     OW16594   1.010   1.598   5.898 -0.2103 -0.1748 -0.1735
 1654SOL    HW116595   1.044   1.634   5.815 -1.2243  2.4932  0.5514
 1654SOL    HW216596   1.030   1.674   5.953 -0.6758 -0.9510  1.0590
 1655SOL     OW16597   2.390   1.454  10.764  0.5377  0.1096 -0.5565
 1655SOL    HW116598   2.421   1.514  10.831 -0.0732 -0.5195  0.2930
 1655SOL    HW216599   2.398   1.368  10.807  0.7850  1.2164  1.6251
 1656SOL     OW16600   1.676   2.765   6.779  0.4743  0.4846  0.6104
 1656SOL    HW116601   1.624   2.707   6.835 -0.5870  0.7083 -0.1606
 1656SOL    HW216602   1.761   2.750   6.822 -0.4481 -2.6626  1.3562
 1657SOL     OW16603   2.260   0.379   1.246  0.2655 -0.1602  0.0715
 1657SOL    HW116604   2.304   0.345   1.323 -1.2160 -3.8006 -0.6871
 1657SOL    HW216605   2.288   0.318   1.178  0.2477  0.0798 -0.1488
 1658SOL     OW16606   1.227   3.450   8.505 -0.2702  0.3116  0.2911
 1658SOL    HW116607   1.184   3.520   8.454 -0.4825 -0.4256 -0.5486
 1658SOL    HW216608   1.251   3.498   8.584  1.9768 -1.7459  0.8426
 1659SOL     OW16609   1.608   1.698   8.009  0.1904  0.2607  0.5346
 1659SOL    HW116610   1.684   1.722   7.955 -0.4904 -0.4691 -0.7245
 1659SOL    HW216611   1.559   1.639   7.952  3.5389  0.0724 -2.1884
 1660SOL     OW16612   0.649   2.013   6.632  0.2022  0.8036  0.5191
 1660SOL    HW116613   0.564   2.034   6.593 -0.3920  1.6836  2.2784
 1660SOL    HW216614   0.701   2.087   6.601 -1.9303  2.8505  1.8506
 1661SOL     OW16615   2.519   1.699   8.705 -0.2948  0.2316  0.1324
 1661SOL    HW116616   2.430   1.672   8.726 -0.7270  0.8560 -0.8734
 1661SOL    HW216617   2.504   1.780   8.657  0.6805 -0.5424 -1.4892
 1662SOL     OW16618   2.415   3.288   5.448 -0.3908 -0.1025  0.5766
 1662SOL    HW116619   2.399   3.218   5.511 -1.5587  0.5643  1.0046
 1662SOL    HW216620   2.328   3.323   5.428  0.0788  1.4009  1.1933
 1663SOL     OW16621   4.454   0.312  17.182  0.5369 -0.3121 -0.2573
 1663SOL    HW116622   4.531   0.256  17.193  0.8640  0.2537  0.2861
 1663SOL    HW216623   4.476   0.340  17.093 -1.2006 -1.5094 -1.0793
 1664SOL     OW16624   2.656   2.640  11.047  0.7766  0.7764  0.2588
 1664SOL    HW116625   2.727   2.660  11.108  0.1497  1.4150  0.7837
 1664SOL    HW216626   2.624   2.730  11.036  1.3608  0.9987  0.3502
 1665SOL     OW16627   2.397   3.264   1.641 -0.3979  0.3232  0.1367
 1665SOL    HW116628   2.386   3.194   1.577 -0.3503  0.5796 -0.1518
 1665SOL    HW216629   2.424   3.334   1.582 -0.6405  1.6988  1.6255
 1666SOL     OW16630   1.096   3.785   9.071 -0.2593  0.3159 -0.0898
 1666SOL    HW116631   1.087   3.846   8.998 -0.1042  1.3270  0.7368
 1666SOL    HW216632   1.134   3.841   9.139 -1.2418  2.6385 -1.4440
 1667SOL     OW16633   4.638   1.888   7.359 -0.2081  0.3544 -0.1154
 1667SOL    HW116634   4.624   1.855   7.447 -0.1276  2.9905  0.8792
 1667SOL    HW216635   4.586   1.968   7.353  0.6599  1.0447  1.5639
 1668SOL     OW16636   4.716   3.258  16.699  0.3878  0.0266  0.2583
 1668SOL    HW116637   4.637   3.213  16.669 -0.0343 -0.0848  1.5169
 1668SOL    HW216638   4.703   3.347  16.667  1.6085 -0.2052 -0.8908
 1669SOL     OW16639   4.301   0.381   2.920 -0.1610 -0.1349  0.0264
 1669SOL    HW116640   4.248   0.410   2.846  0.3777  0.7568 -0.0195
 1669SOL    HW216641   4.298   0.469   2.958 -1.1442  0.1518 -0.7250
 1670SOL     OW16642   4.528   1.205   1.956 -0.6716 -0.0964  0.3420
 1670SOL    HW116643   4.547   1.117   1.921 -2.5635 -0.6683  0.7658
 1670SOL    HW216644   4.487   1.230   1.873 -2.9840  0.1598  1.5984
 1671SOL     OW16645   4.047   1.843   9.138  0.1556  0.1275 -0.1243
 1671SOL    HW116646   3.974   1.792   9.173  0.0058  0.9147  0.7067
 1671SOL    HW216647   4.002   1.926   9.122 -0.5024 -0.2771 -0.3625
 1672SOL     OW16648   1.377   2.639  11.003 -0.2681  0.0034  0.0360
 1672SOL    HW116649   1.463   2.633  11.045 -1.1189 -0.4790  1.7279
 1672SOL    HW216650   1.332   2.709  11.050 -0.0947 -1.0768  1.8176
 1673SOL     OW16651   3.187   2.889   6.333 -0.4392 -0.2891 -0.5253
 1673SOL    HW116652   3.131   2.877   6.410  0.1451 -1.0751 -0.2163
 1673SOL    HW216653   3.223   2.974   6.356 -1.4758  0.5511 -2.0054
 1674SOL     OW16654   4.734   0.239   1.241  0.0156 -0.4494  0.5815
 1674SOL    HW116655   4.646   0.214   1.214 -0.1084 -0.5022  1.0247
 1674SOL    HW216656   0.036   0.161   1.279  1.3825 -0.5471 -1.0527
 1675SOL     OW16657   2.386   0.869   7.143  0.2019 -0.3034 -0.5108
 1675SOL    HW116658   2.416   0.816   7.069  1.1506  0.2397 -0.5145
 1675SOL    HW216659   2.302   0.897   7.106 -0.3215  0.4295  1.2349
 1676SOL     OW16660   0.228   4.442  12.322 -0.4788 -0.1038  0.3568
 1676SOL    HW116661   0.320   4.466  12.333 -0.8949  0.7135  2.1477
 1676SOL    HW216662   0.231   4.454  12.227 -1.0471  1.1758  0.4940
 1677SOL     OW16663   3.033   4.734   5.015 -0.1743  0.4275  0.0610
 1677SOL    HW116664   2.962   0.031   4.961 -1.5224 -3.2939 -0.6111
 1677SOL    HW216665   3.000   4.729   5.105  1.3109  2.2290  0.6828
 1678SOL     OW16666   2.973   0.302  17.514 -0.0017 -0.1868 -0.1292
 1678SOL    HW116667   2.891   0.317  17.467 -0.8065 -0.0861  1.2858
 1678SOL    HW216668   3.003   0.214  17.491  0.1682 -0.5972  1.6602
 1679SOL     OW16669   0.821   0.454   1.473  0.3166  0.4880 -0.2294
 1679SOL    HW116670   0.866   0.400   1.538 -1.9196 -2.4344 -1.1144
 1679SOL    HW216671   0.806   0.532   1.526 -0.1940  0.4820 -0.3646
 1680SOL     OW16672   3.090   0.670  11.289 -0.1740 -0.1611 -0.2395
 1680SOL    HW116673   2.996   0.677  11.307 -0.4071 -0.6078 -1.2680
 1680SOL    HW216674   3.089   0.695  11.196  0.9019  0.0969 -0.1779
 1681SOL     OW16675   0.654   1.450   1.929  0.1932 -0.0642  0.3930
 1681SOL    HW116676   0.709   1.528   1.930  2.1532 -1.4444 -0.5350
 1681SOL    HW216677   0.673   1.415   2.016  2.1245 -1.1069 -0.4585
 1682SOL     OW16678   1.439   4.259  12.533 -0.0470 -0.3488  0.2280
 1682SOL    HW116679   1.526   4.285  12.564  1.1019 -0.8642 -2.5834
 1682SOL    HW216680   1.390   4.330  12.575  1.8103  1.8049 -1.2134
 1683SOL     OW16681   1.164   1.010   3.141 -0.2773 -0.4161  0.4770
 1683SOL    HW116682   1.084   1.059   3.123 -0.2415 -0.5667 -0.0952
 1683SOL    HW216683   1.229   1.079   3.157 -0.9210  0.1652  0.5956
 1684SOL     OW16684   0.947   2.189   7.669 -0.4531  0.4787 -0.1915
 1684SOL    HW116685   0.903   2.243   7.734  0.4718  1.7132 -0.5935
 1684SOL    HW216686   0.918   2.234   7.590  0.9291  2.3402  0.3558
 1685SOL     OW16687   0.132   2.566   8.920  0.1260 -0.2878  0.1755
 1685SOL    HW116688   0.209   2.624   8.918 -0.0851  0.0232  1.1033
 1685SOL    HW216689   0.071   2.624   8.876 -0.8063 -1.3980  0.0229
 1686SOL     OW16690   1.620   1.633  16.273  0.3542  0.0004 -0.2317
 1686SOL    HW116691   1.566   1.661  16.200  0.3287  0.0069 -0.2106
 1686SOL    HW216692   1.560   1.591  16.335  2.8840  1.7018  3.4260
 1687SOL     OW16693   3.743   4.366   7.417  0.1323 -0.0117 -0.0901
 1687SOL    HW116694   3.699   4.312   7.351 -0.1868 -1.2620  1.1381
 1687SOL    HW216695   3.699   4.350   7.501 -1.0209 -0.3840 -0.7595
 1688SOL     OW16696   2.407   0.988   9.785  0.0201 -0.4589 -0.0358
 1688SOL    HW116697   2.367   1.021   9.865 -1.2678 -1.1956 -0.3757
 1688SOL    HW216698   2.476   1.052   9.771 -1.1123  0.9051  0.6037
 1689SOL     OW16699   0.827   2.297   5.223 -0.8381 -0.3306 -0.2211
 1689SOL    HW116700   0.887   2.224   5.234  2.2858  2.4458  1.1932
 1689SOL    HW216701   0.757   2.273   5.284  0.1757 -0.8116  0.7506
 1690SOL     OW16702   1.476   2.164   0.537 -0.0716 -0.7361 -0.3204
 1690SOL    HW116703   1.545   2.110   0.500  0.8631  0.3397 -0.1477
 1690SOL    HW216704   1.413   2.176   0.466  2.3385  4.0206 -1.6389
 1691SOL     OW16705   4.636   4.071  14.662  0.1545 -0.2371  0.4528
 1691SOL    HW116706   4.545   4.054  14.637 -0.3008 -1.7050  3.0704
 1691SOL    HW216707   4.675   3.994  14.621  1.0545 -0.2085  1.2587
 1692SOL     OW16708   1.884   0.001   2.736  0.4982 -0.0693  0.2991
 1692SOL    HW116709   1.915   4.663   2.687  1.5026  1.9743 -2.2189
 1692SOL    HW216710   1.810   4.706   2.788  0.4309 -1.2468 -0.5421
 1693SOL     OW16711   4.721   2.480   9.156  0.2956  0.1991  0.3340
 1693SOL    HW116712   4.647   2.540   9.165  1.0822  1.1728  0.3265
 1693SOL    HW216713   0.032   2.519   9.083  0.4948 -1.0744 -0.2146
 1694SOL     OW16714   0.094   1.091   6.332 -0.3264 -0.6028  0.0512
 1694SOL    HW116715   0.108   1.103   6.425  3.2566  0.7011 -0.6628
 1694SOL    HW216716   0.115   0.998   6.324 -1.1086 -0.7399 -0.4216
 1695SOL     OW16717   2.164   0.083  10.998 -1.1715  0.0056 -0.1208
 1695SOL    HW116718   2.178   4.734  11.036  0.4722  1.0955  1.7311
 1695SOL    HW216719   2.119   0.129  11.068  0.9903  1.4346  0.3220
 1696SOL     OW16720   2.373   3.461   6.158  0.0258  0.5717 -0.3790
 1696SOL    HW116721   2.296   3.512   6.134 -1.6562 -1.6325  0.3436
 1696SOL    HW216722   2.442   3.503   6.107 -0.7665 -0.7780 -2.5356
 1697SOL     OW16723   1.332   2.304  12.865 -0.4631  0.3829  0.1967
 1697SOL    HW116724   1.264   2.358  12.906  0.2976  0.6362  1.1106
 1697SOL    HW216725   1.403   2.312  12.928  1.6222 -0.4959 -2.0276
 1698SOL     OW16726   3.968   0.212   3.221 -0.0662  1.0445  0.2253
 1698SOL    HW116727   4.024   0.135   3.208 -1.8334  0.1120 -1.8636
 1698SOL    HW216728   3.898   0.170   3.270  0.3503 -0.2506 -0.2731
 1699SOL     OW16729   2.559   2.276  16.016 -0.0411 -0.2975  0.2751
 1699SOL    HW116730   2.505   2.328  16.075  1.8719  2.2577 -0.2820
 1699SOL    HW216731   2.557   2.329  15.936 -0.4033  1.3659  1.4062
 1700SOL     OW16732   0.628   2.660  12.341 -0.1572 -0.3642 -0.0099
 1700SOL    HW116733   0.627   2.566  12.362  0.0474 -0.1517  0.9797
 1700SOL    HW216734   0.570   2.665  12.265  1.5366  0.3630 -1.2443
 1701SOL     OW16735   4.413   1.853   3.548  0.0200  0.2503  0.0334
 1701SOL    HW116736   4.407   1.948   3.562  0.2064  0.0593  1.3492
 1701SOL    HW216737   4.506   1.842   3.566  0.1935  0.0198 -1.0014
 1702SOL     OW16738   0.379   4.068   6.856  0.0635 -0.0135  0.5202
 1702SOL    HW116739   0.444   4.055   6.787 -1.9050 -0.0211 -1.3001
 1702SOL    HW216740   0.419   4.136   6.911  1.7899 -1.2010  0.7467
 1703SOL     OW16741   1.896   1.193   4.468  0.8152 -0.5256 -0.1033
 1703SOL    HW116742   1.900   1.284   4.438  0.4147 -0.8628 -1.1784
 1703SOL    HW216743   1.820   1.201   4.525  1.3994  1.6728  0.3947
 1704SOL     OW16744   1.527   3.511   5.225 -0.3214  0.0735  0.8997
 1704SOL    HW116745   1.574   3.594   5.224  1.9207 -1.2330 -0.3052
 1704SOL    HW216746   1.598   3.448   5.229 -0.1121  0.1169 -2.1670
 1705SOL     OW16747   1.995   3.951   8.868  0.2181  0.0270  0.2272
 1705SOL    HW116748   2.010   3.860   8.842 -0.2299 -0.3592  1.3072
 1705SOL    HW216749   1.904   3.965   8.842 -0.1362  1.2189  2.1135
 1706SOL     OW16750   4.370   1.896  15.068  0.3617 -0.0921 -0.5825
 1706SOL    HW116751   4.437   1.836  15.034 -1.8795 -1.2533 -2.9423
 1706SOL    HW216752   4.394   1.972  15.015 -0.2857  0.3092 -0.2963
 1707SOL     OW16753   1.311   1.498  10.611 -0.0297  0.4725  0.2052
 1707SOL    HW116754   1.319   1.406  10.586 -3.2938  0.3536 -0.4214
 1707SOL    HW216755   1.402   1.524  10.599  0.5328 -0.9392  1.3956
 1708SOL     OW16756   1.258   4.030  13.827 -0.3323 -0.0051 -0.2246
 1708SOL    HW116757   1.231   4.109  13.873 -1.2574 -0.3529 -0.1810
 1708SOL    HW216758   1.351   4.042  13.805 -0.0680 -0.2161  0.7762
 1709SOL     OW16759   2.182   0.250  11.237 -0.0363  0.3783  0.2349
 1709SOL    HW116760   2.211   0.331  11.193 -1.6264  0.4251 -0.7419
 1709SOL    HW216761   2.255   0.236  11.296 -0.9807  0.6111  1.4595
 1710SOL     OW16762   0.912   3.013   4.920  0.4340 -0.3721  0.7028
 1710SOL    HW116763   0.913   2.948   4.850 -3.7752  1.1306 -0.7913
 1710SOL    HW216764   0.998   3.018   4.960  0.1979  0.6423  1.0612
 1711SOL     OW16765   3.913   4.562   5.565 -0.0955 -0.6873  0.2938
 1711SOL    HW116766   3.963   4.632   5.523  1.1789 -2.6310 -1.4581
 1711SOL    HW216767   3.941   4.567   5.657  0.6751  2.7197 -0.1318
 1712SOL     OW16768   2.254   1.772  13.858 -0.6336  0.3082  0.4120
 1712SOL    HW116769   2.300   1.702  13.811  1.4920  2.5999 -0.9133
 1712SOL    HW216770   2.186   1.780  13.791  0.5214 -0.2159 -0.8148
 1713SOL     OW16771   1.423   4.436   3.666 -0.1239  0.4389  0.2492
 1713SOL    HW116772   1.492   4.372   3.655 -1.3767 -1.0779  1.2649
 1713SOL    HW216773   1.455   4.480   3.744  0.2098  1.7285 -0.6034
 1714SOL     OW16774   2.807   0.503   6.264  0.2945  0.1858  0.4050
 1714SOL    HW116775   2.807   0.408   6.250  0.8947  0.0754  1.1881
 1714SOL    HW216776   2.735   0.505   6.328  1.4562  0.3318  1.7104
 1715SOL     OW16777   2.730   3.837   3.215  0.3605  0.2386  0.3933
 1715SOL    HW116778   2.775   3.917   3.190 -1.3422  0.7523 -1.0299
 1715SOL    HW216779   2.729   3.787   3.133  0.3734 -1.0445  1.1756
 1716SOL     OW16780   0.388   3.021   3.799  0.9877 -0.0970  0.2156
 1716SOL    HW116781   0.417   2.931   3.810 -0.0216 -0.5473 -0.7672
 1716SOL    HW216782   0.462   3.063   3.756 -0.5230  0.0132 -2.2792
 1717SOL     OW16783   3.707   3.839   9.816 -0.5141 -0.7063  0.3257
 1717SOL    HW116784   3.703   3.755   9.862 -0.4311 -1.5673 -1.2326
 1717SOL    HW216785   3.641   3.890   9.861 -1.2208 -1.4402  0.1170
 1718SOL     OW16786   4.169   4.661   2.237  0.3844 -0.0646  0.2563
 1718SOL    HW116787   4.155   4.737   2.293 -0.3813  0.7724 -1.0931
 1718SOL    HW216788   4.150   4.703   2.153 -2.0179  0.2866  0.9763
 1719SOL     OW16789   4.465   1.299   1.676 -0.5003  0.1668 -0.3130
 1719SOL    HW116790   4.390   1.308   1.617 -0.9385  0.7084  0.3327
 1719SOL    HW216791   4.537   1.266   1.622 -0.0932  1.0202 -0.2923
 1720SOL     OW16792   2.476   2.319  11.826 -0.8116  0.1742  0.1927
 1720SOL    HW116793   2.406   2.335  11.889 -2.8022 -0.5597 -1.8501
 1720SOL    HW216794   2.556   2.301  11.876  0.0127 -1.9147 -1.9098
 1721SOL     OW16795   3.853   2.558   6.991  0.3173  0.1373  0.2062
 1721SOL    HW116796   3.908   2.514   6.927  1.5002  2.5664 -0.4435
 1721SOL    HW216797   3.857   2.647   6.957 -0.7500 -0.5022 -1.5620
 1722SOL     OW16798   0.110   3.962   2.898 -0.0038 -0.4233 -0.3476
 1722SOL    HW116799   0.172   3.927   2.961 -0.1635 -1.2225 -0.6314
 1722SOL    HW216800   0.105   3.885   2.842  1.5798  1.3371 -2.9119
 1723SOL     OW16801   0.015   0.862   1.844  0.3712 -0.1393 -0.4423
 1723SOL    HW116802   4.668   0.907   1.842  0.1964 -0.5164 -1.3173
 1723SOL    HW216803   4.732   0.808   1.921  1.5760 -1.0851 -0.7759
 1724SOL     OW16804   0.826   3.449   6.575  0.2136 -0.1429 -0.3189
 1724SOL    HW116805   0.769   3.452   6.652 -0.2240  0.1189 -0.6517
 1724SOL    HW216806   0.906   3.483   6.616 -1.5498  2.4221  0.9704
 1725SOL     OW16807   0.110   4.034   1.503 -0.4802  0.3333  0.1859
 1725SOL    HW116808   0.018   4.055   1.516 -0.8298 -0.8559 -0.3459
 1725SOL    HW216809   0.124   4.000   1.591 -0.9924  1.6220  0.7631
 1726SOL     OW16810   1.503   0.764   5.562  0.0052  0.2720 -0.8716
 1726SOL    HW116811   1.586   0.727   5.592  0.1423  0.4804 -0.9953
 1726SOL    HW216812   1.523   0.767   5.469  1.3519 -0.2235 -0.6003
 1727SOL     OW16813   0.978   3.846   7.130 -0.2411 -0.8542  0.2709
 1727SOL    HW116814   1.048   3.890   7.081 -1.2727 -0.2102 -0.6250
 1727SOL    HW216815   0.933   3.920   7.171  0.5446 -1.7097  2.6637
 1728SOL     OW16816   2.581   4.492   6.740 -0.6921  0.3527  0.3178
 1728SOL    HW116817   2.536   4.489   6.824  0.2682  0.0272  0.8185
 1728SOL    HW216818   2.539   4.570   6.703 -0.3156 -0.3077 -1.5308
 1729SOL     OW16819   1.710   0.041   0.643  0.2223 -0.1314 -0.3872
 1729SOL    HW116820   1.796   0.083   0.654  0.6526 -1.8408  2.7510
 1729SOL    HW216821   1.681   0.076   0.558  0.4191 -2.2223 -1.3230
 1730SOL     OW16822   0.085   1.961   7.181 -0.0180 -0.2384 -0.3610
 1730SOL    HW116823   0.053   2.051   7.179  1.0128  0.0836 -2.6744
 1730SOL    HW216824   0.033   1.919   7.250  0.7894  1.4015  1.2600
 1731SOL     OW16825   1.717   2.907   8.268 -0.5080  0.1701  0.4560
 1731SOL    HW116826   1.661   2.929   8.342 -1.9963 -0.9011 -0.3413
 1731SOL    HW216827   1.755   2.833   8.315  1.6360  1.4668  0.7692
 1732SOL     OW16828   4.058   3.950   0.322 -0.2320 -0.2048 -0.2280
 1732SOL    HW116829   4.137   3.908   0.354  0.9055  1.9277 -0.2444
 1732SOL    HW216830   4.094   4.007   0.254 -0.8110  0.9641  0.4590
 1733SOL     OW16831   3.588   0.032  14.224 -0.2043 -0.3602  0.2909
 1733SOL    HW116832   3.637   0.089  14.284 -0.4261  0.7770 -0.6013
 1733SOL    HW216833   3.609   4.684  14.260 -2.0065 -0.8263  0.2307
 1734SOL     OW16834   2.335   4.281   0.245 -0.2802 -0.5655 -0.3063
 1734SOL    HW116835   2.343   4.249   0.155 -0.2686 -1.0747 -0.1268
 1734SOL    HW216836   2.424   4.265   0.278  0.0553  0.7566 -0.5933
 1735SOL     OW16837   2.702   0.109   7.261  0.4403  0.1419 -0.1242
 1735SOL    HW116838   2.787   0.148   7.241  0.4321 -0.3206 -1.0842
 1735SOL    HW216839   2.721   0.016   7.254  0.2784  0.2237 -1.5670
 1736SOL     OW16840   3.590   2.688  15.912  0.1325  0.3104  0.7605
 1736SOL    HW116841   3.596   2.603  15.957  1.0658  0.0750  0.1749
 1736SOL    HW216842   3.500   2.708  15.939  0.6499  2.7003  0.7072
 1737SOL     OW16843   3.109   2.745   6.798  0.0209  1.2862 -0.2983
 1737SOL    HW116844   3.059   2.679   6.846  1.4763 -0.2101 -0.8468
 1737SOL    HW216845   3.153   2.794   6.867 -0.6178  2.4862 -0.7578
 1738SOL     OW16846   2.935   2.590   6.929  0.1886  0.3249  0.1963
 1738SOL    HW116847   2.854   2.623   6.891  0.3579  1.0517  0.4676
 1738SOL    HW216848   2.903   2.567   7.017  0.4348 -0.1336  0.1656
 1739SOL     OW16849   0.973   2.620   7.408  0.1097 -0.0554  0.2025
 1739SOL    HW116850   0.973   2.715   7.414 -0.7866 -0.0115 -0.5356
 1739SOL    HW216851   0.885   2.604   7.441 -0.6025  1.9700 -0.7140
 1740SOL     OW16852   0.589   0.539   2.959  0.0447 -0.1499  0.2530
 1740SOL    HW116853   0.565   0.449   2.937  1.8749 -0.7735  0.8082
 1740SOL    HW216854   0.581   0.535   3.055  2.0831 -1.7415  0.3496
 1741SOL     OW16855   2.049   3.476   2.399 -0.7513  0.2802 -0.2209
 1741SOL    HW116856   1.976   3.479   2.461 -2.0787 -2.9296 -1.5816
 1741SOL    HW216857   2.037   3.546   2.334  2.4346 -1.4920 -2.7245
 1742SOL     OW16858   3.158   0.577  13.817  0.2483 -0.1873  0.0249
 1742SOL    HW116859   3.077   0.539  13.851  0.2795  0.7273  1.1499
 1742SOL    HW216860   3.151   0.569  13.722  2.8562 -0.9223 -0.1047
 1743SOL     OW16861   3.796   1.768   0.520  0.2793 -0.2423 -0.6312
 1743SOL    HW116862   3.774   1.708   0.592  3.2194  0.1311  0.5788
 1743SOL    HW216863   3.891   1.755   0.511  0.5265  1.4260 -0.3402
 1744SOL     OW16864   2.807   0.470   9.006 -0.2211  0.3520 -0.1965
 1744SOL    HW116865   2.842   0.550   8.967  2.4432 -0.2416  1.0352
 1744SOL    HW216866   2.736   0.507   9.059 -1.4135 -2.1635 -0.0021
 1745SOL     OW16867   2.393   1.970  15.748 -0.0790  0.1705 -0.0667
 1745SOL    HW116868   2.345   2.012  15.820 -1.0209  1.0500 -1.2078
 1745SOL    HW216869   2.469   2.027  15.743 -0.2991  0.5051  0.3844
 1746SOL     OW16870   3.273   4.451   2.523  0.0512 -0.0539 -0.1600
 1746SOL    HW116871   3.345   4.474   2.464 -0.1272  3.3316  0.9771
 1746SOL    HW216872   3.225   4.408   2.452 -0.3111  0.7818 -0.4241
 1747SOL     OW16873   1.369   4.536   0.277 -0.2696 -0.2603 -0.0387
 1747SOL    HW116874   1.341   4.492   0.197  1.1185 -1.6186  0.2106
 1747SOL    HW216875   1.336   4.479   0.346 -0.7490 -1.7600 -1.5215
 1748SOL     OW16876   2.484   2.463   7.527 -0.2103 -0.5282  0.2330
 1748SOL    HW116877   2.476   2.416   7.444 -0.3089 -1.1103  0.5735
 1748SOL    HW216878   2.472   2.390   7.588  0.9258 -1.7483 -1.0038
 1749SOL     OW16879   1.777   4.557   7.421 -0.1333  0.0304  0.0700
 1749SOL    HW116880   1.858   4.566   7.370 -2.5464  1.2155 -3.5703
 1749SOL    HW216881   1.738   4.477   7.385  0.5243 -0.5693  0.6709
 1750SOL     OW16882   2.394   2.460   8.897 -0.1105 -0.0962  0.7340
 1750SOL    HW116883   2.488   2.448   8.893 -0.4856 -2.5688 -0.5310
 1750SOL    HW216884   2.363   2.374   8.869  3.2100 -0.9933 -0.1870
 1751SOL     OW16885   3.823   3.386  16.095  0.1623 -0.6193  0.4647
 1751SOL    HW116886   3.875   3.362  16.018  0.6694  1.0788  0.2688
 1751SOL    HW216887   3.767   3.310  16.108  0.1181 -0.2244  2.5895
 1752SOL     OW16888   3.122   0.481   8.536 -0.0730  0.2812 -0.0938
 1752SOL    HW116889   3.165   0.547   8.590  1.1946 -2.6825  2.5391
 1752SOL    HW216890   3.195   0.429   8.504  2.1210  2.2568  1.7356
 1753SOL     OW16891   3.654   0.752  15.220 -0.5368 -0.3126 -0.3024
 1753SOL    HW116892   3.573   0.769  15.173  0.7551  1.6941 -1.8304
 1753SOL    HW216893   3.629   0.790  15.304  0.1040 -1.3675  0.3728
 1754SOL     OW16894   0.944   1.262   5.059 -0.2651 -0.1781  0.1365
 1754SOL    HW116895   0.904   1.175   5.067  0.8159 -0.6734  0.1521
 1754SOL    HW216896   0.905   1.302   5.136  1.8197  1.1053  0.5433
 1755SOL     OW16897   0.783   2.861  10.096 -1.1779  0.1521 -0.0992
 1755SOL    HW116898   0.809   2.778  10.056  0.7016  1.1857 -1.0586
 1755SOL    HW216899   0.835   2.925  10.048  2.0170 -0.6517  2.3014
 1756SOL     OW16900   0.773   0.958   0.279  0.0763 -0.2515  0.0185
 1756SOL    HW116901   0.724   0.984   0.201  1.3989  2.9909  0.2795
 1756SOL    HW216902   0.697   0.925   0.328  0.7615  0.4699  1.5818
 1757SOL     OW16903   2.761   4.577   8.618 -0.1321 -0.5202 -0.3986
 1757SOL    HW116904   2.742   4.554   8.527 -1.6362  0.7394 -0.4042
 1757SOL    HW216905   2.677   4.565   8.662  0.7228  1.3214  1.7333
 1758SOL     OW16906   2.964   2.607  14.992 -0.9607 -0.4667 -0.2703
 1758SOL    HW116907   3.033   2.673  14.989 -1.3383 -0.0203  0.7796
 1758SOL    HW216908   3.002   2.554  15.062  3.0322  2.0727 -0.5460
 1759SOL     OW16909   1.778   2.006   1.871 -0.2268  0.3341 -0.1542
 1759SOL    HW116910   1.734   2.075   1.821  0.5543  1.5474  0.8136
 1759SOL    HW216911   1.700   1.962   1.907 -0.9184  1.0565 -0.7899
 1760SOL     OW16912   2.148   4.306  11.698 -0.0379 -0.1150 -0.0182
 1760SOL    HW116913   2.144   4.305  11.602  2.3060 -0.9304 -0.1099
 1760SOL    HW216914   2.220   4.362  11.728  1.6080 -1.8929 -0.6173
 1761SOL     OW16915   2.307   2.838   9.987  0.4526 -0.1664 -0.3585
 1761SOL    HW116916   2.272   2.922   9.957 -3.3036 -1.4769  0.3872
 1761SOL    HW216917   2.360   2.863  10.062 -1.4471  3.2190 -0.1358
 1762SOL     OW16918   2.359   1.712   3.513  0.3791 -0.4155 -0.4050
 1762SOL    HW116919   2.294   1.647   3.540 -0.5276  1.0412  0.8805
 1762SOL    HW216920   2.354   1.715   3.417 -1.6876  2.2408 -0.2189
 1763SOL     OW16921   3.569   3.894   5.309 -0.1177 -0.3060 -0.0629
 1763SOL    HW116922   3.663   3.880   5.319  0.7324  4.3805 -1.5040
 1763SOL    HW216923   3.533   3.912   5.396  0.8739  1.0913  0.0523
 1764SOL     OW16924   0.306   1.401   4.043  0.8414 -0.0192  0.3541
 1764SOL    HW116925   0.237   1.343   4.075  1.7780 -1.9934 -1.2418
 1764SOL    HW216926   0.350   1.401   4.128  0.0667  0.8086  0.7627
 1765SOL     OW16927   0.192   2.149   3.591 -0.1410  0.2826  0.3402
 1765SOL    HW116928   0.285   2.151   3.614  0.2410  0.3864 -1.2233
 1765SOL    HW216929   0.200   2.109   3.504  0.9523  2.6032 -0.6121
 1766SOL     OW16930   4.537   4.579   2.132  0.2630 -0.2000 -0.4316
 1766SOL    HW116931   4.618   4.549   2.092 -0.6395  0.7407 -2.9396
 1766SOL    HW216932   4.476   4.604   2.063  2.1965  1.0506 -1.6849
 1767SOL     OW16933   4.270   0.057   0.250  0.0654 -0.3576  0.1523
 1767SOL    HW116934   4.317   0.018   0.176  0.5239 -0.4718  0.4999
 1767SOL    HW216935   4.183   0.023   0.232  0.1130 -0.2946 -0.2134
 1768SOL     OW16936   2.577   0.422  16.060  0.1721 -0.0865 -0.4388
 1768SOL    HW116937   2.638   0.492  16.084 -0.2539 -0.7215  2.5151
 1768SOL    HW216938   2.524   0.462  15.991  1.1434 -0.3118 -1.3177
 1769SOL     OW16939   0.402   4.008   5.403  0.1011 -0.5762  0.7665
 1769SOL    HW116940   0.358   4.036   5.483  0.3879  0.5899  0.5254
 1769SOL    HW216941   0.353   3.931   5.374  0.2338 -0.8666  1.3223
 1770SOL     OW16942   4.428   3.759  14.823  0.3097  0.1230  0.3908
 1770SOL    HW116943   4.364   3.709  14.773  0.9736  2.6009 -2.9807
 1770SOL    HW216944   4.381   3.842  14.832 -0.0943 -0.2238  1.4627
 1771SOL     OW16945   2.783   3.722  10.649 -0.1818  0.2144 -0.2120
 1771SOL    HW116946   2.856   3.726  10.587 -2.0094 -2.9305 -2.5519
 1771SOL    HW216947   2.809   3.799  10.701 -2.6578  1.4289 -0.7555
 1772SOL     OW16948   3.872   2.563   3.982 -0.1149  0.3796  0.0233
 1772SOL    HW116949   3.821   2.553   4.062  0.6100 -2.7311  0.0825
 1772SOL    HW216950   3.800   2.582   3.921 -1.6520  1.3532  2.1387
 1773SOL     OW16951   3.736   3.790   2.708 -0.5016 -0.2331  0.0770
 1773SOL    HW116952   3.795   3.862   2.730 -1.6787  0.5875  0.5147
 1773SOL    HW216953   3.649   3.816   2.737 -0.7584  1.2384 -1.9986
 1774SOL     OW16954   3.967   2.002   6.283  0.7733  1.0005  0.6277
 1774SOL    HW116955   3.926   2.085   6.261  0.3836  0.9999  1.3318
 1774SOL    HW216956   3.913   1.976   6.358 -0.2861  1.6761  0.0983
 1775SOL     OW16957   2.133   2.984   0.807  0.6696  0.7202  0.6350
 1775SOL    HW116958   2.138   2.929   0.728 -1.7089 -0.8700  1.5860
 1775SOL    HW216959   2.223   2.984   0.839  1.1092  0.2066 -0.5901
 1776SOL     OW16960   1.085   1.553  16.563  0.3491  0.4743  0.0388
 1776SOL    HW116961   1.066   1.474  16.612  0.1512 -0.3450 -1.3720
 1776SOL    HW216962   1.088   1.627  16.624  2.4005 -0.0964  0.6456
 1777SOL     OW16963   2.069   1.673   2.076 -0.9775 -0.4021 -0.1228
 1777SOL    HW116964   1.996   1.695   2.132 -0.9031  0.4231 -0.3529
 1777SOL    HW216965   2.093   1.757   2.037 -0.7757 -0.4571 -0.1211
 1778SOL     OW16966   0.899   1.184  11.783  0.0835 -0.2140 -0.2195
 1778SOL    HW116967   0.965   1.250  11.805  1.7374 -1.4155 -1.6942
 1778SOL    HW216968   0.925   1.108  11.836 -2.2121 -0.0942  1.0971
 1779SOL     OW16969   2.194   3.764  11.313  0.1233 -0.3062 -0.1675
 1779SOL    HW116970   2.109   3.733  11.346 -0.0964 -0.5827 -0.9868
 1779SOL    HW216971   2.244   3.686  11.338  0.5971  0.7210  2.1338
 1780SOL     OW16972   4.246   2.796   7.188  0.0178  0.2794  0.9133
 1780SOL    HW116973   4.283   2.853   7.120  0.2410 -2.3824 -1.2328
 1780SOL    HW216974   4.189   2.848   7.243  1.3032  1.7098  0.8949
 1781SOL     OW16975   3.789   3.242   5.227  0.2105  0.5214  0.1198
 1781SOL    HW116976   3.810   3.321   5.177 -1.3660  0.7236 -0.2486
 1781SOL    HW216977   3.774   3.178   5.158  1.4315  0.0399  0.3088
 1782SOL     OW16978   2.311   0.380  13.650 -0.1329  0.4516  0.0888
 1782SOL    HW116979   2.312   0.310  13.715 -0.1209 -1.5451 -2.0509
 1782SOL    HW216980   2.219   0.387  13.625  0.6827 -0.6222 -3.1734
 1783SOL     OW16981   1.863   0.255   2.463  0.0962 -0.0850  0.2496
 1783SOL    HW116982   1.780   0.289   2.428 -1.7429 -2.7734  1.9654
 1783SOL    HW216983   1.843   0.162   2.474 -1.7526  0.2393 -0.3925
 1784SOL     OW16984   2.196   0.476   7.640  0.1960  0.2789  0.6594
 1784SOL    HW116985   2.127   0.431   7.591  0.9759 -0.7318  0.4889
 1784SOL    HW216986   2.214   0.547   7.579  0.2273 -0.7708 -0.5690
 1785SOL     OW16987   2.489   0.857  10.850  0.3312  0.0482  0.0306
 1785SOL    HW116988   2.546   0.783  10.871  0.7817  1.0358  2.2683
 1785SOL    HW216989   2.408   0.806  10.843  1.2590 -1.6509  1.7378
 1786SOL     OW16990   3.406   0.751   3.783 -0.3256 -0.3117  0.1075
 1786SOL    HW116991   3.453   0.685   3.834 -1.7808 -1.9920 -0.7654
 1786SOL    HW216992   3.356   0.798   3.850 -0.6240 -0.4716 -0.0077
 1787SOL     OW16993   4.036   1.877   8.462  0.9687  0.1159  0.5130
 1787SOL    HW116994   4.050   1.888   8.556  1.5603  2.4256  0.1552
 1787SOL    HW216995   4.111   1.819   8.445  0.0977  0.0150 -2.9605
 1788SOL     OW16996   1.048   1.383   8.793 -0.6116 -0.2471  0.1392
 1788SOL    HW116997   1.098   1.463   8.808  1.6407 -1.0025 -3.4662
 1788SOL    HW216998   1.073   1.366   8.702  3.7323 -2.9479  1.8136
 1789SOL     OW16999   0.443   1.088   6.420  0.1083 -0.0013  0.1729
 1789SOL    HW117000   0.406   1.098   6.332 -0.3821 -0.0261  0.3761
 1789SOL    HW217001   0.533   1.058   6.403 -0.2714  0.1965 -2.1705
 1790SOL     OW17002   0.846   3.219   5.244 -0.0242 -0.1709 -0.0634
 1790SOL    HW117003   0.763   3.225   5.196 -0.4068  0.2688  0.6680
 1790SOL    HW217004   0.891   3.295   5.207 -0.1124  0.0299  0.2473
 1791SOL     OW17005   4.031   1.868   8.727  0.0849  0.2879  0.4127
 1791SOL    HW117006   3.957   1.819   8.762 -1.5452  1.6662 -1.1006
 1791SOL    HW217007   4.052   1.921   8.804 -1.7362 -0.6419  1.5619
 1792SOL     OW17008   2.538   0.152   2.898 -0.1946  0.2760  0.4315
 1792SOL    HW117009   2.605   0.210   2.863 -0.8723  2.4015  2.6651
 1792SOL    HW217010   2.466   0.197   2.854 -1.6464 -1.0819  1.4284
 1793SOL     OW17011   4.182   3.149  16.062 -0.3687 -0.4421 -0.1495
 1793SOL    HW117012   4.137   3.206  16.124  0.2272 -0.4413  0.2801
 1793SOL    HW217013   4.258   3.203  16.039  0.7632 -1.9295  0.0786
 1794SOL     OW17014   3.315   2.990   5.050 -0.3149  0.4180 -0.2895
 1794SOL    HW117015   3.325   3.047   5.126 -1.5512  1.6637 -1.0464
 1794SOL    HW217016   3.347   2.904   5.078 -1.0804 -0.4176 -1.9319
 1795SOL     OW17017   3.949   2.094   4.386 -0.4891 -0.1163  0.2150
 1795SOL    HW117018   3.888   2.023   4.409 -0.1718  0.9059  4.2996
 1795SOL    HW217019   3.912   2.153   4.452  0.4378  1.0285 -0.2918
 1796SOL     OW17020   1.312   1.894   4.353 -0.2258 -0.9562  0.4839
 1796SOL    HW117021   1.247   1.863   4.290 -0.5181  1.0053 -0.2016
 1796SOL    HW217022   1.388   1.902   4.296  0.3327  1.7535  1.5801
 1797SOL     OW17023   1.841   1.573   9.247  0.1131 -0.2448 -0.2453
 1797SOL    HW117024   1.821   1.649   9.194  2.1598 -0.0942 -0.8129
 1797SOL    HW217025   1.879   1.519   9.177  1.9634  0.8100 -0.0667
 1798SOL     OW17026   0.925   1.709   8.210  0.1654  0.2563  0.1864
 1798SOL    HW117027   0.847   1.698   8.264  0.2989  0.6666  0.4626
 1798SOL    HW217028   0.906   1.653   8.135  0.5799  0.2853  0.0598
 1799SOL     OW17029   2.616   0.878   6.248 -0.2360 -0.4948 -0.0066
 1799SOL    HW117030   2.696   0.894   6.198 -0.1128 -0.8106  0.0913
 1799SOL    HW217031   2.654   0.894   6.335 -0.7551  1.8670 -0.2101
 1800SOL     OW17032   0.765   3.214  10.699 -0.2880  0.6148  0.3610
 1800SOL    HW117033   0.802   3.126  10.694 -1.8118 -0.1061  2.1572
 1800SOL    HW217034   0.838   3.274  10.684 -0.0796  0.5745  1.2018
 1801SOL     OW17035   2.659   2.978   6.385  0.1925  0.2057 -0.4932
 1801SOL    HW117036   2.579   2.973   6.437  0.2748  0.0051 -0.3847
 1801SOL    HW217037   2.694   2.892   6.410  0.0636  0.1657 -0.4479
 1802SOL     OW17038   0.481   3.200   8.749  0.2619 -0.0689  0.2646
 1802SOL    HW117039   0.432   3.118   8.740 -0.6213  0.6851 -1.7433
 1802SOL    HW217040   0.486   3.222   8.656 -0.4419  0.0804  0.2612
 1803SOL     OW17041   0.464   4.661   7.861  0.2152 -0.2148 -0.5971
 1803SOL    HW117042   0.387   4.639   7.810 -0.6563  0.3525  0.4869
 1803SOL    HW217043   0.420   4.726   7.915 -0.2911 -0.4238 -0.7674
 1804SOL     OW17044   4.211   1.574   4.755  0.3758 -0.3233  0.4207
 1804SOL    HW117045   4.144   1.622   4.706  0.1155 -2.0738 -0.9541
 1804SOL    HW217046   4.266   1.539   4.685 -0.1273 -3.5849  1.6559
 1805SOL     OW17047   0.968   0.138   3.679 -0.0150  0.0882  0.3162
 1805SOL    HW117048   1.042   0.113   3.624  0.4920  1.6607  0.2912
 1805SOL    HW217049   0.896   0.106   3.625  0.0113 -1.2582  1.0742
 1806SOL     OW17050   2.256   4.618  14.557 -0.1206  0.6275  0.2626
 1806SOL    HW117051   2.190   4.683  14.532  0.1468  0.7587 -0.1035
 1806SOL    HW217052   2.332   4.649  14.508 -0.5122  0.1769 -0.6127
 1807SOL     OW17053   3.626   1.984   7.505  0.2345  0.0794  0.5002
 1807SOL    HW117054   3.662   1.902   7.538  1.6523  0.1426 -0.9447
 1807SOL    HW217055   3.679   1.993   7.426 -2.6433 -1.7985 -1.6384
 1808SOL     OW17056   0.742   1.168   9.145 -0.0358  0.2450 -0.8977
 1808SOL    HW117057   0.726   1.077   9.119 -1.8533 -0.4983  2.8033
 1808SOL    HW217058   0.784   1.164   9.231  0.2148 -2.1596 -1.1178
 1809SOL     OW17059   2.310   1.188   9.443  0.5242  0.1626  0.4753
 1809SOL    HW117060   2.241   1.246   9.411  1.8330  0.6913 -1.3665
 1809SOL    HW217061   2.258   1.130   9.498  0.3715 -0.2422 -0.0939
 1810SOL     OW17062   4.505   4.530   7.128  0.1144  0.5384 -0.0203
 1810SOL    HW117063   4.595   4.507   7.104  0.0053  0.2910 -0.2007
 1810SOL    HW217064   4.516   4.620   7.158  1.9284  0.8749 -1.6508
 1811SOL     OW17065   3.382   3.521  16.784 -0.4011  0.6810  0.0441
 1811SOL    HW117066   3.437   3.597  16.803  0.6095  0.1464 -0.7285
 1811SOL    HW217067   3.335   3.518  16.867  0.6549  0.8161  0.6446
 1812SOL     OW17068   0.626   0.497   5.167 -0.4820 -0.6866 -0.2858
 1812SOL    HW117069   0.634   0.574   5.224  0.4453 -0.8711 -0.1602
 1812SOL    HW217070   0.607   0.525   5.078 -0.4136 -1.5982 -0.5874
 1813SOL     OW17071   1.381   1.102   8.167 -0.5664  0.2714  0.0745
 1813SOL    HW117072   1.442   1.029   8.155 -0.1866  0.2007  2.4774
 1813SOL    HW217073   1.441   1.176   8.180  0.0192  0.0007 -1.0811
 1814SOL     OW17074   2.975   3.962  13.923  0.3279 -0.1039 -0.2260
 1814SOL    HW117075   2.952   3.878  13.964  1.4680  0.6870  1.9899
 1814SOL    HW217076   2.887   3.999  13.912  1.1450  1.8031 -0.1376
 1815SOL     OW17077   4.216   0.989   8.520  0.1847 -0.0331  0.4203
 1815SOL    HW117078   4.200   0.923   8.451 -1.9833  0.2434  0.6892
 1815SOL    HW217079   4.210   0.942   8.603  0.0661 -0.7346  0.0250
 1816SOL     OW17080   1.355   4.300   3.293  0.2462  0.0924 -0.0898
 1816SOL    HW117081   1.373   4.221   3.241 -0.0558  0.6639 -1.0462
 1816SOL    HW217082   1.259   4.300   3.288  0.3810 -0.3042 -2.9241
 1817SOL     OW17083   1.147   2.055  12.972 -0.1403  0.0145  0.0084
 1817SOL    HW117084   1.182   2.143  12.956  2.6683 -1.3580 -1.3624
 1817SOL    HW217085   1.098   2.078  13.050  1.3187  2.5602  0.1951
 1818SOL     OW17086   1.091   3.075   6.083 -0.4893 -0.1812  0.1428
 1818SOL    HW117087   1.102   3.010   6.014  1.7112 -0.4441  0.7521
 1818SOL    HW217088   1.101   3.033   6.169  0.8981 -1.2086 -0.5176
 1819SOL     OW17089   1.856   3.282   7.919 -0.2710  0.3365  0.7336
 1819SOL    HW117090   1.911   3.319   7.988 -0.8378  4.4942 -1.0530
 1819SOL    HW217091   1.884   3.345   7.853 -0.2759  0.1007  0.5028
 1820SOL     OW17092   1.658   1.901  14.534  0.1318 -0.4751  0.3003
 1820SOL    HW117093   1.674   1.951  14.454  2.3981  0.6889  1.4874
 1820SOL    HW217094   1.595   1.838  14.499 -0.7171  1.2737 -1.3317
 1821SOL     OW17095   1.307   3.957   4.325  0.2526  0.1675  0.0884
 1821SOL    HW117096   1.268   3.879   4.284  0.2240  0.7913 -1.0637
 1821SOL    HW217097   1.402   3.950   4.321  0.1236 -0.0184 -2.7773
 1822SOL     OW17098   2.414   4.168   0.001 -0.1148  0.0639  0.1617
 1822SOL    HW117099   2.492   4.112   0.000  0.3964  0.7876 -1.4528
 1822SOL    HW217100   2.346   4.115  17.709 -0.2807 -2.0654  3.1719
 1823SOL     OW17101   2.711   4.116  10.895  0.1814  0.6667  0.6803
 1823SOL    HW117102   2.631   4.120  10.947  0.3067 -1.0671  1.0411
 1823SOL    HW217103   2.679   4.120  10.805 -0.2825  2.4345  0.9239
 1824SOL     OW17104   1.661   2.987   0.418  0.0468  0.3681 -0.1662
 1824SOL    HW117105   1.627   3.047   0.352  1.0342  3.2186  1.9225
 1824SOL    HW217106   1.751   3.019   0.423 -0.0423  0.4069  1.3806
 1825SOL     OW17107   4.322   3.522   6.268  0.2224  0.4035 -0.0693
 1825SOL    HW117108   4.248   3.583   6.263  1.3945  1.9184  0.7486
 1825SOL    HW217109   4.385   3.557   6.205 -1.1187  1.2591 -0.9426
 1826SOL     OW17110   2.777   0.365   9.849 -0.6579 -0.2651  0.1657
 1826SOL    HW117111   2.745   0.436   9.905 -0.3993 -0.8381  1.0210
 1826SOL    HW217112   2.796   0.295   9.910  4.4815  0.9872 -0.0213
 1827SOL     OW17113   2.834   0.700   9.851  0.1983 -0.2112  0.3842
 1827SOL    HW117114   2.844   0.696   9.756  0.6472  1.1378  0.3771
 1827SOL    HW217115   2.924   0.675   9.873 -0.1854 -1.6834  0.2865
 1828SOL     OW17116   1.258   1.733  15.298 -0.1349 -0.0691  0.2704
 1828SOL    HW117117   1.344   1.761  15.330  0.9112 -0.8248 -1.8435
 1828SOL    HW217118   1.213   1.817  15.299 -1.5579 -0.8276 -0.2801
 1829SOL     OW17119   3.634   2.319  12.078 -0.3471 -0.0728 -0.2964
 1829SOL    HW117120   3.576   2.263  12.130 -0.4604  1.7214  1.4685
 1829SOL    HW217121   3.628   2.278  11.991  2.7363  0.7296 -0.8907
 1830SOL     OW17122   3.375   3.860   7.841  0.0605 -0.2510 -0.2514
 1830SOL    HW117123   3.357   3.770   7.813  0.6813 -0.3791 -0.2417
 1830SOL    HW217124   3.339   3.867   7.929  0.5795 -0.4254 -0.0215
 1831SOL     OW17125   1.694   0.121   5.650 -0.0192 -0.0854  0.3860
 1831SOL    HW117126   1.673   0.099   5.740  1.2033  0.9304  0.9185
 1831SOL    HW217127   1.614   0.170   5.632 -0.3788 -0.9721 -0.4214
 1832SOL     OW17128   2.559   0.906  14.934 -0.6703  0.1534  0.3882
 1832SOL    HW117129   2.560   0.978  14.870 -1.4506  0.0378  0.2486
 1832SOL    HW217130   2.477   0.866  14.906  0.8056  0.8561 -5.0238
 1833SOL     OW17131   2.177   1.976   8.688  0.0984 -0.4216 -0.0764
 1833SOL    HW117132   2.091   1.951   8.722 -0.1280  1.0023  0.3779
 1833SOL    HW217133   2.217   1.890   8.697 -2.3079 -1.2984  2.3807
 1834SOL     OW17134   2.132   1.968  10.357  0.0034  0.7532  0.2028
 1834SOL    HW117135   2.140   1.997  10.266 -0.3023 -2.2176 -0.7639
 1834SOL    HW217136   2.203   2.020  10.396 -0.0989  1.7539 -0.9082
 1835SOL     OW17137   4.561   1.898  15.652 -0.6563 -0.5031 -0.1084
 1835SOL    HW117138   4.553   1.806  15.626 -1.4888  0.2878 -2.6688
 1835SOL    HW217139   4.559   1.939  15.566 -2.0566 -0.1111  0.1128
 1836SOL     OW17140   0.645   4.526   2.418 -0.4916 -0.0288 -0.2540
 1836SOL    HW117141   0.692   4.527   2.335 -1.3632  1.7731 -0.7204
 1836SOL    HW217142   0.599   4.442   2.422  1.7181 -1.1053  2.0936
 1837SOL     OW17143   2.343   3.112   3.410 -0.9252 -0.6545 -0.6023
 1837SOL    HW117144   2.368   3.030   3.367  0.9053 -0.2035 -0.4290
 1837SOL    HW217145   2.291   3.085   3.486  2.2702  3.0435  2.9529
 1838SOL     OW17146   1.219   4.191   9.049 -0.4351  0.3056 -0.2844
 1838SOL    HW117147   1.198   4.099   9.030  1.2966 -0.1523  0.0367
 1838SOL    HW217148   1.139   4.229   9.012 -0.0347  0.3850 -1.0727
 1839SOL     OW17149   2.156   1.010   9.574 -0.5642 -0.1167  0.0719
 1839SOL    HW117150   2.148   0.998   9.669 -1.7308 -0.7363 -0.0969
 1839SOL    HW217151   2.071   0.970   9.555  0.7905 -1.8104 -2.4331
 1840SOL     OW17152   1.022   4.659   5.312 -0.5661  0.9983 -0.2408
 1840SOL    HW117153   1.068   0.006   5.320  1.2758 -0.1399  1.4056
 1840SOL    HW217154   0.942   4.681   5.266 -0.9730  1.3691  0.6358
 1841SOL     OW17155   2.477   3.328   5.835  0.1806  0.0700  0.3155
 1841SOL    HW117156   2.516   3.383   5.903  0.7671  1.0870 -0.8207
 1841SOL    HW217157   2.428   3.398   5.791  0.6019  1.2452  1.7164
 1842SOL     OW17158   0.289   4.022  14.500 -0.5359  0.5232 -0.3559
 1842SOL    HW117159   0.284   4.053  14.409 -0.2643 -0.7009 -0.7978
 1842SOL    HW217160   0.304   4.103  14.548  0.6809 -0.5025  0.9891
 1843SOL     OW17161   0.395   0.429  12.573  0.3160 -0.1407 -0.0510
 1843SOL    HW117162   0.440   0.449  12.655 -0.6837  2.1514 -0.0678
 1843SOL    HW217163   0.378   0.334  12.574 -1.3843  0.1809  1.3705
 1844SOL     OW17164   4.037   3.012   3.866  0.3825  0.4463 -0.1938
 1844SOL    HW117165   4.102   3.063   3.915 -0.2833  1.5935 -0.5122
 1844SOL    HW217166   4.102   2.973   3.807  0.2759 -0.6512  0.3998
 1845SOL     OW17167   3.762   0.368   8.212 -0.1961  0.6618 -0.4047
 1845SOL    HW117168   3.820   0.294   8.233 -0.4901  0.1591 -1.3656
 1845SOL    HW217169   3.697   0.356   8.282  0.4698 -0.3587  0.0463
 1846SOL     OW17170   4.501   2.325   6.220  0.2008  0.2842  0.3741
 1846SOL    HW117171   4.565   2.397   6.214 -0.7535  1.1377  0.4666
 1846SOL    HW217172   4.494   2.295   6.130 -3.0473  1.5042  0.2027
 1847SOL     OW17173   1.296   0.274   2.038 -0.1440  0.1510 -0.4390
 1847SOL    HW117174   1.218   0.326   2.056 -2.0790 -2.1498 -2.1551
 1847SOL    HW217175   1.255   0.212   1.979 -0.9727  1.2933 -1.0722
 1848SOL     OW17176   0.098   3.679   7.873  0.1320 -0.0383  0.2830
 1848SOL    HW117177   0.179   3.727   7.856  0.1298  0.7213  2.4799
 1848SOL    HW217178   0.069   3.733   7.946  2.0184 -0.2087  1.1700
 1849SOL     OW17179   2.217   2.811   5.871  0.1811  0.0714  0.3424
 1849SOL    HW117180   2.304   2.851   5.870 -0.5517  1.5974 -1.4367
 1849SOL    HW217181   2.220   2.757   5.792 -3.3918  2.0351 -1.1195
 1850SOL     OW17182   2.565   3.554   5.988 -0.1999 -0.1382  0.3333
 1850SOL    HW117183   2.562   3.646   5.964 -0.9514 -0.5033 -0.9914
 1850SOL    HW217184   2.649   3.541   6.032 -0.2763  0.4680  0.6528
 1851SOL     OW17185   2.776   3.534   1.574  0.5984 -0.6620 -0.0960
 1851SOL    HW117186   2.699   3.580   1.542  0.3395 -0.7924  0.3296
 1851SOL    HW217187   2.728   3.458   1.609 -0.2461  0.2659  0.7642
 1852SOL     OW17188   1.002   0.622   4.484 -0.5305  0.3873  0.2204
 1852SOL    HW117189   0.909   0.608   4.504 -0.2897 -2.4755 -0.5895
 1852SOL    HW217190   1.015   0.714   4.505  3.4340  0.0607 -0.7886
 1853SOL     OW17191   2.834   0.809  15.809  0.4289  0.3403 -1.1429
 1853SOL    HW117192   2.821   0.904  15.800  0.0533  0.4008  0.0855
 1853SOL    HW217193   2.930   0.811  15.809  0.4114  1.1616 -1.2208
 1854SOL     OW17194   0.840   2.003   5.176  0.0435 -0.0599 -0.6434
 1854SOL    HW117195   0.780   2.026   5.247  1.4843 -1.4103  1.0053
 1854SOL    HW217196   0.913   2.063   5.189 -0.1377  0.3218 -1.3577
 1855SOL     OW17197   0.953   2.661   1.615 -0.7368  0.8686 -0.3074
 1855SOL    HW117198   0.944   2.575   1.656 -1.2652  0.8630 -0.4278
 1855SOL    HW217199   1.044   2.654   1.588 -0.5220 -2.3431  1.2433
 1856SOL     OW17200   0.356   0.304   1.845 -0.0557 -0.1602 -0.2130
 1856SOL    HW117201   0.449   0.314   1.827 -0.2518  1.2299 -0.4445
 1856SOL    HW217202   0.321   0.376   1.793  1.0375  0.5209  0.0166
 1857SOL     OW17203   1.841   3.082   7.074 -0.7455 -0.0633 -0.4079
 1857SOL    HW117204   1.854   3.028   7.152  2.4700  1.3075  0.0074
 1857SOL    HW217205   1.799   3.156   7.118  0.1094  0.2888 -0.1772
 1858SOL     OW17206   1.858   0.333   8.272 -0.2558  0.4068  0.6243
 1858SOL    HW117207   1.919   0.365   8.339  0.0713 -2.4254  1.6517
 1858SOL    HW217208   1.895   0.396   8.210  2.9406 -0.2898  1.7938
 1859SOL     OW17209   2.742   2.418  12.202  0.0364 -0.3884 -0.4226
 1859SOL    HW117210   2.667   2.371  12.167 -0.4975  2.7034 -3.4144
 1859SOL    HW217211   2.804   2.421  12.129  0.5899  1.5586  0.1380
 1860SOL     OW17212   2.961   1.510  16.402  0.0748 -0.5977 -0.2494
 1860SOL    HW117213   2.941   1.524  16.309  2.1137  0.2724 -0.5546
 1860SOL    HW217214   3.013   1.430  16.397  0.6174 -0.1457 -1.6645
 1861SOL     OW17215   2.304   2.235  15.266  0.3264 -0.5158 -0.5677
 1861SOL    HW117216   2.342   2.211  15.350  0.1844 -1.5992 -0.8071
 1861SOL    HW217217   2.378   2.229  15.205  0.4624  0.7773 -0.5138
 1862SOL     OW17218   1.593   2.334   6.315  0.3944 -0.1780  0.3574
 1862SOL    HW117219   1.645   2.325   6.235  0.6400  0.4760  0.4426
 1862SOL    HW217220   1.594   2.240   6.334  2.1782 -0.4697 -1.1624
 1863SOL     OW17221   2.143   1.039   3.825  0.0812  0.2420  0.8299
 1863SOL    HW117222   2.162   1.127   3.857 -3.0281  1.1631  0.1310
 1863SOL    HW217223   2.061   1.045   3.776  0.4488  0.3896  0.2262
 1864SOL     OW17224   0.964   0.462   2.247  0.2237  0.2803 -0.3514
 1864SOL    HW117225   0.942   0.376   2.282  2.6912 -0.9299 -1.7842
 1864SOL    HW217226   0.892   0.516   2.279  0.6386  1.6301 -1.7318
 1865SOL     OW17227   2.326   1.675   6.151 -0.4870  0.4080 -0.4045
 1865SOL    HW117228   2.246   1.672   6.099 -0.3458  1.2190 -0.6810
 1865SOL    HW217229   2.325   1.588   6.191  2.3462  0.8750  0.6579
 1866SOL     OW17230   2.065   3.686  17.351 -0.8175 -0.2834  0.4973
 1866SOL    HW117231   2.071   3.775  17.385  0.0472  0.2413 -1.0666
 1866SOL    HW217232   1.970   3.677  17.355 -1.0089  0.7977 -2.0778
 1867SOL     OW17233   3.421   3.891   5.528  0.0468  0.6400 -0.8423
 1867SOL    HW117234   3.349   3.954   5.540 -0.8215 -0.4454 -0.3857
 1867SOL    HW217235   3.464   3.920   5.609 -0.6178  0.9227 -0.5882
 1868SOL     OW17236   0.931   2.355   2.119  0.2381  0.4878 -0.4427
 1868SOL    HW117237   0.899   2.281   2.067 -0.0903  1.0244 -0.9977
 1868SOL    HW217238   0.863   2.363   2.185  0.9475  1.1756  0.2044
 1869SOL     OW17239   2.410   1.444   7.283  0.3119 -0.3894 -0.1250
 1869SOL    HW117240   2.483   1.484   7.329  1.1442 -0.2054 -1.6105
 1869SOL    HW217241   2.326   1.485   7.304  0.3965 -0.8211  1.0934
 1870SOL     OW17242   4.612   3.141   8.950  0.0702 -0.2460  0.0737
 1870SOL    HW117243   4.693   3.177   8.986 -0.6162 -0.2528  1.5950
 1870SOL    HW217244   4.656   3.064   8.914 -2.1150 -1.3845 -0.1462
 1871SOL     OW17245   0.311   3.325   4.098  0.3566 -0.4370  0.0625
 1871SOL    HW117246   0.233   3.310   4.045 -1.8261 -0.2892  3.2858
 1871SOL    HW217247   0.274   3.304   4.183 -1.4673  0.0245 -0.6216
 1872SOL     OW17248   1.384   0.384   9.153 -0.4422  0.2728 -0.1924
 1872SOL    HW117249   1.410   0.466   9.194 -2.3659  0.0884  1.4148
 1872SOL    HW217250   1.466   0.336   9.166 -0.0819  0.7804 -0.6056
 1873SOL     OW17251   3.696   2.944   5.086  0.2940 -0.0983 -0.6327
 1873SOL    HW117252   3.703   2.905   5.174  1.0900  0.7973 -0.3013
 1873SOL    HW217253   3.733   2.877   5.029  0.6026 -0.0196 -0.5243
 1874SOL     OW17254   3.433   0.856   4.150 -0.3335  0.5032 -0.6158
 1874SOL    HW117255   3.511   0.814   4.186 -0.9614  0.0222  0.1861
 1874SOL    HW217256   3.471   0.893   4.071  0.3056 -1.6311 -1.2953
 1875SOL     OW17257   0.313   1.266   0.737  0.4112  0.2105 -0.4554
 1875SOL    HW117258   0.313   1.215   0.818 -3.2832  1.2546  0.1674
 1875SOL    HW217259   0.372   1.219   0.678  0.1448 -1.1464  0.3818
 1876SOL     OW17260   4.220   2.762   8.460  0.1217  0.1770 -0.4925
 1876SOL    HW117261   4.210   2.718   8.545 -2.0433 -1.4015 -1.5728
 1876SOL    HW217262   4.132   2.797   8.446 -0.6850 -1.7751 -0.2950
 1877SOL     OW17263   3.727   3.131   1.661 -0.0576 -0.6161 -0.5513
 1877SOL    HW117264   3.692   3.067   1.723 -0.9012  0.7026  0.3413
 1877SOL    HW217265   3.820   3.110   1.660 -0.2387 -1.2794 -3.4865
 1878SOL     OW17266   1.199   2.020   6.530 -0.2586 -0.2910 -0.4573
 1878SOL    HW117267   1.229   2.101   6.490  0.8740 -1.5824 -2.1810
 1878SOL    HW217268   1.248   2.025   6.612  2.6237  0.8109 -2.2741
 1879SOL     OW17269   1.579   0.954   2.013 -0.0962  0.4374 -0.8001
 1879SOL    HW117270   1.525   0.984   2.086 -0.2513  1.1770 -1.2231
 1879SOL    HW217271   1.525   0.987   1.942 -0.8585  0.4214 -0.2208
 1880SOL     OW17272   4.629   1.808  15.976  0.1963  0.3688 -1.0301
 1880SOL    HW117273   4.666   1.759  15.903  0.3586 -1.8648  0.5504
 1880SOL    HW217274   4.692   1.880  15.986  0.3016  0.0866  0.3519
 1881SOL     OW17275   1.110   2.253   1.832  0.2943 -0.2432 -0.2767
 1881SOL    HW117276   1.167   2.223   1.761  0.7533  0.7711 -0.3392
 1881SOL    HW217277   1.171   2.319   1.866  1.8777 -2.5411  1.2705
 1882SOL     OW17278   0.728   0.378   6.286 -0.1619  0.0367  0.1232
 1882SOL    HW117279   0.752   0.455   6.234  1.7314 -2.0371 -2.0630
 1882SOL    HW217280   0.811   0.377   6.334 -0.2544  1.6084  0.3262
 1883SOL     OW17281   3.862   3.814   4.500  0.1697  0.1933  0.3705
 1883SOL    HW117282   3.945   3.790   4.543  0.3092 -1.6568 -0.9289
 1883SOL    HW217283   3.815   3.734   4.521  1.9617 -0.8101  0.5923
 1884SOL     OW17284   0.819   3.540   9.574  0.5133 -0.0479  0.5548
 1884SOL    HW117285   0.783   3.581   9.496  0.1346 -0.3118  0.5903
 1884SOL    HW217286   0.888   3.495   9.524 -0.9180 -0.6192 -0.9088
 1885SOL     OW17287   0.094   3.724   6.696  0.0668 -0.1175 -1.0127
 1885SOL    HW117288   0.096   3.814   6.727  1.7794 -0.5248  0.0460
 1885SOL    HW217289   0.048   3.733   6.612  0.2565 -0.7651 -1.1913
 1886SOL     OW17290   4.435   0.787   6.968  0.3220 -0.0410  0.3601
 1886SOL    HW117291   4.349   0.747   6.979  1.3334 -1.7377  2.1748
 1886SOL    HW217292   4.468   0.787   7.058 -1.1205  3.4406  0.8966
 1887SOL     OW17293   0.452   2.037   3.686  0.4055  0.1617 -0.0324
 1887SOL    HW117294   0.455   2.037   3.782 -0.9768 -0.8788 -0.0017
 1887SOL    HW217295   0.476   1.949   3.657 -0.6929  0.3145 -1.3804
 1888SOL     OW17296   4.237   2.317   4.721 -0.3376 -0.2781 -0.3860
 1888SOL    HW117297   4.257   2.250   4.656  1.1439 -0.4821  0.2922
 1888SOL    HW217298   4.216   2.385   4.656  0.8247 -1.2754 -1.8026
 1889SOL     OW17299   0.719   1.594   8.033  0.6517 -0.2607 -0.6748
 1889SOL    HW117300   0.761   1.588   7.947 -1.6695 -3.7862 -1.6154
 1889SOL    HW217301   0.667   1.673   8.020  2.0626  0.8849  0.6498
 1890SOL     OW17302   4.579   3.431   0.626  0.6511 -0.3997  0.0881
 1890SOL    HW117303   4.580   3.519   0.664  1.4143 -0.9041  1.2444
 1890SOL    HW217304   4.640   3.383   0.680 -0.9343  0.8400  2.9972
 1891SOL     OW17305   4.558   3.162  14.011 -0.1175 -0.2179  0.4979
 1891SOL    HW117306   4.505   3.226  13.963  0.6521 -2.5332 -3.4219
 1891SOL    HW217307   4.639   3.159  13.960 -0.9394  0.8752 -0.8671
 1892SOL     OW17308   2.416   1.993   6.547  0.5100  0.1232 -0.0648
 1892SOL    HW117309   2.375   1.994   6.461 -0.8338  1.0482  0.5843
 1892SOL    HW217310   2.482   1.924   6.539  1.4704  1.1363 -0.8088
 1893SOL     OW17311   1.441   1.840   2.015  0.0476  0.3691  0.5400
 1893SOL    HW117312   1.529   1.809   2.036  0.1909  0.1701 -0.3509
 1893SOL    HW217313   1.414   1.890   2.092  1.7923  3.5030 -0.8726
 1894SOL     OW17314   1.550   2.838   0.651  0.1696 -0.4440 -0.2778
 1894SOL    HW117315   1.468   2.815   0.606  1.9181 -2.3499 -2.4790
 1894SOL    HW217316   1.578   2.911   0.596  0.3959 -0.2110  0.1473
 1895SOL     OW17317   4.212   1.346   1.538  0.5547  0.2938  0.2589
 1895SOL    HW117318   4.170   1.260   1.533 -0.5477  0.8016  0.6924
 1895SOL    HW217319   4.147   1.395   1.589 -1.3245 -2.1530  0.2147
 1896SOL     OW17320   0.507   1.529   6.854 -0.1495 -0.1428 -0.4575
 1896SOL    HW117321   0.601   1.536   6.838 -0.2631  1.7851 -0.2650
 1896SOL    HW217322   0.489   1.620   6.878  1.5256  0.4287 -1.3885
 1897SOL     OW17323   3.433   2.737   5.664 -0.9580 -0.6904 -0.0999
 1897SOL    HW117324   3.377   2.814   5.658 -1.0535 -0.7314  0.2609
 1897SOL    HW217325   3.511   2.767   5.711 -1.3958  0.3023  0.0042
 1898SOL     OW17326   1.673   3.768   6.184  0.4011  0.2329  0.1631
 1898SOL    HW117327   1.658   3.844   6.129  1.2686 -0.1204 -0.5760
 1898SOL    HW217328   1.756   3.734   6.148 -1.3526 -1.8937 -1.8600
 1899SOL     OW17329   4.718   4.148   5.964  0.6442  0.3981 -0.4813
 1899SOL    HW117330   0.018   4.136   6.051 -2.6710 -0.3141  0.8738
 1899SOL    HW217331   0.062   4.170   5.920  1.7347 -1.5076  0.6388
 1900SOL     OW17332   2.184   0.531   4.860  0.8207 -0.0056 -0.1015
 1900SOL    HW117333   2.105   0.577   4.831 -0.2383 -0.9042  1.3287
 1900SOL    HW217334   2.236   0.571   4.791  0.5908  2.8268  1.3369
 1901SOL     OW17335   3.187   1.559   1.962  0.5488 -0.2947  0.3348
 1901SOL    HW117336   3.146   1.484   1.919  0.0626  0.9793 -1.4500
 1901SOL    HW217337   3.231   1.513   2.033  0.5206  1.1831  1.3089
 1902SOL     OW17338   1.774   0.729   8.025  0.0614 -0.2442 -0.3670
 1902SOL    HW117339   1.731   0.725   8.111 -0.3903 -1.2730 -0.6439
 1902SOL    HW217340   1.819   0.813   8.033 -0.8716  0.1390  0.8881
 1903SOL     OW17341   1.901   1.800  14.656  0.2645  0.4360  0.1328
 1903SOL    HW117342   1.946   1.861  14.599  0.3840  1.0464  0.8762
 1903SOL    HW217343   1.816   1.821  14.618 -0.1677 -1.2222  0.1755
 1904SOL     OW17344   0.524   4.186   4.315 -0.2748 -0.5222 -0.0370
 1904SOL    HW117345   0.475   4.244   4.256 -0.7697  0.3095  1.1915
 1904SOL    HW217346   0.602   4.241   4.315 -1.0648  0.6037 -0.1294
 1905SOL     OW17347   2.047   3.755  17.676  0.5231 -0.6646 -0.1218
 1905SOL    HW117348   2.046   3.851  17.679 -3.1461 -0.6969 -0.7733
 1905SOL    HW217349   1.954   3.739  17.689  0.6138 -0.4725  0.7785
 1906SOL     OW17350   2.544   1.003   5.704  0.0269  0.1978 -0.3592
 1906SOL    HW117351   2.586   1.066   5.762 -0.4634  0.2680 -0.0812
 1906SOL    HW217352   2.580   1.039   5.623  0.7770  1.3944  0.5162
 1907SOL     OW17353   2.919   3.185  12.682  0.7195 -0.4725  0.8112
 1907SOL    HW117354   2.845   3.152  12.631 -0.1200  1.0793  1.0313
 1907SOL    HW217355   2.903   3.137  12.763 -1.4011  3.3708  2.6583
 1908SOL     OW17356   3.696   1.894   8.214  0.6487  0.0656  0.1243
 1908SOL    HW117357   3.755   1.829   8.176 -0.4254 -1.9078  1.8397
 1908SOL    HW217358   3.715   1.868   8.304  0.9861 -0.5406 -0.1226
 1909SOL     OW17359   0.380   1.739  10.896 -0.0202 -0.1630  0.1016
 1909SOL    HW117360   0.310   1.788  10.939  0.1619  2.8726 -3.0950
 1909SOL    HW217361   0.419   1.682  10.962 -1.7750 -1.4765 -0.0058
 1910SOL     OW17362   2.079   0.941   8.616  0.0825 -0.1068 -0.0672
 1910SOL    HW117363   2.023   0.897   8.680  1.0763 -2.1818 -0.6243
 1910SOL    HW217364   2.143   0.980   8.677  0.6303  1.6428 -1.7371
 1911SOL     OW17365   1.742   4.689  11.302 -0.2295 -0.0817  0.3310
 1911SOL    HW117366   1.778   0.035  11.273 -0.1747 -0.1079  0.3224
 1911SOL    HW217367   1.684   4.723  11.370  1.7896  1.8486  1.0931
 1912SOL     OW17368   4.736   4.259   9.118 -0.2105  0.4971  0.0849
 1912SOL    HW117369   0.009   4.178   9.068 -0.7104 -0.5470  1.6523
 1912SOL    HW217370   4.645   4.284   9.103 -0.9122 -2.1373 -0.0326
 1913SOL     OW17371   4.082   2.583  12.747 -0.5610  0.0045 -0.0604
 1913SOL    HW117372   4.132   2.633  12.682 -1.8031  1.9099  0.4402
 1913SOL    HW217373   3.998   2.609  12.710 -0.2642 -0.9536 -1.4067
 1914SOL     OW17374   1.531   1.865  16.562  0.0831 -0.0036 -0.2598
 1914SOL    HW117375   1.521   1.918  16.483  3.0254 -0.2162 -0.7976
 1914SOL    HW217376   1.542   1.933  16.628  1.6911 -0.4262 -0.0750
 1915SOL     OW17377   3.266   4.652   3.762 -0.2735  0.2827  0.1309
 1915SOL    HW117378   3.360   4.657   3.778 -0.3401 -0.6357  0.8042
 1915SOL    HW217379   3.241   4.561   3.776  2.3149 -0.8685 -2.8123
 1916SOL     OW17380   3.507   0.662   3.423 -0.1399  0.0472  0.2070
 1916SOL    HW117381   3.517   0.685   3.516  0.3939 -1.0300  0.4146
 1916SOL    HW217382   3.580   0.601   3.415 -0.4929 -0.3551  0.1168
 1917SOL     OW17383   0.400   1.106   1.218  0.1607  0.5100 -0.1840
 1917SOL    HW117384   0.382   1.039   1.284  0.0464  0.5067 -0.2177
 1917SOL    HW217385   0.454   1.165   1.271 -0.5923  0.1494  0.9998
 1918SOL     OW17386   3.741   1.760   2.728  0.7514  0.6600 -0.0387
 1918SOL    HW117387   3.833   1.754   2.703  0.6910 -1.9561  0.3927
 1918SOL    HW217388   3.701   1.689   2.677 -0.4711  1.8516 -0.7555
 1919SOL     OW17389   1.596   3.792   8.527 -0.0506 -0.6840 -0.0137
 1919SOL    HW117390   1.501   3.798   8.537  0.0502  0.3768  0.2692
 1919SOL    HW217391   1.628   3.786   8.617  3.3465  2.7083 -1.0119
 1920SOL     OW17392   0.528   2.417  16.437  0.1109  0.3224 -0.3145
 1920SOL    HW117393   0.595   2.472  16.478  1.0604 -1.6485  0.8051
 1920SOL    HW217394   0.452   2.465  16.470  1.1396  0.7939  1.3855
 1921SOL     OW17395   1.340   2.376   4.371  0.1675  0.3991 -0.3810
 1921SOL    HW117396   1.409   2.428   4.329  0.8796  0.8551  1.3830
 1921SOL    HW217397   1.403   2.311   4.404 -2.2975 -2.5889 -1.5088
 1922SOL     OW17398   3.719   0.748  10.430 -0.0228  0.6559 -0.0717
 1922SOL    HW117399   3.681   0.663  10.408  0.4037  0.1664  1.0846
 1922SOL    HW217400   3.788   0.720  10.491  0.3272  1.5717 -0.0463
 1923SOL     OW17401   4.502   1.707   3.007 -0.1201 -0.1076  0.0050
 1923SOL    HW117402   4.514   1.713   3.102  0.1017 -1.5927  0.0684
 1923SOL    HW217403   4.427   1.766   3.006  0.0131  0.0871  1.0716
 1924SOL     OW17404   2.949   3.937   7.676  0.4860 -0.0050 -0.0875
 1924SOL    HW117405   2.860   3.950   7.642 -0.0007 -0.7354  0.9036
 1924SOL    HW217406   2.988   3.880   7.611 -0.9732 -0.7980 -0.2737
 1925SOL     OW17407   2.247   4.341   4.176  0.0062  0.0216 -0.3240
 1925SOL    HW117408   2.325   4.332   4.121  0.6827 -1.0665  0.8282
 1925SOL    HW217409   2.266   4.275   4.243 -2.0038 -1.5469 -1.2766
 1926SOL     OW17410   1.773   3.726  17.743 -0.5074  0.1895 -0.2914
 1926SOL    HW117411   1.756   3.652   0.052  0.0633  0.0882 -0.2482
 1926SOL    HW217412   1.714   3.795   0.024 -0.0532  0.9893 -1.2311
 1927SOL     OW17413   4.676   3.095   4.703 -0.1570  0.3317 -0.2651
 1927SOL    HW117414   4.616   3.021   4.707  1.6435 -1.1075  0.0574
 1927SOL    HW217415   4.643   3.164   4.761  2.3779  0.5995  0.8650
 1928SOL     OW17416   1.378   1.426   8.557  0.6537  0.2748  0.0935
 1928SOL    HW117417   1.347   1.508   8.596 -0.6034 -0.9449  1.6567
 1928SOL    HW217418   1.415   1.385   8.635  0.1652 -1.0515 -0.3745
 1929SOL     OW17419   3.958   1.133  10.269 -0.5134  0.0148  0.7346
 1929SOL    HW117420   3.898   1.060  10.283 -0.6972 -0.2072 -1.2788
 1929SOL    HW217421   4.025   1.081  10.224  1.6523  2.3825  1.1932
 1930SOL     OW17422   3.645   3.572   9.915  0.2586  0.2084 -0.1068
 1930SOL    HW117423   3.553   3.585   9.894  0.2961 -0.2376 -0.5424
 1930SOL    HW217424   3.653   3.476   9.921  2.1941  0.4264  0.7563
 1931SOL     OW17425   1.845   3.799   5.445 -0.0371  0.0181  0.1538
 1931SOL    HW117426   1.830   3.708   5.469 -0.8670  0.2187  0.3986
 1931SOL    HW217427   1.850   3.845   5.529  0.2606 -0.3715  0.3463
 1932SOL     OW17428   0.526   2.358   2.267 -0.4047 -0.3035 -0.2623
 1932SOL    HW117429   0.443   2.365   2.218  0.4261  2.3055 -1.3020
 1932SOL    HW217430   0.496   2.332   2.354 -2.2204 -1.0104 -1.0993
 1933SOL     OW17431   1.894   0.343  16.472 -0.6245  0.4291  0.1894
 1933SOL    HW117432   1.906   0.400  16.396  0.6076 -1.0086 -0.6848
 1933SOL    HW217433   1.974   0.291  16.478 -0.7575  0.5324  3.1898
 1934SOL     OW17434   0.266   0.180   3.155 -0.1035 -0.5286 -0.3336
 1934SOL    HW117435   0.290   0.090   3.134 -0.5970 -1.1061  1.6208
 1934SOL    HW217436   0.214   0.164   3.233  0.1540  2.8069  0.5050
 1935SOL     OW17437   4.544   2.589  11.189  0.3410  0.1688 -0.1445
 1935SOL    HW117438   4.533   2.660  11.253 -1.1503  0.5892 -0.8668
 1935SOL    HW217439   4.455   2.576  11.157  0.2388  2.7627 -0.9324
 1936SOL     OW17440   1.169   3.336   8.079 -0.1708 -0.0563 -0.0790
 1936SOL    HW117441   1.150   3.306   8.168  1.0196  1.3162  0.6466
 1936SOL    HW217442   1.188   3.246   8.052 -0.5897 -0.4625  0.9859
 1937SOL     OW17443   1.270   1.945   2.792 -0.6725  0.2515 -0.1093
 1937SOL    HW117444   1.248   1.899   2.873  3.2452 -1.5164 -0.0853
 1937SOL    HW217445   1.181   1.952   2.758 -0.5977  0.5426 -0.2405
 1938SOL     OW17446   2.817   4.511  14.225 -0.1437  0.0428  0.4088
 1938SOL    HW117447   2.786   4.583  14.280  0.0899  0.5558 -0.1232
 1938SOL    HW217448   2.806   4.436  14.283  0.1216 -0.7821 -0.6091
 1939SOL     OW17449   0.678   2.571  13.036  0.4465 -0.1209  0.5598
 1939SOL    HW117450   0.717   2.490  13.001  2.0333  1.5231 -1.5065
 1939SOL    HW217451   0.681   2.631  12.962  0.3418  2.5923  2.7717
 1940SOL     OW17452   1.816   2.233  16.898  0.4006  0.2021 -0.3410
 1940SOL    HW117453   1.822   2.282  16.816 -0.5871  0.9451  0.0259
 1940SOL    HW217454   1.743   2.281  16.937  0.2018 -1.3805  1.2270
 1941SOL     OW17455   3.915   2.284   4.583 -0.6256 -0.4375 -0.0776
 1941SOL    HW117456   3.858   2.356   4.554  1.7619  1.9819  1.2315
 1941SOL    HW217457   3.905   2.297   4.678 -1.3878  0.9575 -0.3404
 1942SOL     OW17458   4.527   3.181   9.421  0.9183  0.5154 -0.7907
 1942SOL    HW117459   4.586   3.168   9.496 -0.3556  1.2901  0.3452
 1942SOL    HW217460   4.464   3.110   9.432 -0.4073  1.5263 -1.9490
 1943SOL     OW17461   1.622   3.346   2.284 -0.0093 -0.5169  0.3386
 1943SOL    HW117462   1.631   3.386   2.371  0.1590  0.3879 -0.0904
 1943SOL    HW217463   1.528   3.350   2.267  0.6180  2.2127 -2.5615
 1944SOL     OW17464   1.398   4.202  16.280 -0.4332  0.6265  0.2466
 1944SOL    HW117465   1.314   4.178  16.320 -1.1922  1.7097 -0.6876
 1944SOL    HW217466   1.377   4.286  16.238 -1.5116  0.6759  0.8565
 1945SOL     OW17467   1.440   1.384   4.509  0.2649 -0.2974 -0.2869
 1945SOL    HW117468   1.395   1.377   4.593 -0.8844 -1.1359 -0.9820
 1945SOL    HW217469   1.373   1.430   4.460  0.9903 -0.3261 -1.3055
 1946SOL     OW17470   4.345   4.179   1.999  0.0786 -0.2384  0.1899
 1946SOL    HW117471   4.276   4.147   2.057  0.9537  0.0776  1.4101
 1946SOL    HW217472   4.399   4.214   2.070 -2.3768  0.6249  1.6289
 1947SOL     OW17473   1.276   1.502   3.641 -0.0121  0.4346 -0.5364
 1947SOL    HW117474   1.266   1.446   3.564  0.7801 -0.0652 -0.2642
 1947SOL    HW217475   1.250   1.440   3.709  1.7171 -0.6963 -0.9317
 1948SOL     OW17476   0.332   1.494   8.266 -0.3471 -0.4649 -0.5414
 1948SOL    HW117477   0.320   1.407   8.229 -0.3607 -0.5751 -0.2790
 1948SOL    HW217478   0.284   1.554   8.209 -0.7018 -2.1863 -2.0364
 1949SOL     OW17479   0.490   4.224  13.607 -0.0640  0.0251 -0.0102
 1949SOL    HW117480   0.427   4.235  13.536 -0.7661 -0.1828  0.5792
 1949SOL    HW217481   0.575   4.231  13.565  0.8709 -1.6696  1.6222
 1950SOL     OW17482   3.011   0.971   2.281  0.4632  0.3924  0.3113
 1950SOL    HW117483   2.923   0.940   2.260  1.0523 -0.3042 -1.1235
 1950SOL    HW217484   2.983   1.043   2.338 -0.5141  0.7442 -0.6148
 1951SOL     OW17485   3.066   4.579   6.051 -0.7823 -0.2051  0.1644
 1951SOL    HW117486   3.093   4.590   5.959  1.2333  1.0499  0.9155
 1951SOL    HW217487   2.980   4.543   6.030 -1.3690  0.4897  1.4329
 1952SOL     OW17488   2.807   1.098  12.724 -0.1033 -0.1512 -0.1133
 1952SOL    HW117489   2.807   1.017  12.775  3.7261  0.9474  1.5946
 1952SOL    HW217490   2.712   1.111  12.723 -0.1227 -0.3321 -0.8416
 1953SOL     OW17491   0.268   1.101   7.926  0.0834  0.3892  0.7872
 1953SOL    HW117492   0.183   1.083   7.886  0.4910  1.0638 -0.3710
 1953SOL    HW217493   0.291   1.011   7.951 -0.6203  0.1744  0.6517
 1954SOL     OW17494   2.172   1.364   0.178 -0.4176 -0.3572  0.8469
 1954SOL    HW117495   2.147   1.296   0.240 -0.5427 -0.7228  0.4020
 1954SOL    HW217496   2.093   1.419   0.179  0.3817  0.7655  2.2185
 1955SOL     OW17497   0.147   3.185   8.908  0.0340  0.3708 -0.0857
 1955SOL    HW117498   0.200   3.105   8.901 -1.3873 -0.5706 -0.2315
 1955SOL    HW217499   0.157   3.226   8.822 -0.7187  0.2773 -0.2160
 1956SOL     OW17500   1.153   2.654   4.971  0.5258  0.5896 -0.3365
 1956SOL    HW117501   1.086   2.623   5.032  0.8508  0.9712  0.2141
 1956SOL    HW217502   1.140   2.590   4.902 -0.3491 -0.8685  1.1904
 1957SOL     OW17503   2.059   2.721   6.143  0.1961 -0.2027  0.0272
 1957SOL    HW117504   2.153   2.721   6.160  0.4821 -2.8361 -1.5791
 1957SOL    HW217505   2.049   2.647   6.083 -0.3559 -1.7124  1.9661
 1958SOL     OW17506   1.313   4.622  16.295  0.2032 -0.3348  0.5665
 1958SOL    HW117507   1.368   4.555  16.254  2.1178  1.5706  0.0132
 1958SOL    HW217508   1.293   4.579  16.378 -0.3868  1.5277  1.3792
 1959SOL     OW17509   3.003   3.493   1.762 -0.3173  0.6777  0.0685
 1959SOL    HW117510   3.002   3.587   1.778  1.0477  0.3446  2.1211
 1959SOL    HW217511   2.914   3.464   1.746 -0.0389 -0.4467  0.5500
 1960SOL     OW17512   3.421   2.875   8.162  0.0090  0.3259  0.4040
 1960SOL    HW117513   3.387   2.942   8.102  2.3082  0.1537 -1.0865
 1960SOL    HW217514   3.341   2.825   8.180  0.1534  0.2606  0.8652
 1961SOL     OW17515   2.063   4.160   5.816 -0.8260  0.1760  0.0371
 1961SOL    HW117516   2.124   4.115   5.757 -1.9966 -0.3574 -0.7679
 1961SOL    HW217517   2.118   4.234   5.840  0.7834 -0.4587 -1.6741
 1962SOL     OW17518   3.323   2.928  17.745  0.2450  0.4204 -0.6964
 1962SOL    HW117519   3.400   2.878   0.023 -0.6452 -0.5630  0.0244
 1962SOL    HW217520   3.246   2.879   0.026 -0.0122  2.7034  2.3584
 1963SOL     OW17521   1.348   3.860  17.556 -0.5143  0.2748 -0.1198
 1963SOL    HW117522   1.361   3.917  17.631 -0.6545 -1.5358  1.2933
 1963SOL    HW217523   1.285   3.792  17.580  1.4683 -2.2356 -2.0143
 1964SOL     OW17524   0.713   2.660   7.447  0.4910 -0.1519  0.2066
 1964SOL    HW117525   0.618   2.659   7.464  0.3053  1.4677 -0.7756
 1964SOL    HW217526   0.717   2.682   7.354  0.4582  1.0043  0.4857
 1965SOL     OW17527   2.560   1.964   8.625 -0.5316  0.1373  0.1108
 1965SOL    HW117528   2.625   2.023   8.587 -0.0200 -2.2119 -2.6711
 1965SOL    HW217529   2.587   1.972   8.716 -0.3597 -1.1060  0.1735
 1966SOL     OW17530   0.821   0.676   5.557  0.3046 -0.3000  0.6385
 1966SOL    HW117531   0.875   0.732   5.612 -0.2982  2.3064 -1.4336
 1966SOL    HW217532   0.886   0.610   5.530 -1.8504 -0.9230 -2.9669
 1967SOL     OW17533   4.723   2.139   7.941 -0.1630 -0.0816 -0.2439
 1967SOL    HW117534   4.664   2.124   7.866  0.2594 -1.3930 -0.3103
 1967SOL    HW217535   4.681   2.217   7.977 -2.3044 -2.6257  2.7798
 1968SOL     OW17536   1.804   3.024   2.125 -0.1884 -0.1654  0.4531
 1968SOL    HW117537   1.781   3.027   2.218 -2.5663  0.2574 -0.1504
 1968SOL    HW217538   1.724   2.996   2.080  0.4171  1.8289 -1.8793
 1969SOL     OW17539   3.354   0.119   4.568 -0.1069 -0.2007  0.6238
 1969SOL    HW117540   3.447   0.114   4.590  0.6304  1.4737 -2.0187
 1969SOL    HW217541   3.315   0.086   4.649  2.9311 -1.0443  1.7291
 1970SOL     OW17542   2.423   3.660   2.104 -0.0638  0.0641 -0.2237
 1970SOL    HW117543   2.482   3.636   2.032 -0.7866  1.1863 -1.1829
 1970SOL    HW217544   2.389   3.574   2.126  0.6979 -0.7371 -2.2069
 1971SOL     OW17545   0.812   1.963  13.617  0.3968  0.3808 -0.0952
 1971SOL    HW117546   0.825   2.052  13.647 -2.2626  0.4016  0.9896
 1971SOL    HW217547   0.838   1.907  13.691  0.9869  0.6241 -0.1190
 1972SOL     OW17548   1.308   0.544  12.445  0.3649  0.0992 -0.2029
 1972SOL    HW117549   1.281   0.477  12.508  1.5002  1.0144  1.2521
 1972SOL    HW217550   1.274   0.624  12.486  3.3757  1.0219  0.4540
 1973SOL     OW17551   0.538   0.359   4.533 -0.2166  0.1252 -0.1099
 1973SOL    HW117552   0.455   0.402   4.553  0.1693  2.1178 -2.7081
 1973SOL    HW217553   0.515   0.328   4.445 -0.4201  1.7326 -0.6340
 1974SOL     OW17554   1.490   3.521   7.412 -0.0475 -0.3831  0.4839
 1974SOL    HW117555   1.534   3.465   7.349 -0.6353 -0.7492  0.3961
 1974SOL    HW217556   1.436   3.461   7.465 -2.3436 -1.3039 -2.9175
 1975SOL     OW17557   2.283   1.443   2.247  0.0331  0.6655 -0.7032
 1975SOL    HW117558   2.262   1.431   2.154 -0.2686  0.8585 -0.6598
 1975SOL    HW217559   2.226   1.516   2.272  1.1477  1.0208  0.7829
 1976SOL     OW17560   1.601   0.892  13.676 -0.1887  0.7382  0.0779
 1976SOL    HW117561   1.561   0.806  13.666  1.8255 -0.2989  0.8724
 1976SOL    HW217562   1.648   0.881  13.759  0.9821  1.4266 -0.5025
 1977SOL     OW17563   4.054   4.216  16.309 -0.3098 -0.1216  0.3800
 1977SOL    HW117564   4.107   4.152  16.357  0.5954 -0.2545 -0.7814
 1977SOL    HW217565   4.111   4.233  16.234 -0.2223 -0.9298  0.2621
 1978SOL     OW17566   2.315   2.122   9.243  0.3316 -0.4498  0.1034
 1978SOL    HW117567   2.288   2.209   9.213  0.4385 -0.3304  0.3565
 1978SOL    HW217568   2.369   2.096   9.168  0.4681 -0.2136  0.1190
 1979SOL     OW17569   4.005   2.729   2.334  0.1323  0.3495 -0.0916
 1979SOL    HW117570   4.039   2.727   2.424  0.6125 -3.0939 -0.3803
 1979SOL    HW217571   4.002   2.825   2.327 -0.8699  0.2486 -0.8680
 1980SOL     OW17572   2.024   1.683   8.414  0.0708 -0.9037  0.4537
 1980SOL    HW117573   1.975   1.608   8.380 -1.2392 -0.2964  0.9939
 1980SOL    HW217574   2.032   1.655   8.505 -0.2575 -0.5112  0.6042
 1981SOL     OW17575   2.598   3.078  16.795 -0.2048 -0.0970  0.0665
 1981SOL    HW117576   2.668   3.137  16.767  1.6824 -2.4834 -0.1510
 1981SOL    HW217577   2.533   3.101  16.728  0.2679 -0.7648 -0.6091
 1982SOL     OW17578   4.015   4.279   8.909  0.3336 -0.1570  0.6314
 1982SOL    HW117579   3.961   4.201   8.896 -2.7981  1.9958  0.4622
 1982SOL    HW217580   3.957   4.322   8.973 -1.8558  0.6607 -1.8863
 1983SOL     OW17581   1.869   2.104   7.428  0.1153  0.3734 -0.1813
 1983SOL    HW117582   1.777   2.112   7.453  0.3350  1.5359  0.2304
 1983SOL    HW217583   1.909   2.166   7.488  2.0642  1.2910 -2.4153
 1984SOL     OW17584   1.649   4.555   0.269  0.2573 -0.2921  0.2730
 1984SOL    HW117585   1.554   4.566   0.276  0.0490 -0.2427 -2.4871
 1984SOL    HW217586   1.676   4.645   0.250  0.0215 -0.5153 -1.1732
 1985SOL     OW17587   1.679   4.097   5.627 -0.3728 -0.1788  0.3859
 1985SOL    HW117588   1.717   4.182   5.647 -1.6969  0.4982  0.0342
 1985SOL    HW217589   1.667   4.110   5.532 -1.4186  2.7736  0.9012
 1986SOL     OW17590   3.194   0.543   3.972 -0.5742  0.5705 -0.6357
 1986SOL    HW117591   3.289   0.544   3.964 -0.6975  2.5906 -1.9591
 1986SOL    HW217592   3.173   0.629   3.936 -0.3900  0.5987 -0.6721
 1987SOL     OW17593   2.343   4.189   3.444 -0.1406 -0.2148 -0.1198
 1987SOL    HW117594   2.427   4.148   3.465  0.0927  0.8095  0.9764
 1987SOL    HW217595   2.284   4.115   3.454  0.2996 -0.5596 -0.0613
 1988SOL     OW17596   0.986   0.730   3.429 -0.3934  0.2738 -0.0372
 1988SOL    HW117597   1.077   0.700   3.419 -0.7998 -1.1701  0.6344
 1988SOL    HW217598   0.951   0.711   3.341 -1.2401 -0.4011  0.4498
 1989SOL     OW17599   1.934   3.016  12.691  0.4421 -0.1894  0.1731
 1989SOL    HW117600   1.968   2.967  12.766  1.0182  0.7889  0.5618
 1989SOL    HW217601   1.947   2.952  12.622 -2.6617  0.3980 -0.9420
 1990SOL     OW17602   3.506   1.149   1.612  0.0755  0.0449 -0.2884
 1990SOL    HW117603   3.590   1.176   1.574 -1.4450  1.2606 -2.7646
 1990SOL    HW217604   3.534   1.106   1.693 -0.0598 -1.8576 -1.2379
 1991SOL     OW17605   0.516   4.067   6.312  0.0577 -0.0431 -0.3127
 1991SOL    HW117606   0.491   4.103   6.397  3.5697 -0.1792  0.7498
 1991SOL    HW217607   0.601   4.031   6.333  1.7975  2.9761 -2.1294
 1992SOL     OW17608   3.133   2.999   8.876  0.4451 -0.5638 -0.0858
 1992SOL    HW117609   3.144   3.008   8.971  2.2601 -0.4533 -0.3119
 1992SOL    HW217610   3.124   3.089   8.846  0.5474 -0.0516  1.4123
 1993SOL     OW17611   2.402   1.285   9.105  0.2845  0.6904 -0.2741
 1993SOL    HW117612   2.369   1.197   9.121  1.2364 -0.0547 -2.3860
 1993SOL    HW217613   2.391   1.321   9.193  0.7309 -2.7200  1.1815
 1994SOL     OW17614   4.029   2.818   5.811 -0.1752  0.3184 -0.2283
 1994SOL    HW117615   3.991   2.905   5.823 -0.0063  0.6896 -2.4784
 1994SOL    HW217616   3.949   2.768   5.796  0.7186 -0.0858 -3.6652
 1995SOL     OW17617   2.545   0.023   7.906 -0.8551 -0.2074  0.3710
 1995SOL    HW117618   2.525   0.110   7.940  1.5501  1.1415 -1.6497
 1995SOL    HW217619   2.640   0.033   7.903 -1.1146  2.4550  1.0389
 1996SOL     OW17620   0.348   0.458   4.861 -0.0699  0.0932 -0.3824
 1996SOL    HW117621   0.352   0.552   4.881  1.2137 -0.1620  0.5408
 1996SOL    HW217622   0.263   0.444   4.820  0.0011 -1.5279  0.0460
 1997SOL     OW17623   0.556   1.278   3.962  0.0995  0.1398  0.4430
 1997SOL    HW117624   0.471   1.277   4.007 -0.2945 -0.6739 -0.3181
 1997SOL    HW217625   0.591   1.363   3.990  0.6633 -0.5468  1.7844
 1998SOL     OW17626   2.953   0.319   6.900  0.1724  0.2894 -0.4510
 1998SOL    HW117627   2.947   0.233   6.940 -2.2474  0.5317 -0.3295
 1998SOL    HW217628   2.922   0.300   6.811 -0.8945 -1.0920  0.2243
 1999SOL     OW17629   1.673   0.232   1.610 -0.4328  0.5481  0.1110
 1999SOL    HW117630   1.667   0.313   1.660  1.3806  1.6176 -1.3840
 1999SOL    HW217631   1.635   0.262   1.527  0.3010  2.2791  0.4064
 2000SOL     OW17632   2.226   3.039   1.130 -0.1832 -0.5713  0.1751
 2000SOL    HW117633   2.205   2.946   1.129 -1.7007 -0.2122 -0.7253
 2000SOL    HW217634   2.295   3.043   1.063 -0.9789 -0.5173 -0.6351
 2001SOL     OW17635   3.954   3.741   1.112 -0.2600 -0.2525  0.1532
 2001SOL    HW117636   3.937   3.679   1.041  1.2522  0.7101 -1.0620
 2001SOL    HW217637   3.882   3.800   1.088 -1.4037 -1.3924  0.7938
 2002SOL     OW17638   3.583   3.242  16.808  0.7596 -0.3492  0.1286
 2002SOL    HW117639   3.495   3.240  16.846  0.6838 -3.1693 -0.1665
 2002SOL    HW217640   3.627   3.294  16.875 -2.3354  0.3685  1.6325
 2003SOL     OW17641   0.950   4.470  13.919 -0.0299 -0.6949 -0.5738
 2003SOL    HW117642   0.859   4.479  13.891  0.5294 -2.1996 -2.8887
 2003SOL    HW217643   0.938   4.522  13.999 -0.8234 -1.2156 -0.3585
 2004SOL     OW17644   2.082   3.950  11.628  0.0857  0.0547  0.3461
 2004SOL    HW117645   2.069   3.858  11.606 -0.4907  0.8413 -2.5373
 2004SOL    HW217646   2.161   3.968  11.577  0.6334 -1.1147  0.7781
 2005SOL     OW17647   1.197   0.504   9.020  0.3070 -0.0183  0.0312
 2005SOL    HW117648   1.162   0.460   8.942 -0.5696 -2.1873  1.6562
 2005SOL    HW217649   1.253   0.436   9.057  1.2535 -0.3997 -2.1022
 2006SOL     OW17650   4.425   1.255   6.118  0.3491 -0.2192 -0.0650
 2006SOL    HW117651   4.476   1.332   6.092 -0.2439  0.6628  1.3559
 2006SOL    HW217652   4.404   1.273   6.210  0.1587 -1.2478  0.0936
 2007SOL     OW17653   1.381   3.299   5.731 -0.0741  0.3312  0.3424
 2007SOL    HW117654   1.433   3.236   5.780 -0.5405 -1.3246 -1.3085
 2007SOL    HW217655   1.312   3.325   5.793  0.6561 -0.7202  1.6070
 2008SOL     OW17656   1.195   0.486  17.685  0.1339  0.4038  0.2705
 2008SOL    HW117657   1.261   0.478   0.004  0.4131  1.1171  0.0876
 2008SOL    HW217658   1.124   0.434  17.723  0.3307  0.1004  0.2152
 2009SOL     OW17659   4.574   0.022   3.269 -0.1956  0.1574 -0.0456
 2009SOL    HW117660   4.534   0.022   3.182 -2.7427  0.6859  1.1151
 2009SOL    HW217661   4.506   0.064   3.322 -2.0147 -1.1051 -1.3648
 2010SOL     OW17662   1.476   2.668   7.864 -0.2617 -0.3261 -0.1057
 2010SOL    HW117663   1.455   2.628   7.948 -2.2571  0.8057 -0.0506
 2010SOL    HW217664   1.569   2.686   7.877 -0.2804 -1.7721  1.9449
 2011SOL     OW17665   1.371   1.031   3.821  0.2162 -0.3773 -0.1820
 2011SOL    HW117666   1.323   1.004   3.899  0.7435 -1.6611 -0.3083
 2011SOL    HW217667   1.460   1.026   3.856 -0.7288  0.0531  2.2989
 2012SOL     OW17668   2.902   3.399   6.666 -0.0416 -0.2419 -0.1263
 2012SOL    HW117669   2.959   3.359   6.601 -0.8063 -2.1230  0.3556
 2012SOL    HW217670   2.824   3.343   6.663  0.3917 -0.9123  0.7999
 2013SOL     OW17671   2.732   3.250   0.435  0.1883  0.1099 -0.0240
 2013SOL    HW117672   2.761   3.273   0.523 -2.5191 -0.5198  1.0517
 2013SOL    HW217673   2.721   3.155   0.441 -1.0195  0.2764  0.4279
 2014SOL     OW17674   0.765   2.151   4.503 -0.0369  0.4351 -0.1145
 2014SOL    HW117675   0.843   2.131   4.556 -1.7958 -3.0041  1.1335
 2014SOL    HW217676   0.750   2.244   4.520  1.0863  0.5588  0.2423
 2015SOL     OW17677   2.321   1.588  14.198 -0.4695  0.1089 -0.6357
 2015SOL    HW117678   2.384   1.598  14.127  0.8686 -0.1504  0.5255
 2015SOL    HW217679   2.246   1.554  14.148 -0.9584  0.8645 -0.4053
 2016SOL     OW17680   2.970   0.411   1.092  0.3004 -0.8117  0.3196
 2016SOL    HW117681   2.997   0.495   1.130  2.2030 -2.2805  2.2628
 2016SOL    HW217682   2.876   0.407   1.111  0.0460  4.2067  0.2844
 2017SOL     OW17683   0.260   3.027  16.188 -0.0816 -0.6110  0.2670
 2017SOL    HW117684   0.260   2.965  16.115  1.4506  1.3121 -1.3611
 2017SOL    HW217685   0.194   3.088  16.155  1.8843  0.8727 -0.9004
 2018SOL     OW17686   2.056   3.804  15.015  0.1862  0.1259  0.7625
 2018SOL    HW117687   2.037   3.727  15.068 -0.9762  0.7643  1.2927
 2018SOL    HW217688   2.061   3.777  14.923 -1.1157  0.9633  0.4382
 2019SOL     OW17689   0.299   3.743   2.567  0.8426 -0.0009 -0.1321
 2019SOL    HW117690   0.302   3.767   2.660  1.1146 -2.2157  0.4474
 2019SOL    HW217691   0.365   3.674   2.567  2.4064  1.4979 -1.1259
 2020SOL     OW17692   3.022   3.335   4.804  0.3441 -0.0038  0.5400
 2020SOL    HW117693   2.963   3.352   4.877 -1.2172  0.8277 -0.9361
 2020SOL    HW217694   3.029   3.240   4.817 -1.9794 -0.1916  0.3994
 2021SOL     OW17695   3.446   4.314   2.706  0.9832  0.0882  0.4449
 2021SOL    HW117696   3.457   4.227   2.667  1.4246 -0.3880  1.6073
 2021SOL    HW217697   3.375   4.356   2.659  0.1641 -0.6293  1.0391
 2022SOL     OW17698   2.765   0.873   6.767 -0.0561 -0.0258 -0.0948
 2022SOL    HW117699   2.792   0.790   6.727  1.9176  0.6269 -0.1255
 2022SOL    HW217700   2.842   0.921   6.797 -0.5327  1.4488 -1.2366
 2023SOL     OW17701   2.512   1.803  12.475  0.1359 -0.5725  0.2105
 2023SOL    HW117702   2.483   1.850  12.397 -4.0100  0.7045  2.5413
 2023SOL    HW217703   2.607   1.813  12.468  0.3500 -2.8935 -0.2756
 2024SOL     OW17704   2.578   1.793   2.882 -0.1799 -0.2239 -0.1873
 2024SOL    HW117705   2.575   1.755   2.970  0.4104 -0.1035 -0.1181
 2024SOL    HW217706   2.539   1.718   2.836  0.1793  0.1857 -1.1548
 2025SOL     OW17707   1.506   2.156   8.892 -0.0604 -0.2335 -0.4436
 2025SOL    HW117708   1.421   2.198   8.880  0.9466  2.2067  0.9709
 2025SOL    HW217709   1.487   2.065   8.914 -0.6430  0.0986  0.4352
 2026SOL     OW17710   3.244   2.595   4.848  0.3287  0.3592 -0.1342
 2026SOL    HW117711   3.167   2.586   4.791 -0.1176 -0.7713  0.6602
 2026SOL    HW217712   3.316   2.562   4.794  1.3240 -2.3814  2.8755
 2027SOL     OW17713   4.515   1.093  11.834 -0.2020 -0.2897  0.1784
 2027SOL    HW117714   4.466   1.011  11.832 -0.1756 -0.2797 -0.9168
 2027SOL    HW217715   4.607   1.069  11.823 -0.7410 -1.3721 -2.0251
 2028SOL     OW17716   3.612   4.383   7.710 -0.3416 -0.0221 -0.0296
 2028SOL    HW117717   3.651   4.462   7.747  0.9003 -0.1990 -0.9934
 2028SOL    HW217718   3.519   4.387   7.734 -0.2433 -0.4347  0.4303
 2029SOL     OW17719   2.859   2.623  11.238  0.1790  0.5041  0.5330
 2029SOL    HW117720   2.796   2.579  11.296  0.1823 -0.6015 -0.2952
 2029SOL    HW217721   2.920   2.660  11.302  0.8017  0.2262  0.0965
 2030SOL     OW17722   1.871   1.515   3.029 -0.4394  0.0660  0.5142
 2030SOL    HW117723   1.831   1.453   3.091  2.3418  0.4732  2.7332
 2030SOL    HW217724   1.865   1.468   2.946 -0.2656  1.5374 -0.3352
 2031SOL     OW17725   4.515   4.248   7.212  0.1887  0.2528  0.3838
 2031SOL    HW117726   4.517   4.338   7.180 -0.1895  0.6120  1.3892
 2031SOL    HW217727   4.425   4.217   7.219  1.3075 -2.6332  2.0331
 2032SOL     OW17728   2.976   4.498   9.580  0.4658 -0.3582 -0.3128
 2032SOL    HW117729   2.926   4.515   9.659  0.1745  1.8407 -0.9708
 2032SOL    HW217730   2.993   4.587   9.550 -1.3468  0.5676  1.4753
 2033SOL     OW17731   0.151   2.252  11.252  0.4284 -0.2916 -0.2245
 2033SOL    HW117732   0.059   2.264  11.276 -0.0598 -0.0947 -2.2582
 2033SOL    HW217733   0.137   2.161  11.227  0.4918  0.3595 -2.5692
 2034SOL     OW17734   3.655   1.888   6.929  0.8591 -0.1222  0.0544
 2034SOL    HW117735   3.645   1.793   6.925  0.0681 -0.0106 -0.6576
 2034SOL    HW217736   3.713   1.910   6.857  0.6497 -1.4457 -0.5167
 2035SOL     OW17737   2.078   1.000   1.205  0.2738 -0.2052  0.1499
 2035SOL    HW117738   2.084   1.074   1.145  0.3443  0.1210  0.5630
 2035SOL    HW217739   2.022   0.939   1.156 -1.4305  2.2886 -0.9715
 2036SOL     OW17740   2.148   3.711   1.042  0.6386 -0.4739  0.1152
 2036SOL    HW117741   2.194   3.723   1.125 -1.1978  3.1277  0.6029
 2036SOL    HW217742   2.067   3.671   1.075  1.1462 -1.5454  0.0694
 2037SOL     OW17743   1.081   2.686   2.207 -0.2761  0.0599  0.6169
 2037SOL    HW117744   1.049   2.637   2.131  0.6821 -0.5456  0.6097
 2037SOL    HW217745   1.016   2.657   2.271 -1.7555  3.7026  0.7357
 2038SOL     OW17746   3.560   4.336   0.142 -0.1071  0.3771 -0.6880
 2038SOL    HW117747   3.487   4.282   0.111 -1.7676  1.2697  1.6740
 2038SOL    HW217748   3.531   4.426   0.132  2.8613  1.3355 -0.7639
 2039SOL     OW17749   0.008   4.471   7.036 -0.4433  0.3336  0.7498
 2039SOL    HW117750   0.006   4.384   6.998 -1.5899 -0.1577  1.9407
 2039SOL    HW217751   0.031   4.523   6.959  0.5103 -1.3624 -0.1129
 2040SOL     OW17752   3.292   0.871   6.620  0.1000 -0.5886  0.0350
 2040SOL    HW117753   3.358   0.924   6.574  1.1534 -2.8634 -1.0412
 2040SOL    HW217754   3.213   0.865   6.565 -0.6198 -1.7008  1.2021
 2041SOL     OW17755   2.747   4.544   5.155  1.0348 -0.4595  0.6345
 2041SOL    HW117756   2.814   4.588   5.209  0.5985  0.0905  0.7261
 2041SOL    HW217757   2.769   4.451   5.162 -1.5116 -1.0452  0.9299
 2042SOL     OW17758   3.110   1.338  14.645  0.0669 -0.1624  0.5657
 2042SOL    HW117759   3.149   1.345  14.558 -0.3168  1.2495  0.5035
 2042SOL    HW217760   3.149   1.418  14.681  0.2591  0.2704 -0.5866
 2043SOL     OW17761   1.611   1.668   4.096 -0.0330 -0.5543  0.3581
 2043SOL    HW117762   1.619   1.764   4.102  1.1165 -0.5382 -1.2834
 2043SOL    HW217763   1.521   1.653   4.067  0.4820  0.3187 -1.7119
 2044SOL     OW17764   2.627   2.852   4.006  0.3548 -0.0609 -0.5292
 2044SOL    HW117765   2.633   2.826   4.098 -1.7117  1.1407 -0.0683
 2044SOL    HW217766   2.702   2.801   3.976  1.2668 -1.4645  4.2455
 2045SOL     OW17767   4.488   2.393   1.992 -0.8396 -0.3851  0.0021
 2045SOL    HW117768   4.511   2.477   2.032 -0.7863  0.4770 -1.8627
 2045SOL    HW217769   4.397   2.389   2.023 -0.1615  0.6736  2.1282
 2046SOL     OW17770   4.601   2.152   3.796  0.3255 -0.1628 -0.2182
 2046SOL    HW117771   4.534   2.140   3.728  0.4120  0.5958 -0.4318
 2046SOL    HW217772   4.625   2.063   3.824 -1.0327  0.0271  1.5326
 2047SOL     OW17773   1.092   0.525   7.450  0.1444  0.3084  0.0305
 2047SOL    HW117774   1.007   0.553   7.483 -0.4417  0.5666 -1.7009
 2047SOL    HW217775   1.067   0.471   7.375  3.3137  0.7112 -1.3446
 2048SOL     OW17776   1.349   2.055   5.846  0.3511  0.0710 -0.2784
 2048SOL    HW117777   1.418   2.109   5.885 -0.5586  0.4867  0.7306
 2048SOL    HW217778   1.383   1.965   5.841 -1.2959 -0.5095 -0.8934
 2049SOL     OW17779   4.187   3.392   9.533  0.4140  0.5273  0.7669
 2049SOL    HW117780   4.254   3.460   9.528  0.0399  0.7779 -0.8186
 2049SOL    HW217781   4.137   3.429   9.605  0.6506  0.4617  0.9632
 2050SOL     OW17782   2.035   4.659   3.563  0.7875  0.5819  0.5587
 2050SOL    HW117783   1.978   4.718   3.513  1.8306  0.4294 -0.8264
 2050SOL    HW217784   2.100   4.722   3.595 -0.5671  0.6158  3.2018
 2051SOL     OW17785   1.312   4.192   6.485 -0.0016  1.0402 -0.2666
 2051SOL    HW117786   1.405   4.182   6.463  0.2930 -0.5198  1.7630
 2051SOL    HW217787   1.281   4.228   6.402  0.2012  0.7464 -0.4662
 2052SOL     OW17788   2.615   0.548   6.018  0.3656  0.1469 -0.2986
 2052SOL    HW117789   2.686   0.576   6.075 -0.1636 -2.0785  1.4834
 2052SOL    HW217790   2.623   0.598   5.937  0.3607 -0.0878 -0.4438
 2053SOL     OW17791   0.186   3.786  14.953 -0.3651 -0.1787  0.0004
 2053SOL    HW117792   0.174   3.851  14.884  1.8769 -1.1170 -1.2634
 2053SOL    HW217793   0.269   3.811  14.994 -0.0777  1.1718 -1.3836
 2054SOL     OW17794   1.620   2.544   5.775  0.0876  0.1370  0.1148
 2054SOL    HW117795   1.572   2.524   5.695 -0.2281  1.0666  0.0718
 2054SOL    HW217796   1.605   2.637   5.795 -1.0172 -0.3014  1.2864
 2055SOL     OW17797   0.392   2.770   3.104  0.0451 -0.0088 -0.4785
 2055SOL    HW117798   0.486   2.779   3.124 -0.2006  1.1089  0.1807
 2055SOL    HW217799   0.363   2.862   3.108  1.6297  0.4806 -0.0693
 2056SOL     OW17800   4.433   0.163   3.475 -0.6818 -0.6243 -0.6538
 2056SOL    HW117801   4.388   0.236   3.518 -1.2790 -1.0256 -0.6093
 2056SOL    HW217802   4.351   0.114   3.474 -1.5623  0.7419  2.3580
 2057SOL     OW17803   2.255   0.272   9.703  0.4830 -0.6665 -0.0911
 2057SOL    HW117804   2.166   0.258   9.670  0.8880 -0.3038 -1.3627
 2057SOL    HW217805   2.241   0.254   9.796 -0.5593  0.8732  0.0488
 2058SOL     OW17806   1.374   1.505   4.254 -0.0738  0.4363 -0.0268
 2058SOL    HW117807   1.362   1.564   4.328  0.0955  0.3313  0.0829
 2058SOL    HW217808   1.287   1.513   4.215 -0.9409  2.6792  2.3403
 2059SOL     OW17809   1.428   2.426  15.089  0.2367  0.0324  0.3545
 2059SOL    HW117810   1.374   2.449  15.014  0.7103 -1.9136 -0.5816
 2059SOL    HW217811   1.421   2.500  15.150  0.1720  2.1413 -2.2019
 2060SOL     OW17812   4.260   0.421   8.545 -0.5979  0.6557 -0.0340
 2060SOL    HW117813   4.335   0.449   8.491 -0.3794  0.9420  0.4189
 2060SOL    HW217814   4.299   0.369   8.616 -0.0401  0.9392 -0.1328
 2061SOL     OW17815   2.305   0.831   8.496 -0.1715 -0.4007  0.4095
 2061SOL    HW117816   2.217   0.867   8.507  1.4571  3.6189  0.0535
 2061SOL    HW217817   2.332   0.802   8.583  2.2297  2.4502  0.6024
 2062SOL     OW17818   1.056   0.378   0.970 -0.1954 -0.3710 -0.4788
 2062SOL    HW117819   1.048   0.406   1.062 -2.3868 -1.1708 -0.4443
 2062SOL    HW217820   1.018   0.454   0.927  1.0561 -0.0590 -1.0299
 2063SOL     OW17821   4.264   0.332   4.323  0.0144  0.0911 -0.0588
 2063SOL    HW117822   4.295   0.366   4.406 -0.8563  0.3705  0.1545
 2063SOL    HW217823   4.349   0.296   4.298  0.8984  2.7744 -0.8274
 2064SOL     OW17824   0.003   4.566   4.490 -0.1062  0.0178 -0.0712
 2064SOL    HW117825   4.721   4.477   4.521 -0.4528 -0.1104 -0.6589
 2064SOL    HW217826   0.086   4.586   4.533  0.0151 -1.0428  0.2042
 2065SOL     OW17827   0.962   2.620   2.817  0.5810  0.3219  0.6171
 2065SOL    HW117828   0.971   2.698   2.873  3.3912  2.3195 -2.6386
 2065SOL    HW217829   1.050   2.584   2.808 -0.3689 -1.3256 -2.0975
 2066SOL     OW17830   2.037   2.277  10.550 -0.5475  0.5165  0.3134
 2066SOL    HW117831   2.064   2.291  10.460 -0.3210  1.9684  0.6119
 2066SOL    HW217832   2.108   2.307  10.607  0.3601 -0.0876 -0.5254
 2067SOL     OW17833   0.186   2.736   5.825 -0.7001  0.7860  0.2432
 2067SOL    HW117834   0.173   2.693   5.909  0.0013  0.1878  0.0415
 2067SOL    HW217835   0.099   2.745   5.784 -1.0824 -1.3247  0.5995
 2068SOL     OW17836   0.006   4.223  16.764  0.3017 -0.1944  0.4539
 2068SOL    HW117837   4.713   4.302  16.808 -0.7363 -1.1322  1.4025
 2068SOL    HW217838   0.094   4.252  16.739  0.7729 -1.9595  0.1018
 2069SOL     OW17839   1.916   4.262   0.832 -0.5083 -0.1836  0.4566
 2069SOL    HW117840   1.847   4.328   0.831  2.8783  3.2388 -2.0486
 2069SOL    HW217841   1.861   4.184   0.824  2.6312 -2.5325  1.5449
 2070SOL     OW17842   2.766   3.142   5.356  0.2473 -0.4105  0.1056
 2070SOL    HW117843   2.696   3.081   5.380  0.0256  1.1386  3.3987
 2070SOL    HW217844   2.820   3.082   5.304 -0.3367 -0.1560 -0.7832
 2071SOL     OW17845   2.656   2.182   6.972  0.1225  0.0424  0.4899
 2071SOL    HW117846   2.583   2.123   6.954 -1.1417  1.1238  2.0570
 2071SOL    HW217847   2.734   2.127   6.987 -0.8100 -1.2271  0.7076
 2072SOL     OW17848   0.396   0.866  16.857 -0.5267  0.5793  0.2375
 2072SOL    HW117849   0.346   0.906  16.929 -1.4600  1.4731 -0.9037
 2072SOL    HW217850   0.394   0.773  16.882  1.1842 -0.3095 -2.9137
 2073SOL     OW17851   3.012   4.696   7.620 -0.2699 -0.1163 -0.1261
 2073SOL    HW117852   3.100   4.704   7.582 -0.0179 -2.9312 -0.1370
 2073SOL    HW217853   3.029   4.646   7.700  0.7450  0.6122  0.1137
 2074SOL     OW17854   3.591   2.747  11.078 -0.3900  0.0824 -0.6125
 2074SOL    HW117855   3.521   2.689  11.047  0.3389 -0.5652 -1.0423
 2074SOL    HW217856   3.576   2.833  11.039  0.2247  0.7258  0.5909
 2075SOL     OW17857   4.025   0.530   4.509  0.0746 -0.1641 -0.5793
 2075SOL    HW117858   4.044   0.444   4.548  1.3289  0.2142 -0.3339
 2075SOL    HW217859   4.111   0.557   4.476  1.2918 -1.3351  1.5796
 2076SOL     OW17860   2.816   0.041   0.287  0.2495 -0.1961 -0.3115
 2076SOL    HW117861   2.886   0.031   0.352  0.8440 -0.6867 -1.0354
 2076SOL    HW217862   2.874   0.012   0.216  0.9460  1.8463 -0.5826
 2077SOL     OW17863   3.310   1.611  13.624  0.3159 -0.5262 -0.1754
 2077SOL    HW117864   3.366   1.665  13.567  0.3751 -0.0602  0.3163
 2077SOL    HW217865   3.239   1.675  13.633  1.6363  0.7611  1.1062
 2078SOL     OW17866   0.722   2.346   8.410  0.3112 -0.2100 -0.1247
 2078SOL    HW117867   0.766   2.325   8.492  0.8502  2.0682  0.1865
 2078SOL    HW217868   0.742   2.273   8.351  2.2613 -1.2651  1.8431
 2079SOL     OW17869   1.781   4.341   6.446 -0.3953 -0.3812 -0.9951
 2079SOL    HW117870   1.730   4.422   6.439 -1.4041 -1.0132 -0.7496
 2079SOL    HW217871   1.712   4.276   6.435 -0.1481 -0.8362  0.2170
 2080SOL     OW17872   3.496   3.579   0.723 -0.6821 -0.3989  0.3662
 2080SOL    HW117873   3.522   3.652   0.779 -2.1222  0.4496 -0.0875
 2080SOL    HW217874   3.541   3.505   0.765  0.8955  0.1114 -0.4468
 2081SOL     OW17875   0.279   3.764  11.756 -0.5382  0.1092 -0.3552
 2081SOL    HW117876   0.255   3.758  11.849 -2.9278  1.7298 -0.8647
 2081SOL    HW217877   0.245   3.854  11.749  1.6974  0.9439 -0.4686
 2082SOL     OW17878   3.934   3.471   1.014  0.3003  0.1536 -0.3542
 2082SOL    HW117879   3.906   3.380   1.026  0.2646  0.2406  0.2106
 2082SOL    HW217880   4.027   3.456   1.030  0.2112  1.3403  1.2239
 2083SOL     OW17881   4.652   3.801   7.671 -0.6605  0.0041 -0.4375
 2083SOL    HW117882   4.699   3.741   7.729 -0.3619  0.5716 -0.0952
 2083SOL    HW217883   4.714   3.841   7.610 -1.4899  0.3413 -1.0722
 2084SOL     OW17884   2.222   1.332  11.947 -0.5900  0.6516 -0.2207
 2084SOL    HW117885   2.269   1.253  11.921 -2.2797 -0.8111  1.1416
 2084SOL    HW217886   2.258   1.388  11.878  0.1088  0.7371  0.2207
 2085SOL     OW17887   3.065   0.462   1.471  0.4768  0.0710  0.2970
 2085SOL    HW117888   3.105   0.389   1.519  0.2282  0.1936  0.6890
 2085SOL    HW217889   3.107   0.447   1.386 -1.1548 -2.9828  0.0261
 2086SOL     OW17890   3.533   3.344   5.261  0.3846 -0.3010  0.0273
 2086SOL    HW117891   3.622   3.314   5.283 -0.7589 -3.3432  0.4656
 2086SOL    HW217892   3.524   3.344   5.165  0.0523 -0.0951  0.0594
 2087SOL     OW17893   2.661   2.788   4.295  0.1035  0.4921 -0.0899
 2087SOL    HW117894   2.640   2.853   4.363 -0.4818 -0.3372  0.5343
 2087SOL    HW217895   2.580   2.738   4.305  1.1607 -0.7400  2.5491
 2088SOL     OW17896   1.583   4.127   6.407  0.8088 -0.3511  0.3838
 2088SOL    HW117897   1.582   4.057   6.342 -0.3493  0.4760 -0.4985
 2088SOL    HW217898   1.618   4.077   6.481  1.4897 -0.8218 -0.2528
 2089SOL     OW17899   0.974   0.748   9.915 -0.9027 -0.3334  0.3154
 2089SOL    HW117900   0.904   0.707   9.865 -1.0554 -1.9254  1.8611
 2089SOL    HW217901   1.033   0.776   9.845 -1.8669 -1.1435 -0.8204
 2090SOL     OW17902   0.752   4.669   5.838 -0.0273 -0.1825  0.5732
 2090SOL    HW117903   0.717   4.652   5.925 -1.5746  1.0044  0.1803
 2090SOL    HW217904   0.698   4.605   5.791  0.6524 -0.9362  0.8306
 2091SOL     OW17905   0.873   0.113   4.944 -0.1972  0.2770  0.0736
 2091SOL    HW117906   0.837   0.201   4.936 -2.2824 -0.6108 -0.4390
 2091SOL    HW217907   0.831   0.086   5.026  0.9215 -1.7089  0.0091
 2092SOL     OW17908   3.310   3.465   5.392  0.3082  0.1510 -0.1771
 2092SOL    HW117909   3.383   3.443   5.335 -0.4567 -2.0502 -0.2919
 2092SOL    HW217910   3.269   3.379   5.398  0.6981 -0.0441 -0.3062
 2093SOL     OW17911   1.128   0.057   7.429  0.2241 -0.4700  0.1157
 2093SOL    HW117912   1.172   0.094   7.351  0.6167 -0.5227  0.3106
 2093SOL    HW217913   1.203   0.007   7.462  0.1840 -1.4253 -1.2640
 2094SOL     OW17914   4.062   4.249   4.307  0.8541  0.4465 -0.5100
 2094SOL    HW117915   4.151   4.265   4.278 -0.0901  0.1745 -3.6023
 2094SOL    HW217916   4.082   4.233   4.399  0.7555  2.5139 -0.1360
 2095SOL     OW17917   2.823   3.834  12.004  0.2556  0.1823  0.3368
 2095SOL    HW117918   2.839   3.905  11.941  1.5303 -1.8646 -1.6764
 2095SOL    HW217919   2.739   3.794  11.982  0.8232  0.6438 -2.7340
 2096SOL     OW17920   1.926   2.087   4.667 -0.2415  0.1319 -0.3541
 2096SOL    HW117921   1.900   1.996   4.684 -3.7474  1.5128  1.7807
 2096SOL    HW217922   1.870   2.124   4.735 -2.0555 -0.9023 -1.2897
 2097SOL     OW17923   4.309   2.253   7.669  0.0650 -0.5198 -0.4283
 2097SOL    HW117924   4.263   2.325   7.711  1.2776 -1.1729  2.0909
 2097SOL    HW217925   4.234   2.194   7.660  0.3462 -0.5228 -2.5884
 2098SOL     OW17926   0.426   1.290   3.499 -0.0808  0.0269  0.1055
 2098SOL    HW117927   0.459   1.263   3.585 -1.1475 -1.1052  0.1616
 2098SOL    HW217928   0.480   1.369   3.502  0.5528 -0.3838 -0.5929
 2099SOL     OW17929   2.465   0.856   0.376 -0.3218 -0.2473 -0.0323
 2099SOL    HW117930   2.538   0.909   0.405  0.0169 -0.2351 -0.9175
 2099SOL    HW217931   2.505   0.808   0.304 -1.0785  1.5460 -1.6362
 2100SOL     OW17932   4.131   0.613   6.298 -0.2956  0.2189  0.5189
 2100SOL    HW117933   4.141   0.545   6.364 -1.4458 -0.2476  0.2158
 2100SOL    HW217934   4.107   0.570   6.216  1.5605 -0.5249  0.3603
 2101SOL     OW17935   1.910   0.353  16.758  0.7249 -0.3553  0.1620
 2101SOL    HW117936   1.931   0.372  16.667 -4.9954 -2.1664 -1.5250
 2101SOL    HW217937   1.955   0.427  16.798  0.3608  0.6320 -1.2770
 2102SOL     OW17938   0.831   4.167   8.525 -0.2362 -0.1346  0.7409
 2102SOL    HW117939   0.765   4.101   8.501 -0.0674 -0.7143  1.9034
 2102SOL    HW217940   0.901   4.103   8.534 -1.1173 -1.2211 -0.1244
 2103SOL     OW17941   3.502   2.242   1.308 -0.0021 -0.0249  0.0562
 2103SOL    HW117942   3.504   2.297   1.386 -2.8072  1.4419 -0.9249
 2103SOL    HW217943   3.409   2.229   1.290 -0.4699 -0.5016  2.8251
 2104SOL     OW17944   3.539   1.714   6.593  0.4457  0.2101  0.1310
 2104SOL    HW117945   3.598   1.732   6.666  0.1439 -1.0901  0.7066
 2104SOL    HW217946   3.454   1.728   6.636  1.0223 -1.0229  1.6842
 2105SOL     OW17947   2.917   0.264  12.407 -0.1929  0.4020 -0.0313
 2105SOL    HW117948   2.911   0.307  12.492 -0.7662  0.3861 -0.0606
 2105SOL    HW217949   2.945   0.331  12.344  1.2149  0.3938  0.5956
 2106SOL     OW17950   4.288   0.771   4.106  0.0021  0.3511  0.4357
 2106SOL    HW117951   4.331   0.685   4.103 -0.6597 -0.0335  1.9813
 2106SOL    HW217952   4.312   0.799   4.018  2.3213  0.5682  1.1430
 2107SOL     OW17953   2.610   0.976   9.352 -0.0503 -0.3693 -0.2650
 2107SOL    HW117954   2.602   0.955   9.258 -0.8337 -0.5093 -0.1726
 2107SOL    HW217955   2.523   0.945   9.378 -1.1871  0.1176 -3.4698
 2108SOL     OW17956   3.698   0.805   3.228 -0.3862 -0.4950 -0.2118
 2108SOL    HW117957   3.605   0.825   3.217 -0.4247  0.2066  1.4933
 2108SOL    HW217958   3.733   0.883   3.187  1.7376  0.1563  2.8507
 2109SOL     OW17959   4.063   2.726   6.560  0.3418  0.3228 -0.0982
 2109SOL    HW117960   4.023   2.812   6.578 -0.8864 -0.0285 -1.1690
 2109SOL    HW217961   4.084   2.732   6.467 -2.8270  0.1534 -0.8235
 2110SOL     OW17962   1.757   0.394   3.245  0.6865  0.3217  0.3512
 2110SOL    HW117963   1.752   0.318   3.303  2.6483 -0.2303 -0.2249
 2110SOL    HW217964   1.811   0.358   3.175  1.1221  2.4945 -0.4247
 2111SOL     OW17965   3.149   2.786   7.828  0.0431  0.3360 -0.6428
 2111SOL    HW117966   3.087   2.762   7.896  0.3314 -1.7559 -1.1422
 2111SOL    HW217967   3.230   2.745   7.858  0.6675  1.6753 -0.4934
 2112SOL     OW17968   1.113   0.109   9.221 -0.0932  0.3407 -0.2967
 2112SOL    HW117969   1.151   0.021   9.222 -0.9761 -0.0417  0.9269
 2112SOL    HW217970   1.184   0.161   9.259  1.2983 -2.3705  0.8175
 2113SOL     OW17971   0.429   2.168   9.250  0.3620  0.0439 -0.5107
 2113SOL    HW117972   0.442   2.195   9.341  0.0582  0.0497 -0.4679
 2113SOL    HW217973   0.387   2.084   9.270  1.0681 -0.1844  0.0028
 2114SOL     OW17974   3.451   0.889   5.104 -0.0024  0.2163  0.1807
 2114SOL    HW117975   3.495   0.840   5.035  1.7297  0.7970  0.8639
 2114SOL    HW217976   3.430   0.971   5.059  0.2211 -0.7758 -1.7229
 2115SOL     OW17977   2.875   0.118   1.469 -0.4593  0.1615 -0.9659
 2115SOL    HW117978   2.833   0.143   1.386 -1.0562 -1.9607 -1.2971
 2115SOL    HW217979   2.839   0.181   1.532 -3.1110 -2.4713  0.1563
 2116SOL     OW17980   0.574   0.653   4.946 -0.2293  0.2525  0.3183
 2116SOL    HW117981   0.555   0.649   4.853 -0.9745  1.5142  0.4080
 2116SOL    HW217982   0.584   0.746   4.964  1.9381 -0.0319  0.5422
 2117SOL     OW17983   3.483   4.667   3.107 -0.1404  0.4778  0.0714
 2117SOL    HW117984   3.422   4.633   3.173 -1.3218  1.0657 -0.7204
 2117SOL    HW217985   3.435   4.692   3.028  0.2787  0.3628 -0.2186
 2118SOL     OW17986   1.610   1.916   5.427  0.1600 -0.1489 -0.1577
 2118SOL    HW117987   1.590   1.881   5.340 -1.3255 -2.4638  1.1464
 2118SOL    HW217988   1.588   1.849   5.491  1.4077  0.8141  1.2985
 2119SOL     OW17989   0.110   1.355   1.017 -0.4003  0.0311 -0.0675
 2119SOL    HW117990   0.185   1.297   1.005  0.0454  0.7851 -0.8907
 2119SOL    HW217991   0.144   1.434   0.975  1.5039 -1.2094 -0.8690
 2120SOL     OW17992   1.162   2.581   9.395  0.3442 -0.1411  0.0087
 2120SOL    HW117993   1.155   2.598   9.489  0.6514 -0.1539  0.0334
 2120SOL    HW217994   1.077   2.607   9.361  0.0840 -0.8171  0.1274
 2121SOL     OW17995   2.580   1.521   3.516  0.0648  0.4878 -0.6213
 2121SOL    HW117996   2.516   1.592   3.516  0.7726  1.1205  1.9565
 2121SOL    HW217997   2.589   1.502   3.609 -0.9918 -1.6073 -0.9625
 2122SOL     OW17998   0.704   3.898   4.770  0.8559  0.1292  0.0832
 2122SOL    HW117999   0.681   3.807   4.792  1.1110  0.0726  0.1166
 2122SOL    HW218000   0.756   3.869   4.696  1.4468  0.0291  0.5352
 2123SOL     OW18001   4.005   3.449  13.481 -0.1361 -0.0284 -0.2917
 2123SOL    HW118002   3.941   3.466  13.412 -0.8110  1.6212  0.7415
 2123SOL    HW218003   4.067   3.518  13.458  0.9075 -0.7636  0.3179
 2124SOL     OW18004   1.592   1.429   6.568  0.2727 -0.4912  0.4966
 2124SOL    HW118005   1.676   1.384   6.559  0.4234 -0.5990  2.5973
 2124SOL    HW218006   1.585   1.475   6.484 -2.2567 -1.0130  0.4159
 2125SOL     OW18007   1.163   3.506   7.036  0.4419  0.2787 -0.2189
 2125SOL    HW118008   1.182   3.413   7.026  0.3498  0.4120 -1.6314
 2125SOL    HW218009   1.238   3.539   6.987 -0.1527  0.5893 -0.9359
 2126SOL     OW18010   1.795   1.957  10.467  0.5691  0.2744 -0.0312
 2126SOL    HW118011   1.873   1.977  10.519 -0.0794  1.1924  0.5995
 2126SOL    HW218012   1.729   2.005  10.519 -2.5708 -1.1724 -2.7008
 2127SOL     OW18013   0.472   3.842   1.674  0.1623 -0.7132  0.3352
 2127SOL    HW118014   0.543   3.784   1.700  1.5587  0.1759 -1.4778
 2127SOL    HW218015   0.455   3.808   1.586 -1.7548  0.2846  0.3098
 2128SOL     OW18016   1.799   4.390   0.113 -0.4169  0.2078 -0.1917
 2128SOL    HW118017   1.727   4.444   0.145 -1.5991 -0.5242 -1.5971
 2128SOL    HW218018   1.876   4.423   0.160 -1.5744 -0.4736  2.2019
 2129SOL     OW18019   3.387   0.998   8.106 -0.8395  1.0429  0.0433
 2129SOL    HW118020   3.298   0.964   8.114 -0.2092 -0.1334  2.0387
 2129SOL    HW218021   3.416   0.975   8.018  2.4659  2.1258  0.8486
 2130SOL     OW18022   4.343   0.958   6.544 -0.3065  0.1775 -0.3673
 2130SOL    HW118023   4.382   0.970   6.631  3.1036  4.5628 -2.5368
 2130SOL    HW218024   4.408   0.996   6.485 -1.9557  2.4140 -0.7504
 2131SOL     OW18025   3.091   2.359   2.560  0.2856 -0.7272 -0.1126
 2131SOL    HW118026   3.089   2.310   2.478  1.2939  0.6010 -0.9408
 2131SOL    HW218027   3.030   2.309   2.615 -0.7035 -0.8051 -1.2694
 2132SOL     OW18028   1.994   1.220   3.391  0.0281 -0.1420  0.6646
 2132SOL    HW118029   2.023   1.281   3.322 -1.0370  0.9656  1.1934
 2132SOL    HW218030   1.990   1.137   3.344  1.6940  1.7960 -2.8803
 2133SOL     OW18031   3.369   1.823   3.554 -0.2947  0.3594 -0.0916
 2133SOL    HW118032   3.391   1.886   3.485 -0.4517 -1.8189 -2.1293
 2133SOL    HW218033   3.380   1.734   3.521 -0.0097  0.7621 -1.0829
 2134SOL     OW18034   3.559   4.719   6.254 -0.0666  0.0848 -0.7137
 2134SOL    HW118035   3.546   0.072   6.280  0.9255 -0.1353  0.5387
 2134SOL    HW218036   3.560   4.725   6.159 -0.1248  1.4466 -0.6209
 2135SOL     OW18037   2.992   0.747  11.028 -0.2673  0.1667  0.0660
 2135SOL    HW118038   3.050   0.724  10.956 -0.0666 -1.8493  0.8829
 2135SOL    HW218039   2.905   0.722  10.997 -0.9511  2.4241  0.1122
 2136SOL     OW18040   2.816   0.102   4.902  0.5831  0.4793 -0.0755
 2136SOL    HW118041   2.736   0.064   4.940  0.0523 -0.7786 -2.4140
 2136SOL    HW218042   2.782   0.146   4.824 -0.2292 -2.2300 -1.2860
 2137SOL     OW18043   0.799   0.937   1.859 -0.1603  0.0999 -0.1077
 2137SOL    HW118044   0.784   1.019   1.811 -1.5933  0.6355  1.2548
 2137SOL    HW218045   0.730   0.881   1.823  0.5574 -1.5292  1.0355
 2138SOL     OW18046   1.037   2.818   1.884 -0.2189 -0.3625 -0.5494
 2138SOL    HW118047   0.944   2.829   1.861 -0.3691  0.6358  0.5091
 2138SOL    HW218048   1.047   2.723   1.892 -1.8639 -0.5413 -0.6012
 2139SOL     OW18049   2.717   2.134   3.616  0.5988 -0.3254 -0.0880
 2139SOL    HW118050   2.648   2.068   3.612 -0.7395  1.0887 -0.4682
 2139SOL    HW218051   2.714   2.159   3.524  0.5031 -2.9080 -0.8000
 2140SOL     OW18052   2.222   2.760   1.173  0.2574  0.3100  0.3999
 2140SOL    HW118053   2.306   2.721   1.148  0.7480  2.4818 -1.3764
 2140SOL    HW218054   2.165   2.690   1.141 -0.2567  1.2504 -0.7397
 2141SOL     OW18055   4.500   3.825   6.684  0.7445  0.1749 -0.3810
 2141SOL    HW118056   4.437   3.764   6.646 -0.0748  0.2400  0.8959
 2141SOL    HW218057   4.574   3.809   6.625  1.2525 -2.8764  1.0844
 2142SOL     OW18058   2.520   2.840  14.909  0.6778  0.6953  0.3284
 2142SOL    HW118059   2.552   2.929  14.925 -1.1531  1.2336  1.0171
 2142SOL    HW218060   2.593   2.788  14.941 -1.4167 -1.6885  1.2525
 2143SOL     OW18061   3.850   3.648  10.311 -0.1835 -0.3173  0.4394
 2143SOL    HW118062   3.886   3.614  10.229 -1.5085 -1.3324  0.2834
 2143SOL    HW218063   3.785   3.713  10.283  0.1357  1.2254  3.2672
 2144SOL     OW18064   2.798   0.607  16.196 -0.2114  0.8134 -0.4736
 2144SOL    HW118065   2.883   0.587  16.158 -0.3936 -1.5269  0.3227
 2144SOL    HW218066   2.808   0.579  16.287 -1.5589 -0.5936 -0.7539
 2145SOL     OW18067   1.164   4.546  14.210 -0.2529  0.3499  0.2846
 2145SOL    HW118068   1.256   4.564  14.229  0.8722 -3.2301 -1.6580
 2145SOL    HW218069   1.154   4.610  14.139  0.5298  1.5972  1.2937
 2146SOL     OW18070   1.871   1.437   4.393 -0.3734 -0.2794 -0.1485
 2146SOL    HW118071   1.940   1.496   4.363  0.9071 -2.4872 -1.6096
 2146SOL    HW218072   1.817   1.502   4.437  0.2436 -0.4222  0.8118
 2147SOL     OW18073   2.109   0.135   4.234 -0.2030  0.5165  0.2730
 2147SOL    HW118074   2.102   0.115   4.327 -0.6025  0.8375  0.3083
 2147SOL    HW218075   2.153   0.053   4.208 -1.2795 -0.6404  2.1271
 2148SOL     OW18076   4.406   1.495   8.317  0.9107  0.2655 -0.4367
 2148SOL    HW118077   4.456   1.418   8.343 -0.5908 -0.7975 -0.6434
 2148SOL    HW218078   4.478   1.557   8.320  1.6674 -0.6527  0.0143
 2149SOL     OW18079   2.223   3.674   0.578 -0.0313 -0.0482 -0.4619
 2149SOL    HW118080   2.150   3.689   0.638 -0.3280  0.1368 -0.8604
 2149SOL    HW218081   2.296   3.698   0.634 -0.2220 -1.5294  0.4184
 2150SOL     OW18082   0.095   4.349   7.547 -0.5186 -0.0451 -0.0290
 2150SOL    HW118083   0.087   4.374   7.639 -0.0078  0.4232 -0.1153
 2150SOL    HW218084   0.005   4.362   7.518 -0.9727 -0.1592  1.3501
 2151SOL     OW18085   0.503   3.620   6.324 -0.4362  0.0370 -0.1960
 2151SOL    HW118086   0.598   3.619   6.329 -0.4534 -0.0504  0.1032
 2151SOL    HW218087   0.495   3.668   6.406  1.2308 -0.1257  0.0524
 2152SOL     OW18088   0.450   3.550  10.609 -0.5859 -0.8353  0.0910
 2152SOL    HW118089   0.527   3.506  10.575  0.9191  0.4406  1.8373
 2152SOL    HW218090   0.378   3.503  10.567 -1.4500 -0.0840  0.7241
 2153SOL     OW18091   2.517   3.789  12.000  0.3104 -0.3367 -0.2408
 2153SOL    HW118092   2.501   3.854  11.932  0.5398 -0.5461 -0.4941
 2153SOL    HW218093   2.453   3.812  12.067 -0.6463  1.2049 -1.6974
 2154SOL     OW18094   2.067   1.356   9.397 -0.2736 -0.1191 -0.0090
 2154SOL    HW118095   2.004   1.307   9.450 -0.6256  0.9523  0.5622
 2154SOL    HW218096   2.052   1.445   9.428  3.5241  0.6199 -0.3654
 2155SOL     OW18097   3.870   0.106   6.324  0.2776 -0.8687  0.0638
 2155SOL    HW118098   3.878   0.146   6.237 -0.2271 -0.8100  0.0399
 2155SOL    HW218099   3.898   0.015   6.308  1.5897 -0.1331 -1.8560
 2156SOL     OW18100   4.372   2.047   3.234 -0.4269 -0.4248  0.4964
 2156SOL    HW118101   4.352   2.136   3.207 -1.6919 -0.7975  0.2092
 2156SOL    HW218102   4.461   2.055   3.268 -0.0022 -1.9740 -0.2685
 2157SOL     OW18103   1.248   4.164  11.501  0.0508  0.1287  0.1460
 2157SOL    HW118104   1.343   4.152  11.504  0.0446  0.5106  1.6718
 2157SOL    HW218105   1.234   4.253  11.467 -1.5463 -0.3580 -0.4634
 2158SOL     OW18106   4.071   1.931  11.351  0.3760 -0.6682  0.3165
 2158SOL    HW118107   4.077   1.908  11.258 -2.9536 -2.9511  0.6793
 2158SOL    HW218108   4.149   1.986  11.358  0.3735 -0.4616 -1.2023
 2159SOL     OW18109   1.854   4.238   7.253  0.9089 -0.9204 -0.0509
 2159SOL    HW118110   1.910   4.313   7.274  0.0573 -0.3855  0.2679
 2159SOL    HW218111   1.856   4.184   7.332  0.0760 -1.6287 -0.5069
 2160SOL     OW18112   0.571   0.116   6.582 -0.0617  0.5454  0.1458
 2160SOL    HW118113   0.550   0.196   6.536 -1.5614 -0.3031 -0.6420
 2160SOL    HW218114   0.560   0.064   6.503 -1.5538  1.4815 -0.2522
 2161SOL     OW18115   0.780   0.512  14.392 -0.0353  0.6703 -0.8511
 2161SOL    HW118116   0.688   0.535  14.377 -0.3173  0.5456  0.6869
 2161SOL    HW218117   0.803   0.455  14.319 -1.2252  2.9237 -2.9534
 2162SOL     OW18118   0.885   0.856   7.971 -0.5182 -0.3749 -0.4508
 2162SOL    HW118119   0.882   0.870   8.066 -1.3731 -0.3872 -0.4741
 2162SOL    HW218120   0.966   0.807   7.967  0.1030  0.6043  0.0868
 2163SOL     OW18121   0.224   4.296   1.737 -0.2884 -0.3717  0.5805
 2163SOL    HW118122   0.249   4.365   1.798  0.8070  0.7456 -1.1252
 2163SOL    HW218123   0.282   4.227   1.768 -2.0242 -2.1420 -0.1433
 2164SOL     OW18124   3.652   0.066  10.604 -0.3100 -0.4187 -0.2657
 2164SOL    HW118125   3.737   0.105  10.625  0.6136 -0.4306 -3.9721
 2164SOL    HW218126   3.602   0.116  10.669 -0.0829  0.5121 -0.8135
 2165SOL     OW18127   2.799   2.005   4.445 -0.3440  0.7331  0.0323
 2165SOL    HW118128   2.846   2.049   4.374  3.0517 -5.1968 -1.4102
 2165SOL    HW218129   2.773   1.925   4.400  1.2351 -0.1436  0.7033
 2166SOL     OW18130   0.405   2.196   3.341 -0.0061 -0.3812 -0.0419
 2166SOL    HW118131   0.493   2.179   3.375  0.5782  1.0293 -0.7919
 2166SOL    HW218132   0.383   2.278   3.385 -0.0133 -0.1621 -0.4522
 2167SOL     OW18133   2.980   4.108   3.870  0.1637  0.4898  0.6830
 2167SOL    HW118134   2.943   4.040   3.927 -1.2239  0.8764  0.2372
 2167SOL    HW218135   2.908   4.136   3.814  0.7107  0.7592  0.1151
 2168SOL     OW18136   3.041   3.684  13.826 -0.3902  0.4498 -1.1779
 2168SOL    HW118137   3.010   3.696  13.916  2.3647 -3.2240  0.2643
 2168SOL    HW218138   3.018   3.592  13.817  1.0145  0.0637 -0.9212
 2169SOL     OW18139   2.042   2.153   4.378 -0.4857  0.8529 -0.3358
 2169SOL    HW118140   2.054   2.085   4.444  0.6781  1.7141  0.3327
 2169SOL    HW218141   2.024   2.102   4.298 -1.2900 -0.8046  0.8975
 2170SOL     OW18142   0.920   0.986   4.762  0.9465  0.6123 -0.5942
 2170SOL    HW118143   0.878   1.009   4.844 -0.0728 -2.1114 -0.3580
 2170SOL    HW218144   0.952   1.066   4.721 -2.1579  1.6837 -0.8632
 2171SOL     OW18145   1.953   2.232   3.588  0.4895  0.5409 -0.0125
 2171SOL    HW118146   2.040   2.194   3.599 -1.0356 -3.1235 -0.5457
 2171SOL    HW218147   1.908   2.152   3.561  0.3248  1.4269 -2.3528
 2172SOL     OW18148   2.206   1.829   8.995  0.9002  0.0659  0.2995
 2172SOL    HW118149   2.237   1.762   9.056  0.1500  0.4950  1.1470
 2172SOL    HW218150   2.131   1.866   9.043 -1.5393  0.5703 -3.9061
 2173SOL     OW18151   0.104   1.222  17.688  0.0535 -0.3922 -0.3568
 2173SOL    HW118152   0.114   1.131  17.660  0.1234 -0.1271 -1.1773
 2173SOL    HW218153   0.132   1.262  17.606  0.6137 -2.2266 -1.0751
 2174SOL     OW18154   0.597   4.275   2.929  0.1351 -0.0305  0.3392
 2174SOL    HW118155   0.658   4.346   2.912 -1.4550  0.5705 -2.7186
 2174SOL    HW218156   0.653   4.198   2.913 -0.4014 -0.3230 -0.1265
 2175SOL     OW18157   0.154   2.748  12.062  0.0580  0.5303  1.1215
 2175SOL    HW118158   0.137   2.838  12.033 -0.2282 -0.0831 -0.6195
 2175SOL    HW218159   0.063   2.721  12.049  0.0958  2.0585 -2.4583
 2176SOL     OW18160   0.313   2.428  11.148  0.3566  0.0270 -0.3138
 2176SOL    HW118161   0.246   2.386  11.202 -0.7184 -0.7210 -2.2504
 2176SOL    HW218162   0.361   2.352  11.115 -1.0586 -0.4330 -1.3154
 2177SOL     OW18163   3.018   4.400  15.965  0.1275  0.1061  0.2089
 2177SOL    HW118164   3.100   4.422  15.922  0.1937 -1.2851 -0.3822
 2177SOL    HW218165   3.017   4.447  16.048  1.2516  0.9783 -0.2874
 2178SOL     OW18166   3.624   2.859  14.701  0.4671 -0.2120  0.1484
 2178SOL    HW118167   3.618   2.897  14.614 -0.1229 -1.8244 -0.5011
 2178SOL    HW218168   3.705   2.895  14.737  1.0923 -0.4756 -1.0057
 2179SOL     OW18169   4.458   1.803   4.407 -0.5881 -0.1924  0.1255
 2179SOL    HW118170   4.511   1.873   4.368 -1.1501  1.3993  2.2544
 2179SOL    HW218171   4.375   1.850   4.408 -0.1727  0.5058  1.2221
 2180SOL     OW18172   1.821   2.157   5.063 -0.1500  0.3417  0.1112
 2180SOL    HW118173   1.756   2.097   5.025 -0.3887 -1.0177  2.6430
 2180SOL    HW218174   1.889   2.152   4.995  0.2495  0.4807  0.5041
 2181SOL     OW18175   1.769   2.911   3.626 -0.1410  0.3945  0.2635
 2181SOL    HW118176   1.711   2.835   3.620 -0.7862  0.8907  0.1191
 2181SOL    HW218177   1.722   2.985   3.586  1.1554  0.4610 -1.1652
 2182SOL     OW18178   0.745   3.550   8.277  0.3670  0.3741 -0.2207
 2182SOL    HW118179   0.657   3.586   8.283  0.9123  1.3143  2.3550
 2182SOL    HW218180   0.783   3.608   8.211 -2.5515  2.9754  0.3893
 2183SOL     OW18181   0.735   0.308  13.205  0.8598  0.8266  0.6056
 2183SOL    HW118182   0.693   0.341  13.125  1.8382 -0.1820 -0.3318
 2183SOL    HW218183   0.756   0.220  13.173 -0.3216  0.5673  0.5684
 2184SOL     OW18184   1.040   0.397   7.214 -0.0152 -0.4331 -0.0279
 2184SOL    HW118185   1.117   0.342   7.226 -0.9554 -1.0247  3.1747
 2184SOL    HW218186   0.984   0.356   7.148 -0.0299  0.2066 -0.4086
 2185SOL     OW18187   3.670   1.895  17.505  0.0059  0.3461  0.6077
 2185SOL    HW118188   3.624   1.947  17.570  1.9459  2.9321 -0.0787
 2185SOL    HW218189   3.687   1.818  17.559  1.9047 -0.0933 -0.5879
 2186SOL     OW18190   3.340   1.647   5.875  0.1638  0.3565 -0.4209
 2186SOL    HW118191   3.395   1.700   5.933  2.0717 -0.7412 -1.2088
 2186SOL    HW218192   3.365   1.557   5.897  2.5037  1.3886  1.1560
 2187SOL     OW18193   0.145   4.509   9.450  0.0290 -0.1798 -0.3527
 2187SOL    HW118194   0.051   4.509   9.435 -0.0616  0.5875  0.2267
 2187SOL    HW218195   0.163   4.466   9.366  1.8011  0.2403 -0.1900
 2188SOL     OW18196   0.301   2.541  16.484 -0.2588 -0.1073  0.2616
 2188SOL    HW118197   0.290   2.626  16.526 -2.6273 -0.7740  0.9706
 2188SOL    HW218198   0.267   2.474  16.542 -0.0024  1.0381  1.7291
 2189SOL     OW18199   1.313   2.032  12.519  0.2573  0.0355 -0.4036
 2189SOL    HW118200   1.249   1.972  12.559 -1.7949  1.9339 -0.8413
 2189SOL    HW218201   1.297   2.017  12.426 -1.1643  1.0887 -0.3356
 2190SOL     OW18202   2.439   3.557   0.285  0.3916  0.0192 -0.1072
 2190SOL    HW118203   2.470   3.614   0.355 -1.7525  1.2838 -0.1828
 2190SOL    HW218204   2.523   3.519   0.259  0.7124 -1.9357  3.8248
 2191SOL     OW18205   4.266   0.517   7.102  0.4399  0.1300 -0.4139
 2191SOL    HW118206   4.187   0.479   7.066  2.0641 -2.4955 -1.2268
 2191SOL    HW218207   4.324   0.538   7.029 -0.7594  2.1588 -0.7720
 2192SOL     OW18208   2.872   4.546   3.029  0.0733  0.1237 -0.1895
 2192SOL    HW118209   2.876   4.485   2.955 -0.0076 -0.2359  0.1030
 2192SOL    HW218210   2.907   4.622   2.983 -2.4791  1.4932  0.1096
 2193SOL     OW18211   0.459   4.494   3.342  0.3126 -0.4275  0.3304
 2193SOL    HW118212   0.425   4.467   3.257  0.2319  1.2256 -0.1620
 2193SOL    HW218213   0.537   4.540   3.311  1.0550 -1.1417  1.1530
 2194SOL     OW18214   0.840   2.683  14.997 -0.1792 -0.5109  0.3227
 2194SOL    HW118215   0.829   2.755  14.935  1.3832 -0.1153  0.4857
 2194SOL    HW218216   0.753   2.644  14.995  0.3682 -1.7780  0.8985
 2195SOL     OW18217   0.570   0.922   2.061 -0.8403  0.1287 -0.3892
 2195SOL    HW118218   0.625   0.930   1.983 -0.2426 -1.3347 -0.1191
 2195SOL    HW218219   0.558   0.828   2.052  0.6348 -0.2298  1.4081
 2196SOL     OW18220   3.488   1.483   1.908  0.2417 -0.1034 -0.5275
 2196SOL    HW118221   3.459   1.502   1.998  0.0645  1.4664 -0.9150
 2196SOL    HW218222   3.555   1.418   1.925 -0.8074 -1.0040  0.2104
 2197SOL     OW18223   2.518   4.562   6.248 -0.1183  0.5110 -0.0778
 2197SOL    HW118224   2.588   4.555   6.313 -0.3994 -1.9086 -0.0479
 2197SOL    HW218225   2.539   4.485   6.195 -0.3501  0.8958 -0.7406
 2198SOL     OW18226   4.244   3.907   8.942  0.0015  0.2755  0.3709
 2198SOL    HW118227   4.205   3.931   8.858 -0.0431 -1.2495 -0.0514
 2198SOL    HW218228   4.167   3.913   8.999 -1.5362  0.9030 -1.7818
 2199SOL     OW18229   3.116   1.784  13.675  0.2732  0.5163  0.0120
 2199SOL    HW118230   3.062   1.823  13.607  1.3190  1.0629 -0.5020
 2199SOL    HW218231   3.058   1.761  13.748  1.8915 -0.3443  1.0243
 2200SOL     OW18232   2.028   3.925   3.007 -0.2175 -0.5767  0.0113
 2200SOL    HW118233   2.101   3.962   3.055 -1.5472  0.4341  1.2743
 2200SOL    HW218234   1.958   3.958   3.063 -0.1890  0.6519 -0.6841
 2201SOL     OW18235   3.096   0.070  12.516  0.5108 -0.1526  0.0410
 2201SOL    HW118236   3.044   0.146  12.492 -0.7840 -0.4479  1.9298
 2201SOL    HW218237   3.161   0.074  12.446 -1.7516 -0.6147 -2.1014
 2202SOL     OW18238   4.453   3.677  15.074 -0.1153 -0.0506 -0.4804
 2202SOL    HW118239   4.544   3.651  15.057 -0.3311 -1.0273 -0.1041
 2202SOL    HW218240   4.433   3.705  14.984  0.7255  0.5964 -0.4681
 2203SOL     OW18241   3.344   3.219   5.619  0.3384 -0.4354 -0.2874
 2203SOL    HW118242   3.381   3.196   5.704  0.8259 -1.7096 -0.8324
 2203SOL    HW218243   3.251   3.227   5.638 -0.0095 -0.7059 -1.8358
 2204SOL     OW18244   4.341   4.478   2.614  0.2018 -0.2979 -0.5437
 2204SOL    HW118245   4.359   4.556   2.666 -1.0988  0.6974 -1.5835
 2204SOL    HW218246   4.353   4.521   2.529  0.7069  1.4735  0.4328
 2205SOL     OW18247   2.341   1.681   4.282  0.3575  0.0157 -0.2261
 2205SOL    HW118248   2.363   1.639   4.199 -1.8019 -0.4934 -0.5461
 2205SOL    HW218249   2.421   1.668   4.331 -0.6260  0.0361  1.3815
 2206SOL     OW18250   4.269   4.259  12.614  0.0141 -0.2726  0.4237
 2206SOL    HW118251   4.275   4.314  12.537 -0.5993  0.5985  1.0020
 2206SOL    HW218252   4.181   4.223  12.599  0.3975 -1.3686  0.7742
 2207SOL     OW18253   0.981   2.984  10.280  0.1839 -0.3957  0.4463
 2207SOL    HW118254   0.939   3.046  10.220  2.2726  0.1116 -0.4667
 2207SOL    HW218255   0.937   2.899  10.274  3.9204 -2.1996 -0.7888
 2208SOL     OW18256   0.708   1.855  10.268 -0.0021 -0.4756  0.3606
 2208SOL    HW118257   0.781   1.814  10.314  0.4136 -0.8064 -0.5909
 2208SOL    HW218258   0.752   1.906  10.200  0.6962 -0.4466  0.8365
 2209SOL     OW18259   2.142   3.086   6.282 -0.0069  0.4733  0.1189
 2209SOL    HW118260   2.082   3.011   6.286  1.3111 -0.5948 -0.1258
 2209SOL    HW218261   2.127   3.108   6.190 -0.3162 -1.5639 -0.3246
 2210SOL     OW18262   1.908   2.306   8.174 -0.5857  0.2305  0.3644
 2210SOL    HW118263   1.845   2.313   8.246  0.0763 -0.1231  0.9751
 2210SOL    HW218264   1.945   2.218   8.180 -0.3622  0.3532  0.8316
 2211SOL     OW18265   0.673   0.927   3.620 -0.2666 -0.6980 -0.0370
 2211SOL    HW118266   0.690   0.983   3.545  1.3921 -3.2250 -1.5356
 2211SOL    HW218267   0.755   0.880   3.635 -2.8424 -3.8142  4.4457
 2212SOL     OW18268   2.150   4.488  15.026  0.3164  0.3397 -0.2588
 2212SOL    HW118269   2.150   4.468  15.120 -1.2921  0.7942 -0.1576
 2212SOL    HW218270   2.105   4.572  15.030 -2.6638 -1.1755 -1.7667
 2213SOL     OW18271   2.836   2.653   3.917  0.3117  0.1919  0.3583
 2213SOL    HW118272   2.807   2.582   3.859  1.5388  0.6633 -0.8240
 2213SOL    HW218273   2.917   2.683   3.877 -1.0029  3.2591  0.0578
 2214SOL     OW18274   0.917   3.043   3.421  0.4352  0.2406 -0.2596
 2214SOL    HW118275   0.873   3.110   3.370 -0.3177  0.2219  0.3633
 2214SOL    HW218276   1.009   3.065   3.411 -0.7417  5.1276 -0.3050
 2215SOL     OW18277   1.994   3.030   2.452 -0.2234 -0.8857 -0.2442
 2215SOL    HW118278   2.066   2.984   2.497  0.7640  1.8036  0.9189
 2215SOL    HW218279   2.018   3.028   2.360 -1.7933 -0.8126 -0.6555
 2216SOL     OW18280   2.217   3.701   1.313 -0.9127  0.2362 -0.0089
 2216SOL    HW118281   2.295   3.740   1.354 -0.3284 -1.6512  0.6626
 2216SOL    HW218282   2.149   3.746   1.364 -0.1554  0.4027  0.8718
 2217SOL     OW18283   1.423   1.877   7.166 -0.3101  0.1930  0.4877
 2217SOL    HW118284   1.380   1.807   7.117  0.4931  0.1420 -0.1538
 2217SOL    HW218285   1.505   1.881   7.117 -0.5641 -1.9314 -0.1160
 2218SOL     OW18286   0.518   2.973   8.443  0.1262  0.2984 -0.4576
 2218SOL    HW118287   0.457   2.943   8.511  0.9951  1.2063  0.7269
 2218SOL    HW218288   0.578   3.015   8.505  0.7917 -1.2152 -0.0908
 2219SOL     OW18289   3.104   0.845   6.434 -0.1877  0.1531 -0.3278
 2219SOL    HW118290   3.123   0.874   6.345 -1.0608 -1.1386 -0.9237
 2219SOL    HW218291   3.077   0.755   6.418  0.9009 -0.4107  0.9792
 2220SOL     OW18292   3.572   3.266   3.685  0.4557 -0.0943 -0.4979
 2220SOL    HW118293   3.591   3.239   3.774 -2.2463  2.9577  1.0161
 2220SOL    HW218294   3.603   3.190   3.636 -0.9573 -0.2707 -1.1326
 2221SOL     OW18295   2.504   3.673   4.139  0.1179  0.0157  0.1976
 2221SOL    HW118296   2.526   3.586   4.106  0.7799  0.8745 -1.6260
 2221SOL    HW218297   2.436   3.717   4.088  1.3750  1.0853 -0.5530
 2222SOL     OW18298   3.951   1.922   3.339  0.8503  0.1477 -0.3565
 2222SOL    HW118299   3.945   1.973   3.258  0.7700  1.4160  0.4280
 2222SOL    HW218300   4.020   1.860   3.320  1.7700  0.7220  1.0739
 2223SOL     OW18301   0.484   1.254  13.011 -0.2807  0.0574  0.7138
 2223SOL    HW118302   0.489   1.347  12.986 -1.0675 -0.2504 -0.5944
 2223SOL    HW218303   0.469   1.216  12.925 -4.3912  0.4692  1.2387
 2224SOL     OW18304   2.174   0.127   6.435  0.1051 -0.4931  0.6216
 2224SOL    HW118305   2.116   0.203   6.435  1.8848  0.8945 -0.1041
 2224SOL    HW218306   2.119   0.073   6.491  0.4967 -1.9047 -0.3495
 2225SOL     OW18307   4.046   2.708   2.618 -0.1182  0.1141  0.4425
 2225SOL    HW118308   4.069   2.722   2.710  0.4220 -0.7094  0.4348
 2225SOL    HW218309   3.963   2.660   2.622 -1.0528  1.7760  0.6994
 2226SOL     OW18310   3.864   3.251  10.552 -0.5925  0.1339 -0.6500
 2226SOL    HW118311   3.902   3.315  10.612 -0.5890  0.1123 -0.6292
 2226SOL    HW218312   3.902   3.173  10.594 -0.4640  0.5032 -0.0819
 2227SOL     OW18313   0.807   1.329  16.666 -0.3018 -0.1078 -0.0780
 2227SOL    HW118314   0.845   1.241  16.661 -0.2223 -0.0240 -1.0162
 2227SOL    HW218315   0.801   1.337  16.570  2.0947  0.9527 -0.1358
 2228SOL     OW18316   0.605   0.183   3.806 -0.3394 -0.7216 -0.3959
 2228SOL    HW118317   0.651   0.156   3.726 -0.0021 -2.8739  0.5265
 2228SOL    HW218318   0.566   0.258   3.760 -0.8977 -1.3625 -0.9767
 2229SOL     OW18319   1.913   0.842   4.366  0.3216  0.3248 -0.3372
 2229SOL    HW118320   1.987   0.785   4.345 -0.4486 -0.9607  0.4674
 2229SOL    HW218321   1.893   0.874   4.278 -0.3581 -0.2281 -0.3862
 2230SOL     OW18322   1.563   4.468   6.347  0.0970 -0.2905 -0.2374
 2230SOL    HW118323   1.547   4.561   6.334 -0.5048 -0.3370  0.2056
 2230SOL    HW218324   1.539   4.426   6.264  1.5862  0.0251 -0.8399
 2231SOL     OW18325   1.621   3.054  12.231 -0.3723 -0.5844 -0.1178
 2231SOL    HW118326   1.575   3.001  12.296  0.0696  1.3416  1.7604
 2231SOL    HW218327   1.708   3.051  12.271 -0.6758 -0.8622  0.5192
 2232SOL     OW18328   4.229   3.886   2.480 -0.2121  0.1187  0.4289
 2232SOL    HW118329   4.213   3.823   2.551  0.7155 -0.1220  0.4355
 2232SOL    HW218330   4.218   3.974   2.516  1.0330  0.3232  0.3041
 2233SOL     OW18331   3.912   1.001   5.529  0.2778  0.0546  0.5599
 2233SOL    HW118332   3.914   1.058   5.605  0.6770  1.0529 -0.2034
 2233SOL    HW218333   3.870   0.922   5.563 -0.6315  0.3905  0.2014
 2234SOL     OW18334   2.271   0.404   7.324 -0.5324 -0.2303 -0.7910
 2234SOL    HW118335   2.302   0.474   7.382 -0.9508 -0.0740 -0.7516
 2234SOL    HW218336   2.352   0.362   7.297  0.2064 -0.9424  2.4951
 2235SOL     OW18337   0.035   3.140   9.546  0.0163  0.5669  0.0801
 2235SOL    HW118338   0.125   3.142   9.513  0.5353 -1.5161  1.3349
 2235SOL    HW218339   0.014   3.046   9.546  1.6330  0.2057  0.4555
 2236SOL     OW18340   2.164   0.073   6.790  0.1502 -0.1349  0.2387
 2236SOL    HW118341   2.074   0.076   6.759 -0.3236  1.4925  1.7427
 2236SOL    HW218342   2.181   4.725   6.827 -0.6815 -0.4930 -0.2197
 2237SOL     OW18343   1.069   1.050   6.654 -1.0440  0.4247 -0.2985
 2237SOL    HW118344   1.148   1.056   6.600  1.0179  1.2420  2.8207
 2237SOL    HW218345   1.082   0.972   6.708  0.3436  1.4311  0.8139
 2238SOL     OW18346   1.250   1.923   5.092 -0.1808  0.0395 -0.3491
 2238SOL    HW118347   1.211   1.836   5.102 -1.4759  0.6762  0.0977
 2238SOL    HW218348   1.230   1.939   4.999 -1.2424  4.0562  0.5662
 2239SOL     OW18349   0.019   2.147   5.173  0.3594 -0.1826  0.1216
 2239SOL    HW118350   4.725   2.115   5.088  1.6083 -1.6252  0.1980
 2239SOL    HW218351   0.103   2.101   5.169 -0.3145 -1.1926 -2.9760
 2240SOL     OW18352   3.356   3.503  17.425 -1.1349  0.4168  0.2897
 2240SOL    HW118353   3.308   3.421  17.424 -0.9081  0.2984 -0.9506
 2240SOL    HW218354   3.427   3.476  17.484  0.1776 -0.3436 -1.6475
 2241SOL     OW18355   2.573   3.042   1.931  0.4734 -0.2709  0.2049
 2241SOL    HW118356   2.504   3.106   1.913 -0.0022  0.1352  3.3471
 2241SOL    HW218357   2.594   3.077   2.018 -1.0371 -0.4580  0.6447
 2242SOL     OW18358   2.204   3.800  10.559  0.3303 -0.2693  0.3934
 2242SOL    HW118359   2.255   3.723  10.532  0.3824 -0.0475 -0.1507
 2242SOL    HW218360   2.277   3.854  10.589 -0.1049 -0.7464  2.3304
 2243SOL     OW18361   3.875   0.028   0.485  0.7336  0.0375  0.3008
 2243SOL    HW118362   3.955   0.001   0.529  1.3984 -2.0585 -2.1487
 2243SOL    HW218363   3.835   0.082   0.553  1.5032 -0.6408  1.2819
 2244SOL     OW18364   1.617   2.234   5.249  0.0962 -0.1533  0.3155
 2244SOL    HW118365   1.690   2.196   5.201 -0.7489 -0.5471 -0.6523
 2244SOL    HW218366   1.554   2.242   5.177 -0.4478 -1.6250  0.6325
 2245SOL     OW18367   0.826   1.963   8.083 -0.0656  0.0577  0.3751
 2245SOL    HW118368   0.884   1.892   8.110 -1.0759 -0.3041  1.6237
 2245SOL    HW218369   0.803   2.013   8.161  1.7482 -0.3147  1.1325
 2246SOL     OW18370   3.971   3.734  12.289  0.2685  0.6367 -0.1658
 2246SOL    HW118371   3.927   3.721  12.205  2.4258  0.5252 -1.2550
 2246SOL    HW218372   3.948   3.650  12.330  0.7639  0.1740 -0.8513
 2247SOL     OW18373   0.462   2.568   2.596  0.6964  0.0328  0.1877
 2247SOL    HW118374   0.490   2.479   2.574 -1.1919 -1.0616  2.3208
 2247SOL    HW218375   0.488   2.578   2.687  3.4951 -1.1442 -0.4722
 2248SOL     OW18376   1.663   2.668   8.673  0.2129 -0.4046  0.1372
 2248SOL    HW118377   1.753   2.661   8.642 -0.1352 -1.5476 -0.5840
 2248SOL    HW218378   1.626   2.737   8.618  0.1435 -0.0191  0.6686
 2249SOL     OW18379   1.599   2.639  16.584  0.3196 -0.1965 -0.5264
 2249SOL    HW118380   1.630   2.625  16.494  1.1113  1.4275 -0.4994
 2249SOL    HW218381   1.517   2.684  16.562  0.4033  0.0824 -0.2499
 2250SOL     OW18382   2.581   1.109   2.246 -0.2814 -0.5731 -0.4900
 2250SOL    HW118383   2.567   1.025   2.203 -0.6417  0.8477 -3.1229
 2250SOL    HW218384   2.650   1.150   2.193 -1.0298  1.9160  0.4652
 2251SOL     OW18385   3.188   4.431   8.828 -0.4619  0.4495 -0.3085
 2251SOL    HW118386   3.169   4.358   8.769 -0.7432 -0.9487  1.4674
 2251SOL    HW218387   3.211   4.377   8.905 -0.0837  1.5437  0.3437
 2252SOL     OW18388   3.097   3.962  10.409 -0.3528 -0.5555  0.0492
 2252SOL    HW118389   3.188   3.968  10.380 -0.1617  1.5895  1.0614
 2252SOL    HW218390   3.063   4.009  10.333 -0.0195  0.7178  0.6983
 2253SOL     OW18391   0.017   1.774   5.006 -0.3420 -0.5582 -0.4751
 2253SOL    HW118392   0.031   1.756   5.098  0.0045 -1.1911 -0.6538
 2253SOL    HW218393   4.660   1.778   5.014 -0.2309 -1.3411  1.2226
 2254SOL     OW18394   4.582   0.779  10.414  0.1196 -0.2224  0.3642
 2254SOL    HW118395   4.517   0.793  10.483 -1.7892 -5.2172 -0.3581
 2254SOL    HW218396   4.631   0.718  10.469  1.7873  0.7178 -0.0977
 2255SOL     OW18397   3.288   2.406   5.080 -0.2723 -0.6366  0.4624
 2255SOL    HW118398   3.206   2.412   5.129 -0.5539 -1.6225  0.1216
 2255SOL    HW218399   3.252   2.374   4.997  1.9580 -0.4625 -0.5797
 2256SOL     OW18400   4.225   1.477   7.369  0.3932 -0.5545  0.0123
 2256SOL    HW118401   4.176   1.559   7.376  0.1799 -0.6995  0.1970
 2256SOL    HW218402   4.282   1.477   7.446  2.5870 -1.2211 -1.5765
 2257SOL     OW18403   1.521   3.913   0.294 -0.0990  0.3770  0.5205
 2257SOL    HW118404   1.548   3.841   0.352  0.1208 -0.4239 -0.5831
 2257SOL    HW218405   1.601   3.965   0.288 -0.2294  0.8031  2.4376
 2258SOL     OW18406   1.585   0.894   1.709 -1.0264  0.2274  0.3138
 2258SOL    HW118407   1.623   0.883   1.796  1.3071 -0.4421 -0.7778
 2258SOL    HW218408   1.506   0.944   1.729 -0.2285  0.9095  1.7926
 2259SOL     OW18409   3.498   4.592   7.342  0.0384  0.0798 -0.4793
 2259SOL    HW118410   3.505   4.644   7.422  2.3077 -0.7334 -0.1404
 2259SOL    HW218411   3.410   4.559   7.358  0.9381 -1.3392  1.5460
 2260SOL     OW18412   1.549   4.010   7.105  0.4196 -0.1204  0.3925
 2260SOL    HW118413   1.501   4.090   7.128  0.5243  0.4952 -1.4758
 2260SOL    HW218414   1.536   3.955   7.182  0.1869 -1.5201 -0.6511
 2261SOL     OW18415   3.774   2.521   4.547 -0.2008 -0.0780  0.3943
 2261SOL    HW118416   3.797   2.560   4.462 -2.0398 -0.5768 -0.3150
 2261SOL    HW218417   3.695   2.568   4.570  1.4156  1.7257  2.2675
 2262SOL     OW18418   2.560   1.653   5.693 -0.0020  0.9185 -0.1285
 2262SOL    HW118419   2.577   1.716   5.764  1.2058  2.0223 -1.4069
 2262SOL    HW218420   2.550   1.576   5.749  1.8344 -1.3703 -2.9734
 2263SOL     OW18421   4.028   2.866   3.525  0.1653 -0.2051 -0.5944
 2263SOL    HW118422   4.097   2.893   3.586 -0.4787  2.6476 -1.1696
 2263SOL    HW218423   3.968   2.940   3.536 -0.1548 -0.2286 -2.2770
 2264SOL     OW18424   1.471   1.529   7.866  0.0594 -0.3639  0.7346
 2264SOL    HW118425   1.444   1.467   7.798 -0.6766  0.0391  0.6598
 2264SOL    HW218426   1.405   1.508   7.932  0.1303  0.4260  1.0597
 2265SOL     OW18427   2.516   0.212   2.131 -0.5005 -0.3351  0.2445
 2265SOL    HW118428   2.495   0.125   2.166 -0.4471  0.0694  1.2781
 2265SOL    HW218429   2.441   0.254   2.174 -1.9765 -1.3975 -1.3066
 2266SOL     OW18430   2.167   2.527   6.477 -0.0038 -0.3211  0.4009
 2266SOL    HW118431   2.165   2.582   6.556  0.3435 -0.1660  0.3011
 2266SOL    HW218432   2.209   2.582   6.411 -0.0272  0.6240  1.1810
 2267SOL     OW18433   0.593   3.641   4.782  0.0289 -0.7234  0.5170
 2267SOL    HW118434   0.519   3.607   4.832 -0.0368 -1.2942  0.0383
 2267SOL    HW218435   0.663   3.577   4.795 -0.4138 -1.5144 -0.9206
 2268SOL     OW18436   2.816   4.439   5.560  0.3070 -0.1377 -0.4416
 2268SOL    HW118437   2.758   4.405   5.629  1.5327 -0.4769  0.4387
 2268SOL    HW218438   2.763   4.425   5.482 -0.2246  0.0783 -0.1231
 2269SOL     OW18439   1.143   2.140   4.141 -0.3975 -0.0668  0.0027
 2269SOL    HW118440   1.152   2.168   4.232 -1.2059  0.5906 -0.1173
 2269SOL    HW218441   1.097   2.215   4.103 -0.5218 -0.5270 -0.7630
 2270SOL     OW18442   1.381   3.871  14.912  0.4792 -0.2054  0.5172
 2270SOL    HW118443   1.381   3.902  15.003 -0.1868  0.0987  0.4169
 2270SOL    HW218444   1.378   3.951  14.859 -0.2898 -0.6989 -0.1790
 2271SOL     OW18445   2.742   3.432   8.739 -0.3566 -0.4625 -0.0290
 2271SOL    HW118446   2.803   3.375   8.786 -0.8936  0.3464  1.6492
 2271SOL    HW218447   2.705   3.382   8.666 -2.2356 -1.1708  1.4141
 2272SOL     OW18448   2.906   1.499  14.864 -0.6610 -0.7110 -0.8627
 2272SOL    HW118449   2.851   1.569  14.829  0.9875  0.5294 -1.0201
 2272SOL    HW218450   2.834   1.445  14.897 -0.8838  0.6177  0.8360
 2273SOL     OW18451   2.487   1.668   6.623  0.5512  0.1569 -0.1880
 2273SOL    HW118452   2.548   1.691   6.694  0.2161 -0.4195  0.2823
 2273SOL    HW218453   2.418   1.649   6.687  0.9602 -0.8904 -0.0658
 2274SOL     OW18454   3.868   0.601   4.308  0.4469 -0.5583 -0.1145
 2274SOL    HW118455   3.916   0.558   4.238 -2.4095  0.0774 -2.4535
 2274SOL    HW218456   3.925   0.593   4.385  0.7633 -1.0460 -0.4024
 2275SOL     OW18457   2.911   1.945   4.016  0.1411 -0.5372 -0.0237
 2275SOL    HW118458   2.879   1.859   4.040 -1.2614 -0.0559 -0.1828
 2275SOL    HW218459   2.905   1.920   3.923 -1.8530  1.8285 -0.5437
 2276SOL     OW18460   3.124   0.346  16.546 -0.2444  0.5018  0.6106
 2276SOL    HW118461   3.052   0.394  16.587 -0.5595  1.8410 -1.5111
 2276SOL    HW218462   3.149   0.413  16.483 -1.4681 -0.4334 -0.8894
 2277SOL     OW18463   4.489   3.588   7.632  0.4412 -0.4195 -0.4620
 2277SOL    HW118464   4.572   3.547   7.607  2.2329  0.0385  4.6966
 2277SOL    HW218465   4.519   3.678   7.643  2.3008 -1.1129  0.1941
 2278SOL     OW18466   0.752   0.070   0.752  0.1304  0.7001 -0.1018
 2278SOL    HW118467   0.687   0.040   0.816 -1.3089  1.8189 -1.0495
 2278SOL    HW218468   0.762   0.163   0.777  0.6080  1.4249 -3.0369
 2279SOL     OW18469   3.987   2.122   2.096 -0.0431  0.8723 -0.6776
 2279SOL    HW118470   3.952   2.048   2.145 -1.7995  0.6667 -2.2553
 2279SOL    HW218471   4.061   2.153   2.148 -0.4930  1.0893 -0.1681
 2280SOL     OW18472   3.821   4.460   4.899  0.2017  0.1555 -0.0281
 2280SOL    HW118473   3.817   4.525   4.969 -2.3182  2.0225 -1.9002
 2280SOL    HW218474   3.821   4.522   4.827 -0.0994  0.5374  0.3010
 2281SOL     OW18475   2.040   1.178   5.342 -0.4935  0.1544  0.2073
 2281SOL    HW118476   2.090   1.118   5.397 -0.0901 -3.2707 -3.9932
 2281SOL    HW218477   2.071   1.149   5.257 -0.0901  0.9384  0.0897
 2282SOL     OW18478   2.425   2.362   5.454  0.2448 -0.0291  0.1849
 2282SOL    HW118479   2.358   2.300   5.424  0.2271 -0.7816  1.7831
 2282SOL    HW218480   2.467   2.387   5.372 -1.5606 -2.3497 -1.4547
 2283SOL     OW18481   3.146   4.152   2.737 -0.4349  0.0666  0.4910
 2283SOL    HW118482   3.083   4.138   2.667 -0.4776  2.3247  0.1036
 2283SOL    HW218483   3.226   4.108   2.707  0.2013  1.5354  0.0443
 2284SOL     OW18484   1.506   3.339  17.506 -0.0292 -0.7149  0.0675
 2284SOL    HW118485   1.473   3.428  17.491  1.3603 -0.1122  0.4979
 2284SOL    HW218486   1.492   3.306  17.417 -0.5035  0.0841 -0.1535
 2285SOL     OW18487   0.331   4.103  17.464 -0.0475  0.0485 -0.6340
 2285SOL    HW118488   0.376   4.026  17.430 -1.6680 -0.0604 -2.5241
 2285SOL    HW218489   0.238   4.084  17.449 -0.0296 -1.7067  1.5382
 2286SOL     OW18490   3.196   2.181   6.018 -0.2445  0.1752  0.2996
 2286SOL    HW118491   3.283   2.193   5.979 -0.6133 -0.1505 -0.6385
 2286SOL    HW218492   3.206   2.238   6.094  1.0414  0.8317 -0.3649
 2287SOL     OW18493   2.242   3.819   8.166  0.2640 -0.0474 -0.2360
 2287SOL    HW118494   2.165   3.763   8.178  1.0337 -0.9384  0.5328
 2287SOL    HW218495   2.254   3.833   8.072 -0.4811 -2.3252 -0.6818
 2288SOL     OW18496   3.476   3.101   5.418  0.1795 -0.1267 -0.0216
 2288SOL    HW118497   3.426   3.133   5.493 -2.6865 -1.9966 -1.1308
 2288SOL    HW218498   3.468   3.178   5.362 -0.9125 -1.6546 -1.9682
 2289SOL     OW18499   3.021   4.123   6.206 -0.1063 -0.2136 -0.1216
 2289SOL    HW118500   3.055   4.034   6.217  0.1807  0.0157  0.7946
 2289SOL    HW218501   3.104   4.170   6.215  1.1177 -2.9055  2.3856
 2290SOL     OW18502   0.026   4.244   0.011  0.2057  0.1682  0.1443
 2290SOL    HW118503   4.706   4.273   0.082 -0.1988 -1.8360  0.6218
 2290SOL    HW218504   0.109   4.260   0.055  0.7053 -0.7156 -0.4699
 2291SOL     OW18505   2.872   0.727   2.693 -0.0770  0.3007 -0.1967
 2291SOL    HW118506   2.937   0.658   2.702 -2.3068 -1.6029  1.3394
 2291SOL    HW218507   2.812   0.685   2.631 -0.3841  2.4457 -1.3353
 2292SOL     OW18508   4.628   1.833  14.941  0.0213 -0.4524  0.5936
 2292SOL    HW118509   4.678   1.896  14.993  1.6183 -2.0700  1.0261
 2292SOL    HW218510   4.643   1.862  14.851 -1.6949 -0.7189  0.2169
 2293SOL     OW18511   0.437   1.976  13.935  0.0986  0.0453 -0.0935
 2293SOL    HW118512   0.501   1.983  13.865  0.0657  1.8911  0.0422
 2293SOL    HW218513   0.383   1.904  13.903  1.9191 -1.7348  0.8636
 2294SOL     OW18514   2.476   0.790   5.264  0.0828 -0.0841 -0.1276
 2294SOL    HW118515   2.422   0.755   5.193  1.4250  0.1614 -1.2672
 2294SOL    HW218516   2.454   0.883   5.254 -0.0083  0.0425  1.1504
 2295SOL     OW18517   4.338   2.240   8.310 -0.5274 -0.0618 -0.2001
 2295SOL    HW118518   4.340   2.221   8.216 -0.0424  0.6152 -0.3257
 2295SOL    HW218519   4.352   2.335   8.312 -0.0575 -0.2134  3.5971
 2296SOL     OW18520   2.303   2.636   8.704  0.8327  0.4219 -0.1593
 2296SOL    HW118521   2.250   2.704   8.747  1.0210  0.1536  0.5044
 2296SOL    HW218522   2.322   2.578   8.778 -1.0880  0.7482  0.5777
 2297SOL     OW18523   4.246   1.935  16.479  0.6291  0.1940 -0.6000
 2297SOL    HW118524   4.151   1.920  16.476  0.5393  1.1338 -2.7528
 2297SOL    HW218525   4.247   2.030  16.469  0.4991  0.4653  1.9061
 2298SOL     OW18526   2.389   0.731   5.694  0.0160  0.0774  0.2184
 2298SOL    HW118527   2.401   0.755   5.786  2.3164 -1.0124  0.1782
 2298SOL    HW218528   2.437   0.796   5.643 -0.2271 -0.7839 -1.1056
 2299SOL     OW18529   0.998   0.412   4.881  0.1545 -0.3818 -0.3666
 2299SOL    HW118530   0.905   0.415   4.904  0.4317  1.0258  0.5111
 2299SOL    HW218531   0.996   0.355   4.804 -1.6293  1.4842 -1.7041
 2300SOL     OW18532   2.273   0.053  11.781 -0.1264 -0.1073 -0.0045
 2300SOL    HW118533   2.301   4.732  11.711 -1.0299 -1.6401  0.9016
 2300SOL    HW218534   2.182   0.023  11.791 -0.4641  1.3307  1.2099
 2301SOL     OW18535   4.463   0.066  14.824  0.0651 -0.1067 -0.3494
 2301SOL    HW118536   4.382   0.022  14.849  0.9418 -0.3090  2.0909
 2301SOL    HW218537   4.511   0.002  14.772 -3.7988 -1.6868 -2.0301
 2302SOL     OW18538   1.468   2.234   3.943 -0.3018  0.0126  0.5235
 2302SOL    HW118539   1.450   2.324   3.968 -0.9981  0.2515 -0.8472
 2302SOL    HW218540   1.529   2.211   4.013  0.3930 -0.0322 -0.0907
 2303SOL     OW18541   1.610   3.069   3.941 -0.6234  0.0849  0.1368
 2303SOL    HW118542   1.620   3.146   3.884  0.0182 -0.8150 -0.9705
 2303SOL    HW218543   1.703   3.054   3.957 -0.9500 -2.6565 -0.5690
 2304SOL     OW18544   3.847   3.325   7.652 -0.2262  0.0016  0.9906
 2304SOL    HW118545   3.887   3.405   7.685 -1.1278  0.7119  0.3692
 2304SOL    HW218546   3.923   3.285   7.611 -1.0232 -0.2849 -0.2236
 2305SOL     OW18547   4.000   4.610   6.280  1.0244 -0.4747 -0.3430
 2305SOL    HW118548   3.972   4.551   6.210  0.2567 -0.2543 -0.2165
 2305SOL    HW218549   4.080   4.642   6.237  0.9117 -0.2876 -0.4136
 2306SOL     OW18550   3.688   0.903   8.789 -0.0056 -0.1979  0.1377
 2306SOL    HW118551   3.717   0.958   8.716  0.2331 -3.1961 -2.0131
 2306SOL    HW218552   3.640   0.967   8.841  0.7018  1.2077 -0.9052
 2307SOL     OW18553   0.614   4.279   4.646 -0.2918  0.6132 -0.3397
 2307SOL    HW118554   0.531   4.322   4.623 -0.4722  0.3587 -0.1567
 2307SOL    HW218555   0.590   4.187   4.640 -1.8308  0.8172  2.5100
 2308SOL     OW18556   0.776   3.426   6.046  0.2781  0.2407 -0.3283
 2308SOL    HW118557   0.746   3.363   5.981  0.4497 -0.6627  0.4667
 2308SOL    HW218558   0.734   3.391   6.125  2.7873  4.0136  2.6931
 2309SOL     OW18559   0.788   1.203   5.632 -0.0581 -0.4283 -0.6845
 2309SOL    HW118560   0.761   1.289   5.600  0.0765  0.0975  0.5944
 2309SOL    HW218561   0.760   1.206   5.724  3.7394 -0.8057  0.4885
 2310SOL     OW18562   3.240   1.415   6.381 -0.2628  0.5412 -0.4868
 2310SOL    HW118563   3.327   1.412   6.421 -0.5476  3.4107  0.4122
 2310SOL    HW218564   3.205   1.340   6.430 -0.5759  1.6546  1.0182
 2311SOL     OW18565   4.537   0.094   7.753  0.7055 -0.5513 -0.0780
 2311SOL    HW118566   4.621   0.134   7.733  0.8137 -1.1495 -0.8302
 2311SOL    HW218567   4.484   0.111   7.674 -2.2135  1.0482  2.2137
 2312SOL     OW18568   0.964   4.208   5.581  0.3141  0.2410 -0.5005
 2312SOL    HW118569   0.956   4.128   5.528 -0.2698  1.2048 -1.8501
 2312SOL    HW218570   1.010   4.263   5.517 -1.1979  1.8314 -0.2032
 2313SOL     OW18571   3.275   3.086   8.049 -0.0900  0.3507 -0.2785
 2313SOL    HW118572   3.257   3.084   7.955  0.6369 -0.1295 -0.4080
 2313SOL    HW218573   3.186   3.090   8.086 -0.8852  1.4651 -2.3109
 2314SOL     OW18574   2.301   4.644  17.631 -0.7698 -0.0948 -0.4034
 2314SOL    HW118575   2.347   4.573  17.676 -1.4933 -0.3096 -0.0075
 2314SOL    HW218576   2.375   4.704  17.620 -0.6493 -0.0868  0.4337
 2315SOL     OW18577   2.823   0.641   6.635 -0.0566 -0.2810  0.4690
 2315SOL    HW118578   2.909   0.640   6.593 -1.0704 -0.6062 -1.6387
 2315SOL    HW218579   2.812   0.550   6.659 -0.6390 -0.3165  0.0621
 2316SOL     OW18580   1.666   2.832   5.836  0.1033 -0.6593 -0.2516
 2316SOL    HW118581   1.707   2.850   5.752 -1.2597 -2.2114 -1.2458
 2316SOL    HW218582   1.739   2.814   5.895 -0.4115  0.5840  0.7797
 2317SOL     OW18583   3.605   3.679   8.202  0.0738  0.7078 -0.2098
 2317SOL    HW118584   3.688   3.675   8.250  0.5221  0.5182 -0.9957
 2317SOL    HW218585   3.530   3.657   8.257  0.7684  1.8705  1.2041
 2318SOL     OW18586   0.057   0.325   4.439 -0.0597  0.2550 -0.7226
 2318SOL    HW118587   0.040   0.342   4.346 -1.3897 -0.6950 -0.6568
 2318SOL    HW218588   0.111   0.247   4.430  1.3469  1.0530  0.8979
 2319SOL     OW18589   1.269   2.985   7.953 -0.0749 -0.0545 -0.0184
 2319SOL    HW118590   1.338   2.974   8.018  0.4146 -1.2233 -0.7270
 2319SOL    HW218591   1.189   2.988   8.006  1.7687  2.6037  2.5267
 2320SOL     OW18592   2.092   1.834   5.836  0.4549 -1.1985  0.0339
 2320SOL    HW118593   2.137   1.749   5.831  4.0875  0.7338 -0.1637
 2320SOL    HW218594   2.028   1.818   5.905  1.3623 -0.2983  1.0777
 2321SOL     OW18595   4.526   2.444   4.553 -0.1468  0.3363  0.4500
 2321SOL    HW118596   4.438   2.471   4.526 -0.0324  0.1042 -0.1693
 2321SOL    HW218597   4.536   2.360   4.508  3.6496 -0.2780  2.4676
 2322SOL     OW18598   3.778   3.123   0.885  0.3643 -0.1520  0.0190
 2322SOL    HW118599   3.846   3.107   0.951 -1.5857 -0.1789  2.0130
 2322SOL    HW218600   3.792   3.043   0.834  0.7024 -0.1275  0.0681
 2323SOL     OW18601   1.711   3.247   1.782  0.1386  0.5609 -0.0538
 2323SOL    HW118602   1.684   3.328   1.740  0.9781  1.1868  0.5880
 2323SOL    HW218603   1.730   3.281   1.870  0.2500  1.9634 -0.6149
 2324SOL     OW18604   4.144   0.245  12.801  0.4861  0.0734 -0.3664
 2324SOL    HW118605   4.115   0.333  12.822 -1.0305 -0.1607 -1.4681
 2324SOL    HW218606   4.068   0.216  12.750  0.2238  0.0161  0.0551
 2325SOL     OW18607   4.141   0.408  13.745  0.1809  0.1332 -0.2853
 2325SOL    HW118608   4.122   0.492  13.787 -1.8256 -0.3956 -0.1443
 2325SOL    HW218609   4.056   0.364  13.735  0.1601  0.1004  0.0383
 2326SOL     OW18610   2.293   2.322   6.058  0.1223  0.2471 -0.2872
 2326SOL    HW118611   2.357   2.393   6.070  0.3729  0.1574 -1.1291
 2326SOL    HW218612   2.263   2.334   5.968  0.3254  0.8877 -0.2691
 2327SOL     OW18613   2.361   4.640   3.947  0.5162  0.4054  0.1103
 2327SOL    HW118614   2.284   4.694   3.928 -0.2919 -0.4306  1.0253
 2327SOL    HW218615   2.379   4.591   3.867  0.9983 -1.5703  1.4207
 2328SOL     OW18616   2.718   1.450   9.613 -0.5431  0.1132  0.5567
 2328SOL    HW118617   2.628   1.470   9.638 -0.3132  1.5954  0.2091
 2328SOL    HW218618   2.711   1.363   9.574  0.1741  0.7264 -0.9311
 2329SOL     OW18619   1.479   2.579  17.127 -0.2933  0.0260 -0.1145
 2329SOL    HW118620   1.500   2.592  17.035  1.1495 -1.2193  0.0439
 2329SOL    HW218621   1.455   2.668  17.153 -1.8765  0.2044 -2.2046
 2330SOL     OW18622   2.438   0.051   6.395  0.0129 -0.2067 -0.1124
 2330SOL    HW118623   2.348   0.077   6.415  0.5640  1.4851  0.2248
 2330SOL    HW218624   2.424   0.008   6.311 -0.6645  0.8930 -0.5592
 2331SOL     OW18625   1.374   1.303   6.598 -0.5071  0.6219  0.3156
 2331SOL    HW118626   1.331   1.370   6.651  0.1698  0.8287  0.6046
 2331SOL    HW218627   1.458   1.349   6.596 -1.0709  1.6196 -0.9782
 2332SOL     OW18628   2.279   4.053   5.651  0.2284 -0.4494  0.1695
 2332SOL    HW118629   2.369   4.029   5.630 -1.0860 -2.6365 -3.0123
 2332SOL    HW218630   2.293   4.146   5.634 -2.3072 -0.2869 -1.1385
 2333SOL     OW18631   1.342   0.971   1.859 -0.2004 -0.2020 -0.0505
 2333SOL    HW118632   1.304   0.912   1.924  1.0218  0.8594  1.6250
 2333SOL    HW218633   1.273   0.961   1.794  1.9089  0.3403 -2.3824
 2334SOL     OW18634   0.237   0.156   8.682 -0.0602 -0.0284  0.2134
 2334SOL    HW118635   0.324   0.190   8.703  0.4313  0.4134 -2.6172
 2334SOL    HW218636   0.214   0.118   8.767 -0.3885  1.2166  0.6738
 2335SOL     OW18637   0.098   1.850   2.833 -0.5020 -0.1741  0.2573
 2335SOL    HW118638   0.154   1.896   2.770 -1.0076 -2.9321 -2.1950
 2335SOL    HW218639   0.115   1.889   2.919  3.2429 -0.8200 -0.1726
 2336SOL     OW18640   1.024   0.018   4.562  0.3386 -0.0531  0.2762
 2336SOL    HW118641   0.957   4.723   4.502  1.8482 -2.2441 -0.2184
 2336SOL    HW218642   0.989   0.004   4.650 -0.3810 -0.3977 -0.0658
 2337SOL     OW18643   0.857   0.571  13.135  0.3615 -0.2820  0.1962
 2337SOL    HW118644   0.827   0.651  13.177  3.4106  1.3409 -0.7225
 2337SOL    HW218645   0.788   0.521  13.179  1.4921 -0.8854  1.2675
 2338SOL     OW18646   2.900   2.600   8.739 -0.3354  0.4963  0.3018
 2338SOL    HW118647   2.921   2.692   8.730 -1.5737  0.8668  1.1571
 2338SOL    HW218648   2.984   2.555   8.743  0.7861  2.6534  0.6251
 2339SOL     OW18649   3.389   4.611   5.611  0.1514  0.0430  0.0259
 2339SOL    HW118650   3.436   4.686   5.575 -0.8669  1.1813  1.0458
 2339SOL    HW218651   3.359   4.572   5.530  2.5404  1.2383 -1.4490
 2340SOL     OW18652   2.952   1.942   2.553 -0.0986 -0.0622  0.1590
 2340SOL    HW118653   2.991   1.998   2.486  1.7380 -0.1692  1.1397
 2340SOL    HW218654   2.877   2.000   2.565  0.2470  0.5815 -0.7504
 2341SOL     OW18655   1.850   3.845  14.444 -0.4962  0.4215 -0.0998
 2341SOL    HW118656   1.790   3.918  14.432  0.1238  1.0585  0.6440
 2341SOL    HW218657   1.803   3.792  14.508  2.9083 -0.3539  1.7600
 2342SOL     OW18658   0.727   4.330  16.044 -0.2061  0.4623  0.6916
 2342SOL    HW118659   0.693   4.333  15.955 -0.2723  2.6421  0.7871
 2342SOL    HW218660   0.800   4.270  16.026  0.8962  2.0232 -0.0265
 2343SOL     OW18661   0.949   0.931   5.277  0.2152 -0.3354  0.1303
 2343SOL    HW118662   0.883   0.941   5.346  2.2487  2.1872  1.7024
 2343SOL    HW218663   1.005   0.865   5.318  1.3221 -0.0601 -0.9649
 2344SOL     OW18664   0.041   1.399  16.331  0.1213 -0.2675  0.3530
 2344SOL    HW118665   4.700   1.430  16.286  0.0566  0.4928  0.9943
 2344SOL    HW218666   0.005   1.374  16.416  1.5929 -0.3026  0.9782
 2345SOL     OW18667   0.208   1.089  15.780  0.3725 -0.4389 -0.1707
 2345SOL    HW118668   0.197   1.061  15.689  1.6406  0.7338 -0.6814
 2345SOL    HW218669   0.124   1.135  15.784  0.1669 -0.6077 -2.2077
 2346SOL     OW18670   3.117   4.511  16.200  0.0789 -0.1999 -0.0161
 2346SOL    HW118671   3.146   4.539  16.287 -1.6133 -1.9194  1.0968
 2346SOL    HW218672   3.205   4.477  16.181  0.5214  1.5723 -1.1556
 2347SOL     OW18673   2.797   0.988  16.653 -0.2330 -0.1008 -0.1112
 2347SOL    HW118674   2.806   0.962  16.561  0.8150 -3.7841  1.0468
 2347SOL    HW218675   2.797   1.084  16.646 -0.3954 -0.0000  1.4251
 2348SOL     OW18676   0.967   3.820   4.479  0.0885 -0.4434 -0.1039
 2348SOL    HW118677   1.047   3.867   4.504  0.7838 -1.1569 -0.9699
 2348SOL    HW218678   0.973   3.734   4.520  0.7247 -0.9815 -1.3375
 2349SOL     OW18679   4.441   1.742  10.694  0.2708 -0.2194  0.0714
 2349SOL    HW118680   4.470   1.734  10.785 -0.9788  0.2437  0.5084
 2349SOL    HW218681   4.421   1.836  10.696 -1.3444 -0.5406 -1.0541
 2350SOL     OW18682   3.703   3.634   3.069 -0.0772  0.0745 -0.4646
 2350SOL    HW118683   3.740   3.572   3.007 -0.1692  0.9455 -1.3978
 2350SOL    HW218684   3.612   3.645   3.039 -0.4433 -1.7042 -0.0039
 2351SOL     OW18685   4.716   1.947   3.187 -0.0623  0.0981  0.2037
 2351SOL    HW118686   0.045   1.967   3.253  0.0339 -0.9805  0.4286
 2351SOL    HW218687   4.711   2.031   3.142 -0.5628  0.6541  1.3083
 2352SOL     OW18688   2.663   2.104  15.652 -0.2209 -0.1777  0.1434
 2352SOL    HW118689   2.670   2.023  15.602  1.4559  1.2992 -2.0068
 2352SOL    HW218690   2.751   2.101  15.689 -0.3000  0.5606  0.3981
 2353SOL     OW18691   3.867   3.330   1.848  0.1765  0.0725 -0.9599
 2353SOL    HW118692   3.855   3.312   1.755 -1.0924 -0.5979 -0.6697
 2353SOL    HW218693   3.958   3.303   1.854  0.1694 -0.0881 -1.5702
 2354SOL     OW18694   1.318   1.647   6.994 -0.3024  0.0217  0.3377
 2354SOL    HW118695   1.255   1.616   7.060 -0.2247  0.0924  0.4453
 2354SOL    HW218696   1.369   1.566   6.984  0.6533  0.7345 -0.5178
 2355SOL     OW18697   2.046   1.298   8.811 -0.1203 -0.6262 -0.2152
 2355SOL    HW118698   2.043   1.236   8.884  1.6713 -2.2903 -1.5472
 2355SOL    HW218699   2.007   1.248   8.740  0.9546 -0.0351 -1.2282
 2356SOL     OW18700   2.496   4.298   8.346 -0.4321 -0.1786  0.0603
 2356SOL    HW118701   2.432   4.290   8.417 -2.0044 -1.3471 -1.5324
 2356SOL    HW218702   2.447   4.258   8.275 -2.3718  1.8865  0.2354
 2357SOL     OW18703   0.178   4.541  17.403  0.9825  0.2389 -0.0957
 2357SOL    HW118704   0.244   4.600  17.368  1.9371  0.6517  2.3926
 2357SOL    HW218705   0.232   4.483  17.457 -1.3933 -1.8831  0.0298
 2358SOL     OW18706   3.899   2.599   7.875  0.4482  0.3395 -0.0978
 2358SOL    HW118707   3.906   2.599   7.970 -0.1973 -0.6403 -0.0519
 2358SOL    HW218708   3.930   2.511   7.854  0.8044  0.4849 -0.1796
 2359SOL     OW18709   2.355   3.385   4.274 -0.1472  0.3479 -0.3955
 2359SOL    HW118710   2.394   3.379   4.186 -0.5084 -1.5967 -0.4132
 2359SOL    HW218711   2.355   3.293   4.299  2.3370  0.5435  0.2697
 2360SOL     OW18712   4.318   2.966   8.301 -0.0412 -0.5816 -0.4912
 2360SOL    HW118713   4.298   2.889   8.355 -1.6104 -1.3136 -2.1142
 2360SOL    HW218714   4.300   3.032   8.367 -0.3135  0.6331 -1.7822
 2361SOL     OW18715   3.950   1.709   8.210 -0.7490 -0.0913  0.0678
 2361SOL    HW118716   4.034   1.671   8.185 -0.0454  0.1754  2.0916
 2361SOL    HW218717   3.967   1.768   8.283  0.6880 -0.3332 -0.0689
 2362SOL     OW18718   2.458   4.699   6.668  0.2545 -0.3186  0.1982
 2362SOL    HW118719   2.478   0.033   6.608 -1.5184 -0.0781 -0.1126
 2362SOL    HW218720   2.399   4.658   6.605 -0.4019  1.1049 -0.1098
 2363SOL     OW18721   3.111   3.795   6.125 -0.4953 -0.1211 -0.0565
 2363SOL    HW118722   3.035   3.751   6.086 -0.3720 -1.0131  0.6875
 2363SOL    HW218723   3.153   3.709   6.131 -0.2121 -0.1054 -1.8888
 2364SOL     OW18724   1.003   2.483   7.961 -0.0611  0.0818  0.0971
 2364SOL    HW118725   0.992   2.554   8.025 -1.0979 -0.9848  1.0879
 2364SOL    HW218726   1.043   2.526   7.886  1.9441 -1.0180  0.5263
 2365SOL     OW18727   3.495   1.544  13.988  0.2511  0.0025  0.5898
 2365SOL    HW118728   3.548   1.559  13.910  0.8028 -1.1884  0.7254
 2365SOL    HW218729   3.410   1.556  13.946  0.4170 -0.6725  0.0606
 2366SOL     OW18730   2.766   4.175   3.689 -0.2937  0.2283 -0.2081
 2366SOL    HW118731   2.784   4.269   3.693  0.6213  0.0044  0.9383
 2366SOL    HW218732   2.799   4.161   3.601  0.7142  1.0552  0.0281
 2367SOL     OW18733   0.387   1.214   6.134  0.2831 -0.3809 -0.2646
 2367SOL    HW118734   0.387   1.281   6.203  3.7397  0.0403 -0.6298
 2367SOL    HW218735   0.428   1.265   6.064 -1.8087 -0.7808 -1.7671
 2368SOL     OW18736   0.466   3.548  15.204  0.4300 -0.6969 -0.6633
 2368SOL    HW118737   0.382   3.531  15.161  0.8395 -1.6469 -1.0938
 2368SOL    HW218738   0.524   3.543  15.128  0.6007 -0.7687 -0.5274
 2369SOL     OW18739   3.182   2.401   8.967  0.3035 -0.0391 -0.4115
 2369SOL    HW118740   3.099   2.417   9.013  0.6280  1.4773 -0.3576
 2369SOL    HW218741   3.235   2.340   9.018  1.4509 -0.5534 -2.2203
 2370SOL     OW18742   4.503   3.085  14.257 -0.1851  0.0648 -0.3797
 2370SOL    HW118743   4.523   3.101  14.164  0.6187 -1.3840 -0.4668
 2370SOL    HW218744   4.425   3.031  14.251 -0.0051 -0.0424 -1.8475
 2371SOL     OW18745   4.674   0.490   8.423  0.0991  0.0757 -0.5997
 2371SOL    HW118746   4.700   0.517   8.511 -0.4799  0.0042 -0.4085
 2371SOL    HW218747   0.011   0.435   8.402  1.8495  2.4922 -0.7701
 2372SOL     OW18748   3.453   3.151   4.784 -0.2090  0.1649 -0.1758
 2372SOL    HW118749   3.386   3.178   4.722  0.4958  0.8983 -0.6184
 2372SOL    HW218750   3.428   3.059   4.791  0.7731  0.1551  3.4709
 2373SOL     OW18751   3.097   0.037   3.964  0.1045 -0.1103 -0.4385
 2373SOL    HW118752   3.108   0.089   4.044 -1.2092  0.8101 -0.8521
 2373SOL    HW218753   3.184   0.031   3.925 -1.1571  0.5969 -3.3963
 2374SOL     OW18754   0.382   4.268   7.600  0.7990 -0.0303 -0.5309
 2374SOL    HW118755   0.421   4.354   7.613 -0.4948  0.5241 -0.4140
 2374SOL    HW218756   0.412   4.249   7.511  0.6233  2.2880 -1.0815
 2375SOL     OW18757   3.758   2.758   6.565 -0.1931 -0.9248 -0.3212
 2375SOL    HW118758   3.845   2.718   6.561  0.4483  0.2387  1.8908
 2375SOL    HW218759   3.715   2.704   6.631  0.0917 -0.4443  0.2634
 2376SOL     OW18760   1.335   3.234   0.510  0.3319  0.3236  0.1530
 2376SOL    HW118761   1.415   3.287   0.506  0.5721 -0.0862 -0.4553
 2376SOL    HW218762   1.366   3.171   0.575 -1.4654  0.5604  1.2692
 2377SOL     OW18763   4.096   4.517   5.865 -0.0020  0.1982 -0.8866
 2377SOL    HW118764   4.103   4.606   5.899 -1.5530  0.6607 -1.7698
 2377SOL    HW218765   4.004   4.494   5.874  0.1944  0.4586  1.7483
 2378SOL     OW18766   3.781   1.539   8.666  0.3588  0.6981  0.3894
 2378SOL    HW118767   3.706   1.481   8.675  0.2959  0.9137  1.3154
 2378SOL    HW218768   3.850   1.490   8.711 -0.2980  0.0210  0.6630
 2379SOL     OW18769   0.659   2.884   8.950  0.3476 -0.2061 -0.8099
 2379SOL    HW118770   0.608   2.819   8.998  0.2822 -1.1231 -2.1259
 2379SOL    HW218771   0.750   2.860   8.968  0.3133 -0.4882 -1.0112
 2380SOL     OW18772   2.887   0.185   4.254 -0.0433  0.2593  0.1774
 2380SOL    HW118773   2.938   0.225   4.324  1.5835  0.3019 -1.0141
 2380SOL    HW218774   2.913   0.244   4.183 -0.4730  1.4722  1.0430
 2381SOL     OW18775   1.989   1.761   5.489  0.3182  0.2374 -0.4871
 2381SOL    HW118776   1.945   1.771   5.404 -1.5230 -1.0212  0.3196
 2381SOL    HW218777   1.956   1.842   5.527 -2.0429 -0.7652 -0.4139
 2382SOL     OW18778   4.254   0.348   3.596  0.0768 -0.2336  0.0991
 2382SOL    HW118779   4.174   0.295   3.607 -1.2533  1.4656 -1.4205
 2382SOL    HW218780   4.262   0.392   3.681 -1.1040  0.0214  0.0870
 2383SOL     OW18781   2.508   1.016  13.742  0.0300  0.9932  0.6562
 2383SOL    HW118782   2.423   1.059  13.735 -0.5736 -0.2593  0.3121
 2383SOL    HW218783   2.495   0.921  13.744  1.7202  0.6672 -3.2183
 2384SOL     OW18784   1.415   0.857  14.708 -0.6654  0.0340  0.5180
 2384SOL    HW118785   1.472   0.814  14.773  0.3730 -0.0532 -0.4510
 2384SOL    HW218786   1.411   0.939  14.758 -2.8993 -0.6749  1.4871
 2385SOL     OW18787   1.335   1.662   7.333 -0.1088  0.1715  0.0546
 2385SOL    HW118788   1.271   1.666   7.404  1.1338  0.4291  1.1417
 2385SOL    HW218789   1.365   1.752   7.345 -1.0716  0.3059  1.4706
 2386SOL     OW18790   0.764   4.632   3.921 -0.0156  0.5201  0.7466
 2386SOL    HW118791   0.796   4.722   3.923  1.4352  0.0321 -0.8452
 2386SOL    HW218792   0.676   4.649   3.956 -0.5752 -0.1903 -0.3301
 2387SOL     OW18793   4.292   2.627  10.023 -0.7037  0.0294 -0.5893
 2387SOL    HW118794   4.222   2.609   9.960  1.8642 -2.8561 -2.6482
 2387SOL    HW218795   4.330   2.710   9.995  1.8964 -1.5907 -1.8808
 2388SOL     OW18796   0.422   0.277   4.264 -0.2017  0.0483  0.1253
 2388SOL    HW118797   0.368   0.203   4.290 -2.4344  2.0878  1.3051
 2388SOL    HW218798   0.366   0.304   4.191  1.2642  1.1002 -0.6145
 2389SOL     OW18799   3.611   4.081   6.390 -0.1027  0.0183 -0.0051
 2389SOL    HW118800   3.664   4.032   6.453 -0.1409  1.0258  0.8042
 2389SOL    HW218801   3.561   4.123   6.460  0.5944  1.7190 -0.5107
 2390SOL     OW18802   1.037   0.225   3.060 -0.1469  0.2850  0.4716
 2390SOL    HW118803   1.133   0.232   3.055 -0.2414  0.5346 -0.8970
 2390SOL    HW218804   1.016   0.229   2.967  0.9030 -0.9314  0.1856
 2391SOL     OW18805   1.527   3.878   9.294  0.2687 -0.2987  0.4960
 2391SOL    HW118806   1.563   3.818   9.360  1.0886 -1.0875 -0.6733
 2391SOL    HW218807   1.526   3.957   9.348 -0.7346 -0.3463  0.5455
 2392SOL     OW18808   3.943   2.304   8.680 -0.4476  0.1550  0.6390
 2392SOL    HW118809   3.908   2.230   8.629  2.8668 -0.8764 -0.1847
 2392SOL    HW218810   4.036   2.281   8.687 -0.5261 -0.6632 -0.8688
 2393SOL     OW18811   3.250   2.308   0.236  0.2928 -0.8843  0.0215
 2393SOL    HW118812   3.314   2.296   0.305 -0.3985 -1.0892  0.6203
 2393SOL    HW218813   3.212   2.387   0.275  0.6663 -1.6032  1.8278
 2394SOL     OW18814   2.636   0.569  10.002  0.4250  0.6786 -0.1064
 2394SOL    HW118815   2.684   0.641   9.961  3.0743 -0.6700  0.6353
 2394SOL    HW218816   2.548   0.605   9.987 -0.2848 -0.0552  2.2716
 2395SOL     OW18817   0.117   4.691   7.219 -0.5093 -0.2893 -0.2431
 2395SOL    HW118818   0.074   4.616   7.179 -2.3515  0.7577 -0.2147
 2395SOL    HW218819   0.171   4.723   7.146 -1.4504 -3.3887 -2.2819
 2396SOL     OW18820   2.831   2.746   3.151 -0.2251 -0.4364 -0.7650
 2396SOL    HW118821   2.862   2.836   3.161 -0.0680 -0.4943 -0.7285
 2396SOL    HW218822   2.891   2.692   3.203 -0.4209 -0.2314 -0.3312
 2397SOL     OW18823   1.817   3.269  12.154  0.1143 -0.1882 -0.3249
 2397SOL    HW118824   1.863   3.314  12.225  0.3650 -1.3046  0.2169
 2397SOL    HW218825   1.778   3.201  12.209 -2.1078  0.1229 -1.5194
 2398SOL     OW18826   1.582   1.540   6.305 -0.0322 -0.3145 -0.3229
 2398SOL    HW118827   1.535   1.595   6.243  0.6652  1.9390  1.1306
 2398SOL    HW218828   1.629   1.475   6.252  1.0771  0.1033  0.1474
 2399SOL     OW18829   1.210   1.401  13.579  0.1946  0.4352  0.0365
 2399SOL    HW118830   1.129   1.446  13.603  0.4285  1.9282 -1.9998
 2399SOL    HW218831   1.217   1.317  13.625 -2.8488 -0.3454 -0.9380
 2400SOL     OW18832   3.521   4.559   4.325  0.1395 -0.3547  0.3102
 2400SOL    HW118833   3.432   4.524   4.320 -0.4546  0.9594  1.5957
 2400SOL    HW218834   3.568   4.488   4.370 -1.6616 -1.2041  0.8169
 2401SOL     OW18835   3.237   2.132   8.241 -0.1899 -0.1296  0.5199
 2401SOL    HW118836   3.247   2.159   8.332 -0.0184  3.6624 -0.5953
 2401SOL    HW218837   3.151   2.090   8.247 -1.7469  2.9943  0.0861
 2402SOL     OW18838   0.984   3.184  16.019  0.2238  0.4406  0.4639
 2402SOL    HW118839   1.013   3.217  15.934  1.0639  0.0293  0.5934
 2402SOL    HW218840   0.899   3.141  16.010  1.2158 -0.8491 -2.9289
 2403SOL     OW18841   1.229   0.505   8.607  0.3341 -0.3187 -0.0926
 2403SOL    HW118842   1.257   0.593   8.580 -0.5819  0.3778  1.2211
 2403SOL    HW218843   1.293   0.452   8.559 -1.1517 -1.2007 -1.1250
 2404SOL     OW18844   4.242   4.566   8.530 -0.1747 -1.0307 -0.0824
 2404SOL    HW118845   4.306   4.502   8.560 -0.1898 -1.7290 -1.5375
 2404SOL    HW218846   4.164   4.510   8.533 -1.4030  0.6989  0.4867
 2405SOL     OW18847   2.083   3.336   6.885 -0.0165 -0.2563 -0.4013
 2405SOL    HW118848   2.106   3.319   6.976 -1.7014 -0.5660 -0.0399
 2405SOL    HW218849   1.992   3.308   6.891  0.5819 -1.7296  1.8705
 2406SOL     OW18850   2.993   0.640   3.012  0.3779  0.0254  0.0111
 2406SOL    HW118851   3.064   0.593   3.056  1.1113  0.3873 -0.7843
 2406SOL    HW218852   3.038   0.715   2.973 -0.2693 -0.3614 -1.4935
 2407SOL     OW18853   3.298   0.048  12.285  0.2195  0.0738 -0.1520
 2407SOL    HW118854   3.393   0.047  12.283  0.2305 -1.5702  0.9811
 2407SOL    HW218855   3.278   0.125  12.232 -0.5885 -0.5962 -0.8267
 2408SOL     OW18856   3.459   2.215   0.469 -0.1369  0.0491 -0.0830
 2408SOL    HW118857   3.445   2.234   0.562 -1.5942 -0.9393 -0.0949
 2408SOL    HW218858   3.531   2.154   0.481 -1.2282 -1.3253 -0.4442
 2409SOL     OW18859   3.501   4.472   3.637 -1.2045 -0.2475  0.3312
 2409SOL    HW118860   3.447   4.456   3.560  2.0324  0.9084 -2.1904
 2409SOL    HW218861   3.460   4.413   3.700 -0.9105 -1.5035 -0.6362
 2410SOL     OW18862   0.065   3.315   0.728 -0.9177  0.4810  0.3659
 2410SOL    HW118863   0.113   3.310   0.810  0.4733  0.2639 -0.4662
 2410SOL    HW218864   0.123   3.377   0.683  0.3260  0.6219  2.1919
 2411SOL     OW18865   2.526   2.532   3.788 -0.2500  0.4314 -0.5256
 2411SOL    HW118866   2.544   2.543   3.695  0.4922 -0.5849 -0.5005
 2411SOL    HW218867   2.444   2.582   3.783  0.4682  1.8182  1.3230
 2412SOL     OW18868   3.281   1.843   9.348 -0.3017  0.7869  0.3874
 2412SOL    HW118869   3.223   1.799   9.410  0.5659 -0.2938  0.4257
 2412SOL    HW218870   3.215   1.894   9.300  1.3942  1.7757 -0.9281
 2413SOL     OW18871   3.762   0.362   6.379  1.0110  1.0151  0.0860
 2413SOL    HW118872   3.778   0.268   6.371  0.2685  0.7964  1.1510
 2413SOL    HW218873   3.760   0.362   6.475  1.0641 -0.8725  0.0903
 2414SOL     OW18874   1.241   3.075   5.602  0.4344  0.4474 -0.4034
 2414SOL    HW118875   1.181   3.126   5.548  0.3534  0.6442 -0.1275
 2414SOL    HW218876   1.287   3.143   5.651 -1.0246  1.8365 -0.9362
 2415SOL     OW18877   3.120   2.637   4.346 -0.5524  0.6487  0.2019
 2415SOL    HW118878   3.174   2.589   4.282  0.1436  1.2871  0.3132
 2415SOL    HW218879   3.067   2.690   4.288 -0.2970  0.1089 -0.5368
 2416SOL     OW18880   1.149   0.884   7.107 -0.6849 -0.1899  0.2402
 2416SOL    HW118881   1.098   0.803   7.117  0.3382 -0.6311  1.9416
 2416SOL    HW218882   1.163   0.904   7.200  3.2988 -0.5747 -0.2608
 2417SOL     OW18883   3.351   4.343   3.866  0.2902  1.2724 -0.6577
 2417SOL    HW118884   3.432   4.342   3.916  1.5904 -1.6124 -2.8368
 2417SOL    HW218885   3.281   4.367   3.926 -0.5567 -1.0494 -0.7048
 2418SOL     OW18886   3.111   4.108   6.774  0.6764 -0.0678 -0.8439
 2418SOL    HW118887   3.052   4.035   6.791 -0.9430  1.2132 -0.9488
 2418SOL    HW218888   3.045   4.177   6.779  0.4540 -0.6284  3.8631
 2419SOL     OW18889   1.980   0.661   4.740 -0.6684  0.3971 -0.0950
 2419SOL    HW118890   1.949   0.744   4.704 -0.1094  0.7841  0.3057
 2419SOL    HW218891   1.901   0.636   4.787 -1.1110 -0.8807 -1.5185
 2420SOL     OW18892   0.707   3.234   6.777  0.7172  0.6677  0.4150
 2420SOL    HW118893   0.627   3.188   6.750 -0.4398  2.1963  1.2097
 2420SOL    HW218894   0.677   3.325   6.781  2.2673  1.0969  2.4380
 2421SOL     OW18895   1.256   1.173  13.722  0.1056 -0.2130 -0.3858
 2421SOL    HW118896   1.287   1.103  13.666  2.1290  0.9350 -0.6980
 2421SOL    HW218897   1.308   1.158  13.801 -0.8359 -2.0643 -0.1106
 2422SOL     OW18898   3.989   2.087   3.557 -0.1273 -0.3694  0.0135
 2422SOL    HW118899   3.923   2.136   3.508  0.1678 -0.6075 -0.6309
 2422SOL    HW218900   4.011   2.021   3.491 -3.0803  0.7497 -2.0967
 2423SOL     OW18901   2.815   0.053   8.397  0.1036 -0.0278  0.2822
 2423SOL    HW118902   2.798   0.147   8.401  1.4583  0.2421 -0.2036
 2423SOL    HW218903   2.802   0.021   8.487 -1.9422 -0.0392 -0.0232
 2424SOL     OW18904   0.330   1.229  16.901  0.5113 -1.3675  0.4879
 2424SOL    HW118905   0.257   1.257  16.845  1.1144 -0.1234  0.3260
 2424SOL    HW218906   0.381   1.202  16.825 -1.3086 -0.2791 -1.1425
 2425SOL     OW18907   2.943   4.229   1.154  0.1704 -0.7253 -0.4202
 2425SOL    HW118908   2.916   4.291   1.222 -0.7875 -1.0993 -0.4715
 2425SOL    HW218909   3.027   4.265   1.123 -0.6685 -1.0961 -3.1307
 2426SOL     OW18910   0.482   1.026  11.319 -0.4262  0.4119  0.2289
 2426SOL    HW118911   0.506   1.024  11.226  1.6435 -0.1841  0.7813
 2426SOL    HW218912   0.527   0.948  11.350 -1.0462 -0.0893 -0.1233
 2427SOL     OW18913   4.570   1.466   8.767 -0.2295 -0.5615  0.4393
 2427SOL    HW118914   4.596   1.377   8.744  1.6235  0.9902 -3.4427
 2427SOL    HW218915   4.633   1.480   8.838  1.4045  0.2943 -1.1778
 2428SOL     OW18916   4.650   3.864   5.978  0.2696  0.1850 -0.0700
 2428SOL    HW118917   4.728   3.823   5.940 -0.6781 -1.7632  0.1104
 2428SOL    HW218918   4.602   3.889   5.899 -0.5262 -0.3211  0.2565
 2429SOL     OW18919   4.453   4.242   2.769 -0.4315  0.1910  0.6205
 2429SOL    HW118920   4.410   4.317   2.728  0.2247 -0.4554 -1.2613
 2429SOL    HW218921   4.530   4.285   2.807  2.4608 -1.6129 -3.3006
 2430SOL     OW18922   2.589   0.095   3.817 -0.9474 -0.1946 -0.4384
 2430SOL    HW118923   2.544   0.037   3.879 -0.3229  1.0868  1.2016
 2430SOL    HW218924   2.629   0.021   3.772 -0.6240  0.0569 -0.5631
 2431SOL     OW18925   0.932   3.520  11.741 -1.0559  0.0517 -0.1479
 2431SOL    HW118926   0.911   3.602  11.697  1.3734  1.2365  0.9312
 2431SOL    HW218927   0.967   3.466  11.669  0.2777 -0.3922  0.8275
 2432SOL     OW18928   0.789   2.075   1.522  0.3472 -0.5736 -0.0489
 2432SOL    HW118929   0.871   2.038   1.489  1.4147  2.1970 -0.5241
 2432SOL    HW218930   0.766   2.145   1.461 -1.3923 -0.5862  0.5916
 2433SOL     OW18931   3.664   1.988   0.286 -0.0022 -0.3781 -0.2591
 2433SOL    HW118932   3.692   1.896   0.284  0.0102 -0.3456 -1.4037
 2433SOL    HW218933   3.653   1.996   0.381  1.8810  0.5594 -0.1328
 2434SOL     OW18934   1.728   1.255   8.137  0.6104 -0.0412  0.1197
 2434SOL    HW118935   1.681   1.223   8.215 -2.0779  5.2134  0.6306
 2434SOL    HW218936   1.664   1.244   8.066  1.2790  2.3104 -0.8152
 2435SOL     OW18937   3.095   2.731   8.469 -0.6008 -0.1234  0.4273
 2435SOL    HW118938   3.007   2.696   8.481 -1.6991  2.9771  1.5747
 2435SOL    HW218939   3.095   2.808   8.525  0.1833 -0.1231  0.4272
 2436SOL     OW18940   0.257   4.055   3.162 -0.0619  0.2574 -0.5095
 2436SOL    HW118941   0.224   3.965   3.171 -1.1560  0.6834 -0.3013
 2436SOL    HW218942   0.342   4.062   3.206 -0.0656 -1.2638 -0.2471
 2437SOL     OW18943   0.922   2.522   3.953 -0.0041 -0.7518 -0.4944
 2437SOL    HW118944   0.864   2.552   3.883 -3.2203  0.2681  2.6001
 2437SOL    HW218945   0.864   2.509   4.028  1.6847 -1.8862  0.6159
 2438SOL     OW18946   1.306   4.013   6.160 -0.6694  0.2610 -0.0642
 2438SOL    HW118947   1.272   3.952   6.095 -0.2327 -0.4812  0.4095
 2438SOL    HW218948   1.225   4.050   6.196 -1.2147 -0.2826 -0.7467
 2439SOL     OW18949   1.810   3.326   4.649  0.1387 -0.5552 -0.5544
 2439SOL    HW118950   1.775   3.362   4.730  3.1337  0.5270  0.2627
 2439SOL    HW218951   1.732   3.287   4.608 -0.6501  3.1726 -2.6190
 2440SOL     OW18952   2.517   1.536  13.971 -0.1228 -0.3349 -0.4691
 2440SOL    HW118953   2.476   1.451  13.983  0.4493 -0.3495  1.4570
 2440SOL    HW218954   2.463   1.563  13.896 -0.0447  2.6161  0.5028
 2441SOL     OW18955   2.450   1.364   3.228  0.2987  0.1609  0.0696
 2441SOL    HW118956   2.419   1.425   3.161 -2.7269 -0.2833  1.0227
 2441SOL    HW218957   2.534   1.326   3.204  0.3385  0.3494 -0.0910
 2442SOL     OW18958   3.653   1.951   3.666  0.7952 -0.2528 -0.7488
 2442SOL    HW118959   3.715   2.011   3.709  1.1554 -1.2400  0.1206
 2442SOL    HW218960   3.691   1.940   3.579 -0.7935  1.5409 -1.6733
 2443SOL     OW18961   1.222   4.366   5.663  0.0649 -0.6161  0.6857
 2443SOL    HW118962   1.242   4.416   5.585 -0.0497 -1.1487  0.3133
 2443SOL    HW218963   1.175   4.291   5.626  1.8556 -1.9113  1.0130
 2444SOL     OW18964   0.767   3.392   9.127 -1.0485  0.6651  0.1772
 2444SOL    HW118965   0.858   3.418   9.141 -0.7140 -0.5624  0.2819
 2444SOL    HW218966   0.771   3.396   9.032  3.2456 -0.8768  0.2946
 2445SOL     OW18967   4.268   4.117   5.538 -0.3850  0.3557 -0.1597
 2445SOL    HW118968   4.298   4.208   5.537  0.5802  0.0340 -0.5612
 2445SOL    HW218969   4.248   4.106   5.631 -0.5099  2.2254  0.0464
 2446SOL     OW18970   4.649   0.178   4.847  0.6106 -0.2723  0.6335
 2446SOL    HW118971   4.622   0.254   4.795  1.0427 -1.2975 -1.1035
 2446SOL    HW218972   4.639   0.108   4.782 -0.1494  0.4069  0.0187
 2447SOL     OW18973   4.523   1.426   9.449 -0.3770  0.0058  0.5421
 2447SOL    HW118974   4.526   1.520   9.432 -0.9407 -0.0154  0.3012
 2447SOL    HW218975   4.430   1.406   9.439 -0.5469  0.9366  0.2536
 2448SOL     OW18976   0.718   1.320   8.782 -0.4419 -0.1896 -0.2619
 2448SOL    HW118977   0.756   1.316   8.870  0.1163 -2.0250 -0.5845
 2448SOL    HW218978   0.780   1.265   8.734 -1.3016  0.1296 -1.7596
 2449SOL     OW18979   2.950   1.909   8.720 -0.2097 -0.1977  0.3768
 2449SOL    HW118980   3.032   1.943   8.685 -1.0149  0.1242 -1.1984
 2449SOL    HW218981   2.899   1.977   8.677 -0.1449  1.2566  2.5758
 2450SOL     OW18982   1.667   1.176  11.650  0.5082 -0.5932  0.4401
 2450SOL    HW118983   1.587   1.151  11.604  1.1231  0.7519 -1.3788
 2450SOL    HW218984   1.643   1.251  11.705 -0.4105  0.3913 -1.2819
 2451SOL     OW18985   1.036   4.006   4.802  0.0413  0.1551  0.2071
 2451SOL    HW118986   1.097   3.979   4.734  0.6950 -0.3459  0.9842
 2451SOL    HW218987   0.980   4.070   4.760 -0.1064  0.1683  0.4239
 2452SOL     OW18988   3.906   0.321   2.966 -0.6756  0.2368  0.3386
 2452SOL    HW118989   3.961   0.393   2.997  2.3323 -1.2927 -1.4264
 2452SOL    HW218990   3.885   0.276   3.048 -0.3577 -1.9688 -0.7911
 2453SOL     OW18991   3.917   2.472  12.946  0.5756 -0.1239  0.1874
 2453SOL    HW118992   3.839   2.468  12.891  0.9503 -0.2438 -0.3398
 2453SOL    HW218993   3.972   2.526  12.889  1.2379  0.4197  1.3408
 2454SOL     OW18994   0.545   0.001  17.462  0.1292  0.3120  0.1945
 2454SOL    HW118995   0.456   0.033  17.474  0.8140  1.8526  1.0842
 2454SOL    HW218996   0.588   0.019  17.545 -0.8989 -5.6097  2.0124
 2455SOL     OW18997   0.454   2.488   8.574 -0.0153 -0.7962 -0.2694
 2455SOL    HW118998   0.434   2.429   8.501 -0.2257 -1.2980  0.1936
 2455SOL    HW218999   0.487   2.429   8.641  1.1741  2.0468  1.6143
 2456SOL     OW19000   0.169   4.301   2.340  0.2871  0.2586 -0.4986
 2456SOL    HW119001   0.083   4.271   2.370  0.6665  0.8106  1.1431
 2456SOL    HW219002   0.202   4.236   2.278  1.1796 -1.4134  1.7403
 2457SOL     OW19003   4.319   4.218   4.160 -0.2362 -0.9165 -0.0359
 2457SOL    HW119004   4.270   4.271   4.097 -1.7924  0.8939  2.7091
 2457SOL    HW219005   4.341   4.288   4.221  1.2402 -2.4148  1.1242
 2458SOL     OW19006   2.632   1.066   3.509 -0.0120  0.0028 -0.1494
 2458SOL    HW119007   2.717   1.103   3.534  0.5272 -0.5153 -1.2220
 2458SOL    HW219008   2.576   1.140   3.528 -0.2480 -0.0526 -0.6335
 2459SOL     OW19009   0.079   2.501   8.553  0.0739  0.2591 -1.0970
 2459SOL    HW119010   0.014   2.466   8.613  0.4419 -3.1836 -2.7296
 2459SOL    HW219011   0.031   2.500   8.470  0.5421  0.6641 -1.3741
 2460SOL     OW19012   0.264   2.564   7.193  0.4941 -0.2017  0.8119
 2460SOL    HW119013   0.225   2.477   7.193  3.2190 -1.4239  0.7781
 2460SOL    HW219014   0.268   2.585   7.099 -2.5083  1.6132  1.0965
 2461SOL     OW19015   4.623   2.457  10.850 -0.2854 -0.6268  0.2345
 2461SOL    HW119016   4.692   2.520  10.832 -2.2828  1.4688 -0.0850
 2461SOL    HW219017   4.616   2.466  10.945 -1.6148 -3.9190  0.4679
 2462SOL     OW19018   1.013   1.302   1.944  0.5390  0.0004  0.6000
 2462SOL    HW119019   1.006   1.371   2.009 -0.9190 -0.3759  0.8588
 2462SOL    HW219020   1.100   1.276   1.972 -0.1593 -0.6356  2.1756
 2463SOL     OW19021   0.870   2.049  12.609 -0.5927 -0.1409  0.2478
 2463SOL    HW119022   0.810   1.976  12.597 -1.2572  0.7140 -1.6280
 2463SOL    HW219023   0.831   2.112  12.548  0.7435  0.2972 -0.1695
 2464SOL     OW19024   0.667   0.014   6.821  0.3207  0.1692  0.2910
 2464SOL    HW119025   0.631   0.053   6.741 -0.2933 -1.0137 -0.0006
 2464SOL    HW219026   0.726   0.083   6.852  1.7340  0.2989 -2.6205
 2465SOL     OW19027   2.667   0.598   8.504 -0.0677  0.2473 -0.3041
 2465SOL    HW119028   2.737   0.578   8.566 -1.3323 -0.6311  0.8582
 2465SOL    HW219029   2.696   0.664   8.442  0.5336  1.2932  1.0992
 2466SOL     OW19030   4.096   4.635   2.629  0.9429 -0.5210 -0.0127
 2466SOL    HW119031   4.142   4.719   2.623  0.2461 -0.1613 -0.2678
 2466SOL    HW219032   4.017   4.659   2.677  1.7125  0.2540  0.8762
 2467SOL     OW19033   4.343   2.339  16.875 -0.0265  0.0278  0.2230
 2467SOL    HW119034   4.318   2.417  16.924  0.8600  0.9177 -0.7325
 2467SOL    HW219035   4.265   2.335  16.820  0.4955  0.1362 -0.5257
 2468SOL     OW19036   1.070   0.333   3.397  0.6849  0.9880 -0.1157
 2468SOL    HW119037   0.977   0.358   3.396  0.3425 -0.2002  1.9696
 2468SOL    HW219038   1.084   0.307   3.306  0.0220  0.2399 -0.0038
 2469SOL     OW19039   1.951   2.010   6.960  0.6652 -0.9462 -0.6348
 2469SOL    HW119040   1.985   2.080   7.015 -0.5182 -2.4383  1.9692
 2469SOL    HW219041   1.924   2.072   6.892 -0.1505 -2.2607 -1.5318
 2470SOL     OW19042   1.249   3.650   8.065  0.5776 -0.5179 -0.1853
 2470SOL    HW119043   1.224   3.565   8.100 -0.2958 -1.5205 -3.1960
 2470SOL    HW219044   1.299   3.634   7.985  0.4461  0.0755 -0.3812
 2471SOL     OW19045   4.069   0.196  16.438 -0.5571 -0.3301 -0.1919
 2471SOL    HW119046   4.014   0.273  16.419  1.8678  1.6021  0.6090
 2471SOL    HW219047   4.145   0.212  16.382  2.8295 -0.2866  4.3949
 2472SOL     OW19048   4.167   4.400   3.976 -0.3426  0.2305  0.9225
 2472SOL    HW119049   4.121   4.479   4.004  0.6715  1.1355  0.0412
 2472SOL    HW219050   4.106   4.366   3.911 -0.4591  0.6425  0.8132
 2473SOL     OW19051   3.507   4.033   7.019  0.4824 -0.5528  0.1261
 2473SOL    HW119052   3.479   4.120   6.993 -0.1122 -0.6174  0.5638
 2473SOL    HW219053   3.579   4.011   6.960 -0.3992 -1.0995 -0.7333
 2474SOL     OW19054   2.840   3.077   8.605  0.2809 -0.6018  0.0376
 2474SOL    HW119055   2.760   3.130   8.606  1.1670  0.7054  0.6765
 2474SOL    HW219056   2.823   3.046   8.516  1.2390 -0.8015 -0.0728
 2475SOL     OW19057   4.318   3.479   5.807  0.1941 -0.0626 -0.6586
 2475SOL    HW119058   4.296   3.411   5.742 -0.3809 -0.1736 -0.3457
 2475SOL    HW219059   4.233   3.501   5.845  1.2261  1.5982  0.6394
 2476SOL     OW19060   0.684   2.725   3.131  0.3536 -0.0066 -0.3904
 2476SOL    HW119061   0.738   2.778   3.189 -0.6065 -0.6499  1.0804
 2476SOL    HW219062   0.745   2.690   3.066 -1.1760  1.3244 -2.5509
 2477SOL     OW19063   2.066   0.226  12.317  0.3545 -0.6268 -0.1639
 2477SOL    HW119064   2.061   0.233  12.412 -1.4424 -2.7640 -0.0992
 2477SOL    HW219065   1.990   0.278  12.293  0.9600  1.3384  2.2172
 2478SOL     OW19066   0.701   2.169   3.977 -0.2912  0.1068  0.5878
 2478SOL    HW119067   0.711   2.182   4.071 -0.3737 -0.1771  0.6353
 2478SOL    HW219068   0.643   2.241   3.954  1.8409  1.7760  0.3712
 2479SOL     OW19069   2.312   3.120   5.682 -0.1990 -0.0553 -0.5594
 2479SOL    HW119070   2.329   3.032   5.716  0.1426 -0.0376 -0.6832
 2479SOL    HW219071   2.344   3.168   5.759  1.0117  0.2992 -1.2712
 2480SOL     OW19072   4.559   0.437   6.465  0.1394  0.2159 -0.3486
 2480SOL    HW119073   4.472   0.409   6.494 -0.0780  0.5714 -0.6587
 2480SOL    HW219074   4.535   0.518   6.420  0.1194 -1.2810 -3.0834
 2481SOL     OW19075   1.034   3.473   9.063  0.1721 -0.3792  0.0865
 2481SOL    HW119076   0.970   3.458   8.993 -0.5297  1.2225  0.3792
 2481SOL    HW219077   1.035   3.568   9.073 -0.7599 -0.5783  2.0510
 2482SOL     OW19078   2.648   2.385   7.167 -0.2377  0.1728  0.1210
 2482SOL    HW119079   2.652   2.318   7.098  2.2735 -0.0468  0.4935
 2482SOL    HW219080   2.590   2.343   7.232 -0.2833 -1.1499 -0.7639
 2483SOL     OW19081   2.079   0.702   2.203 -0.3571 -0.1222  0.0674
 2483SOL    HW119082   2.080   0.734   2.293  1.1641 -1.2045  0.4189
 2483SOL    HW219083   2.044   0.613   2.197  1.9784 -1.0396  0.2233
 2484SOL     OW19084   3.881   1.381   3.277  0.1874 -0.1508 -0.1979
 2484SOL    HW119085   3.882   1.387   3.182  0.5114 -3.1874 -0.3977
 2484SOL    HW219086   3.896   1.288   3.295 -2.1101  0.0334  2.7675
 2485SOL     OW19087   3.317   2.267   5.621  0.4369  0.1022  0.3216
 2485SOL    HW119088   3.379   2.297   5.688  0.6563 -1.8237  0.9841
 2485SOL    HW219089   3.293   2.181   5.656  0.4593  0.2477  0.6967
 2486SOL     OW19090   0.731   1.953   2.769 -0.1962 -0.3353 -0.1426
 2486SOL    HW119091   0.817   1.986   2.793  0.2958 -1.2440 -0.6485
 2486SOL    HW219092   0.758   1.875   2.721  3.1898  0.6350  0.1811
 2487SOL     OW19093   0.156   4.197  13.842  0.0183 -0.3561  0.3080
 2487SOL    HW119094   0.244   4.167  13.865  0.6524 -0.0204 -1.6242
 2487SOL    HW219095   0.134   4.275  13.891  1.4337  0.7916 -0.8754
 2488SOL     OW19096   3.636   3.979   2.125 -0.0801 -0.2543 -0.1079
 2488SOL    HW119097   3.626   3.950   2.035 -1.5573  1.0548 -0.3427
 2488SOL    HW219098   3.584   4.059   2.126  0.8701  0.3614  0.2079
 2489SOL     OW19099   4.101   1.055  13.073  0.1638 -0.4888  0.9306
 2489SOL    HW119100   4.118   1.149  13.084 -0.9789 -0.1439 -0.2391
 2489SOL    HW219101   4.164   1.028  13.140  0.7698  1.8324  1.2911
 2490SOL     OW19102   0.583   4.507   6.780  0.6961 -0.0636 -0.1536
 2490SOL    HW119103   0.617   4.589   6.815  0.0373  0.4337 -0.6754
 2490SOL    HW219104   0.658   4.482   6.726 -0.1138  0.8607 -1.7241
 2491SOL     OW19105   2.014   1.994   9.103 -0.2765  0.1132 -0.4030
 2491SOL    HW119106   1.998   2.028   9.191 -0.4761 -0.1594 -0.3325
 2491SOL    HW219107   2.014   2.078   9.057 -1.6978  0.9489  1.1314
 2492SOL     OW19108   3.050   0.173  11.790 -0.2135 -0.2701  0.2377
 2492SOL    HW119109   3.054   0.119  11.712 -1.9767 -0.4352  0.2512
 2492SOL    HW219110   3.128   0.227  11.776  0.4995 -1.5288 -0.5885
 2493SOL     OW19111   1.583   0.688   1.467  0.2402 -0.3453  0.5176
 2493SOL    HW119112   1.497   0.646   1.477 -0.8795  1.4405 -1.6707
 2493SOL    HW219113   1.588   0.743   1.545 -1.7066  2.3238 -1.1931
 2494SOL     OW19114   3.608   1.036   1.817 -0.0439 -0.1791  0.4588
 2494SOL    HW119115   3.573   0.948   1.834 -0.1188 -0.0016  1.2132
 2494SOL    HW219116   3.694   1.027   1.858  0.1593  0.5989  0.1924
 2495SOL     OW19117   2.025   2.781  12.177  0.5798 -0.3636 -0.0687
 2495SOL    HW119118   2.067   2.709  12.223 -2.6271 -1.7625  0.6274
 2495SOL    HW219119   1.933   2.782  12.204 -0.0254  0.6867 -2.2068
 2496SOL     OW19120   0.920   3.781   9.275 -0.1428 -0.3913 -0.2634
 2496SOL    HW119121   0.948   3.814   9.190  0.7119  1.9275  0.9033
 2496SOL    HW219122   0.863   3.706   9.260 -1.7935  0.9228 -0.5848
 2497SOL     OW19123   4.682   1.045   4.328  0.1681 -0.1874 -0.4599
 2497SOL    HW119124   4.587   1.045   4.339 -0.0075  0.4913 -2.0075
 2497SOL    HW219125   4.709   1.135   4.344  2.2554 -0.3912 -2.7291
 2498SOL     OW19126   0.334   3.276   7.918 -0.5052 -0.1395  0.2903
 2498SOL    HW119127   0.328   3.350   7.977 -0.2965  1.0658 -1.1917
 2498SOL    HW219128   0.312   3.303   7.829 -0.2419 -3.2042 -0.7103
 2499SOL     OW19129   1.390   1.136  14.811  0.5569  0.3669  0.1991
 2499SOL    HW119130   1.345   1.155  14.893  2.2794 -1.8036  1.6323
 2499SOL    HW219131   1.338   1.177  14.742 -2.9637 -2.1832  1.3455
 2500SOL     OW19132   1.213   0.248   7.841  0.5660  0.2423 -0.1215
 2500SOL    HW119133   1.119   0.231   7.837  0.4665  0.3170  1.6981
 2500SOL    HW219134   1.220   0.234   7.936 -1.9989  1.5544  0.2525
 2501SOL     OW19135   3.364   3.193   2.740 -0.3911 -0.6543 -0.6287
 2501SOL    HW119136   3.281   3.179   2.787  1.4174 -0.6813  2.5898
 2501SOL    HW219137   3.337   3.171   2.651 -0.2223 -1.3244 -0.5205
 2502SOL     OW19138   1.367   4.477   5.435 -0.8393  0.5640 -0.0088
 2502SOL    HW119139   1.396   4.436   5.354 -1.5329 -2.4383  1.2449
 2502SOL    HW219140   1.335   4.554   5.388 -1.9190  0.7320  0.9971
 2503SOL     OW19141   1.138   1.873   4.164 -0.7237 -0.5231 -0.3140
 2503SOL    HW119142   1.149   1.860   4.070  0.2793 -1.7482 -0.0208
 2503SOL    HW219143   1.116   1.966   4.151 -2.0189 -1.2200 -3.0348
 2504SOL     OW19144   2.532   0.348   5.319  0.5943  0.0157  0.0014
 2504SOL    HW119145   2.534   0.292   5.242  0.3538  2.5423 -1.8363
 2504SOL    HW219146   2.437   0.353   5.334  0.5267  0.2501 -0.5167
 2505SOL     OW19147   4.257   4.217   7.224 -1.0753  0.2698  0.2238
 2505SOL    HW119148   4.228   4.278   7.157 -1.2090  0.3346  0.3406
 2505SOL    HW219149   4.199   4.245   7.295 -0.8037  2.3436 -0.3790
 2506SOL     OW19150   3.528   2.829   2.230 -0.4318 -0.4390 -0.1034
 2506SOL    HW119151   3.570   2.792   2.307  0.2169  0.3570 -0.0810
 2506SOL    HW219152   3.603   2.874   2.190 -1.0202  0.4323 -0.2364
 2507SOL     OW19153   1.447   4.305   4.835 -0.0193 -0.0651  0.1834
 2507SOL    HW119154   1.439   4.221   4.790 -0.0415  0.9219 -1.6492
 2507SOL    HW219155   1.360   4.324   4.868  0.3531 -1.0217  1.7161
 2508SOL     OW19156   2.460   1.927   1.853  0.0418 -0.3515  0.5141
 2508SOL    HW119157   2.543   1.893   1.820 -1.2137 -1.9624 -0.9686
 2508SOL    HW219158   2.478   2.021   1.851  0.0575 -0.4033 -1.8677
 2509SOL     OW19159   4.211   4.358  13.453 -0.2001 -0.4197  0.0101
 2509SOL    HW119160   4.288   4.330  13.403 -0.4885  0.3795 -0.8844
 2509SOL    HW219161   4.222   4.301  13.529  2.4181  1.2406  0.9027
 2510SOL     OW19162   2.798   0.715   0.548  0.4929  0.0858 -0.0106
 2510SOL    HW119163   2.772   0.766   0.472  1.1730 -0.3031 -0.4996
 2510SOL    HW219164   2.883   0.758   0.556  0.9629 -0.8447  0.0059
 2511SOL     OW19165   3.487   4.215   7.983 -0.5294 -0.0383 -0.0000
 2511SOL    HW119166   3.530   4.300   7.987 -1.0448  0.1469  1.6654
 2511SOL    HW219167   3.476   4.199   7.889  0.9500  1.9329 -0.5004
 2512SOL     OW19168   2.800   3.750   7.095 -0.2163 -0.5491 -0.1792
 2512SOL    HW119169   2.862   3.677   7.106  0.0554 -0.1749  0.7788
 2512SOL    HW219170   2.801   3.785   7.184 -1.4510 -1.0280  0.0173
 2513SOL     OW19171   4.077   1.687   5.628  0.1036  0.1795 -0.4253
 2513SOL    HW119172   3.996   1.669   5.676  1.3175  1.3212  2.0461
 2513SOL    HW219173   4.069   1.782   5.633  1.7457  0.2833  0.1494
 2514SOL     OW19174   1.099   2.028   9.433 -0.1415  0.6039 -0.3973
 2514SOL    HW119175   1.170   2.088   9.452  1.3395 -0.7511 -1.6733
 2514SOL    HW219176   1.086   2.006   9.526 -2.3490  0.1655 -0.8021
 2515SOL     OW19177   4.293   1.124   8.185 -0.2686 -0.8279  1.0699
 2515SOL    HW119178   4.256   1.036   8.183 -0.3359 -0.7326 -1.3372
 2515SOL    HW219179   4.236   1.172   8.245 -0.5069 -1.4648  1.3603
 2516SOL     OW19180   2.044   2.235   3.182  0.4173 -0.0288  0.4579
 2516SOL    HW119181   2.021   2.209   3.093  0.1435  0.2698  0.4422
 2516SOL    HW219182   2.079   2.152   3.216 -0.6631  0.2570  2.2502
 2517SOL     OW19183   1.003   1.286   9.867  0.9940  0.3680 -0.0589
 2517SOL    HW119184   1.072   1.224   9.843  1.3352  0.6019  0.2949
 2517SOL    HW219185   0.935   1.273   9.801  1.4329  0.9663 -0.6292
 2518SOL     OW19186   1.205   1.161   6.058 -0.6371  0.0039  0.1114
 2518SOL    HW119187   1.195   1.089   6.120  1.5653 -1.3647 -1.1210
 2518SOL    HW219188   1.234   1.118   5.978 -2.0934 -0.8205  0.0330
 2519SOL     OW19189   2.175   0.996   5.486 -0.2952 -0.4372  0.4606
 2519SOL    HW119190   2.159   0.923   5.545  0.1062 -2.1858 -1.6131
 2519SOL    HW219191   2.232   1.043   5.546  1.3344 -0.9136 -0.7011
 2520SOL     OW19192   4.660   2.089  11.252  0.3210 -0.3825  0.0044
 2520SOL    HW119193   4.628   2.023  11.313 -0.1599  0.0778  0.2520
 2520SOL    HW219194   4.603   2.163  11.276  3.1769  1.1759  1.9695
 2521SOL     OW19195   3.311   0.624  14.555 -0.1372 -0.0944 -0.4444
 2521SOL    HW119196   3.273   0.544  14.517  3.1629 -1.0256 -1.7427
 2521SOL    HW219197   3.315   0.678  14.476  0.8321  0.3338 -0.1033
 2522SOL     OW19198   1.543   2.869  13.782  1.0383 -0.5783  0.0959
 2522SOL    HW119199   1.603   2.941  13.800  1.4690 -0.6577 -0.9941
 2522SOL    HW219200   1.599   2.795  13.805 -2.0498 -3.0007 -0.1682
 2523SOL     OW19201   0.217   0.581   2.881 -0.1750 -0.1528  0.1693
 2523SOL    HW119202   0.236   0.525   2.806 -1.0924  2.2687 -1.8753
 2523SOL    HW219203   0.221   0.529   2.961 -0.2027  0.7346  0.7527
 2524SOL     OW19204   1.419   2.999   0.124  0.0435 -0.0297  0.0180
 2524SOL    HW119205   1.444   3.054   0.199 -3.0095  1.5617 -0.1502
 2524SOL    HW219206   1.473   2.921   0.140  0.1356  0.2023  0.8599
 2525SOL     OW19207   4.694   3.879   9.082 -0.2049  0.0871  0.1802
 2525SOL    HW119208   4.646   3.845   9.006 -1.8189  2.0427  0.3308
 2525SOL    HW219209   0.021   3.942   9.049  0.4588  0.0869  1.5027
 2526SOL     OW19210   2.537   2.872  17.328  0.1970  0.3943 -0.1164
 2526SOL    HW119211   2.584   2.906  17.252 -0.2646  0.1440 -0.5185
 2526SOL    HW219212   2.574   2.784  17.333 -1.1577 -0.1538  0.2632
 2527SOL     OW19213   2.165   0.646  14.235 -0.0339  0.1978  0.3269
 2527SOL    HW119214   2.110   0.722  14.253  0.9503  1.0941 -0.4147
 2527SOL    HW219215   2.155   0.592  14.314  3.7069 -1.8010 -0.5656
 2528SOL     OW19216   4.039   1.579   4.966 -0.1509  0.5950 -0.4815
 2528SOL    HW119217   4.112   1.562   4.907  0.2636 -0.2886  0.2774
 2528SOL    HW219218   3.975   1.626   4.912  0.6845  3.3864  0.9383
 2529SOL     OW19219   3.320   2.763   3.972 -0.0563  0.5372 -0.2506
 2529SOL    HW119220   3.357   2.679   3.944  2.8248  0.8110  2.7607
 2529SOL    HW219221   3.236   2.756   3.926 -1.1212 -1.5749  1.9755
 2530SOL     OW19222   0.335   0.598  12.973  0.0601 -0.1758 -0.5519
 2530SOL    HW119223   0.393   0.542  12.922  0.3343 -2.3077  2.0924
 2530SOL    HW219224   0.281   0.625  12.898 -2.7916 -2.9213  0.5161
 2531SOL     OW19225   4.673   3.352  17.033  0.1941 -0.6026  0.1563
 2531SOL    HW119226   4.615   3.394  16.970 -1.8273 -1.6238  1.3390
 2531SOL    HW219227   0.022   3.367  16.995 -0.3798 -2.5580 -1.9869
 2532SOL     OW19228   2.833   4.042   5.513 -0.1980  0.1528 -0.8425
 2532SOL    HW119229   2.811   3.951   5.490 -1.5479  0.0237  0.9364
 2532SOL    HW219230   2.833   4.087   5.429 -1.6430 -0.1873 -1.0269
 2533SOL     OW19231   4.464   0.324  14.754  0.3023  0.4776 -0.0035
 2533SOL    HW119232   4.463   0.232  14.779  1.0082  0.7620  1.0461
 2533SOL    HW219233   4.462   0.325  14.658 -2.0882 -3.6180  0.0205
 2534SOL     OW19234   4.367   0.077   8.250 -0.7220 -0.5973 -0.3094
 2534SOL    HW119235   4.453   0.094   8.288 -0.8425  3.4606 -1.8702
 2534SOL    HW219236   4.396   0.064   8.160 -0.7474 -2.3101 -0.0728
 2535SOL     OW19237   0.005   2.820   7.660  0.8934 -0.0130 -0.2732
 2535SOL    HW119238   4.676   2.868   7.709  1.0415  1.1648 -1.2360
 2535SOL    HW219239   4.729   2.736   7.704 -2.3504 -0.0496 -1.3921
 2536SOL     OW19240   3.046   3.306   2.607  0.2884  0.1595 -0.4052
 2536SOL    HW119241   2.962   3.310   2.562 -0.7666  1.0992  1.6716
 2536SOL    HW219242   3.044   3.393   2.647  0.7314  0.2864 -0.6496
 2537SOL     OW19243   2.643   4.184  10.635  0.2300 -0.1708 -0.3415
 2537SOL    HW119244   2.576   4.164  10.569 -0.2531 -1.2918  0.4939
 2537SOL    HW219245   2.719   4.149  10.588 -0.2041  2.8213 -3.3560
 2538SOL     OW19246   0.742   2.738   5.853 -0.0921  0.3211 -0.0846
 2538SOL    HW119247   0.647   2.733   5.842  0.1768 -0.4625 -2.0365
 2538SOL    HW219248   0.759   2.681   5.779 -2.0744 -0.4915  0.0628
 2539SOL     OW19249   1.383   2.358   6.853 -0.2903 -0.2798  0.2860
 2539SOL    HW119250   1.379   2.317   6.939  0.6047  0.7606  0.8253
 2539SOL    HW219251   1.430   2.288   6.809  2.8708  0.5026  2.4055
 2540SOL     OW19252   3.082   2.679   3.307  0.3053 -0.1655 -0.0001
 2540SOL    HW119253   3.154   2.694   3.246  0.4970  1.6782  0.6884
 2540SOL    HW219254   3.043   2.766   3.316  0.9624  0.0317  0.9611
 2541SOL     OW19255   2.298   4.660   0.523 -0.8138 -0.5341 -0.3261
 2541SOL    HW119256   2.233   4.592   0.501 -0.6947 -1.0065  0.7985
 2541SOL    HW219257   2.235   4.719   0.563  1.0309  0.6432  0.8149
 2542SOL     OW19258   3.505   1.771   8.073 -0.4991 -0.5163  0.5210
 2542SOL    HW119259   3.424   1.768   8.123 -1.0079  0.0035 -0.2729
 2542SOL    HW219260   3.557   1.817   8.140 -2.1988  2.7186 -0.3759
 2543SOL     OW19261   0.697   1.986  17.035 -0.1130 -0.1119 -0.3556
 2543SOL    HW119262   0.737   1.929  17.101 -0.9701 -1.9784 -1.4497
 2543SOL    HW219263   0.686   2.072  17.075  0.5483 -1.1970  2.1165
 2544SOL     OW19264   2.333   4.348   4.550 -0.2353  0.0472  0.0772
 2544SOL    HW119265   2.288   4.343   4.635  0.8835  1.8460  0.7591
 2544SOL    HW219266   2.396   4.278   4.563 -0.7481 -0.2775  0.8208
 2545SOL     OW19267   4.304   2.154   0.217  0.1944 -0.6719 -0.2958
 2545SOL    HW119268   4.342   2.109   0.141  0.1290 -2.2143  0.5839
 2545SOL    HW219269   4.237   2.093   0.247  0.0295  0.0401  0.7847
 2546SOL     OW19270   1.894   3.116   2.877  0.6809  0.3323  0.0220
 2546SOL    HW119271   1.881   3.126   2.971 -0.1417 -1.1903  0.0722
 2546SOL    HW219272   1.990   3.120   2.880  0.6809 -0.0892  0.4670
 2547SOL     OW19273   2.202   1.274   0.602  0.7749 -0.2493  0.6148
 2547SOL    HW119274   2.145   1.278   0.526  1.7649  1.3591 -0.0430
 2547SOL    HW219275   2.292   1.267   0.571  0.6162  3.0588 -0.5422
 2548SOL     OW19276   2.113   0.559   9.201 -0.2566  0.6437  0.1480
 2548SOL    HW119277   2.106   0.542   9.107  1.5906 -0.8662  0.2702
 2548SOL    HW219278   2.116   0.467   9.227  0.7337  0.6362  0.0123
 2549SOL     OW19279   3.596   3.022   8.954  0.6868 -0.0170  0.0246
 2549SOL    HW119280   3.609   2.928   8.943  0.3244  0.1706 -1.9044
 2549SOL    HW219281   3.683   3.047   8.984 -0.2237  0.5329  2.2309
 2550SOL     OW19282   1.328   2.701   2.307 -0.2545  0.3665  0.1248
 2550SOL    HW119283   1.301   2.772   2.365  1.5026  2.1366 -1.2565
 2550SOL    HW219284   1.249   2.696   2.253  0.2818 -5.1935 -0.1218
 2551SOL     OW19285   2.199   3.185  11.761 -0.5122 -0.2332 -0.4787
 2551SOL    HW119286   2.251   3.265  11.753  1.3616 -1.5826 -1.8735
 2551SOL    HW219287   2.174   3.180  11.853  1.6134 -1.7030  0.0172
 2552SOL     OW19288   2.131   4.302   1.327  0.7726 -0.2089 -0.1632
 2552SOL    HW119289   2.085   4.270   1.249  0.0098  1.7274 -0.5320
 2552SOL    HW219290   2.057   4.302   1.387 -0.1774 -1.5359 -1.3540
 2553SOL     OW19291   4.705   3.615   6.955 -0.1625 -0.2723 -0.0864
 2553SOL    HW119292   4.671   3.705   6.959  1.1167  0.1641  0.7667
 2553SOL    HW219293   0.058   3.625   6.927 -0.3674  0.4731 -0.4900
 2554SOL     OW19294   0.320   2.757   4.775  0.0212 -0.4639  0.3073
 2554SOL    HW119295   0.335   2.754   4.680 -1.5052 -1.9607  0.1148
 2554SOL    HW219296   0.357   2.677   4.812  1.4715  0.2594  0.4450
 2555SOL     OW19297   4.510   2.006   6.907  0.0347 -0.7222 -0.3777
 2555SOL    HW119298   4.517   2.008   6.811 -0.6046 -0.8981 -0.4230
 2555SOL    HW219299   4.564   2.084   6.922 -3.1730  1.7377 -1.4758
 2556SOL     OW19300   1.760   0.003   3.123  0.1780 -0.3347 -0.5882
 2556SOL    HW119301   1.757   0.045   3.209  0.4396 -0.3573 -0.5691
 2556SOL    HW219302   1.806   4.660   3.149 -0.8237 -1.1164 -1.2261
 2557SOL     OW19303   2.992   4.634   8.734  0.2554 -0.2027  0.3222
 2557SOL    HW119304   2.904   4.619   8.701  0.2102  0.1104  0.2953
 2557SOL    HW219305   3.040   4.565   8.688 -0.3311 -0.8939  0.7465
 2558SOL     OW19306   3.366   0.177   0.644 -0.1873 -0.0318 -0.0337
 2558SOL    HW119307   3.373   0.206   0.735  0.4658  0.4630 -0.2380
 2558SOL    HW219308   3.329   0.263   0.624 -1.1914 -0.8091 -1.4873
 2559SOL     OW19309   3.236   2.142  16.851 -0.5543  0.6268  0.0969
 2559SOL    HW119310   3.273   2.133  16.763  2.1575  0.8650  1.2210
 2559SOL    HW219311   3.307   2.110  16.905  1.3190  2.0389 -1.5192
 2560SOL     OW19312   0.941   2.406   1.656 -0.3603 -0.2395 -0.7961
 2560SOL    HW119313   1.010   2.388   1.592 -1.0576 -1.1952 -1.2814
 2560SOL    HW219314   0.975   2.357   1.731  2.3154  1.0303 -1.1906
 2561SOL     OW19315   2.412   4.555  15.204  0.2085 -0.3947 -0.2355
 2561SOL    HW119316   2.436   4.485  15.143 -0.9940 -0.6014 -0.4752
 2561SOL    HW219317   2.449   4.510  15.280 -1.6594  0.1971  1.0279
 2562SOL     OW19318   1.195   3.992   0.246  0.2534  0.4993 -0.0093
 2562SOL    HW119319   1.123   4.024   0.191 -0.9259  0.8687  1.7385
 2562SOL    HW219320   1.256   4.065   0.235 -1.8802  2.3803  0.4677
 2563SOL     OW19321   4.091   2.438   6.882 -0.2427 -0.4609  0.1565
 2563SOL    HW119322   4.123   2.442   6.792  0.3600 -5.7953  0.1181
 2563SOL    HW219323   4.165   2.465   6.936  1.7348 -0.3572 -2.6087
 2564SOL     OW19324   2.674   1.804   0.342 -0.2204  0.3930  0.5165
 2564SOL    HW119325   2.580   1.792   0.348  0.0039 -0.6853  1.6847
 2564SOL    HW219326   2.689   1.890   0.302 -0.6960  0.9227  1.4726
 2565SOL     OW19327   0.713   0.721   9.357 -0.5056  0.1495  0.3369
 2565SOL    HW119328   0.636   0.673   9.386  0.1457 -0.2232  1.4616
 2565SOL    HW219329   0.790   0.669   9.382 -0.6023 -0.9016 -1.6005
 2566SOL     OW19330   0.383   4.349   6.080 -0.5097 -0.2015 -0.1156
 2566SOL    HW119331   0.375   4.427   6.135 -1.1627 -0.9106  0.7953
 2566SOL    HW219332   0.366   4.389   5.995 -3.4807  0.3233  0.7545
 2567SOL     OW19333   1.246   3.200   0.048  0.0866 -0.2894 -0.5574
 2567SOL    HW119334   1.222   3.227  17.709  0.0611  2.5335  0.2962
 2567SOL    HW219335   1.277   3.111   0.033 -1.4811 -1.0533  0.7316
 2568SOL     OW19336   3.465   2.698  14.093  0.0299 -0.0295  0.3258
 2568SOL    HW119337   3.459   2.794  14.091  0.6251  0.0442  1.5623
 2568SOL    HW219338   3.433   2.679  14.005  0.2179 -1.2325  0.5114
 2569SOL     OW19339   0.401   2.465   7.959 -0.1648  0.0715  0.5023
 2569SOL    HW119340   0.343   2.483   7.885  1.1801  0.2442 -0.5044
 2569SOL    HW219341   0.357   2.500   8.036  1.4636 -1.7221  2.2366
 2570SOL     OW19342   2.109   1.674   7.743  0.3900  0.3018  0.8848
 2570SOL    HW119343   2.177   1.635   7.689 -0.3605  0.6160 -0.2693
 2570SOL    HW219344   2.112   1.630   7.828 -0.9983 -0.0158  0.7740
 2571SOL     OW19345   4.638   3.187  10.207  0.5633 -0.2727 -0.3438
 2571SOL    HW119346   4.633   3.154  10.297 -2.1467  1.1673  0.0263
 2571SOL    HW219347   4.693   3.119  10.167 -0.1819 -0.0670 -1.7247
 2572SOL     OW19348   2.483   4.484   2.432 -0.3721 -0.1237 -0.4327
 2572SOL    HW119349   2.413   4.490   2.497  1.7012 -0.5072  1.8483
 2572SOL    HW219350   2.557   4.469   2.491  1.0403  1.3470 -1.8634
 2573SOL     OW19351   1.382   0.772   7.966 -0.3354 -0.0087 -0.1776
 2573SOL    HW119352   1.443   0.698   7.960 -1.1406 -0.6786  0.0294
 2573SOL    HW219353   1.438   0.850   7.962 -1.2978  0.7745  1.4691
 2574SOL     OW19354   2.472   1.757  12.733 -0.5225  0.1886 -0.4676
 2574SOL    HW119355   2.486   1.768  12.639  0.3527  0.8113 -0.2666
 2574SOL    HW219356   2.383   1.792  12.744 -0.4082  0.0549  0.8460
 2575SOL     OW19357   1.556   2.808  10.413 -0.2979 -0.1493 -0.0745
 2575SOL    HW119358   1.471   2.829  10.453 -0.2976 -0.6579  0.1789
 2575SOL    HW219359   1.591   2.897  10.409  0.2138 -0.2827  1.7237
 2576SOL     OW19360   4.532   3.269   7.825  0.1356 -0.2655  0.3526
 2576SOL    HW119361   4.441   3.297   7.812  0.2770 -0.1652 -0.4230
 2576SOL    HW219362   4.527   3.266   7.920 -1.2082 -2.5660  0.1971
 2577SOL     OW19363   3.209   3.920   0.152 -0.2567 -0.1711  0.1160
 2577SOL    HW119364   3.252   3.902   0.236 -0.5164 -0.8097  0.1134
 2577SOL    HW219365   3.187   3.829   0.131  2.2878 -0.9970  0.9076
 2578SOL     OW19366   4.154   2.331   5.001  0.0016  0.2259  0.3647
 2578SOL    HW119367   4.170   2.320   4.907  0.3056 -0.9616  0.5558
 2578SOL    HW219368   4.060   2.347   5.008 -0.3012 -0.9812 -0.9544
 2579SOL     OW19369   4.029   1.259   7.362 -0.6055  0.2604  0.3582
 2579SOL    HW119370   3.973   1.309   7.422  0.1700  0.9200  0.5294
 2579SOL    HW219371   4.102   1.320   7.351  0.8189 -1.4938  0.1041
 2580SOL     OW19372   0.476   1.153   4.684  0.1344 -1.0287  0.2300
 2580SOL    HW119373   0.430   1.111   4.756 -1.8401  1.7414  0.6143
 2580SOL    HW219374   0.547   1.195   4.732 -1.3416 -0.2470  1.7455
 2581SOL     OW19375   1.921   0.181  11.216  0.5800  0.0592 -0.2894
 2581SOL    HW119376   2.008   0.221  11.222  1.5373 -1.8707 -1.3557
 2581SOL    HW219377   1.880   0.247  11.160 -2.1519 -1.9013 -0.5667
 2582SOL     OW19378   0.405   3.391   2.079 -0.6054 -0.7281 -0.6445
 2582SOL    HW119379   0.497   3.370   2.090 -0.3857  1.4994  1.6767
 2582SOL    HW219380   0.408   3.419   1.987 -2.0468  0.1552 -0.4333
 2583SOL     OW19381   0.495   4.525   5.478  0.2248  0.6584 -0.3263
 2583SOL    HW119382   0.556   4.529   5.405 -0.6790 -0.5969 -1.1406
 2583SOL    HW219383   0.435   4.460   5.443  0.4281 -0.6741  1.8047
 2584SOL     OW19384   2.774   3.052   0.667  0.0844 -0.4201  0.1965
 2584SOL    HW119385   2.769   3.052   0.762  0.0033  1.8380  0.2048
 2584SOL    HW219386   2.868   3.043   0.649 -0.2070  2.2317 -2.7550
 2585SOL     OW19387   0.774   3.227  11.097  0.1541 -0.4411 -0.4382
 2585SOL    HW119388   0.798   3.311  11.057 -0.1142  0.0591  0.4623
 2585SOL    HW219389   0.770   3.252  11.189 -1.6717  2.9635 -1.4357
 2586SOL     OW19390   3.017   4.630  13.647  0.2484  0.3154  0.0865
 2586SOL    HW119391   3.046   4.608  13.736  0.2289  0.5243  0.1445
 2586SOL    HW219392   3.079   4.583  13.592  0.0160 -2.8459  2.5252
 2587SOL     OW19393   0.675   1.314   9.932  0.2649 -0.0474 -0.1397
 2587SOL    HW119394   0.703   1.311  10.023 -2.4610  0.8486  0.7303
 2587SOL    HW219395   0.684   1.408   9.916  2.1276  0.1553  1.9710
 2588SOL     OW19396   1.872   3.078  12.364  0.5196  0.5115 -0.2687
 2588SOL    HW119397   1.959   3.114  12.382  0.7601  0.0477 -0.4929
 2588SOL    HW219398   1.883   2.989  12.396 -1.2935  0.2894 -0.2430
 2589SOL     OW19399   3.918   2.282  17.125 -0.0759  0.0335  0.0456
 2589SOL    HW119400   3.890   2.196  17.157 -1.5207  1.0070  1.4088
 2589SOL    HW219401   3.994   2.299  17.181 -0.0181 -0.6136  0.1623
 2590SOL     OW19402   2.205   4.708   9.869  0.4829 -0.1287  0.2405
 2590SOL    HW119403   2.229   4.641   9.932 -0.0819  0.8392  1.4928
 2590SOL    HW219404   2.255   4.662   9.802 -1.9882 -0.1602 -1.5776
 2591SOL     OW19405   2.867   0.509   8.647  0.4262 -0.0580  0.3762
 2591SOL    HW119406   2.954   0.487   8.614 -0.3301  1.9865 -3.0398
 2591SOL    HW219407   2.871   0.457   8.727 -1.0044  0.3357  0.7058
 2592SOL     OW19408   2.883   1.553   5.843  0.3052  0.0749  0.0832
 2592SOL    HW119409   2.945   1.616   5.879 -1.0768  0.3984  1.8624
 2592SOL    HW219410   2.844   1.515   5.921 -1.2091  2.0950  0.3262
 2593SOL     OW19411   1.762   2.022   3.411  0.0984 -0.3886  0.1326
 2593SOL    HW119412   1.671   2.051   3.401 -0.1498 -1.4186 -0.4998
 2593SOL    HW219413   1.760   1.964   3.335 -2.3002 -2.2458  1.6034
 2594SOL     OW19414   3.583   4.115   9.092 -0.3593 -0.4326  0.3167
 2594SOL    HW119415   3.607   4.096   9.183  0.5553 -2.2104 -0.2799
 2594SOL    HW219416   3.511   4.053   9.082  0.0844 -0.6147 -1.6522
 2595SOL     OW19417   1.364   1.851  12.274 -0.1480  0.1806 -1.0243
 2595SOL    HW119418   1.449   1.890  12.296 -1.9138  1.8459  2.7658
 2595SOL    HW219419   1.335   1.803  12.351 -0.2163 -0.4691 -1.4582
 2596SOL     OW19420   3.178   1.234   3.307 -0.1822 -0.2322 -0.2268
 2596SOL    HW119421   3.123   1.157   3.294  0.4000 -0.5858 -0.6238
 2596SOL    HW219422   3.262   1.194   3.331 -1.9250 -2.1304  2.6786
 2597SOL     OW19423   0.075   1.027   3.805  0.4101  0.2819  0.0201
 2597SOL    HW119424   0.121   1.109   3.791  1.8470 -0.2971  1.4797
 2597SOL    HW219425   0.118   0.955   3.759 -1.2852 -0.5521 -0.2656
 2598SOL     OW19426   0.560   4.227   8.250 -0.3790 -0.0179 -0.2459
 2598SOL    HW119427   0.475   4.216   8.207 -0.2239 -0.4774 -0.4340
 2598SOL    HW219428   0.549   4.312   8.293 -0.2257 -0.5127  0.7754
 2599SOL     OW19429   4.576   0.401   7.194  0.0779  0.3223 -0.0223
 2599SOL    HW119430   4.562   0.495   7.207  2.2017  0.4102  1.5324
 2599SOL    HW219431   4.564   0.362   7.280 -0.2674 -1.4332 -0.8543
 2600SOL     OW19432   2.428   1.581   4.025 -0.0597  0.3188 -0.2436
 2600SOL    HW119433   2.487   1.636   3.973 -0.5878  1.1771  0.0569
 2600SOL    HW219434   2.484   1.527   4.081 -0.2289  0.3693 -0.0242
 2601SOL     OW19435   1.329   3.816   8.544 -0.6167 -0.3389  0.3677
 2601SOL    HW119436   1.316   3.910   8.528  0.3739  0.0793  2.0027
 2601SOL    HW219437   1.265   3.771   8.489 -3.7833  2.1112  1.9843
 2602SOL     OW19438   1.363   4.124   5.134 -0.0132 -0.7927 -0.1787
 2602SOL    HW119439   1.417   4.087   5.064  0.2644  0.3797 -0.5819
 2602SOL    HW219440   1.271   4.119   5.107  0.8689  0.6008 -3.4421
 2603SOL     OW19441   2.751   0.859   2.259  0.0115  0.5112  0.0436
 2603SOL    HW119442   2.701   0.879   2.179 -0.5313 -1.3636 -0.0847
 2603SOL    HW219443   2.710   0.780   2.296 -1.1247 -0.4761 -3.3073
 2604SOL     OW19444   3.228   1.829   0.900 -0.2324  0.5419  0.0313
 2604SOL    HW119445   3.309   1.790   0.932 -0.4704  0.6414  0.7609
 2604SOL    HW219446   3.177   1.750   0.882 -1.2650  0.4458  3.3497
 2605SOL     OW19447   1.989   4.255   5.447 -0.4079  0.3457  0.7595
 2605SOL    HW119448   1.936   4.259   5.527  0.3934 -0.5392  1.3444
 2605SOL    HW219449   2.001   4.349   5.432  1.2774  0.0051  0.0240
 2606SOL     OW19450   0.942   1.105  16.606 -0.4522 -0.4130  0.7276
 2606SOL    HW119451   0.958   1.020  16.647 -0.6852  0.1456  1.9882
 2606SOL    HW219452   0.949   1.079  16.514  1.2938  1.7426  0.2507
 2607SOL     OW19453   2.776   1.952   2.973  0.4043 -0.3548  0.0792
 2607SOL    HW119454   2.698   1.898   2.963  1.0871 -1.2730 -0.3360
 2607SOL    HW219455   2.823   1.900   2.908 -0.0115  0.2380 -0.6838
 2608SOL     OW19456   0.586   3.475   7.377 -0.2965  0.1171 -0.2597
 2608SOL    HW119457   0.644   3.551   7.369 -0.0700 -0.1742 -1.3551
 2608SOL    HW219458   0.618   3.422   7.304 -0.4162 -2.8550  1.8128
 2609SOL     OW19459   1.375   0.495   4.200  0.2462  0.4408 -0.3423
 2609SOL    HW119460   1.288   0.496   4.239  0.0212 -0.6811 -0.8009
 2609SOL    HW219461   1.368   0.550   4.122 -1.3933  0.2966 -0.2971
 2610SOL     OW19462   0.304   1.133   2.955  0.1291 -0.1334  0.2753
 2610SOL    HW119463   0.226   1.126   3.009  0.4373  1.6963  0.9595
 2610SOL    HW219464   0.273   1.087   2.877 -0.1285  0.6484 -0.0828
 2611SOL     OW19465   2.703   1.253   3.964 -0.1902 -0.3554  0.5885
 2611SOL    HW119466   2.613   1.221   3.958  0.1055 -1.2234  0.7305
 2611SOL    HW219467   2.743   1.165   3.962  0.3002 -0.0820 -1.5615
 2612SOL     OW19468   1.016   4.444   5.135  0.5165  0.2110  0.6812
 2612SOL    HW119469   0.921   4.437   5.125  0.1500  2.1532  2.9378
 2612SOL    HW219470   1.035   4.511   5.201  1.2636  0.9733 -0.2958
 2613SOL     OW19471   3.051   3.869   2.092 -0.3591 -0.3656  0.6705
 2613SOL    HW119472   3.011   3.810   2.155 -0.1140 -0.5433  0.6603
 2613SOL    HW219473   3.088   3.814   2.022  0.1042  1.0598 -0.2079
 2614SOL     OW19474   0.222   2.679   6.954  0.9195  0.3673 -0.4394
 2614SOL    HW119475   0.234   2.684   6.859  1.5131 -0.5065 -0.4044
 2614SOL    HW219476   0.212   2.768   6.988  1.5992 -0.5713  2.2525
 2615SOL     OW19477   2.407   3.128   6.190 -0.1774  0.3018 -0.4658
 2615SOL    HW119478   2.360   3.168   6.116 -1.3185  0.7531  0.4934
 2615SOL    HW219479   2.333   3.094   6.240 -0.8062  2.3289 -0.0069
 2616SOL     OW19480   0.063   4.558   6.621  0.1311  0.5717  0.3983
 2616SOL    HW119481   0.045   4.593   6.708 -0.6885 -0.4425  0.6399
 2616SOL    HW219482   4.720   4.509   6.607  0.0194  0.6198  0.8671
 2617SOL     OW19483   0.729   3.318  11.349 -0.1394 -0.3148  0.5411
 2617SOL    HW119484   0.745   3.406  11.314  0.7817 -0.7040  0.0122
 2617SOL    HW219485   0.700   3.334  11.439 -1.6659  1.2495 -0.2313
 2618SOL     OW19486   1.771   0.063   0.215 -0.0392 -0.1783  0.2106
 2618SOL    HW119487   1.750   0.086   0.125  0.9196  0.2979  0.1104
 2618SOL    HW219488   1.867   0.060   0.213 -0.0537  0.6170 -1.5769
 2619SOL     OW19489   2.750   3.492   6.182  0.1432  0.1428  0.1677
 2619SOL    HW119490   2.759   3.410   6.132  0.8918 -0.3008  1.0421
 2619SOL    HW219491   2.791   3.472   6.266  2.2356 -0.0084 -0.9102
 2620SOL     OW19492   0.373   2.863   5.285 -0.3756  0.5118  0.0956
 2620SOL    HW119493   0.391   2.918   5.209  0.3754 -0.1861 -0.2245
 2620SOL    HW219494   0.315   2.798   5.247  0.6094  0.7636 -1.8396
 2621SOL     OW19495   3.232   1.064  16.898  0.0436 -0.1833 -0.3574
 2621SOL    HW119496   3.147   1.023  16.884  0.6164 -1.9803  1.3402
 2621SOL    HW219497   3.252   1.098  16.811 -1.2152  1.3343 -0.0401
 2622SOL     OW19498   2.271   3.932  15.129 -0.1015  0.0709 -1.0584
 2622SOL    HW119499   2.191   3.902  15.086  0.2306 -0.1425 -1.5216
 2622SOL    HW219500   2.263   4.027  15.120  0.8016  0.3377  0.7842
 2623SOL     OW19501   0.817   3.634   3.050  0.0212 -0.4449  0.4865
 2623SOL    HW119502   0.785   3.560   3.102 -0.7808 -0.8811 -0.6367
 2623SOL    HW219503   0.862   3.686   3.117  1.2269  0.1204 -0.7759
 2624SOL     OW19504   1.430   4.121  14.469  0.1660  0.1491  0.2366
 2624SOL    HW119505   1.378   4.176  14.528 -1.2055 -1.0373  0.1120
 2624SOL    HW219506   1.381   4.119  14.387  0.2243 -1.3296  0.2471
 2625SOL     OW19507   2.381   2.069  15.474  0.3689 -0.2433 -0.3270
 2625SOL    HW119508   2.367   2.001  15.539 -1.5005  0.5150  0.0556
 2625SOL    HW219509   2.474   2.061  15.452  0.7184 -1.4381  1.6005
 2626SOL     OW19510   1.928   3.041   0.967 -0.0566 -0.1478  0.1502
 2626SOL    HW119511   1.952   3.134   0.964 -0.9196  0.0601 -0.1888
 2626SOL    HW219512   1.997   3.004   0.911 -0.1498  0.4335 -0.3463
 2627SOL     OW19513   3.375   0.115   4.158  0.4724  0.1654  0.0868
 2627SOL    HW119514   3.295   0.069   4.183  0.2017  1.7733  2.1947
 2627SOL    HW219515   3.440   0.060   4.201  1.8559  1.2714 -0.5731
 2628SOL     OW19516   0.511   3.130   6.632  0.2712 -0.8186 -0.0228
 2628SOL    HW119517   0.425   3.148   6.670  1.7045  0.2972  2.6808
 2628SOL    HW219518   0.487   3.057   6.575  0.0324 -1.1252  0.4669
 2629SOL     OW19519   1.039   0.148   6.624 -0.2251 -0.1111  0.0528
 2629SOL    HW119520   1.131   0.144   6.601  0.1332 -0.7199  1.5788
 2629SOL    HW219521   0.994   0.076   6.579 -5.1535  2.7405  0.3660
 2630SOL     OW19522   0.412   0.156  12.121 -0.1536  0.2415 -0.6178
 2630SOL    HW119523   0.387   0.065  12.105 -0.2276  0.5837 -2.5046
 2630SOL    HW219524   0.386   0.168  12.212  0.1046  0.7266 -0.6047
 2631SOL     OW19525   1.370   0.819   3.397 -0.0106 -0.1809  0.4818
 2631SOL    HW119526   1.309   0.747   3.414  0.8864 -0.9100  0.6505
 2631SOL    HW219527   1.307   0.891   3.402  2.2310  1.8733 -0.8385
 2632SOL     OW19528   3.352   0.047  14.086  0.0984 -0.1233 -0.1950
 2632SOL    HW119529   3.297   0.075  14.159  0.3935 -0.8748  0.3208
 2632SOL    HW219530   3.435   0.021  14.125 -0.6997 -0.2450  1.4098
 2633SOL     OW19531   1.266   4.638   6.384  0.0455  0.0451  0.9398
 2633SOL    HW119532   1.249   4.731   6.368 -1.0404 -0.1460  1.0087
 2633SOL    HW219533   1.279   4.613   6.293 -1.5619 -1.3130  1.0871
 2634SOL     OW19534   3.581   0.379   8.451  0.1847 -0.2311 -0.2183
 2634SOL    HW119535   3.493   0.383   8.412  1.6317  0.6352 -3.4274
 2634SOL    HW219536   3.590   0.447   8.517  1.4297 -0.3158 -0.2972
 2635SOL     OW19537   0.254   0.350   8.201  0.3714  0.0579 -0.2446
 2635SOL    HW119538   0.261   0.255   8.209 -1.2700 -0.1122 -0.7419
 2635SOL    HW219539   0.282   0.358   8.110 -1.5029  1.3218 -0.7185
 2636SOL     OW19540   3.423   2.204   7.070 -0.1327 -0.4919  0.8804
 2636SOL    HW119541   3.371   2.189   7.149 -1.3245 -0.2054  0.1529
 2636SOL    HW219542   3.502   2.238   7.111 -0.0675 -0.3293  0.6159
 2637SOL     OW19543   1.350   4.520   8.457  0.5052  0.2858  0.1298
 2637SOL    HW119544   1.373   4.604   8.497 -1.5729  0.6846  0.4673
 2637SOL    HW219545   1.419   4.460   8.488 -0.5854 -0.9489  0.1595
 2638SOL     OW19546   1.530   0.303   4.054 -0.4344 -0.1021  0.2628
 2638SOL    HW119547   1.458   0.354   4.091 -0.5225  0.2989 -0.4701
 2638SOL    HW219548   1.583   0.301   4.134  1.2034 -0.5792 -0.8488
 2639SOL     OW19549   2.801   3.679   7.398  0.5948 -0.6033 -0.4829
 2639SOL    HW119550   2.741   3.746   7.365  0.0128 -0.0355  1.6853
 2639SOL    HW219551   2.886   3.722   7.384 -0.9071  2.2665 -0.8642
 2640SOL     OW19552   1.052   4.357   3.323  0.1885 -0.6723 -0.2257
 2640SOL    HW119553   1.041   4.268   3.358 -1.7672 -0.4355 -0.2698
 2640SOL    HW219554   0.978   4.362   3.263 -1.8820 -1.6255  2.2487
 2641SOL     OW19555   1.033   4.520   6.161 -0.1511  0.2843  0.3411
 2641SOL    HW119556   0.938   4.508   6.154  0.0782 -1.5138  0.3444
 2641SOL    HW219557   1.034   4.612   6.186  2.9519  0.4242 -0.3873
 2642SOL     OW19558   3.187   2.938   2.015 -0.1915  0.4954 -0.0489
 2642SOL    HW119559   3.240   2.863   1.988 -0.5059  0.3473 -0.2552
 2642SOL    HW219560   3.230   2.956   2.099 -0.9109  1.9420  0.0005
 2643SOL     OW19561   4.077   4.184   5.210 -0.1024 -0.1777  0.3829
 2643SOL    HW119562   4.035   4.140   5.137 -0.3009  0.7197 -0.0506
 2643SOL    HW219563   4.164   4.144   5.207 -0.6404 -1.3326  0.3509
 2644SOL     OW19564   1.897   2.950   6.481  0.1108  0.2265  0.0266
 2644SOL    HW119565   1.822   2.994   6.522  0.5905  0.1032  1.0240
 2644SOL    HW219566   1.872   2.979   6.393 -1.4453 -1.4181 -0.0734
 2645SOL     OW19567   4.623   1.205   5.233  0.3923  0.0786  0.1181
 2645SOL    HW119568   4.576   1.281   5.267 -1.0663  0.4015 -2.6333
 2645SOL    HW219569   4.700   1.252   5.201  0.0744  0.6681  0.2346
 2646SOL     OW19570   4.251   1.097   6.946 -0.0622 -0.7929  0.2692
 2646SOL    HW119571   4.346   1.098   6.960  0.0389 -1.5677 -0.3083
 2646SOL    HW219572   4.214   1.044   7.017  0.5121 -0.6970  0.6363
 2647SOL     OW19573   2.406   1.683   7.579 -0.1978  0.3332 -0.5182
 2647SOL    HW119574   2.482   1.697   7.522  0.2690  0.4229  0.1143
 2647SOL    HW219575   2.429   1.596   7.612  2.1679  1.2212  0.2145
 2648SOL     OW19576   1.087   1.789   6.087 -0.2145 -0.5465 -0.6349
 2648SOL    HW119577   1.181   1.775   6.083 -0.3484 -1.1684 -1.7671
 2648SOL    HW219578   1.081   1.842   6.167 -0.7098 -0.5768 -0.6516
 2649SOL     OW19579   3.959   2.966   2.952  0.3856  0.2315 -0.6031
 2649SOL    HW119580   3.900   2.892   2.937 -0.8646  1.3470 -1.1569
 2649SOL    HW219581   4.044   2.921   2.953 -0.5038 -1.4339  0.1045
 2650SOL     OW19582   2.956   0.583   6.953  0.0275  0.1000 -0.5430
 2650SOL    HW119583   3.016   0.609   6.883  0.6023  1.2706  0.3573
 2650SOL    HW219584   2.945   0.491   6.932  1.0396  0.4218 -2.4697
 2651SOL     OW19585   2.026   4.308  11.251 -0.1246 -0.0130  0.0960
 2651SOL    HW119586   2.105   4.310  11.306 -1.6646 -0.6268  2.2979
 2651SOL    HW219587   1.994   4.390  11.287  0.8445  1.3815 -2.1602
 2652SOL     OW19588   1.338   0.886   6.648  0.6819  0.2840  0.1814
 2652SOL    HW119589   1.293   0.803   6.632  0.7475  0.6277 -1.7220
 2652SOL    HW219590   1.428   0.856   6.645  1.1761  1.7830 -0.1998
 2653SOL     OW19591   2.070   2.035   4.957 -0.3421 -0.2678 -0.2337
 2653SOL    HW119592   2.035   1.955   4.918  1.4256  0.8679 -4.1322
 2653SOL    HW219593   2.150   2.051   4.906  0.2220  0.7923  0.9859
 2654SOL     OW19594   4.676   0.154  16.562 -0.4090 -0.3189 -0.4404
 2654SOL    HW119595   4.620   0.226  16.534 -1.2697 -1.5541 -1.8792
 2654SOL    HW219596   4.722   0.128  16.482 -0.5813 -0.9250 -0.3461
 2655SOL     OW19597   4.546   4.352  12.534  0.0649 -0.4618  0.4733
 2655SOL    HW119598   4.479   4.359  12.602 -1.6701  0.0115 -1.3202
 2655SOL    HW219599   4.498   4.360  12.452 -0.1445  1.9562  0.8531
 2656SOL     OW19600   3.587   2.183   4.703  0.4976  0.0090 -0.1328
 2656SOL    HW119601   3.504   2.187   4.655  1.4224  0.8982 -1.6629
 2656SOL    HW219602   3.568   2.270   4.738 -0.7304 -0.2636 -0.1027
 2657SOL     OW19603   3.403   1.739   5.052  0.1949  0.5062 -0.2430
 2657SOL    HW119604   3.422   1.709   5.141  3.3850  0.8693 -0.8344
 2657SOL    HW219605   3.325   1.793   5.069  1.1404  1.7806  0.0382
 2658SOL     OW19606   0.244   4.010   4.478  0.7780 -0.2274 -0.6022
 2658SOL    HW119607   0.169   4.034   4.532  0.6906  2.1075 -1.7785
 2658SOL    HW219608   0.253   3.918   4.501 -0.2107 -0.0234  0.6244
 2659SOL     OW19609   3.089   1.605   6.147 -0.2255 -0.3367 -0.1784
 2659SOL    HW119610   3.016   1.666   6.140 -1.0913 -1.2756  0.7017
 2659SOL    HW219611   3.168   1.658   6.151 -1.4967  1.7103 -2.1989
 2660SOL     OW19612   0.651   0.030   1.946 -0.8379 -0.4527 -0.0720
 2660SOL    HW119613   0.705   4.717   2.006 -0.7431 -1.6619 -1.1753
 2660SOL    HW219614   0.641   4.714   1.867 -1.7276  0.1499 -0.3740
 2661SOL     OW19615   2.234   0.090   5.174  0.9056 -0.2033  0.3414
 2661SOL    HW119616   2.322   0.128   5.183  1.7212 -2.3477  1.4810
 2661SOL    HW219617   2.226   0.055   5.085  1.9167  0.9805 -0.2212
 2662SOL     OW19618   1.646   4.316  10.974  0.5503 -0.2995 -0.2553
 2662SOL    HW119619   1.596   4.364  10.909  0.8920  1.1017  0.5218
 2662SOL    HW219620   1.704   4.390  10.992 -0.1017  0.0324  0.4551
 2663SOL     OW19621   2.901   4.108   3.462 -0.2361 -0.2006 -0.0012
 2663SOL    HW119622   2.931   4.138   3.376 -0.5339 -3.1327 -1.1516
 2663SOL    HW219623   2.893   4.014   3.447 -1.5432 -0.5569  2.9714
 2664SOL     OW19624   2.168   4.505   7.539 -0.0462  0.0690  0.1414
 2664SOL    HW119625   2.167   4.538   7.629 -0.9620 -0.8067  0.4603
 2664SOL    HW219626   2.243   4.543   7.495  0.8537 -2.0788 -0.2038
 2665SOL     OW19627   0.269   0.243   6.312 -0.1385  0.0755  0.4698
 2665SOL    HW119628   0.250   0.154   6.341  1.6794  1.0115  4.5044
 2665SOL    HW219629   0.225   0.238   6.227  1.3945 -0.3080 -0.3052
 2666SOL     OW19630   4.313   2.444  12.769  0.0651 -0.1980 -0.5627
 2666SOL    HW119631   4.358   2.483  12.844 -1.5547 -1.7841  1.2328
 2666SOL    HW219632   4.224   2.481  12.772  0.3120  0.3816 -0.4859
 2667SOL     OW19633   4.612   2.197  10.097 -0.4149 -0.6383  0.4662
 2667SOL    HW119634   4.581   2.108  10.112 -1.6388 -0.7766 -2.8941
 2667SOL    HW219635   4.700   2.189  10.135 -0.8005  1.1549  1.7435
 2668SOL     OW19636   4.207   2.864   9.179 -0.4972 -0.0959 -0.4663
 2668SOL    HW119637   4.173   2.862   9.269 -1.0596 -0.1679 -0.6843
 2668SOL    HW219638   4.216   2.774   9.147  0.4463 -1.0409  2.3674
 2669SOL     OW19639   0.848   3.010   2.672 -0.3700 -0.2152 -0.6917
 2669SOL    HW119640   0.903   3.088   2.667  0.8713 -1.0651 -0.1809
 2669SOL    HW219641   0.898   2.957   2.611  0.8789  0.4675 -0.2557
 2670SOL     OW19642   4.225   4.538   7.095 -0.4186  0.2789  0.5652
 2670SOL    HW119643   4.294   4.542   7.162 -0.2672 -0.1959  0.4400
 2670SOL    HW219644   4.229   4.619   7.045 -1.3747  0.6865  1.1617
 2671SOL     OW19645   3.865   4.043   2.276 -0.3286 -0.5094 -0.1463
 2671SOL    HW119646   3.781   4.006   2.248  0.0484 -1.0479 -0.5663
 2671SOL    HW219647   3.912   3.966   2.308 -1.3325 -0.2925  1.8134
 2672SOL     OW19648   0.657   4.025   0.650  0.9260 -0.0183  0.0764
 2672SOL    HW119649   0.569   4.059   0.632  1.5536  1.5137 -0.1031
 2672SOL    HW219650   0.680   4.049   0.740 -0.7935  0.2243  0.4643
 2673SOL     OW19651   2.214   3.264  17.356 -0.6394 -0.3712 -0.0891
 2673SOL    HW119652   2.252   3.351  17.342 -0.4671 -0.1501  1.6591
 2673SOL    HW219653   2.193   3.237  17.267  1.2448 -0.9352 -0.3718
 2674SOL     OW19654   4.260   3.284   6.151 -0.4795 -0.1045  0.2755
 2674SOL    HW119655   4.227   3.223   6.217 -0.1750 -3.0314 -2.2565
 2674SOL    HW219656   4.284   3.361   6.202 -1.1264  0.0587  0.3376
 2675SOL     OW19657   0.072   0.212   6.737 -0.0993 -0.3765 -0.3404
 2675SOL    HW119658   0.143   0.264   6.699 -0.8362  0.8617  0.0025
 2675SOL    HW219659   0.056   0.278   6.804 -0.3205 -0.5600 -0.2114
 2676SOL     OW19660   3.010   0.004   0.880 -0.2626 -0.1785  0.0052
 2676SOL    HW119661   3.103   4.728   0.859 -0.9022 -1.6152 -1.8658
 2676SOL    HW219662   3.011   0.096   0.907 -3.0748  0.3064 -1.5703
 2677SOL     OW19663   3.128   1.330   6.142 -0.0168 -0.4696  0.7278
 2677SOL    HW119664   3.096   1.418   6.123  1.4290 -0.0289  0.3783
 2677SOL    HW219665   3.159   1.345   6.231 -0.1433  2.9853  0.1725
 2678SOL     OW19666   3.673   2.782   6.160 -0.1142  0.2664  0.2906
 2678SOL    HW119667   3.696   2.811   6.071  1.1525  1.8347  1.1397
 2678SOL    HW219668   3.578   2.781   6.158 -0.0734 -0.6064 -1.2057
 2679SOL     OW19669   1.450   2.371  16.654  0.3611 -0.1440 -0.1301
 2679SOL    HW119670   1.478   2.365  16.563  1.5372 -1.2571  0.3105
 2679SOL    HW219671   1.359   2.399  16.644 -0.6500 -2.8623  1.4283
 2680SOL     OW19672   0.770   1.640   5.079 -0.3018  0.2840  0.3571
 2680SOL    HW119673   0.845   1.664   5.023  1.4429 -2.5242  1.4642
 2680SOL    HW219674   0.716   1.718   5.067 -1.9148 -1.1274 -1.5377
 2681SOL     OW19675   0.640   1.888   9.935 -0.1457 -0.2105  0.1051
 2681SOL    HW119676   0.680   1.842  10.009  0.1142 -1.5288 -0.8549
 2681SOL    HW219677   0.567   1.834   9.906 -1.4334  2.3095 -1.3955
 2682SOL     OW19678   3.526   3.540  13.356  0.2441  0.4576 -0.2323
 2682SOL    HW119679   3.467   3.494  13.296  0.1954  0.0266  0.1532
 2682SOL    HW219680   3.604   3.550  13.301  0.5119 -0.1534  0.0286
 2683SOL     OW19681   4.717   1.552   5.453  0.5071 -0.1652 -0.1884
 2683SOL    HW119682   4.716   1.632   5.506  0.1063  0.3329 -0.9648
 2683SOL    HW219683   0.049   1.506   5.501  2.0309  1.8155 -0.5201
 2684SOL     OW19684   2.586   3.136   0.073  0.2654 -0.1483  0.0764
 2684SOL    HW119685   2.497   3.170   0.081  0.5045  1.0559 -2.5498
 2684SOL    HW219686   2.619   3.178  17.743  2.0188 -1.6547  0.0314
 2685SOL     OW19687   3.053   3.497  14.588 -0.0528 -0.5480 -0.4205
 2685SOL    HW119688   3.139   3.486  14.631  0.5314  0.7690 -1.2555
 2685SOL    HW219689   3.071   3.474  14.497 -1.8181 -0.5180 -0.7628
 2686SOL     OW19690   0.778   1.552   6.942 -0.1438 -0.4773  0.7184
 2686SOL    HW119691   0.836   1.520   7.011 -0.2196 -3.7952 -0.7417
 2686SOL    HW219692   0.838   1.576   6.872 -0.7746 -1.6645 -0.2416
 2687SOL     OW19693   1.370   0.915   4.436 -0.0476 -0.6160  0.3951
 2687SOL    HW119694   1.452   0.873   4.411  0.3729 -0.9199  2.2881
 2687SOL    HW219695   1.302   0.890   4.374 -1.2094  1.2254  0.9107
 2688SOL     OW19696   0.658   0.874   1.514 -0.3114  0.3613 -0.4092
 2688SOL    HW119697   0.701   0.948   1.472  0.5164  0.1428  0.0495
 2688SOL    HW219698   0.725   0.809   1.534 -0.3515  0.8090  1.1314
 2689SOL     OW19699   2.470   1.675   2.449 -0.4134  0.5466  0.0614
 2689SOL    HW119700   2.546   1.732   2.454  0.7176 -1.1792  2.4269
 2689SOL    HW219701   2.433   1.704   2.365 -0.6186 -1.5989 -0.5878
 2690SOL     OW19702   3.018   0.352   9.667 -0.4244  0.4627  0.1995
 2690SOL    HW119703   2.933   0.390   9.691 -0.4315  0.9365 -0.5873
 2690SOL    HW219704   3.012   0.279   9.728 -2.4257  2.4948  2.4602
 2691SOL     OW19705   3.947   4.140   8.505  0.5319 -0.7021 -0.3752
 2691SOL    HW119706   3.870   4.085   8.517 -0.2699  0.8772  1.6149
 2691SOL    HW219707   3.971   4.122   8.414 -1.1435  0.0081 -0.9580
 2692SOL     OW19708   4.623   0.526   8.170 -0.4425  0.4136  0.1415
 2692SOL    HW119709   4.678   0.604   8.168  0.1351  0.0217  0.8668
 2692SOL    HW219710   4.630   0.500   8.261 -1.9095 -1.1108 -0.1774
 2693SOL     OW19711   2.448   2.241   7.698  0.2284  0.4352 -0.2009
 2693SOL    HW119712   2.476   2.169   7.643  2.0723  0.9434  0.0586
 2693SOL    HW219713   2.482   2.219   7.785  1.0450 -1.0634 -0.8985
 2694SOL     OW19714   4.506   2.612  14.290 -0.4548  0.0455  0.1805
 2694SOL    HW119715   4.489   2.685  14.231  1.0537  1.0317  0.9530
 2694SOL    HW219716   4.568   2.555  14.245  1.4729  3.1223 -1.0761
 2695SOL     OW19717   1.133   1.642  11.641  0.1820 -0.0209  0.1751
 2695SOL    HW119718   1.190   1.598  11.704  0.7760 -0.7587 -0.8674
 2695SOL    HW219719   1.157   1.607  11.555 -0.2581 -2.0191  0.8499
 2696SOL     OW19720   2.974   3.240   4.540  0.5395 -0.1511  0.1016
 2696SOL    HW119721   2.938   3.285   4.617  0.1622 -0.7598  0.2806
 2696SOL    HW219722   2.961   3.309   4.475 -2.5173 -0.8035  0.0229
 2697SOL     OW19723   1.073   3.098  12.209 -0.1094 -0.0715 -0.0822
 2697SOL    HW119724   1.081   3.021  12.153 -3.5373 -0.4363 -0.0914
 2697SOL    HW219725   0.999   3.078  12.266 -2.0343  0.4104 -2.4148
 2698SOL     OW19726   0.515   0.824  14.253  0.2686 -0.6173 -0.2991
 2698SOL    HW119727   0.572   0.828  14.329  1.5913 -1.0631 -1.2602
 2698SOL    HW219728   0.546   0.742  14.214 -2.1146 -1.6706  0.0126
 2699SOL     OW19729   0.234   0.893   5.861  0.2941  0.1085  0.6502
 2699SOL    HW119730   0.199   0.967   5.911 -0.3553 -0.6793  1.3772
 2699SOL    HW219731   0.260   0.928   5.776  1.1232  0.2787  0.9764
 2700SOL     OW19732   1.174   4.552   3.117  0.0199 -0.5421  0.1173
 2700SOL    HW119733   1.150   4.643   3.136  2.3554  0.0900  0.1003
 2700SOL    HW219734   1.177   4.518   3.207  0.6847  1.3144  0.8041
 2701SOL     OW19735   3.976   2.050   9.394  0.0364  0.0864 -0.0729
 2701SOL    HW119736   3.974   2.079   9.486 -0.6606 -1.6466  0.4591
 2701SOL    HW219737   3.883   2.029   9.384  0.3021 -0.6513 -0.9633
 2702SOL     OW19738   0.620   2.932   6.343 -0.0340  0.1169 -0.5186
 2702SOL    HW119739   0.680   3.006   6.331  0.7576 -0.4664 -0.2095
 2702SOL    HW219740   0.554   2.946   6.275 -0.5443  1.3090  0.2210
 2703SOL     OW19741   2.120   2.568  12.316 -0.6045  0.1458  0.6486
 2703SOL    HW119742   2.167   2.501  12.365  3.2943  1.5621 -1.1097
 2703SOL    HW219743   2.115   2.531  12.228 -1.7650  0.3810  0.6236
 2704SOL     OW19744   4.236   2.421   2.088  0.0449  0.1539  0.1632
 2704SOL    HW119745   4.229   2.515   2.105  0.0213  0.4044 -1.2433
 2704SOL    HW219746   4.170   2.401   2.022  1.4375 -1.0700 -0.8589
 2705SOL     OW19747   3.196   3.236   6.253 -0.2445  0.3743 -0.7482
 2705SOL    HW119748   3.201   3.178   6.177 -1.4036  0.7401 -1.1051
 2705SOL    HW219749   3.287   3.262   6.266 -0.1860  0.2985 -1.0133
 2706SOL     OW19750   1.190   2.698  12.275  0.2230 -0.3950 -0.0168
 2706SOL    HW119751   1.204   2.603  12.279  0.4770 -0.3863 -0.7052
 2706SOL    HW219752   1.098   2.700  12.250  0.2999  1.8980 -0.1531
 2707SOL     OW19753   0.443   3.557   1.662  0.4311  0.3389  0.0354
 2707SOL    HW119754   0.415   3.589   1.748  1.1451  1.5386 -0.1666
 2707SOL    HW219755   0.361   3.554   1.614  0.9376  0.3572 -0.8384
 2708SOL     OW19756   4.382   4.663   6.562  0.2122 -0.2860 -0.1055
 2708SOL    HW119757   4.421   0.013   6.557  0.5182 -0.3374  1.4228
 2708SOL    HW219758   4.448   4.614   6.514  1.5689  1.4531 -0.0196
 2709SOL     OW19759   0.198   0.048  13.560 -0.5041 -0.4270 -0.0127
 2709SOL    HW119760   0.118   0.072  13.512 -0.7740 -1.9073 -0.3036
 2709SOL    HW219761   0.169   0.079  13.646 -1.0272  1.9539 -1.0327
 2710SOL     OW19762   2.096   1.555   1.823 -0.1946 -0.2522 -0.4639
 2710SOL    HW119763   2.070   1.597   1.905 -1.1336  0.8181 -1.3020
 2710SOL    HW219764   2.159   1.491   1.855  0.5160  0.7794  0.1828
 2711SOL     OW19765   3.336   3.296  12.847 -0.1538 -0.4766 -1.0463
 2711SOL    HW119766   3.324   3.284  12.752 -1.7576 -0.2655 -0.8818
 2711SOL    HW219767   3.343   3.390  12.859  0.3352 -0.4236 -1.7445
 2712SOL     OW19768   3.247   3.838   4.016  0.1396 -0.5671 -0.3329
 2712SOL    HW119769   3.152   3.826   4.006 -0.0568  1.0250 -0.2985
 2712SOL    HW219770   3.271   3.859   3.926 -0.5143 -2.9252 -1.0727
 2713SOL     OW19771   0.394   0.554   8.296 -0.3048 -0.2690 -1.0952
 2713SOL    HW119772   0.333   0.627   8.303 -0.5129 -0.4532 -0.9779
 2713SOL    HW219773   0.339   0.479   8.275  0.2154 -0.5146 -1.5979
 2714SOL     OW19774   4.662   4.635   8.789 -0.0517 -0.2595  0.2343
 2714SOL    HW119775   4.607   4.583   8.731 -0.7862  0.9580 -0.1634
 2714SOL    HW219776   0.009   4.591   8.789  0.1001  0.0314  1.0530
 2715SOL     OW19777   1.594   2.138   7.559  0.0180  0.5440  0.0940
 2715SOL    HW119778   1.613   2.226   7.594  2.4212 -0.0041  0.2119
 2715SOL    HW219779   1.501   2.151   7.544  0.1167  0.6971 -0.3949
 2716SOL     OW19780   1.849   0.778   1.628 -0.1233 -0.2093  0.5596
 2716SOL    HW119781   1.915   0.799   1.694  2.0724 -2.0918 -1.0371
 2716SOL    HW219782   1.785   0.845   1.649 -1.5465 -1.9308  1.7312
 2717SOL     OW19783   3.131   0.890   8.155  0.3800 -0.4322  0.0673
 2717SOL    HW119784   3.074   0.840   8.213  1.2475 -0.0388  1.2503
 2717SOL    HW219785   3.116   0.850   8.069 -3.0237 -1.2365  1.0661
 2718SOL     OW19786   3.192   0.109  10.925 -0.0194 -0.5603 -0.2753
 2718SOL    HW119787   3.203   0.201  10.946 -2.6646 -0.2053 -0.4524
 2718SOL    HW219788   3.254   0.100  10.852  1.1467 -0.0642  0.6511
 2719SOL     OW19789   3.683   1.305   1.995  0.6159 -0.5025  0.3511
 2719SOL    HW119790   3.715   1.263   1.915  0.9042 -0.8840  0.6654
 2719SOL    HW219791   3.757   1.363   2.010  0.7806 -0.5693 -0.2027
 2720SOL     OW19792   0.758   4.392  15.770  0.6858 -0.2818 -0.4979
 2720SOL    HW119793   0.795   4.311  15.734 -2.2514 -1.9185  0.1417
 2720SOL    HW219794   0.700   4.417  15.698 -0.1915  0.0901  0.3353
 2721SOL     OW19795   1.579   3.618   4.360 -0.1795 -0.0009  0.0001
 2721SOL    HW119796   1.529   3.544   4.327  0.7375 -0.5810 -0.0817
 2721SOL    HW219797   1.541   3.616   4.448  0.2312  0.0274  0.1808
 2722SOL     OW19798   2.490   2.181   1.801 -0.3982  0.5386  0.0250
 2722SOL    HW119799   2.558   2.201   1.737 -2.4310  1.8597 -1.7288
 2722SOL    HW219800   2.411   2.181   1.748 -0.5487  0.8783  0.2446
 2723SOL     OW19801   2.550   2.835  15.471  0.3648  0.1149  0.5248
 2723SOL    HW119802   2.627   2.868  15.426 -1.4650  0.4954 -2.3415
 2723SOL    HW219803   2.539   2.744  15.444 -1.6825 -0.2159  2.4454
 2724SOL     OW19804   0.856   4.061   9.162 -0.4851  0.0240 -0.4132
 2724SOL    HW119805   0.769   4.025   9.181 -0.0352  0.2760  2.1197
 2724SOL    HW219806   0.869   4.109   9.244 -0.8166  1.1435 -1.0166
 2725SOL     OW19807   0.703   3.997  11.788  0.1629  0.0009 -0.4498
 2725SOL    HW119808   0.748   3.979  11.870  2.5090 -1.1641 -2.0084
 2725SOL    HW219809   0.762   4.069  11.765 -1.3814  0.8126 -1.9395
 2726SOL     OW19810   1.637   2.471   2.888 -0.8741  0.6255 -0.1003
 2726SOL    HW119811   1.647   2.487   2.982  2.0568  0.5017 -0.3917
 2726SOL    HW219812   1.668   2.381   2.887 -1.1795  0.4915  1.9945
 2727SOL     OW19813   4.495   4.050  12.538 -0.4244  0.2179  0.0864
 2727SOL    HW119814   4.413   4.083  12.574 -0.1777  1.7652 -0.7873
 2727SOL    HW219815   4.549   4.127  12.559 -1.2073  0.4281  1.3755
 2728SOL     OW19816   2.510   2.580  15.384  0.2107  0.4604 -0.4393
 2728SOL    HW119817   2.512   2.503  15.441  1.5116  0.8211  0.0091
 2728SOL    HW219818   2.425   2.575  15.341 -0.2250 -2.3772  0.7472
 2729SOL     OW19819   1.532   2.764   6.204  0.5806  0.0447 -0.0126
 2729SOL    HW119820   1.468   2.696   6.225 -0.9889  2.4747  3.1833
 2729SOL    HW219821   1.603   2.715   6.164  1.3468  0.3574  0.9643
 2730SOL     OW19822   3.144   0.504   2.182  0.3896  0.6604  0.4975
 2730SOL    HW119823   3.063   0.529   2.227 -0.3424  1.7346 -1.3922
 2730SOL    HW219824   3.136   0.526   2.089 -1.9364 -0.5167  0.4329
 2731SOL     OW19825   1.416   1.065   2.808  0.2711 -0.2405 -0.7880
 2731SOL    HW119826   1.418   1.102   2.897  0.9625 -2.5107  0.1482
 2731SOL    HW219827   1.467   0.985   2.821  2.5761  1.5175  1.1139
 2732SOL     OW19828   0.271   1.285   4.522 -0.1954 -0.0466  0.3353
 2732SOL    HW119829   0.328   1.254   4.593  2.1777  1.5634 -0.8684
 2732SOL    HW219830   0.188   1.243   4.543  0.5590 -0.3625  2.6695
 2733SOL     OW19831   2.202   0.253   1.947  0.2122  0.3134 -0.6417
 2733SOL    HW119832   2.282   0.292   1.911  0.7895  0.7356  1.1183
 2733SOL    HW219833   2.150   0.268   1.868 -1.6401 -0.4908  0.4403
 2734SOL     OW19834   0.128   1.328  11.465  0.6934  0.1154 -0.1437
 2734SOL    HW119835   0.081   1.274  11.529 -3.5706  3.6245 -0.3076
 2734SOL    HW219836   0.204   1.340  11.521 -0.2135  1.6890  0.7203
 2735SOL     OW19837   4.658   1.335  12.656 -0.7875  0.3406  0.1266
 2735SOL    HW119838   4.581   1.324  12.599 -1.1206  1.1280  0.4186
 2735SOL    HW219839   4.614   1.353  12.739 -0.4756  0.7102  0.2105
 2736SOL     OW19840   1.375   2.448   4.710  0.3481  0.0472  0.3580
 2736SOL    HW119841   1.317   2.439   4.786 -1.2196 -0.7162 -0.9110
 2736SOL    HW219842   1.321   2.401   4.646 -1.3209  1.4222  0.7709
 2737SOL     OW19843   0.113   3.235  17.360 -0.4070 -0.1001 -0.0731
 2737SOL    HW119844   0.027   3.211  17.393  0.5999 -0.5588  2.2075
 2737SOL    HW219845   0.156   3.150  17.354 -0.2689  0.0829 -1.7260
 2738SOL     OW19846   0.731   4.075   5.679  0.1045 -0.5186  0.2887
 2738SOL    HW119847   0.803   4.139   5.674 -0.5983  0.1490 -1.3931
 2738SOL    HW219848   0.723   4.039   5.591  0.8369 -2.2416  0.9373
 2739SOL     OW19849   3.486   1.948   9.511  0.0669 -0.2367 -0.1902
 2739SOL    HW119850   3.415   1.925   9.451  1.4301  0.0198 -1.8941
 2739SOL    HW219851   3.457   1.889   9.581  2.1784 -0.6058  0.3812
 2740SOL     OW19852   4.673   0.480   7.746 -0.2721 -0.4285 -0.8369
 2740SOL    HW119853   4.709   0.400   7.708  1.4318  0.1060 -0.3291
 2740SOL    HW219854   4.651   0.536   7.671  1.6667  1.6410  0.1531
 2741SOL     OW19855   3.849   4.110   3.657  0.4113 -0.2400 -0.1029
 2741SOL    HW119856   3.853   4.034   3.715  0.5398  0.2269  0.4941
 2741SOL    HW219857   3.941   4.133   3.662  0.3866  0.4073 -2.2796
 2742SOL     OW19858   1.621   2.910   1.928 -0.8932 -0.4394  0.2796
 2742SOL    HW119859   1.533   2.947   1.938 -0.3540  0.5803  1.3190
 2742SOL    HW219860   1.606   2.826   1.886 -0.9928 -0.8982  1.2323
 2743SOL     OW19861   2.528   3.158  12.945  0.2117 -0.2114 -0.0854
 2743SOL    HW119862   2.458   3.223  12.956  0.7769  0.8211 -2.5824
 2743SOL    HW219863   2.561   3.157  13.035 -0.0581 -4.1139 -0.0424
 2744SOL     OW19864   1.513   4.082   7.685 -0.1343  0.1970 -0.1842
 2744SOL    HW119865   1.494   4.035   7.604 -0.5752  0.9277 -0.4992
 2744SOL    HW219866   1.539   4.010   7.743  0.6175 -0.2272 -1.0528
 2745SOL     OW19867   3.736   2.220   8.856  0.0687  0.1276 -0.2839
 2745SOL    HW119868   3.796   2.269   8.800  1.0954 -2.0071 -1.0440
 2745SOL    HW219869   3.655   2.244   8.812 -2.2661 -1.1037  3.3726
 2746SOL     OW19870   4.095   2.317   3.924 -0.4368 -0.1112  0.9891
 2746SOL    HW119871   4.120   2.246   3.982 -2.1270 -1.6810 -0.1999
 2746SOL    HW219872   4.013   2.338   3.967  1.3749  3.4721  2.7208
 2747SOL     OW19873   2.455   1.584  13.465  0.4173 -0.1036 -0.4725
 2747SOL    HW119874   2.460   1.576  13.370 -0.0190  2.5359 -0.7148
 2747SOL    HW219875   2.548   1.580  13.488 -0.1001 -0.2043  1.6155
 2748SOL     OW19876   2.845   0.062   2.472 -0.3810 -0.4072  0.0620
 2748SOL    HW119877   2.887   0.034   2.391  3.1673  1.4414  1.2520
 2748SOL    HW219878   2.916   0.042   2.532  0.7569  0.2659 -1.0636
 2749SOL     OW19879   1.665   2.999  12.711  0.3553  0.0636 -0.4070
 2749SOL    HW119880   1.761   3.005  12.715  0.2772 -1.8463  3.9205
 2749SOL    HW219881   1.639   2.995  12.803 -0.4526  1.3091 -0.5840
 2750SOL     OW19882   4.100   0.127  11.546  0.0398 -0.0496  0.0848
 2750SOL    HW119883   4.006   0.143  11.540  0.3541  0.4412 -3.1122
 2750SOL    HW219884   4.131   0.215  11.568 -0.3272 -0.5865  2.7792
 2751SOL     OW19885   4.552   1.027   5.608 -0.4048 -0.4487 -0.0884
 2751SOL    HW119886   4.465   0.988   5.621 -1.5028  2.4424  1.2589
 2751SOL    HW219887   4.568   1.067   5.693 -1.7872  0.9000 -0.4401
 2752SOL     OW19888   2.647   3.726   6.753  0.6487  0.6886 -0.1531
 2752SOL    HW119889   2.696   3.675   6.818 -0.0702  0.6742  0.3808
 2752SOL    HW219890   2.658   3.660   6.685  0.7649  1.3447 -0.7662
 2753SOL     OW19891   1.102   2.934   9.183  0.0000 -0.4272  0.2110
 2753SOL    HW119892   1.035   2.885   9.135 -0.6717 -0.5655  1.2981
 2753SOL    HW219893   1.107   3.019   9.140  1.2793  0.2871  1.7972
 2754SOL     OW19894   3.328   2.100  15.052 -0.2838  0.1772 -0.5520
 2754SOL    HW119895   3.292   2.183  15.083 -0.8240 -0.3742  0.2941
 2754SOL    HW219896   3.366   2.120  14.966  1.6810  1.7065  0.6795
 2755SOL     OW19897   4.305   0.365   9.591 -0.5486 -0.0656 -0.0287
 2755SOL    HW119898   4.232   0.305   9.606  0.7099 -2.1147 -2.0990
 2755SOL    HW219899   4.321   0.349   9.498  2.1020 -0.1859  0.4504
 2756SOL     OW19900   3.355   1.604   7.485  0.1673  0.3603  0.3625
 2756SOL    HW119901   3.340   1.511   7.467 -0.4976  0.3599  0.9439
 2756SOL    HW219902   3.450   1.605   7.497 -0.0718  0.3063  2.2291
 2757SOL     OW19903   4.304   3.733   5.208  1.1004  0.0791 -0.4540
 2757SOL    HW119904   4.264   3.793   5.270  0.6096 -1.0461  0.3078
 2757SOL    HW219905   4.281   3.648   5.245  2.3414 -0.4307 -0.8487
 2758SOL     OW19906   3.851   2.535   2.677  0.2434  0.4580 -0.1148
 2758SOL    HW119907   3.771   2.485   2.659  0.0864  0.7202 -0.1381
 2758SOL    HW219908   3.903   2.465   2.716 -2.4921 -0.2941  2.2107
 2759SOL     OW19909   4.538   3.842  13.898  0.0449  0.1842  0.2032
 2759SOL    HW119910   4.483   3.774  13.858 -0.4098  0.6832 -0.0341
 2759SOL    HW219911   4.520   3.830  13.991  0.6767  0.5417  0.3702
 2760SOL     OW19912   0.081   2.777   8.043 -0.2862 -0.0513 -0.4535
 2760SOL    HW119913   0.013   2.796   8.108 -0.3309 -1.7244 -0.0224
 2760SOL    HW219914   0.100   2.869   8.023  0.5441 -0.5832 -2.0764
 2761SOL     OW19915   0.093   3.863   6.240  0.1413 -0.0501  0.6026
 2761SOL    HW119916   0.078   3.821   6.155  1.3081 -0.8020  0.7820
 2761SOL    HW219917   0.106   3.955   6.217 -1.3661  0.0991  0.3489
 2762SOL     OW19918   4.662   2.781   6.902 -0.4539 -0.0087 -0.6457
 2762SOL    HW119919   4.700   2.845   6.963 -1.2373 -1.1606  1.0594
 2762SOL    HW219920   4.607   2.840   6.850  0.0292  0.2011 -0.9186
 2763SOL     OW19921   3.195   2.593  17.683  0.4225  0.1113 -0.9794
 2763SOL    HW119922   3.140   2.666  17.713  1.0234 -0.1784  0.8138
 2763SOL    HW219923   3.208   2.621  17.592 -1.4698 -1.1840 -1.6580
 2764SOL     OW19924   1.319   1.496  16.741  0.3910  0.2514  0.0201
 2764SOL    HW119925   1.234   1.460  16.769  0.5827 -0.8227 -0.7531
 2764SOL    HW219926   1.375   1.432  16.785  0.9649  0.2404 -0.7301
 2765SOL     OW19927   0.123   1.181   8.876  0.2475 -0.1611  0.0143
 2765SOL    HW119928   0.038   1.170   8.919 -0.1658  0.7187 -0.5733
 2765SOL    HW219929   0.165   1.255   8.920  2.0209 -0.2225 -1.5696
 2766SOL     OW19930   3.926   1.311   8.734  0.0717 -0.9252  0.2936
 2766SOL    HW119931   3.881   1.242   8.783 -0.9398 -0.8972 -0.5896
 2766SOL    HW219932   3.933   1.276   8.645 -0.0503  0.4336 -0.2475
 2767SOL     OW19933   2.687   3.283   6.943 -0.0560 -0.5551 -0.0232
 2767SOL    HW119934   2.685   3.256   7.034 -0.3582  0.3124  0.2310
 2767SOL    HW219935   2.622   3.352   6.952 -1.3731 -1.9947  1.3452
 2768SOL     OW19936   1.465   0.379   8.517 -0.4247  0.3124 -0.1504
 2768SOL    HW119937   1.558   0.394   8.534 -0.1340 -1.1321 -0.3928
 2768SOL    HW219938   1.465   0.287   8.489 -1.9067  0.2139  0.1330
 2769SOL     OW19939   1.406   1.976   7.409 -0.0547 -0.6590 -0.2788
 2769SOL    HW119940   1.336   2.039   7.427 -0.4061 -0.1320 -3.5461
 2769SOL    HW219941   1.390   1.952   7.318 -2.0330  2.8726 -0.8410
 2770SOL     OW19942   3.631   1.553   2.907 -0.0366 -0.4052  0.5370
 2770SOL    HW119943   3.639   1.645   2.882  0.4869 -0.5753  0.0887
 2770SOL    HW219944   3.599   1.552   2.997 -2.2264 -0.4088 -0.2430
 2771SOL     OW19945   4.482   1.040   4.711 -0.1284  0.5500  0.3695
 2771SOL    HW119946   4.429   1.106   4.755  1.4204  1.8079  0.3273
 2771SOL    HW219947   4.505   1.091   4.634  0.6576 -1.5873 -0.8175
 2772SOL     OW19948   0.447   4.529   1.578  0.5487  0.2408 -0.3397
 2772SOL    HW119949   0.396   4.598   1.620  3.0031  1.7629  0.1174
 2772SOL    HW219950   0.461   4.573   1.494 -0.3654 -0.0158 -0.6296
 2773SOL     OW19951   4.336   1.386   7.747  0.8781  0.4010  0.2497
 2773SOL    HW119952   4.405   1.399   7.812  1.6236 -1.5923 -0.1465
 2773SOL    HW219953   4.370   1.433   7.670 -1.6280  1.0308 -0.4592
 2774SOL     OW19954   3.945   3.066   3.229  0.1881  0.2956 -0.5691
 2774SOL    HW119955   3.914   3.024   3.148  0.5827 -1.6866  0.3197
 2774SOL    HW219956   3.861   3.089   3.270  0.0071 -1.5227  0.0592
 2775SOL     OW19957   4.727   0.118   5.813 -0.1512  0.1326 -0.0180
 2775SOL    HW119958   4.681   0.186   5.862  0.9050 -0.1326  1.3573
 2775SOL    HW219959   0.077   0.117   5.852 -0.0430  0.2625 -0.2607
 2776SOL     OW19960   2.566   1.657   7.854  0.1206  0.3602  0.3575
 2776SOL    HW119961   2.548   1.583   7.796  0.7515  0.5964 -0.1457
 2776SOL    HW219962   2.522   1.727   7.807 -1.5166 -2.3466 -2.1255
 2777SOL     OW19963   1.266   0.996  17.329 -0.3964  0.0950 -0.0049
 2777SOL    HW119964   1.288   0.981  17.421 -0.3342  3.0095  0.4532
 2777SOL    HW219965   1.309   0.921  17.287  1.3753  0.6005  0.8981
 2778SOL     OW19966   3.744   4.099  11.435 -0.3065  0.9241  0.2121
 2778SOL    HW119967   3.715   4.182  11.474 -0.9196 -0.2330  2.2101
 2778SOL    HW219968   3.693   4.043  11.494  2.5876 -0.6873  1.1917
 2779SOL     OW19969   0.646   4.558  17.279 -0.5121 -0.0130 -0.2004
 2779SOL    HW119970   0.634   4.626  17.345  1.4748  2.2541 -2.2060
 2779SOL    HW219971   0.716   4.508  17.320 -0.1433 -0.3936 -1.2886
 2780SOL     OW19972   2.795   4.233   7.684 -0.7284 -0.4899 -0.2307
 2780SOL    HW119973   2.734   4.293   7.727 -0.2407  1.3449 -2.1133
 2780SOL    HW219974   2.749   4.201   7.606  1.9846 -2.8982 -0.8746
 2781SOL     OW19975   2.649   2.920   0.930  0.6030  0.4036 -0.0790
 2781SOL    HW119976   2.678   2.902   1.019 -2.5491 -2.7422  0.2862
 2781SOL    HW219977   2.704   2.866   0.874 -0.5260 -1.8086  0.9754
 2782SOL     OW19978   1.253   1.697  12.503 -0.2214 -0.9268  0.5822
 2782SOL    HW119979   1.341   1.700  12.542 -0.2275  0.1996  0.5044
 2782SOL    HW219980   1.204   1.701  12.585 -2.0700  0.6008 -0.6142
 2783SOL     OW19981   4.525   2.065   4.677 -0.2559 -0.3290  0.4946
 2783SOL    HW119982   4.456   2.004   4.701 -0.3926  0.5267  2.2366
 2783SOL    HW219983   4.605   2.011   4.673 -0.6475 -0.9115  0.5717
 2784SOL     OW19984   3.354   2.884   8.505  0.0984  0.1159 -0.3576
 2784SOL    HW119985   3.441   2.865   8.469  1.5143 -1.1424  3.6572
 2784SOL    HW219986   3.297   2.821   8.461 -0.8357 -0.0367  1.0901
 2785SOL     OW19987   1.894   2.788   6.990 -0.0406 -0.1545  0.9216
 2785SOL    HW119988   1.980   2.808   7.026  0.0018  0.8195  0.2971
 2785SOL    HW219989   1.860   2.876   6.971 -1.0520 -0.4744  1.2229
 2786SOL     OW19990   3.341   1.587  11.339 -0.0162  0.0399  0.0587
 2786SOL    HW119991   3.275   1.553  11.399  0.0032 -0.3431 -0.1371
 2786SOL    HW219992   3.420   1.534  11.350 -1.3345 -1.7553  0.8145
 2787SOL     OW19993   4.328   0.589   8.219 -0.1275  0.6636  0.1132
 2787SOL    HW119994   4.383   0.510   8.216 -0.2349  0.6611 -1.4691
 2787SOL    HW219995   4.372   0.627   8.295 -1.9586  1.5376  0.7383
 2788SOL     OW19996   3.512   1.840   5.977 -0.0595 -0.9333 -0.0171
 2788SOL    HW119997   3.528   1.927   5.940  3.9605 -0.5975  2.5009
 2788SOL    HW219998   3.599   1.809   6.003  0.1185  0.0117  0.4967
 2789SOL     OW19999   4.028   0.437   6.101 -0.0107 -0.3303  0.2053
 2789SOL    HW120000   3.978   0.370   6.147 -1.0808 -1.4650 -2.6306
 2789SOL    HW220001   4.088   0.392   6.042  0.3895 -2.2555  2.0524
 2790SOL     OW20002   3.650   2.041   3.331  0.1344 -0.0408 -0.3487
 2790SOL    HW120003   3.558   2.068   3.332 -0.9180 -3.5807 -0.1227
 2790SOL    HW220004   3.633   1.949   3.309 -1.3790  0.4704 -1.3650
 2791SOL     OW20005   2.905   4.199   5.972  0.1253 -0.1056  0.2938
 2791SOL    HW120006   2.848   4.124   5.958  0.7410 -0.3468 -0.9373
 2791SOL    HW220007   2.949   4.175   6.054  2.9739 -0.8469 -1.4518
 2792SOL     OW20008   2.720   4.062   6.273  0.1577  0.5312  0.2433
 2792SOL    HW120009   2.806   4.024   6.258  0.3247  0.0151  2.4583
 2792SOL    HW220010   2.673   3.979   6.281  1.1661  0.0943  1.6767
 2793SOL     OW20011   0.955   4.469   3.567  0.3492 -0.5385 -0.0114
 2793SOL    HW120012   1.011   4.428   3.501 -0.3205 -0.7910 -0.4226
 2793SOL    HW220013   1.018   4.476   3.639  1.7387  2.2577 -1.4832
 2794SOL     OW20014   1.270   2.376   6.081  0.8648  0.4112 -0.1831
 2794SOL    HW120015   1.258   2.309   6.148  0.2218  1.3053  0.6003
 2794SOL    HW220016   1.343   2.336   6.033  0.4853 -0.0868 -0.3471
 2795SOL     OW20017   2.594   3.799   2.625  0.0136 -0.6741 -0.3487
 2795SOL    HW120018   2.498   3.793   2.626 -0.0438  0.0603 -1.9235
 2795SOL    HW220019   2.612   3.890   2.648 -0.1872  0.2482 -3.8302
 2796SOL     OW20020   1.532   2.217  15.249  0.5968 -0.5695 -0.5496
 2796SOL    HW120021   1.588   2.293  15.264  2.1967 -1.6282 -1.2282
 2796SOL    HW220022   1.472   2.261  15.189 -1.8032  0.2164  2.3950
 2797SOL     OW20023   0.333   0.567   7.911  0.5503 -0.0014  0.4342
 2797SOL    HW120024   0.332   0.644   7.853 -1.4993  0.8692  1.6129
 2797SOL    HW220025   0.416   0.579   7.957  0.8048  0.5990 -0.1813
 2798SOL     OW20026   4.340   2.033  11.415  0.0104  0.4704 -0.3728
 2798SOL    HW120027   4.358   1.977  11.491 -4.2837 -0.6940 -0.2123
 2798SOL    HW220028   4.328   2.119  11.455  0.9808  0.1601  0.6003
 2799SOL     OW20029   1.311   4.735  11.933 -0.4977  0.7740 -0.1737
 2799SOL    HW120030   1.228   4.718  11.978 -0.6229  0.5979 -0.4690
 2799SOL    HW220031   1.352   4.657  11.969 -2.8456 -0.7442 -0.7540
 2800SOL     OW20032   2.499   2.761   6.168 -0.7120 -0.0958 -0.2950
 2800SOL    HW120033   2.523   2.850   6.195 -0.3255 -0.4285  0.4574
 2800SOL    HW220034   2.582   2.727   6.135 -0.8920 -1.5334  0.7429
 2801SOL     OW20035   4.032   3.016   8.204  0.5186 -0.3766  0.6707
 2801SOL    HW120036   4.120   3.018   8.242  0.8790  1.9193 -0.2335
 2801SOL    HW220037   3.983   3.022   8.285  1.5114 -0.0805  1.2596
 2802SOL     OW20038   4.113   3.140  11.145 -0.0078 -0.0356 -0.2722
 2802SOL    HW120039   4.053   3.065  11.140  1.0576 -0.9575  0.7406
 2802SOL    HW220040   4.154   3.145  11.059 -0.0042 -1.1418 -0.3336
 2803SOL     OW20041   4.414   2.471   4.236  0.0209  0.2518  0.3246
 2803SOL    HW120042   4.491   2.502   4.188 -0.7517  1.4271 -0.1681
 2803SOL    HW220043   4.433   2.378   4.242  0.3495  0.1798 -1.8037
 2804SOL     OW20044   2.347   4.111   4.301 -0.1382  0.3200 -0.6237
 2804SOL    HW120045   2.376   4.048   4.236  2.2432 -0.8244  1.5529
 2804SOL    HW220046   2.381   4.067   4.379 -2.4900 -1.5788 -0.6940
 2805SOL     OW20047   4.229   4.117   1.675  0.0169  0.0685 -0.6140
 2805SOL    HW120048   4.140   4.118   1.711  0.3659  0.0177  0.2692
 2805SOL    HW220049   4.287   4.101   1.750 -0.2437 -1.8997 -0.8447
 2806SOL     OW20050   4.029   0.091  17.427  0.0814  0.0799 -0.2798
 2806SOL    HW120051   4.084   0.135  17.362  2.2281 -0.6208  1.0527
 2806SOL    HW220052   3.941   0.114  17.398 -0.6850 -1.2961  0.9658
 2807SOL     OW20053   2.956   1.543   3.083  0.0501 -0.1452 -0.4179
 2807SOL    HW120054   2.908   1.530   3.001 -1.7540 -1.7441  0.8873
 2807SOL    HW220055   2.884   1.533   3.145  0.1076 -0.6492 -0.4263
 2808SOL     OW20056   3.778   1.284   7.102 -0.0461  0.1156  0.5280
 2808SOL    HW120057   3.797   1.330   7.183 -0.2013 -2.1287  1.8521
 2808SOL    HW220058   3.833   1.342   7.049 -1.3077 -0.0804 -0.9967
 2809SOL     OW20059   0.796   3.658   5.107  0.5497 -0.3057 -0.0648
 2809SOL    HW120060   0.853   3.581   5.116  0.5766 -0.3733 -0.8395
 2809SOL    HW220061   0.842   3.692   5.030 -1.3728  0.2185 -0.9611
 2810SOL     OW20062   1.025   0.645   7.137 -0.4375  0.6217 -0.0242
 2810SOL    HW120063   1.029   0.565   7.189 -0.2410  0.2332 -0.6324
 2810SOL    HW220064   0.954   0.640   7.072  1.5813 -1.6929 -2.0292
 2811SOL     OW20065   0.244   1.647   8.976 -0.0869 -0.1099  0.4738
 2811SOL    HW120066   0.283   1.644   8.889  0.8835 -0.3620  0.9124
 2811SOL    HW220067   0.268   1.737   9.002 -0.6921 -0.4320  2.1647
 2812SOL     OW20068   2.454   2.694  13.696 -0.6205  0.2142  0.2639
 2812SOL    HW120069   2.462   2.753  13.771 -0.6015  2.2636 -1.3287
 2812SOL    HW220070   2.460   2.610  13.741 -2.1018 -0.7865 -1.3763
 2813SOL     OW20071   3.942   2.433   5.160  0.4585  0.1514  0.4524
 2813SOL    HW120072   3.894   2.515   5.168  0.1947  0.2052 -1.5393
 2813SOL    HW220073   3.979   2.419   5.247 -0.8650  0.3784  1.0417
 2814SOL     OW20074   2.617   3.557   6.557  0.7663  0.2150 -0.0437
 2814SOL    HW120075   2.673   3.496   6.510  0.7070  0.0018  0.1605
 2814SOL    HW220076   2.536   3.550   6.507  0.2449 -0.2785  0.8690
 2815SOL     OW20077   3.033   3.202   7.442 -0.0249  0.0282 -0.0063
 2815SOL    HW120078   3.001   3.291   7.425 -1.5105 -0.7524 -1.2347
 2815SOL    HW220079   3.001   3.155   7.365 -0.8294 -0.4951  0.6389
 2816SOL     OW20080   3.676   2.312   7.121  0.4525 -0.2628  0.2822
 2816SOL    HW120081   3.633   2.331   7.204  0.3582 -0.3494  0.2519
 2816SOL    HW220082   3.732   2.389   7.107  0.4754 -0.5938 -1.4340
 2817SOL     OW20083   3.078   1.250  16.350 -0.0574  0.0509 -0.0870
 2817SOL    HW120084   3.109   1.192  16.281  1.4217  1.3952 -0.5391
 2817SOL    HW220085   3.160   1.293  16.377 -1.2698  1.2363  1.6919
 2818SOL     OW20086   1.393   3.599   8.831 -0.0689 -0.4378  0.0589
 2818SOL    HW120087   1.397   3.512   8.872 -1.5529 -0.7818 -0.5383
 2818SOL    HW220088   1.307   3.594   8.788  0.3857 -1.9390 -0.6891
 2819SOL     OW20089   0.220   3.424  10.512  0.4875 -0.1946  0.5033
 2819SOL    HW120090   0.200   3.373  10.434  0.1058 -3.1233  2.5249
 2819SOL    HW220091   0.223   3.359  10.582 -2.2892 -1.8338 -0.9184
 2820SOL     OW20092   2.650   0.937   4.571  0.2705 -0.0377 -0.0082
 2820SOL    HW120093   2.671   0.992   4.495 -1.0140 -3.0074 -2.5009
 2820SOL    HW220094   2.636   0.849   4.537  2.0448 -0.6004  0.7243
 2821SOL     OW20095   2.464   2.861  13.913 -0.5143  0.7976  0.1222
 2821SOL    HW120096   2.517   2.859  13.992  0.6596  0.8999 -0.6584
 2821SOL    HW220097   2.380   2.891  13.947 -2.0259 -1.2563 -1.7690
 2822SOL     OW20098   0.984   1.304   6.237  0.4852 -0.4553 -0.1145
 2822SOL    HW120099   0.932   1.298   6.317 -1.0379 -1.6500 -1.1793
 2822SOL    HW220100   1.059   1.244   6.238 -0.8556 -2.1097  0.8546
 2823SOL     OW20101   0.003   2.207  16.463  0.4054 -0.0008  0.0741
 2823SOL    HW120102   0.087   2.231  16.424  0.1586  0.2466 -0.3129
 2823SOL    HW220103   4.720   2.289  16.508  0.8042  1.8504 -3.0359
 2824SOL     OW20104   3.293   3.311   0.462 -0.0573 -0.1140 -0.1369
 2824SOL    HW120105   3.317   3.343   0.375 -0.2984 -0.6951 -0.4115
 2824SOL    HW220106   3.215   3.259   0.443  0.0133 -0.3935  0.3397
 2825SOL     OW20107   1.097   1.205   7.854 -0.0798  0.4427 -0.2408
 2825SOL    HW120108   1.060   1.134   7.803 -1.9140  1.4015 -0.2339
 2825SOL    HW220109   1.124   1.272   7.791 -3.6616  2.8889  0.8588
 2826SOL     OW20110   0.762   1.471   6.592  0.3732 -0.1613  0.2770
 2826SOL    HW120111   0.844   1.507   6.628  0.9859  0.6276 -1.8968
 2826SOL    HW220112   0.803   1.388   6.567  0.9134 -0.1792  1.2039
 2827SOL     OW20113   3.000   0.177  12.780 -0.5430 -0.1977  0.1155
 2827SOL    HW120114   3.038   0.142  12.700 -3.2750  1.8837 -2.1106
 2827SOL    HW220115   2.993   0.103  12.839 -0.0802 -1.0487 -0.9055
 2828SOL     OW20116   1.829   0.984  11.764  0.1447 -0.4848 -0.2856
 2828SOL    HW120117   1.773   1.051  11.724  0.0832  0.9230  2.1478
 2828SOL    HW220118   1.775   0.962  11.840  1.3215 -0.0252  0.6873
 2829SOL     OW20119   3.493   3.460   1.821 -1.0224  0.1546 -0.0817
 2829SOL    HW120120   3.495   3.370   1.789 -0.3608 -0.1752  0.8974
 2829SOL    HW220121   3.423   3.498   1.767 -0.1248  1.0389 -0.6330
 2830SOL     OW20122   3.048   3.783   8.673 -0.0005 -0.2073 -0.4314
 2830SOL    HW120123   3.017   3.845   8.607  0.5985  1.2374  0.6598
 2830SOL    HW220124   2.967   3.731   8.676  1.1254 -2.0785 -2.5505
 2831SOL     OW20125   3.490   3.982   5.771 -0.0756 -0.4197  0.2936
 2831SOL    HW120126   3.582   3.996   5.794 -0.2168  0.2637  0.4347
 2831SOL    HW220127   3.470   3.917   5.839 -3.4366  0.4662  0.1503
 2832SOL     OW20128   2.669   3.195   2.807 -0.1661 -0.3107 -0.1109
 2832SOL    HW120129   2.629   3.266   2.856  2.3975  1.9063 -1.2139
 2832SOL    HW220130   2.748   3.170   2.856 -0.5296  2.2256  1.7662
 2833SOL     OW20131   1.609   1.031   9.226  0.3185 -0.7419 -1.0165
 2833SOL    HW120132   1.584   0.987   9.307  2.0132 -0.0239 -0.1076
 2833SOL    HW220133   1.603   1.122   9.255  3.1142 -1.6087  2.1827
 2834SOL     OW20134   0.269   1.840  15.691  0.2098 -0.0419 -0.1176
 2834SOL    HW120135   0.210   1.911  15.671  0.6661 -0.6323 -3.4650
 2834SOL    HW220136   0.204   1.794  15.745 -1.0772  0.4706 -1.2478
 2835SOL     OW20137   1.987   3.995   1.413 -0.3197  0.8894 -0.3473
 2835SOL    HW120138   2.070   4.014   1.369 -0.5134 -0.3282 -1.2599
 2835SOL    HW220139   1.978   4.082   1.450 -1.9476  0.9902 -0.9762
 2836SOL     OW20140   3.691   0.672   2.194  0.5630  0.2457  0.3240
 2836SOL    HW120141   3.601   0.641   2.185  0.5888 -0.7203  3.2686
 2836SOL    HW220142   3.668   0.758   2.230 -1.4752 -0.5413  0.9005
 2837SOL     OW20143   4.089   0.302   5.259 -0.3500  0.1908 -0.3039
 2837SOL    HW120144   4.131   0.231   5.307  0.9286  0.7720 -0.5704
 2837SOL    HW220145   4.119   0.385   5.296 -0.8607  0.5035 -0.5857
 2838SOL     OW20146   1.432   1.383   3.004 -0.9811  0.2349  0.2271
 2838SOL    HW120147   1.440   1.288   3.003  0.1208  0.3530 -2.5464
 2838SOL    HW220148   1.454   1.390   3.096 -1.8794  0.1783  0.4470
 2839SOL     OW20149   1.806   4.724   1.539  0.6355 -0.3766  0.0787
 2839SOL    HW120150   1.779   0.074   1.568 -1.7452 -0.8640 -0.6598
 2839SOL    HW220151   1.837   0.014   1.452 -2.1293 -2.4700 -1.5882
 2840SOL     OW20152   1.221   2.857   2.845 -0.1033  0.5206 -0.2910
 2840SOL    HW120153   1.236   2.941   2.800  1.7792  1.2935  1.7485
 2840SOL    HW220154   1.307   2.832   2.880 -0.6402 -0.0673  0.6011
 2841SOL     OW20155   2.626   0.476  14.689 -0.1172  0.8900  0.1529
 2841SOL    HW120156   2.600   0.392  14.653 -1.3521  1.0603  0.6345
 2841SOL    HW220157   2.719   0.488  14.672  0.2198 -1.1615  0.5905
 2842SOL     OW20158   4.098   0.921   8.259  0.5112 -0.2967  0.1742
 2842SOL    HW120159   4.009   0.955   8.265  0.4039 -0.4156 -0.7187
 2842SOL    HW220160   4.097   0.872   8.177 -1.5099  0.2651 -0.1374
 2843SOL     OW20161   2.807   0.349   6.640 -0.0928  0.1429 -0.5258
 2843SOL    HW120162   2.740   0.289   6.606 -0.7391 -0.2487  1.4257
 2843SOL    HW220163   2.874   0.346   6.572  0.4338 -3.3511  0.1551
 2844SOL     OW20164   4.622   4.371   0.228 -0.4709 -0.2662 -0.0845
 2844SOL    HW120165   4.545   4.427   0.215 -1.0551 -1.1132 -0.2886
 2844SOL    HW220166   4.567   4.294   0.214 -1.0217  0.2036 -0.5449
 2845SOL     OW20167   3.163   2.344   6.706  0.3799  0.1184  0.1699
 2845SOL    HW120168   3.231   2.411   6.703 -1.0209  1.4847 -0.8495
 2845SOL    HW220169   3.198   2.267   6.660 -2.1313  0.5708 -2.5228
 2846SOL     OW20170   3.869   0.132  17.064 -0.3567  0.4047  0.0706
 2846SOL    HW120171   3.946   0.176  17.029 -0.2980 -0.7424 -1.2337
 2846SOL    HW220172   3.804   0.200  17.085  2.7759  2.6346  2.5851
 2847SOL     OW20173   2.967   0.596   6.023 -0.1466 -0.0368  0.1659
 2847SOL    HW120174   2.931   0.614   6.110  1.3864  0.9589  0.5824
 2847SOL    HW220175   2.977   0.686   5.992 -0.6284 -0.5097 -1.3621
 2848SOL     OW20176   2.578   3.409   7.757  0.6314 -0.2497 -0.1825
 2848SOL    HW120177   2.589   3.357   7.837 -0.6055  1.0959  0.8609
 2848SOL    HW220178   2.665   3.445   7.740  1.0049 -1.0291  0.0790
 2849SOL     OW20179   2.869   2.534   7.164  1.0692  0.3739  1.0695
 2849SOL    HW120180   2.789   2.483   7.178  0.8757  0.6595  1.0224
 2849SOL    HW220181   2.933   2.470   7.194  0.9083 -0.4801 -0.4455
 2850SOL     OW20182   0.242   2.513   4.279 -0.4870 -0.2278  0.0351
 2850SOL    HW120183   0.169   2.531   4.337 -1.0523 -1.4460 -0.3134
 2850SOL    HW220184   0.201   2.467   4.206  1.4447 -1.5673 -0.2146
 2851SOL     OW20185   3.303   0.542  14.072  0.0532  0.1924 -0.0841
 2851SOL    HW120186   3.230   0.520  14.130 -0.9854 -1.8538 -2.1885
 2851SOL    HW220187   3.262   0.552  13.987 -0.3844 -0.0825  0.0998
 2852SOL     OW20188   0.166   4.680  11.150  1.0123 -0.5740 -0.0522
 2852SOL    HW120189   0.230   4.609  11.140  0.6793 -1.1104  1.4811
 2852SOL    HW220190   0.093   4.642  11.101 -0.2719 -2.1581  3.0827
 2853SOL     OW20191   2.585   0.221  13.414  0.0097  0.4893  0.1836
 2853SOL    HW120192   2.512   0.263  13.368  0.1894  2.6705  1.8936
 2853SOL    HW220193   2.661   0.259  13.370 -0.9776  1.6289 -0.5163
 2854SOL     OW20194   1.728   3.998   0.082 -0.3888  0.1662  0.3705
 2854SOL    HW120195   1.693   4.073   0.130  1.0962  0.4770  0.9883
 2854SOL    HW220196   1.814   4.034   0.058 -1.0989  1.8320  0.2955
 2855SOL     OW20197   0.383   0.317  13.310  0.2927 -0.5720 -0.2454
 2855SOL    HW120198   0.324   0.286  13.242  1.6929 -1.9283 -0.8410
 2855SOL    HW220199   0.462   0.333  13.259  0.9045 -0.8318  0.6089
 2856SOL     OW20200   0.104   4.554  13.877  0.2076  0.3103 -0.4753
 2856SOL    HW120201   0.024   4.520  13.837 -0.6655  1.0152  0.6770
 2856SOL    HW220202   0.085   4.636  13.923 -0.2669 -0.5791  0.9099
 2857SOL     OW20203   2.072   3.090   9.353 -0.2001  0.1029 -0.0562
 2857SOL    HW120204   2.061   3.151   9.280  1.5301  0.9190  0.3448
 2857SOL    HW220205   1.982   3.063   9.370 -1.3106  3.1890 -0.9441
 2858SOL     OW20206   0.324   0.348   6.681 -0.6459 -0.4863 -0.6036
 2858SOL    HW120207   0.391   0.351   6.613  0.5811  1.0191  0.6520
 2858SOL    HW220208   0.332   0.435   6.721  0.5471 -0.8019 -0.1441
 2859SOL     OW20209   2.612   0.812  16.172 -0.2028  0.4765  0.1061
 2859SOL    HW120210   2.610   0.801  16.077  0.2463  0.0265  0.1462
 2859SOL    HW220211   2.688   0.756  16.187 -0.4548  0.2260  0.4331
 2860SOL     OW20212   1.650   4.027   4.526  0.2041 -0.1350  0.2195
 2860SOL    HW120213   1.681   4.090   4.460  1.3347 -0.3044  0.5828
 2860SOL    HW220214   1.646   3.952   4.466 -1.3624 -0.2460  0.4903
 2861SOL     OW20215   1.000   3.596  12.533  0.3791 -0.1109  0.2476
 2861SOL    HW120216   1.092   3.572  12.536  0.4778  0.3253  0.7920
 2861SOL    HW220217   1.008   3.690  12.550 -3.6936  0.1501  0.7664
 2862SOL     OW20218   0.232   1.734   3.344  0.2966 -0.0572 -0.0672
 2862SOL    HW120219   0.225   1.690   3.259 -0.9956  0.4010 -0.2155
 2862SOL    HW220220   0.156   1.692   3.384 -0.8157  1.7193 -0.2774
 2863SOL     OW20221   1.823   3.926  13.667  0.0416 -0.3654  0.1819
 2863SOL    HW120222   1.819   3.831  13.670  0.9141 -0.4005  0.0878
 2863SOL    HW220223   1.916   3.949  13.670 -0.2944  1.0062 -0.0031
 2864SOL     OW20224   1.321   0.754   8.908  0.3867 -0.0947  0.1033
 2864SOL    HW120225   1.335   0.691   8.979  1.7858  0.9297  0.7368
 2864SOL    HW220226   1.322   0.686   8.840  1.2561  0.8188 -0.8017
 2865SOL     OW20227   0.633   3.873   3.780 -0.4523 -0.4227 -0.0612
 2865SOL    HW120228   0.569   3.906   3.717 -1.3616  0.0732  1.1064
 2865SOL    HW220229   0.698   3.942   3.794 -0.0764 -1.2622  2.3941
 2866SOL     OW20230   0.726   4.393   9.098  0.1544  0.0610 -0.7879
 2866SOL    HW120231   0.670   4.351   9.033 -1.5787  1.0720  0.0483
 2866SOL    HW220232   0.738   4.477   9.054 -0.7284  0.0728 -0.9952
 2867SOL     OW20233   0.362   1.918   4.286  0.4058 -0.3075 -0.7698
 2867SOL    HW120234   0.443   1.945   4.328 -1.1738  0.5037  1.7803
 2867SOL    HW220235   0.304   1.871   4.346  3.3948 -2.1511  0.6915
 2868SOL     OW20236   0.067   1.908   3.998 -0.2694 -0.5565  0.0585
 2868SOL    HW120237   0.094   1.846   3.930 -1.0224 -0.2740 -0.5046
 2868SOL    HW220238   4.709   1.903   3.998 -0.3583  0.8963  0.7589
 2869SOL     OW20239   3.780   1.814   8.465 -0.1824  0.6824  0.6024
 2869SOL    HW120240   3.784   1.721   8.488  0.1957  0.5781  0.1103
 2869SOL    HW220241   3.870   1.844   8.479 -0.1949  1.4241 -0.8425
 2870SOL     OW20242   4.516   1.038   3.919 -0.0706 -0.2403 -0.2345
 2870SOL    HW120243   4.583   0.995   3.867 -0.2757  0.0109 -0.7119
 2870SOL    HW220244   4.519   1.131   3.897 -1.8621 -0.0449  0.3266
 2871SOL     OW20245   4.098   2.090   2.644  0.1383  0.3008  0.0448
 2871SOL    HW120246   4.122   2.026   2.577  0.9972 -0.1367  0.7539
 2871SOL    HW220247   4.109   2.033   2.721  0.5650  1.6634  0.9819
 2872SOL     OW20248   3.022   1.136  15.705  0.7198 -0.0533 -0.3332
 2872SOL    HW120249   3.004   1.221  15.665  0.8010  0.3541  0.4984
 2872SOL    HW220250   2.942   1.091  15.732  0.4383  0.2384 -0.6884
 2873SOL     OW20251   0.338   1.307   7.793  0.2550  0.7573  0.5322
 2873SOL    HW120252   0.329   1.223   7.838  1.9273  0.3690  0.1373
 2873SOL    HW220253   0.396   1.301   7.717 -1.1851  0.0497 -0.5019
 2874SOL     OW20254   2.982   3.507   6.904  0.0866 -0.6333 -0.1062
 2874SOL    HW120255   2.944   3.459   6.829  2.6320 -1.3538 -0.9143
 2874SOL    HW220256   2.972   3.440   6.972  1.5205 -0.4890  0.2309
 2875SOL     OW20257   0.565   3.281   7.562 -0.2332 -0.3403 -0.4409
 2875SOL    HW120258   0.659   3.280   7.579  0.0490  2.7875 -1.8429
 2875SOL    HW220259   0.564   3.343   7.489 -0.6946  0.2067  0.0338
 2876SOL     OW20260   3.701   3.860  17.323  0.5364  0.3981  0.1585
 2876SOL    HW120261   3.610   3.830  17.324  0.7844 -0.2640  1.7889
 2876SOL    HW220262   3.701   3.955  17.339 -0.6808 -0.1670  3.4671
 2877SOL     OW20263   0.823   4.220   8.080 -0.3054 -0.3117  0.4185
 2877SOL    HW120264   0.757   4.210   8.011  0.3579  0.1891 -0.2756
 2877SOL    HW220265   0.758   4.211   8.150 -0.0005 -1.5282  0.5539
 2878SOL     OW20266   1.643   3.658   0.380  0.1250  0.2502 -0.2864
 2878SOL    HW120267   1.656   3.597   0.307 -2.6751  0.5440 -1.0157
 2878SOL    HW220268   1.550   3.650   0.401 -0.0617  2.3366 -0.2823
 2879SOL     OW20269   3.420   1.217   8.282 -0.3389  0.1427  0.6737
 2879SOL    HW120270   3.391   1.150   8.221  0.1215 -0.4243  1.0687
 2879SOL    HW220271   3.400   1.176   8.366  1.0692 -0.4062  0.7444
 2880SOL     OW20272   4.653   1.193  13.808  0.1032 -0.3555  0.6193
 2880SOL    HW120273   4.570   1.241  13.812 -0.7348 -1.7984  0.3002
 2880SOL    HW220274   4.706   1.270  13.829 -1.4511  0.9889 -0.3772
 2881SOL     OW20275   0.829   0.914   6.738  0.0699 -0.2587 -0.0385
 2881SOL    HW120276   0.768   0.877   6.801  1.3263  0.9528  1.8762
 2881SOL    HW220277   0.914   0.874   6.755  0.5236  0.2351 -1.1020
 2882SOL     OW20278   3.660   4.320   3.461  0.6232 -0.1683 -0.0591
 2882SOL    HW120279   3.629   4.250   3.518  0.3061  0.0395  0.0237
 2882SOL    HW220280   3.615   4.384   3.516  1.0905  1.2827 -1.3705
 2883SOL     OW20281   4.257   0.664  14.002 -0.2491 -0.0663 -0.2115
 2883SOL    HW120282   4.254   0.753  13.967  1.1323 -0.5129 -1.4778
 2883SOL    HW220283   4.163   0.648  14.009 -0.8188  3.1477 -0.4444
 2884SOL     OW20284   0.126   4.500  14.784 -0.0964 -0.3081 -0.3036
 2884SOL    HW120285   0.118   4.406  14.795 -0.5119 -0.2273  0.0334
 2884SOL    HW220286   0.037   4.521  14.757  0.6107  1.0820 -1.5970
 2885SOL     OW20287   2.606   4.388   7.822 -0.2573 -0.1633  0.4237
 2885SOL    HW120288   2.610   4.340   7.905  2.0055 -0.6214  0.0619
 2885SOL    HW220289   2.532   4.447   7.835  2.1274  2.9254 -0.1477
 2886SOL     OW20290   1.440   0.555   5.771 -0.3536 -0.5898  0.6913
 2886SOL    HW120291   1.476   0.578   5.685 -0.8676  0.6483  0.8123
 2886SOL    HW220292   1.399   0.640   5.781 -1.8732 -1.3049  0.4705
 2887SOL     OW20293   4.035   3.338   8.749 -0.6685 -0.0143 -0.6537
 2887SOL    HW120294   4.032   3.419   8.697 -1.1287 -0.6611 -1.6316
 2887SOL    HW220295   4.111   3.285   8.725  0.5961 -0.0592  3.3928
 2888SOL     OW20296   2.015   4.271   7.588 -0.2307 -0.1325  0.2144
 2888SOL    HW120297   2.078   4.202   7.609 -0.1702 -0.4141 -0.9231
 2888SOL    HW220298   2.074   4.347   7.583 -1.6510  0.8986 -0.8253
 2889SOL     OW20299   0.788   3.413   4.721  0.5540  0.2119 -0.4155
 2889SOL    HW120300   0.773   3.331   4.769 -0.4735  0.5258 -0.2050
 2889SOL    HW220301   0.732   3.399   4.645 -2.5679  1.9771  1.5556
 2890SOL     OW20302   2.316   1.236   6.722  0.1929 -0.0896  0.0924
 2890SOL    HW120303   2.319   1.147   6.688  1.6395 -0.1640  0.4209
 2890SOL    HW220304   2.379   1.219   6.792  1.4020 -1.3393 -1.3215
 2891SOL     OW20305   4.583   1.368   4.079 -0.2847 -0.5640  0.0276
 2891SOL    HW120306   4.510   1.319   4.042 -1.2426 -0.6267  2.0188
 2891SOL    HW220307   4.541   1.430   4.138  1.8903  0.4815  0.4567
 2892SOL     OW20308   2.941   1.296   2.911 -0.4625  0.0622 -0.4838
 2892SOL    HW120309   2.886   1.218   2.918  0.7705 -0.7734 -0.0298
 2892SOL    HW220310   3.021   1.264   2.953 -0.4652  0.9442  0.1995
 2893SOL     OW20311   3.952   3.459   3.149 -0.1000 -0.2938 -0.1172
 2893SOL    HW120312   3.909   3.525   3.204 -0.7841  1.0093 -2.2167
 2893SOL    HW220313   4.044   3.485   3.151  0.1775 -1.2583 -0.1048
 2894SOL     OW20314   1.098   1.586   2.586  0.1287 -0.6113  0.2997
 2894SOL    HW120315   1.173   1.568   2.642 -0.8581 -0.5709  1.6312
 2894SOL    HW220316   1.136   1.654   2.531  0.3627  0.2379  1.5140
 2895SOL     OW20317   3.897   3.899   3.831 -0.1077 -0.0787  0.1727
 2895SOL    HW120318   3.952   3.869   3.759 -0.1984 -1.0624  0.5124
 2895SOL    HW220319   3.951   3.875   3.906  0.2475  0.2564  0.0238
 2896SOL     OW20320   2.306   4.540   9.706  0.0664  0.2563  0.4722
 2896SOL    HW120321   2.372   4.559   9.639  0.4524  0.3111  0.8764
 2896SOL    HW220322   2.285   4.451   9.678  0.5144 -0.5577  2.8132
 2897SOL     OW20323   2.078   1.088   8.095 -0.1493 -0.2881  0.2441
 2897SOL    HW120324   2.148   1.118   8.036  2.5724 -0.8934  3.1273
 2897SOL    HW220325   2.061   1.161   8.155  0.4212  0.9947 -1.1610
 2898SOL     OW20326   3.170   2.615   5.737 -0.0016 -0.2747  0.0728
 2898SOL    HW120327   3.139   2.528   5.711  0.7856 -0.6829  0.4889
 2898SOL    HW220328   3.254   2.627   5.693 -0.7611  0.3207 -1.1984
 2899SOL     OW20329   0.625   1.623  11.613 -0.1895 -0.2071  0.1506
 2899SOL    HW120330   0.713   1.585  11.615 -0.5755 -1.1601 -1.0533
 2899SOL    HW220331   0.572   1.562  11.665  0.9559 -0.8821  0.5449
 2900SOL     OW20332   2.189   0.023  15.801  0.3346  0.6521  0.2373
 2900SOL    HW120333   2.114   4.703  15.816  1.0008 -0.4559 -0.6623
 2900SOL    HW220334   2.169   0.101  15.852  1.7408  1.8276 -1.0162
 2901SOL     OW20335   3.270   3.348   5.974 -0.0540  0.0097  0.2386
 2901SOL    HW120336   3.178   3.323   5.975  0.7091 -2.7951  1.7126
 2901SOL    HW220337   3.303   3.275   5.922  0.3394 -0.7774  1.5908
 2902SOL     OW20338   2.120   0.696   4.227 -0.5018 -0.5364  0.5768
 2902SOL    HW120339   2.083   0.734   4.147 -0.9023 -1.1282  0.4818
 2902SOL    HW220340   2.094   0.604   4.231  1.4390 -1.0048  2.9012
 2903SOL     OW20341   3.941   3.777   7.655  0.0105 -0.2444  0.0749
 2903SOL    HW120342   4.002   3.808   7.723 -0.4604  1.4505 -0.2838
 2903SOL    HW220343   3.949   3.682   7.666 -0.6879 -0.4424 -1.1714
 2904SOL     OW20344   1.575   4.085  16.116  0.1574 -0.0449 -0.7443
 2904SOL    HW120345   1.538   3.997  16.123 -2.1321  0.8803 -1.3452
 2904SOL    HW220346   1.512   4.128  16.173 -0.3460 -2.3130  0.4245
 2905SOL     OW20347   1.446   2.532   0.332  0.0471  0.0129 -0.2122
 2905SOL    HW120348   1.382   2.526   0.404 -0.0526 -0.7566 -0.3680
 2905SOL    HW220349   1.412   2.468   0.270  0.4352 -1.4437  1.0719
 2906SOL     OW20350   1.793   4.678   6.050  0.4765 -0.3988 -0.0565
 2906SOL    HW120351   1.847   4.703   5.974  1.8821  1.4280  1.5254
 2906SOL    HW220352   1.790   4.583   6.041  1.4945 -0.4682  0.3114
 2907SOL     OW20353   0.821   1.209   6.022  0.1587 -0.4127  0.0583
 2907SOL    HW120354   0.838   1.293   5.980  0.5347 -0.8366 -0.6241
 2907SOL    HW220355   0.879   1.229   6.095  1.2039 -2.2720 -0.2783
 2908SOL     OW20356   2.828   2.962   8.945 -0.5260 -1.0465  0.3555
 2908SOL    HW120357   2.797   2.997   9.029 -0.8469  1.7077 -0.9521
 2908SOL    HW220358   2.825   3.034   8.883  0.0002 -1.4699 -0.1617
 2909SOL     OW20359   2.928   1.535  12.013  0.4528  0.1874 -0.3112
 2909SOL    HW120360   2.864   1.559  11.946 -0.6357  0.1095  0.7105
 2909SOL    HW220361   2.928   1.440  12.001  0.8389  0.1993 -0.3927
 2910SOL     OW20362   1.244   1.378   5.150 -0.2818  0.0082  0.3822
 2910SOL    HW120363   1.200   1.352   5.069 -0.0850  0.7543  0.0327
 2910SOL    HW220364   1.272   1.294   5.185 -0.4359  0.3288  1.2636
 2911SOL     OW20365   2.272   3.083   4.745  0.2438 -0.1150  0.1642
 2911SOL    HW120366   2.265   3.056   4.836  1.1700 -0.8848  0.0004
 2911SOL    HW220367   2.206   3.152   4.732  1.7052  1.2812  0.2028
 2912SOL     OW20368   1.776   2.105  10.219 -0.4958  0.0358 -0.1485
 2912SOL    HW120369   1.870   2.118  10.206 -0.7389  1.5171 -0.4029
 2912SOL    HW220370   1.765   2.085  10.312 -0.8351  0.4316 -0.1047
 2913SOL     OW20371   3.208   1.704  16.605  0.1467  0.5254 -0.0386
 2913SOL    HW120372   3.300   1.693  16.581 -0.4306 -0.8296 -1.5564
 2913SOL    HW220373   3.169   1.736  16.524  0.5595  0.1224 -0.3984
 2914SOL     OW20374   3.539   1.822   1.777 -0.0113  0.6418 -0.0532
 2914SOL    HW120375   3.464   1.816   1.836  0.3215 -1.0685  0.1973
 2914SOL    HW220376   3.547   1.918   1.775 -0.9542  0.7439  0.6132
 2915SOL     OW20377   3.067   3.956   5.720 -0.5040 -0.0407 -0.0028
 2915SOL    HW120378   3.012   3.881   5.741  0.2335 -0.7773 -0.6714
 2915SOL    HW220379   3.005   4.012   5.674 -2.4270  0.2117  2.8993
 2916SOL     OW20380   4.047   2.591  13.216 -0.3056 -0.3926  0.7051
 2916SOL    HW120381   4.100   2.570  13.293  1.3852  1.4918  0.0570
 2916SOL    HW220382   3.989   2.515  13.211 -0.9740  0.1004  1.1109
 2917SOL     OW20383   1.428   3.192  16.544  0.2035 -0.2186 -0.0588
 2917SOL    HW120384   1.512   3.209  16.587  1.6383 -0.7783 -2.6210
 2917SOL    HW220385   1.439   3.212  16.451  0.6949  1.7760  0.4093
 2918SOL     OW20386   2.633   3.555  17.696 -0.0495  0.0130  0.2940
 2918SOL    HW120387   2.574   3.495  17.652  0.7939  0.0538 -0.8773
 2918SOL    HW220388   2.638   3.512   0.032 -0.9198  0.1738  0.4308
 2919SOL     OW20389   1.261   4.437  13.614 -0.4299  0.6707  0.2766
 2919SOL    HW120390   1.354   4.453  13.627 -0.3045  0.8661 -0.8567
 2919SOL    HW220391   1.244   4.522  13.571 -0.3007  1.1634  1.2104
 2920SOL     OW20392   3.369   1.635   8.456 -0.0045 -0.2929  0.4909
 2920SOL    HW120393   3.400   1.707   8.401 -0.9876 -1.5827 -1.7242
 2920SOL    HW220394   3.419   1.559   8.428  0.6268  0.1317  0.4568
 2921SOL     OW20395   3.548   1.654   7.194  0.2877  0.4861  0.0689
 2921SOL    HW120396   3.620   1.654   7.257  0.5535  1.3639 -0.2270
 2921SOL    HW220397   3.542   1.749   7.186  0.5714  0.3771 -1.3663
 2922SOL     OW20398   3.793   2.844  15.784 -0.2482  0.5542  0.1546
 2922SOL    HW120399   3.740   2.780  15.832 -0.3248  0.4177 -0.1127
 2922SOL    HW220400   3.774   2.929  15.823  1.5609  0.8699  0.3337
 2923SOL     OW20401   3.559   1.611   1.610 -0.8821  0.5650 -0.1817
 2923SOL    HW120402   3.542   1.684   1.669 -1.9752  0.8412 -0.8377
 2923SOL    HW220403   3.499   1.546   1.647 -0.9382  1.2042  0.8663
 2924SOL     OW20404   1.446   1.421   3.289  0.2307 -0.0449 -0.2210
 2924SOL    HW120405   1.452   1.343   3.344  2.5866 -0.1444 -0.6241
 2924SOL    HW220406   1.383   1.476   3.336 -0.0349  0.4296 -1.1333
 2925SOL     OW20407   3.664   4.175   5.399 -0.0399 -0.1044  0.2964
 2925SOL    HW120408   3.735   4.231   5.431 -0.0460  1.5465 -2.6143
 2925SOL    HW220409   3.705   4.132   5.324 -0.7852 -0.8259  0.3010
 2926SOL     OW20410   1.101   2.433   3.613 -0.1673  0.4004  0.0849
 2926SOL    HW120411   1.071   2.349   3.579  1.3280  0.1027 -0.5153
 2926SOL    HW220412   1.196   2.424   3.614 -0.0513  1.3426 -1.4180
 2927SOL     OW20413   1.613   1.623   7.274 -0.0031  0.3953 -0.3811
 2927SOL    HW120414   1.521   1.621   7.301  0.7965 -0.5088  2.2241
 2927SOL    HW220415   1.656   1.662   7.349  0.1653 -0.4584 -0.0313
 2928SOL     OW20416   3.828   4.478   9.026 -0.5326 -0.1096 -0.8147
 2928SOL    HW120417   3.734   4.472   9.007 -0.7116  1.1562 -0.3573
 2928SOL    HW220418   3.837   4.573   9.018  0.7369 -0.0889  0.8212
 2929SOL     OW20419   1.874   3.247  11.648  0.1446  0.2881 -0.1380
 2929SOL    HW120420   1.804   3.182  11.660 -1.7818  1.5755 -4.2618
 2929SOL    HW220421   1.836   3.318  11.700  0.6423  0.9463 -0.6673
 2930SOL     OW20422   3.237   2.617  17.422  0.2176  0.1593 -0.1742
 2930SOL    HW120423   3.160   2.575  17.383  0.0902 -0.3283  0.6078
 2930SOL    HW220424   3.302   2.605  17.353  0.3850 -2.1847  0.4089
 2931SOL     OW20425   3.456   4.227   5.041 -0.1447  0.8460  0.0796
 2931SOL    HW120426   3.476   4.253   4.951 -0.0888  0.1837 -0.1044
 2931SOL    HW220427   3.537   4.260   5.079  1.2828 -0.3030 -1.9559
 2932SOL     OW20428   4.298   4.420   4.335 -0.3179 -0.6405  0.0087
 2932SOL    HW120429   4.243   4.456   4.404 -0.2156  0.9023 -0.7192
 2932SOL    HW220430   4.366   4.485   4.351 -1.2869  1.0419 -2.7530
 2933SOL     OW20431   1.840   3.130   8.165  0.0167 -0.0202  0.1561
 2933SOL    HW120432   1.752   3.167   8.160 -0.4432 -1.2247 -0.7666
 2933SOL    HW220433   1.813   3.048   8.205 -2.1586  0.6108 -0.0231
 2934SOL     OW20434   1.523   4.406  13.578 -0.1416 -0.7491 -0.0010
 2934SOL    HW120435   1.533   4.311  13.583  1.1532 -0.4628  2.5290
 2934SOL    HW220436   1.616   4.427  13.589 -0.0955 -0.5173 -0.7974
 2935SOL     OW20437   0.944   3.743   8.207 -0.4613  0.0963  0.0563
 2935SOL    HW120438   0.927   3.817   8.148  2.4907  1.3655  0.8166
 2935SOL    HW220439   0.979   3.676   8.149  0.0211  0.0963  0.3461
 2936SOL     OW20440   2.899   2.427  14.769  0.7781  0.2401  0.0404
 2936SOL    HW120441   2.817   2.470  14.743  0.3994 -0.0156  0.8057
 2936SOL    HW220442   2.929   2.493  14.831  1.9149 -1.7049  1.5712
 2937SOL     OW20443   0.193   1.314  15.091  0.0234  0.7255 -0.3497
 2937SOL    HW120444   0.154   1.290  15.007 -1.3405  0.5870  0.3292
 2937SOL    HW220445   0.184   1.230  15.137  2.1294  1.7851  1.9941
 2938SOL     OW20446   3.054   2.544   0.922 -0.4752  0.2050  0.0080
 2938SOL    HW120447   3.026   2.460   0.957 -0.3355  0.5947  1.0670
 2938SOL    HW220448   3.067   2.590   1.005  2.1919  1.2754 -1.0197
 2939SOL     OW20449   4.581   1.116  16.389 -0.4961 -0.1517  0.3968
 2939SOL    HW120450   4.673   1.138  16.402 -0.1499  0.1643 -2.7167
 2939SOL    HW220451   4.546   1.149  16.472 -0.8530 -1.5740  0.8116
 2940SOL     OW20452   3.106   3.758   6.777 -0.1631  0.4264 -0.0873
 2940SOL    HW120453   3.138   3.736   6.690  0.1122 -1.7300  0.5610
 2940SOL    HW220454   3.017   3.722   6.776 -0.0763  0.2528 -1.0253
 2941SOL     OW20455   2.246   3.620   2.876  0.5345 -0.3757 -0.2693
 2941SOL    HW120456   2.305   3.562   2.828  0.2263 -0.9025 -0.0135
 2941SOL    HW220457   2.169   3.612   2.820  0.6866  0.3397 -0.5847
 2942SOL     OW20458   2.248   3.806   7.314  0.2810 -0.0785 -0.0148
 2942SOL    HW120459   2.271   3.865   7.242  0.7975 -1.6949 -1.1804
 2942SOL    HW220460   2.194   3.863   7.369 -0.7054 -0.1050 -0.9485
 2943SOL     OW20461   2.820   3.698   4.655  0.1510  0.3573 -0.3081
 2943SOL    HW120462   2.755   3.766   4.636 -1.4707 -1.1353  0.0033
 2943SOL    HW220463   2.897   3.755   4.668  0.9033 -1.3962  2.8158
 2944SOL     OW20464   4.659   0.058  13.549 -0.7532  0.2325 -0.0007
 2944SOL    HW120465   4.665   4.701  13.534  0.2656  0.1471  0.9608
 2944SOL    HW220466   4.655   0.064  13.645 -0.3138  1.3137 -0.0498
 2945SOL     OW20467   3.816   0.872  12.053 -0.7428 -0.8511 -0.8993
 2945SOL    HW120468   3.744   0.851  12.112 -0.5293  1.2574  0.1283
 2945SOL    HW220469   3.773   0.860  11.969 -0.8585 -0.1535 -0.9408
 2946SOL     OW20470   0.800   0.213   2.583  0.6315 -0.3559  0.0699
 2946SOL    HW120471   0.849   0.235   2.663 -1.7798 -0.4199  1.5550
 2946SOL    HW220472   0.877   0.211   2.526 -0.1151  1.5306 -1.0063
 2947SOL     OW20473   0.650   1.000  16.365  0.1420  0.1661  0.0075
 2947SOL    HW120474   0.557   0.991  16.383  0.1519 -0.5674 -0.3192
 2947SOL    HW220475   0.646   1.015  16.271 -0.3104  0.5516  0.0882
 2948SOL     OW20476   0.781   2.582  10.048  0.2639 -0.2990 -0.0621
 2948SOL    HW120477   0.797   2.551  10.138 -0.4600 -2.2938 -0.6303
 2948SOL    HW220478   0.871   2.606  10.025 -0.1078 -0.5267 -1.7424
 2949SOL     OW20479   1.009   1.969   3.351  0.1023 -0.4487  0.2158
 2949SOL    HW120480   0.965   1.893   3.313 -0.9357  1.7574 -3.0537
 2949SOL    HW220481   1.086   1.918   3.376  0.3078  0.2163  0.9283
 2950SOL     OW20482   3.729   0.897   7.508 -0.0377 -0.1725 -0.4077
 2950SOL    HW120483   3.813   0.903   7.463  1.6510 -3.4620  2.1796
 2950SOL    HW220484   3.737   0.973   7.566  0.3740  1.5736 -2.7954
 2951SOL     OW20485   3.379   3.553   0.067  0.0185  0.3631  0.0372
 2951SOL    HW120486   3.403   3.605   0.144  0.1525 -0.9961  0.9270
 2951SOL    HW220487   3.409   3.624   0.010  2.0166  0.6362  1.4084
 2952SOL     OW20488   2.266   0.380   5.974  0.6598 -0.1231 -0.2173
 2952SOL    HW120489   2.314   0.391   5.892  1.4443 -0.0974  0.2506
 2952SOL    HW220490   2.344   0.378   6.029  1.9217  1.3310 -1.9524
 2953SOL     OW20491   4.196   3.862  14.567 -0.2881  0.4518  0.1646
 2953SOL    HW120492   4.173   3.769  14.569  0.6819  0.2065  0.1977
 2953SOL    HW220493   4.282   3.857  14.526 -0.5478  0.3211 -0.3617
 2954SOL     OW20494   4.094   1.485  12.900 -0.1745  0.5004 -0.2518
 2954SOL    HW120495   4.109   1.432  12.979 -1.3078  0.1725 -0.2544
 2954SOL    HW220496   4.063   1.421  12.836 -3.5300 -1.8323  3.6750
 2955SOL     OW20497   0.169   1.028  12.767  0.0831  0.0016  0.4928
 2955SOL    HW120498   0.228   0.985  12.829  0.9167 -1.0729 -1.0665
 2955SOL    HW220499   0.234   1.049  12.701 -1.5759  1.3125 -0.7357
 2956SOL     OW20500   3.473   4.448   6.233 -0.3277  0.6854 -0.0297
 2956SOL    HW120501   3.462   4.541   6.254 -1.8927  1.1381 -2.8348
 2956SOL    HW220502   3.557   4.434   6.277  0.2191  0.3613 -1.1789
 2957SOL     OW20503   4.451   1.874   5.762 -0.7010  0.1015  0.3387
 2957SOL    HW120504   4.524   1.816   5.784  0.0692  0.2900 -1.7087
 2957SOL    HW220505   4.385   1.845   5.825  0.5527 -2.0333  0.6393
 2958SOL     OW20506   2.805   1.731   4.115 -0.0273  0.1042  0.1781
 2958SOL    HW120507   2.744   1.674   4.069  1.8195 -0.1884 -1.9231
 2958SOL    HW220508   2.781   1.716   4.206 -0.9669 -0.1180 -0.1101
 2959SOL     OW20509   1.399   1.263   8.800 -0.5177 -0.4542 -0.2868
 2959SOL    HW120510   1.355   1.182   8.826 -1.2656 -0.1808 -0.6991
 2959SOL    HW220511   1.366   1.328   8.862  0.0599 -0.1013 -0.3474
 2960SOL     OW20512   3.206   1.608  14.666  0.5901  0.1145 -0.0201
 2960SOL    HW120513   3.256   1.684  14.635 -1.7742  0.1773 -3.6841
 2960SOL    HW220514   3.119   1.644  14.651  0.4670 -0.6590 -1.1700
 2961SOL     OW20515   1.498   2.292   1.473 -0.0679  0.4429 -0.4736
 2961SOL    HW120516   1.552   2.301   1.395  1.4279  1.5076  0.6660
 2961SOL    HW220517   1.528   2.207   1.506  0.8355  0.7359 -0.5294
 2962SOL     OW20518   0.838   0.988   5.849 -0.1246 -0.2512  0.1883
 2962SOL    HW120519   0.845   1.013   5.941  0.5953 -1.2563  0.4070
 2962SOL    HW220520   0.758   0.935   5.844 -0.8553  0.8437  0.2846
 2963SOL     OW20521   1.489   3.246  12.635 -0.6569 -0.0424 -0.1049
 2963SOL    HW120522   1.538   3.170  12.665  1.0983  1.3270  0.5543
 2963SOL    HW220523   1.544   3.321  12.659 -0.5741  0.5449 -2.0710
 2964SOL     OW20524   2.618   2.157   3.058 -0.1891 -0.3376 -0.0799
 2964SOL    HW120525   2.668   2.096   3.004  1.5219  1.6935 -0.8087
 2964SOL    HW220526   2.541   2.118   3.098  0.7678 -0.4202  1.6623
 2965SOL     OW20527   4.016   0.262   7.288 -0.7386 -0.1790  0.7958
 2965SOL    HW120528   4.095   0.208   7.283  0.6100  1.9588 -0.8816
 2965SOL    HW220529   4.050   0.350   7.302 -0.9382 -0.0138  0.2447
 2966SOL     OW20530   3.348   3.947   7.571 -0.1222 -0.1419  0.7890
 2966SOL    HW120531   3.338   3.932   7.665 -1.0460  0.9912  0.8770
 2966SOL    HW220532   3.387   4.034   7.582  0.1546 -0.0563 -0.7579
 2967SOL     OW20533   0.284   0.340   5.729 -0.1586 -0.5972  0.9627
 2967SOL    HW120534   0.212   0.385   5.685  0.2918 -1.2859 -0.4813
 2967SOL    HW220535   0.260   0.302   5.813 -2.0454 -3.7352 -0.9675
 2968SOL     OW20536   1.464   1.914  15.101  0.3042  0.1920 -0.1247
 2968SOL    HW120537   1.487   1.824  15.077 -1.0948  0.0703 -1.0340
 2968SOL    HW220538   1.438   1.940  15.012  1.1203  0.4822 -0.2748
 2969SOL     OW20539   1.449   3.680   4.599  0.1035 -0.0245  0.0034
 2969SOL    HW120540   1.508   3.704   4.670 -1.7128  0.3154  1.3985
 2969SOL    HW220541   1.365   3.662   4.642 -0.3598 -0.5589 -1.1223
 2970SOL     OW20542   1.321   3.879   0.489  0.1738  0.3379 -0.1606
 2970SOL    HW120543   1.244   3.925   0.457  0.7851  1.3222 -0.2265
 2970SOL    HW220544   1.376   3.889   0.411  0.9972  0.0049  0.3762
 2971SOL     OW20545   3.076   0.057   6.801  0.5700 -0.2836  0.2390
 2971SOL    HW120546   2.983   0.044   6.787  1.0243 -0.5591 -2.4897
 2971SOL    HW220547   3.104   4.704   6.812 -1.5251 -0.8585  0.7243
 2972SOL     OW20548   2.963   3.727  14.090  0.3974 -0.5220  0.6467
 2972SOL    HW120549   2.928   3.649  14.134 -0.8803  0.1271  0.7898
 2972SOL    HW220550   2.923   3.800  14.137 -0.8364 -0.7941  0.0040
 2973SOL     OW20551   1.490   2.306   5.924  0.8348  0.1088  0.1241
 2973SOL    HW120552   1.504   2.392   5.884  2.2314  1.0853  2.6942
 2973SOL    HW220553   1.575   2.280   5.960  0.2688 -1.8852  0.0271
 2974SOL     OW20554   3.553   2.350   5.120 -0.5474  0.2819 -0.1910
 2974SOL    HW120555   3.571   2.422   5.059  1.6247 -0.1635 -0.0545
 2974SOL    HW220556   3.464   2.325   5.095 -0.2498 -1.3718  0.4214
 2975SOL     OW20557   0.477   2.776   7.836  0.4974 -0.6112  0.0230
 2975SOL    HW120558   0.523   2.825   7.768 -2.1972 -0.2241 -1.5051
 2975SOL    HW220559   0.393   2.754   7.795  0.1918  1.6287 -0.5975
 2976SOL     OW20560   1.227   2.063   0.744 -0.0740  0.1945 -0.8286
 2976SOL    HW120561   1.190   1.987   0.789 -0.2024  0.8264  0.1322
 2976SOL    HW220562   1.157   2.127   0.737  1.0490  1.5095 -0.0161
 2977SOL     OW20563   4.495   3.585   4.968 -0.2102  0.4904 -0.0471
 2977SOL    HW120564   4.418   3.571   4.912 -2.0488 -0.4331  2.6959
 2977SOL    HW220565   4.457   3.557   5.051 -0.2641 -1.9830 -0.8854
 2978SOL     OW20566   1.384   2.463   9.310 -0.1588  0.0788 -0.0646
 2978SOL    HW120567   1.320   2.526   9.340 -0.7117 -1.4349  1.9451
 2978SOL    HW220568   1.359   2.463   9.217  0.4205 -1.4623 -0.2418
 2979SOL     OW20569   3.533   1.096   3.975  0.1437 -0.3762  0.4305
 2979SOL    HW120570   3.516   1.136   4.060  2.5290  2.1227 -0.2786
 2979SOL    HW220571   3.443   1.105   3.946  0.5723  0.9750 -0.4683
 2980SOL     OW20572   0.520   3.644   8.504  0.5868 -0.2060  0.1985
 2980SOL    HW120573   0.537   3.688   8.587  0.8651 -0.5560  0.3218
 2980SOL    HW220574   0.543   3.709   8.437  0.8992  1.0491  1.5280
 2981SOL     OW20575   1.205   4.247   2.481  0.0389  0.1038  0.3151
 2981SOL    HW120576   1.198   4.152   2.487 -1.4420  0.1022 -1.5014
 2981SOL    HW220577   1.120   4.287   2.500 -0.1279 -0.0797 -0.0624
 2982SOL     OW20578   1.239   3.936   8.090 -0.5773 -0.8060  0.0550
 2982SOL    HW120579   1.217   3.843   8.094 -0.0001 -0.9325  0.2733
 2982SOL    HW220580   1.157   3.982   8.107  0.2731  0.1257  1.5901
 2983SOL     OW20581   2.634   3.182   1.204 -0.0619  0.2021  0.1626
 2983SOL    HW120582   2.658   3.089   1.201 -0.8449 -0.0474  1.5058
 2983SOL    HW220583   2.543   3.176   1.233  0.1045 -0.7619  0.5059
 2984SOL     OW20584   4.265   0.365   7.583 -0.3006 -0.2171 -0.2106
 2984SOL    HW120585   4.272   0.448   7.631  1.3930 -0.4496 -0.0783
 2984SOL    HW220586   4.222   0.401   7.505 -0.3997 -0.2348 -0.1649
 2985SOL     OW20587   1.578   2.208   9.539 -0.1916 -0.2217  0.0147
 2985SOL    HW120588   1.615   2.212   9.628  2.7023 -2.6061 -1.0778
 2985SOL    HW220589   1.634   2.147   9.491 -0.1431  1.7794 -2.4249
 2986SOL     OW20590   2.502   0.226   5.069  0.6163  0.0219  0.6778
 2986SOL    HW120591   2.501   0.290   4.998 -1.2547 -1.2335 -0.4349
 2986SOL    HW220592   2.553   0.153   5.034  0.4390 -0.0129  0.4864
 2987SOL     OW20593   1.194   4.615   8.940 -0.0458  0.6289 -0.2112
 2987SOL    HW120594   1.139   4.689   8.964 -0.9824  0.1497 -0.8661
 2987SOL    HW220595   1.151   4.600   8.856 -3.4951 -0.7912  1.8342
 2988SOL     OW20596   2.050   4.598   8.632 -0.2146 -0.1476  0.7236
 2988SOL    HW120597   1.999   4.518   8.620  0.9055 -0.6778 -0.4498
 2988SOL    HW220598   2.070   4.614   8.540  0.2857  1.4888  1.1066
 2989SOL     OW20599   3.266   2.217   7.291 -0.6685 -0.6698 -0.3868
 2989SOL    HW120600   3.204   2.144   7.293  1.1453 -2.2265 -0.7657
 2989SOL    HW220601   3.306   2.205   7.377 -1.5333  0.3751  0.1544
 2990SOL     OW20602   4.501   3.583  14.344 -0.0594  0.2333  0.4070
 2990SOL    HW120603   4.519   3.510  14.284 -0.5755  1.3638 -1.1326
 2990SOL    HW220604   4.496   3.530  14.423  1.0246 -0.0320  0.2978
 2991SOL     OW20605   2.536   0.397   4.000  0.1025 -0.4108 -0.5067
 2991SOL    HW120606   2.589   0.437   4.069  0.6504 -1.2645 -0.4280
 2991SOL    HW220607   2.593   0.322   3.984 -2.3129 -2.4348  0.4053
 2992SOL     OW20608   2.259   0.360   5.352  0.0757  0.0412  0.0162
 2992SOL    HW120609   2.202   0.372   5.276  0.9420 -0.2000 -0.6649
 2992SOL    HW220610   2.221   0.278   5.383 -1.2773 -0.3763 -2.7162
 2993SOL     OW20611   3.953   4.140   7.532  0.1864 -0.3748  0.4510
 2993SOL    HW120612   4.023   4.083   7.564 -0.0188 -0.2434  1.1405
 2993SOL    HW220613   3.972   4.220   7.580  0.8275 -0.3175  0.1045
 2994SOL     OW20614   1.505   1.904   2.509 -0.4266  0.3954  0.3625
 2994SOL    HW120615   1.446   1.849   2.560 -2.4329 -0.3309 -2.7836
 2994SOL    HW220616   1.505   1.979   2.569  1.1760 -2.0757  3.4239
 2995SOL     OW20617   3.418   4.649   1.879 -0.0155  0.4753 -0.1599
 2995SOL    HW120618   3.442   4.562   1.910 -2.6301 -0.8847 -1.9237
 2995SOL    HW220619   3.362   4.632   1.803  0.9894 -3.0239 -0.1031
 2996SOL     OW20620   0.315   0.471   7.197  0.2719 -0.2825  0.3035
 2996SOL    HW120621   0.275   0.518   7.124 -1.1630 -1.9051  0.0460
 2996SOL    HW220622   0.350   0.543   7.250  2.4219 -0.9673 -0.1750
 2997SOL     OW20623   1.277   3.402   9.126 -0.2709  0.0124  0.2121
 2997SOL    HW120624   1.323   3.387   9.043  0.4829 -1.9368  0.9935
 2997SOL    HW220625   1.191   3.433   9.096 -0.2342 -1.1411 -1.0687
 2998SOL     OW20626   3.308   2.100  10.758  0.5188  0.3462  0.2466
 2998SOL    HW120627   3.243   2.164  10.731  1.3676  0.8090 -0.6691
 2998SOL    HW220628   3.299   2.111  10.853  0.2902  2.7921 -0.0718
 2999SOL     OW20629   3.575   1.446  16.727 -0.2480  0.1642  0.2858
 2999SOL    HW120630   3.533   1.521  16.686 -0.5416 -0.3643 -0.3797
 2999SOL    HW220631   3.605   1.397  16.650  1.2251 -0.0499  0.9928
 3000SOL     OW20632   2.084   3.661   7.599 -0.5467  0.0767 -0.7484
 3000SOL    HW120633   2.138   3.632   7.525 -2.5346 -1.0545 -1.7380
 3000SOL    HW220634   2.150   3.726   7.624 -0.0718 -1.1838  1.3188
 3001SOL     OW20635   2.177   4.412   8.331  0.2657 -0.6337 -0.2728
 3001SOL    HW120636   2.240   4.377   8.268  0.8036 -0.1016 -0.0200
 3001SOL    HW220637   2.102   4.438   8.277  0.8887 -0.4327 -1.0499
 3002SOL     OW20638   4.085   2.207   9.770  0.1031 -0.8673  0.4515
 3002SOL    HW120639   4.137   2.202   9.850 -1.0663  1.5322  1.3578
 3002SOL    HW220640   3.997   2.217   9.807  0.3252 -2.5733  1.4464
 3003SOL     OW20641   3.364   1.146  16.172 -0.3367 -0.6714 -0.3674
 3003SOL    HW120642   3.373   1.186  16.085 -1.9153 -1.5457 -0.9461
 3003SOL    HW220643   3.434   1.197  16.211 -0.5011 -1.2603  0.7153
 3004SOL     OW20644   0.338   3.871   7.827  0.5295  0.2074 -0.4351
 3004SOL    HW120645   0.379   3.904   7.907  0.7225  0.6881 -0.7251
 3004SOL    HW220646   0.407   3.871   7.760 -2.3243 -1.7188 -3.3543
 3005SOL     OW20647   2.099   3.715   8.532 -0.3012  0.1391  0.1880
 3005SOL    HW120648   2.062   3.694   8.618 -1.2033  1.8625  0.2401
 3005SOL    HW220649   2.042   3.788   8.507  1.5241  2.2582  2.2120
 3006SOL     OW20650   2.252   2.880   9.377  0.0414 -0.1086  0.6081
 3006SOL    HW120651   2.185   2.947   9.366 -1.7986 -2.2566 -1.1422
 3006SOL    HW220652   2.223   2.827   9.450  1.0653 -1.1925  0.2323
 3007SOL     OW20653   4.405   0.714   7.887  0.4233  0.3107  0.2004
 3007SOL    HW120654   4.431   0.627   7.917 -1.8512 -1.0618 -1.8544
 3007SOL    HW220655   4.329   0.750   7.934  1.1345  0.9134  0.8986
 3008SOL     OW20656   2.173   0.937   3.558  0.3531  0.3995 -0.0233
 3008SOL    HW120657   2.190   0.996   3.631 -0.5378  1.6305 -0.8192
 3008SOL    HW220658   2.206   0.987   3.483 -1.1413  0.5432 -0.5854
 3009SOL     OW20659   1.531   0.653   0.866  0.1423  0.2253 -0.0647
 3009SOL    HW120660   1.446   0.611   0.876 -0.2099  0.5942 -1.5090
 3009SOL    HW220661   1.564   0.669   0.954  1.4152  1.1130 -0.6949
 3010SOL     OW20662   4.333   0.653   2.967  0.2308 -0.9387  0.2020
 3010SOL    HW120663   4.266   0.715   2.996 -0.2220 -1.7914  0.9728
 3010SOL    HW220664   4.349   0.683   2.878  0.6097  1.0605  0.9445
 3011SOL     OW20665   3.964   0.642   0.111  0.4033 -0.1268 -0.0904
 3011SOL    HW120666   4.013   0.622   0.191  1.1040  2.4019  0.1287
 3011SOL    HW220667   3.989   0.732   0.088  1.2418 -0.3154  0.0602
 3012SOL     OW20668   3.829   3.309   5.478  0.0461 -0.2078 -0.8274
 3012SOL    HW120669   3.810   3.276   5.390  1.4136 -0.3013 -1.0937
 3012SOL    HW220670   3.893   3.240   5.499  0.8863  1.2231  1.3314
 3013SOL     OW20671   4.518   1.304   6.586 -0.1319  0.2495 -0.0971
 3013SOL    HW120672   4.569   1.381   6.560 -1.1335  0.8258 -0.3596
 3013SOL    HW220673   4.503   1.310   6.680  0.4474 -0.9381  0.0691
 3014SOL     OW20674   1.782   3.513   5.870  0.3641 -0.3056 -0.2203
 3014SOL    HW120675   1.727   3.494   5.946  0.2872 -2.0448 -0.7081
 3014SOL    HW220676   1.731   3.588   5.840  0.0927 -0.2669  0.3436
 3015SOL     OW20677   1.148   3.585   3.868 -0.3844  0.0523  0.0031
 3015SOL    HW120678   1.154   3.566   3.961 -2.7432  0.6776  0.2694
 3015SOL    HW220679   1.053   3.580   3.872 -0.4272 -2.3527 -3.6224
 3016SOL     OW20680   0.791   2.596   7.701  0.9842  0.1848  0.1730
 3016SOL    HW120681   0.764   2.628   7.615  1.3682 -0.0830 -0.0465
 3016SOL    HW220682   0.819   2.676   7.745  1.7988  1.3746 -2.5233
 3017SOL     OW20683   3.162   1.753   4.660  0.2430  0.1713 -0.2019
 3017SOL    HW120684   3.198   1.687   4.720  0.0499 -0.5984 -0.9378
 3017SOL    HW220685   3.086   1.703   4.630  1.7910 -0.9415 -2.2497
 3018SOL     OW20686   3.642   4.293   2.993  0.3633  0.1275 -0.4022
 3018SOL    HW120687   3.580   4.259   3.057  0.1480  0.5713 -0.3767
 3018SOL    HW220688   3.700   4.218   2.981 -0.8562 -0.8560 -0.1201
 3019SOL     OW20689   0.298   4.148   8.175  0.4135  0.2339 -0.2688
 3019SOL    HW120690   0.303   4.191   8.089 -0.4890 -1.0959 -0.9692
 3019SOL    HW220691   0.208   4.171   8.194  0.1620 -0.9020 -0.1026
 3020SOL     OW20692   3.268   1.945   7.164  0.1814  0.1750 -0.5553
 3020SOL    HW120693   3.247   1.857   7.195  0.1232 -0.5577 -2.6537
 3020SOL    HW220694   3.314   1.980   7.240 -3.9525  3.4482  0.4326
 3021SOL     OW20695   2.426   1.653   8.999 -0.1561 -0.1353 -0.3587
 3021SOL    HW120696   2.486   1.607   9.058  1.5723 -1.3072 -3.0302
 3021SOL    HW220697   2.374   1.581   8.961 -0.1884 -0.0324 -0.5075
 3022SOL     OW20698   0.559   0.235   7.806 -0.3684 -0.6837  0.3538
 3022SOL    HW120699   0.587   0.327   7.797 -1.5746 -0.5601 -2.0668
 3022SOL    HW220700   0.623   0.180   7.761  0.3137 -0.5993  1.2236
 3023SOL     OW20701   2.971   3.952  15.235  0.2923 -0.5936  0.4942
 3023SOL    HW120702   2.990   3.967  15.142 -1.7854 -2.4846 -0.2295
 3023SOL    HW220703   2.879   3.975  15.234 -0.3827 -3.2230  2.7767
 3024SOL     OW20704   3.818   3.870  12.593 -0.8676  0.0061  0.5519
 3024SOL    HW120705   3.819   3.924  12.671  2.7508 -1.3154  1.4190
 3024SOL    HW220706   3.912   3.852  12.590 -0.2712  3.2201  0.1134
 3025SOL     OW20707   2.392   2.059   4.419 -0.2948 -0.1633 -0.7023
 3025SOL    HW120708   2.448   2.134   4.399 -1.0945  1.2982  2.6872
 3025SOL    HW220709   2.301   2.084   4.408 -0.3824 -1.1852 -2.4017
 3026SOL     OW20710   1.789   0.409   0.466 -0.2644 -0.0863 -0.1361
 3026SOL    HW120711   1.824   0.495   0.488  0.5630 -0.5556  0.3774
 3026SOL    HW220712   1.868   0.359   0.445 -0.3315 -0.8394  1.3673
 3027SOL     OW20713   0.722   2.745   2.222 -0.0036 -0.1543 -0.5852
 3027SOL    HW120714   0.745   2.838   2.231 -1.4801  0.1373  0.1312
 3027SOL    HW220715   0.737   2.707   2.308 -2.0893 -1.4672 -0.8116
 3028SOL     OW20716   4.350   3.307  17.660 -0.3345 -0.1741  0.1688
 3028SOL    HW120717   4.435   3.264  17.670  0.2357  1.2695  1.6281
 3028SOL    HW220718   4.326   3.315   0.003  0.8976 -0.2048  0.5040
 3029SOL     OW20719   3.829   0.853  11.152 -0.1392  0.2103  0.6618
 3029SOL    HW120720   3.870   0.767  11.159  0.7664  0.5129 -0.8880
 3029SOL    HW220721   3.908   0.907  11.143  0.7992 -1.4356 -0.9910
 3030SOL     OW20722   0.215   0.124  15.217 -0.1003  0.3506  0.1107
 3030SOL    HW120723   0.287   0.076  15.258 -0.1098 -0.3903 -0.7332
 3030SOL    HW220724   0.216   0.206  15.267  0.2003  0.8350 -0.6805
 3031SOL     OW20725   4.169   2.740   3.317 -0.7194 -0.0302  0.3398
 3031SOL    HW120726   4.126   2.764   3.398 -1.9436  0.8032 -0.5550
 3031SOL    HW220727   4.115   2.666   3.288 -1.3133  0.6058 -0.1800
 3032SOL     OW20728   4.344   3.026   8.026 -0.2139  0.2761  0.2340
 3032SOL    HW120729   4.325   2.987   8.111  4.8525 -1.4054  0.5921
 3032SOL    HW220730   4.422   3.079   8.040 -0.8750  0.5498  2.8559
 3033SOL     OW20731   2.804   1.394   9.894  0.3005  0.2955 -0.1044
 3033SOL    HW120732   2.844   1.481   9.881  2.1108 -0.8237 -2.1313
 3033SOL    HW220733   2.797   1.360   9.805 -1.0358  0.5559 -0.1009
 3034SOL     OW20734   3.463   4.612  10.828  0.2205 -0.5262  0.4078
 3034SOL    HW120735   3.447   4.527  10.785 -1.0883  0.4305 -1.0278
 3034SOL    HW220736   3.496   4.642  10.743 -1.6423  1.2505  0.3181
 3035SOL     OW20737   3.997   1.922  16.347 -0.0283 -0.2966  0.1527
 3035SOL    HW120738   4.018   1.949  16.257 -2.2547  1.1696  0.0799
 3035SOL    HW220739   3.904   1.940  16.360  0.2436  0.6789  0.7621
 3036SOL     OW20740   0.235   2.819  17.046 -0.3376 -0.4517  0.2827
 3036SOL    HW120741   0.145   2.847  17.059 -0.8172 -2.6103  1.5201
 3036SOL    HW220742   0.227   2.727  17.022  0.5446  0.2623 -2.8126
 3037SOL     OW20743   4.709   1.798   5.555  0.2055 -0.2333 -0.0235
 3037SOL    HW120744   4.649   1.836   5.491 -0.4050 -1.1176  0.0164
 3037SOL    HW220745   0.038   1.866   5.554  0.5065 -0.5545 -1.7641
 3038SOL     OW20746   1.534   3.922   9.020 -0.2978  0.0158  0.3644
 3038SOL    HW120747   1.568   4.009   9.044 -1.6607  0.8363 -0.7119
 3038SOL    HW220748   1.518   3.894   9.110 -1.9430 -2.9576 -0.8472
 3039SOL     OW20749   3.786   4.087   6.170  0.3395 -0.6594  0.7338
 3039SOL    HW120750   3.797   3.992   6.165 -0.2377 -0.6456 -0.6801
 3039SOL    HW220751   3.753   4.112   6.257 -1.3589 -0.9855  0.1705
 3040SOL     OW20752   4.712   3.387   6.111 -0.1718 -0.7694  0.4086
 3040SOL    HW120753   0.026   3.311   6.083 -0.4960 -0.9665  0.3483
 3040SOL    HW220754   4.678   3.422   6.028 -0.0024  0.9939  1.0852
 3041SOL     OW20755   0.650   0.886   7.163 -0.3035  0.1251 -0.9102
 3041SOL    HW120756   0.728   0.941   7.158 -2.1516  2.8897  1.0077
 3041SOL    HW220757   0.660   0.825   7.237 -1.5233  0.6774 -0.3001
 3042SOL     OW20758   0.642   0.832   6.894  0.1464  0.6364 -0.5526
 3042SOL    HW120759   0.645   0.837   6.990  0.1554 -2.0201 -0.4090
 3042SOL    HW220760   0.552   0.860   6.876 -0.8091 -0.5709  2.2810
 3043SOL     OW20761   0.781   4.130   2.620 -0.1652  0.2984  0.2362
 3043SOL    HW120762   0.856   4.078   2.591  0.2155  1.2052 -0.4094
 3043SOL    HW220763   0.837   4.194   2.663 -1.2754  0.5446  1.3324
 3044SOL     OW20764   0.945   0.739  14.374  0.3500 -0.5669 -0.3314
 3044SOL    HW120765   0.898   0.791  14.309  0.8308 -0.6563 -0.7521
 3044SOL    HW220766   0.876   0.675  14.391 -0.3410 -0.3434 -2.2945
 3045SOL     OW20767   1.287   1.913  15.650 -0.7753 -0.2228 -0.3041
 3045SOL    HW120768   1.350   1.938  15.583  0.3935  0.9170  1.2117
 3045SOL    HW220769   1.218   1.970  15.615 -1.4883  0.7910  2.7162
 3046SOL     OW20770   4.177   2.724   6.029 -0.6523 -0.9740 -0.1712
 3046SOL    HW120771   4.239   2.797   6.033 -1.2787 -0.5707  1.7782
 3046SOL    HW220772   4.125   2.756   5.956  0.3479 -0.9913 -0.8982
 3047SOL     OW20773   4.396   1.835   8.806 -0.7063  0.2579  0.8530
 3047SOL    HW120774   4.318   1.890   8.807 -2.9617 -2.8780 -2.7865
 3047SOL    HW220775   4.361   1.747   8.822  0.0960 -0.1958  0.0583
 3048SOL     OW20776   0.062   2.132   8.528  0.1588 -0.0413  0.3737
 3048SOL    HW120777   4.737   2.151   8.598 -0.2059  0.1851 -0.0152
 3048SOL    HW220778   0.023   2.172   8.451  1.0624 -1.5134 -0.8471
 3049SOL     OW20779   2.870   2.154   4.184  0.5035 -0.6103 -0.4395
 3049SOL    HW120780   2.890   2.219   4.116  0.6856 -1.7891 -1.5030
 3049SOL    HW220781   2.883   2.066   4.149 -0.3967 -0.6504 -0.6731
 3050SOL     OW20782   0.085   0.470   5.648  0.5145 -0.4067  0.2322
 3050SOL    HW120783   0.005   0.422   5.669  1.2692 -3.3556 -3.6651
 3050SOL    HW220784   0.060   0.555   5.685  1.3956  0.1378 -0.4137
 3051SOL     OW20785   2.558   2.968   8.842 -0.3364  0.7498  0.7383
 3051SOL    HW120786   2.578   2.925   8.759 -2.5434  0.6666  0.2557
 3051SOL    HW220787   2.615   2.923   8.905  1.5504  0.7076 -1.0224
 3052SOL     OW20788   3.115   3.480   2.407  0.9297 -0.4756 -0.4346
 3052SOL    HW120789   3.201   3.522   2.409  0.4118  0.7298 -3.8554
 3052SOL    HW220790   3.115   3.404   2.465 -1.3200 -0.9621 -1.0743
 3053SOL     OW20791   2.581   3.528  11.939  0.2196  0.2782 -0.3218
 3053SOL    HW120792   2.577   3.616  11.976 -3.0166 -0.5012  1.1873
 3053SOL    HW220793   2.676   3.515  11.935  0.0628 -1.1342  0.4967
 3054SOL     OW20794   2.495   4.503   8.642 -1.2472  0.5315 -0.7137
 3054SOL    HW120795   2.455   4.546   8.567 -0.2055 -1.4927 -2.4061
 3054SOL    HW220796   2.426   4.439   8.657  1.2268 -1.9834 -0.1661
 3055SOL     OW20797   0.696   4.519  13.849 -0.0133 -0.6368 -0.0331
 3055SOL    HW120798   0.672   4.611  13.841  0.2713 -0.4912  0.7888
 3055SOL    HW220799   0.616   4.472  13.824 -0.4826  0.1132  0.0773
 3056SOL     OW20800   3.494   2.129   5.936 -0.3535 -0.0618 -0.4840
 3056SOL    HW120801   3.504   2.146   6.029 -0.5370 -1.0622 -0.2847
 3056SOL    HW220802   3.547   2.203   5.906 -0.3101  0.3906  0.7146
 3057SOL     OW20803   1.877   0.636   0.612 -0.1797 -0.1161  0.3147
 3057SOL    HW120804   1.920   0.687   0.681 -0.8138  1.5383 -0.5039
 3057SOL    HW220805   1.810   0.594   0.666 -0.0137 -2.7589 -1.5795
 3058SOL     OW20806   1.188   3.989   0.985  0.3862  0.7783 -0.4670
 3058SOL    HW120807   1.216   3.980   0.894  0.7980  1.3971 -0.3963
 3058SOL    HW220808   1.103   4.031   0.974 -1.2838 -2.3145  0.8477
 3059SOL     OW20809   3.509   2.918   2.765  0.2871  0.0149  0.1615
 3059SOL    HW120810   3.559   2.917   2.683 -1.3986 -0.6794 -0.8572
 3059SOL    HW220811   3.540   3.001   2.802 -0.3016  0.0223  0.6368
 3060SOL     OW20812   0.677   1.693   4.747  0.4995 -0.0879 -0.1316
 3060SOL    HW120813   0.585   1.666   4.752  0.2848  0.6909  0.0216
 3060SOL    HW220814   0.693   1.762   4.811  1.8669  0.1467 -0.7283
 3061SOL     OW20815   0.630   2.823  11.319  0.0177  0.3519  0.0268
 3061SOL    HW120816   0.693   2.807  11.248 -2.4216 -1.5588 -1.7153
 3061SOL    HW220817   0.562   2.757  11.300  2.2649 -1.5418 -1.5485
 3062SOL     OW20818   2.555   0.482   3.725 -1.1034  0.6343 -0.1669
 3062SOL    HW120819   2.513   0.461   3.808 -1.2100 -2.0966 -0.9128
 3062SOL    HW220820   2.521   0.569   3.704  1.3725  2.4711  3.6181
 3063SOL     OW20821   2.036   0.433   2.183 -0.1743 -0.0952  0.3667
 3063SOL    HW120822   1.966   0.426   2.118 -1.0548 -1.9873  1.5556
 3063SOL    HW220823   2.014   0.368   2.249  0.3472 -0.5893  0.0586
 3064SOL     OW20824   4.322   2.309  10.187  0.3090 -0.8402  0.0902
 3064SOL    HW120825   4.401   2.278  10.143 -0.7883 -3.3718 -0.0917
 3064SOL    HW220826   4.356   2.297  10.276 -1.5454  0.3813  0.9706
 3065SOL     OW20827   0.166   0.675   2.164 -0.2805 -0.6397 -0.3880
 3065SOL    HW120828   0.176   0.585   2.194 -2.9658 -0.6288  0.5621
 3065SOL    HW220829   0.076   0.697   2.140  0.7809  2.5436 -1.4201
 3066SOL     OW20830   4.551   3.808  11.901 -0.0436  0.3474 -0.1227
 3066SOL    HW120831   4.575   3.785  11.991  0.3069 -2.1390 -0.8354
 3066SOL    HW220832   4.473   3.862  11.916 -0.7176 -1.0945  1.6354
 3067SOL     OW20833   3.923   2.595  16.812  0.1568 -0.2359  0.0220
 3067SOL    HW120834   3.888   2.585  16.900  2.8758  1.1108  1.2471
 3067SOL    HW220835   4.012   2.564  16.829  0.1284 -0.8053 -0.8184
 3068SOL     OW20836   2.023   0.961  12.315  0.3367 -0.0588  0.1695
 3068SOL    HW120837   2.012   0.911  12.396  1.1023 -1.0047 -0.3053
 3068SOL    HW220838   1.993   1.047  12.344 -0.9867 -0.9290  1.3498
 3069SOL     OW20839   0.594   0.688   5.422  0.3599 -0.1818  0.5686
 3069SOL    HW120840   0.550   0.645   5.495  0.0714 -0.9667 -0.0536
 3069SOL    HW220841   0.682   0.698   5.459  0.4762 -1.0365  0.5169
 3070SOL     OW20842   2.802   2.151   8.593 -0.5292 -0.0231  0.0490
 3070SOL    HW120843   2.802   2.111   8.506  0.1506 -0.6948  0.3586
 3070SOL    HW220844   2.789   2.245   8.578 -1.5695 -0.3193 -0.8825
 3071SOL     OW20845   0.100   0.055   3.359 -0.6264  0.0341  0.2145
 3071SOL    HW120846   0.012   0.045   3.323 -0.0515  2.0622 -1.7603
 3071SOL    HW220847   0.106   4.717   3.417 -0.2066  0.3482  0.5751
 3072SOL     OW20848   1.169   2.124   7.434  0.3805  0.0703  0.1990
 3072SOL    HW120849   1.146   2.213   7.461  0.8329  0.6161 -1.2337
 3072SOL    HW220850   1.117   2.127   7.354  0.4658  4.3156  0.2670
 3073SOL     OW20851   2.492   4.586   8.907 -0.4312 -0.0572  0.0538
 3073SOL    HW120852   2.576   4.545   8.925  0.3441  2.0583  1.2458
 3073SOL    HW220853   2.491   4.564   8.813  1.0320 -0.5339  0.1559
 3074SOL     OW20854   0.560   2.878  16.502  0.2730  0.4576  0.0989
 3074SOL    HW120855   0.580   2.842  16.416  0.2575 -2.4722  1.3260
 3074SOL    HW220856   0.504   2.952  16.478  0.7223  1.2144  1.3716
 3075SOL     OW20857   2.276   2.630   7.225 -0.1615 -0.1051  0.1140
 3075SOL    HW120858   2.267   2.617   7.131 -0.3906  1.4736 -0.0816
 3075SOL    HW220859   2.272   2.541   7.261 -2.8096 -0.7309 -1.8044
 3076SOL     OW20860   1.334   4.142   7.241  0.3982 -0.0279  0.3332
 3076SOL    HW120861   1.269   4.137   7.311 -1.1991  1.2979 -1.0675
 3076SOL    HW220862   1.279   4.181   7.174  2.4748 -0.9056 -1.9028
 3077SOL     OW20863   3.461   4.527   0.904  0.1167  0.2527 -0.4984
 3077SOL    HW120864   3.409   4.607   0.916 -0.1398 -0.1419  1.1232
 3077SOL    HW220865   3.398   4.471   0.859  1.3679 -1.9100  0.4496
 3078SOL     OW20866   1.878   3.929   8.144  0.3178 -0.1010 -0.5801
 3078SOL    HW120867   1.934   3.936   8.067  0.2944 -0.7544 -0.6551
 3078SOL    HW220868   1.916   3.849   8.180  2.7198  0.6066 -1.5440
 3079SOL     OW20869   1.569   4.728   6.789 -0.2954  0.1471  0.2798
 3079SOL    HW120870   1.535   0.029   6.709 -1.0153 -1.8307 -0.3788
 3079SOL    HW220871   1.590   0.076   6.826 -1.8701  1.2546 -1.4200
 3080SOL     OW20872   0.699   2.832   1.603 -0.0757  0.5692  0.3623
 3080SOL    HW120873   0.783   2.802   1.568 -0.0060 -2.0442  2.7769
 3080SOL    HW220874   0.694   2.926   1.587 -1.9151  0.0165 -2.3679
 3081SOL     OW20875   0.358   1.992   1.105 -0.3418  0.2864 -0.1051
 3081SOL    HW120876   0.372   1.982   1.200  0.9956 -2.0733 -0.5634
 3081SOL    HW220877   0.272   1.949   1.102 -0.7321  0.8639  2.1411
 3082SOL     OW20878   2.995   3.063   1.893 -0.1426 -0.3174  0.4577
 3082SOL    HW120879   3.065   3.013   1.935 -1.8257 -1.7228  1.6237
 3082SOL    HW220880   3.028   3.083   1.806  0.5132  1.1191  1.0515
 3083SOL     OW20881   3.259   1.278   5.800  0.7751 -0.3117  0.1513
 3083SOL    HW120882   3.325   1.308   5.862  1.5593  4.7373 -3.1328
 3083SOL    HW220883   3.283   1.330   5.724 -1.2704  0.4192 -0.0102
 3084SOL     OW20884   0.105   3.961   4.147 -0.2289  0.0426 -0.2668
 3084SOL    HW120885   0.047   3.992   4.077  1.4094  2.5194 -0.5350
 3084SOL    HW220886   0.037   3.938   4.210  1.5299 -0.1686  1.5538
 3085SOL     OW20887   0.930   0.157  15.400 -0.1627 -0.0843  0.5890
 3085SOL    HW120888   0.973   0.102  15.334  0.3282  2.9225 -1.6009
 3085SOL    HW220889   0.890   0.086  15.450  0.9504 -0.4554  0.9498
 3086SOL     OW20890   3.531   1.713   7.803 -0.0891 -0.1902 -0.5831
 3086SOL    HW120891   3.504   1.622   7.810  1.3920 -0.4435  1.7360
 3086SOL    HW220892   3.542   1.723   7.897  1.2950  0.2554 -0.7927
 3087SOL     OW20893   2.123   3.771   5.617  0.4689 -0.2993  0.1266
 3087SOL    HW120894   2.197   3.828   5.595  1.1235 -1.1220  0.1828
 3087SOL    HW220895   2.047   3.828   5.605  0.2680 -0.8222 -1.0485
 3088SOL     OW20896   4.531   0.122   9.270  0.2661 -0.4936 -0.2337
 3088SOL    HW120897   4.516   0.048   9.328 -0.8287 -0.3822 -0.3721
 3088SOL    HW220898   4.614   0.158   9.301  0.3482 -0.8243 -0.0675
 3089SOL     OW20899   0.733   3.799   5.482 -0.3428  0.2276 -0.5206
 3089SOL    HW120900   0.737   3.802   5.578  0.1955  1.1181 -0.5697
 3089SOL    HW220901   0.654   3.746   5.478 -0.2215 -0.0492  0.8720
 3090SOL     OW20902   0.103   2.260   4.399 -0.3562  0.0676 -0.0611
 3090SOL    HW120903   0.183   2.255   4.347 -0.1586  1.2754  0.1249
 3090SOL    HW220904   0.042   2.225   4.335  0.9159 -2.2772  0.0104
 3091SOL     OW20905   3.189   2.761  15.022  0.4824  0.8652  0.4530
 3091SOL    HW120906   3.196   2.855  15.005  1.3792  0.6294 -0.4700
 3091SOL    HW220907   3.256   2.731  14.961 -0.0711  1.0853 -0.2659
 3092SOL     OW20908   1.083   1.054  13.361  0.2486  0.2807  0.4663
 3092SOL    HW120909   1.049   1.074  13.273  0.9469 -0.4927  0.0206
 3092SOL    HW220910   1.056   1.138  13.398  0.4607  0.5168  0.0860
 3093SOL     OW20911   4.257   3.191   3.475 -0.5870  0.5088 -0.2962
 3093SOL    HW120912   4.270   3.106   3.433 -0.0408 -0.8678  2.6899
 3093SOL    HW220913   4.312   3.236   3.411  0.5488  0.0753  0.3675
 3094SOL     OW20914   3.422   1.228  10.188 -0.1293 -0.7753 -0.6215
 3094SOL    HW120915   3.465   1.275  10.259 -0.0116  0.7673 -1.7277
 3094SOL    HW220916   3.420   1.142  10.232  0.1112  0.0995  1.1135
 3095SOL     OW20917   0.974   4.552   7.173 -0.0010 -0.8426 -0.0513
 3095SOL    HW120918   1.017   4.614   7.114  1.5517 -3.1233 -1.3189
 3095SOL    HW220919   0.969   4.611   7.248 -1.2943 -0.1455 -0.6930
 3096SOL     OW20920   3.595   3.615   7.930 -0.3248 -0.3603 -0.2349
 3096SOL    HW120921   3.581   3.657   8.015  0.4869  0.1939 -0.3784
 3096SOL    HW220922   3.552   3.530   7.940  0.7044 -0.8717 -0.1553
 3097SOL     OW20923   1.510   0.100   8.155  0.4176  0.4538  0.5890
 3097SOL    HW120924   1.599   0.071   8.173  0.4710 -0.5096 -1.1970
 3097SOL    HW220925   1.519   0.116   8.061  2.6517 -0.7446  0.6059
 3098SOL     OW20926   3.584   3.509  11.903 -0.0734  0.5694  0.0432
 3098SOL    HW120927   3.536   3.427  11.895  1.7579 -0.7266  2.2694
 3098SOL    HW220928   3.656   3.494  11.842  0.2872 -0.8596  0.8254
 3099SOL     OW20929   2.868   4.198   6.505 -0.3024  0.1183 -0.3821
 3099SOL    HW120930   2.885   4.107   6.528  2.4667  0.7650  0.1353
 3099SOL    HW220931   2.865   4.192   6.409  1.4499  1.0713 -0.4926
 3100SOL     OW20932   3.946   3.588   5.451  0.4642 -0.3404  0.0603
 3100SOL    HW120933   3.868   3.612   5.501  0.2791  0.6858 -0.7185
 3100SOL    HW220934   3.929   3.494   5.457 -1.2768 -0.1560 -1.9256
 3101SOL     OW20935   3.711   4.111  17.435  0.5728 -0.2860  0.0248
 3101SOL    HW120936   3.769   4.068  17.497 -0.9967 -0.2750  1.5142
 3101SOL    HW220937   3.757   4.187  17.400 -0.8864  1.4130  1.8160
 3102SOL     OW20938   0.769   0.432  12.544 -0.3305  0.4524 -0.0516
 3102SOL    HW120939   0.790   0.524  12.555 -2.7178  0.9533  0.2895
 3102SOL    HW220940   0.752   0.404  12.634 -0.4594 -0.9578 -0.5018
 3103SOL     OW20941   0.452   0.959  13.188  0.2643 -0.2969 -0.5124
 3103SOL    HW120942   0.473   1.045  13.225 -2.0991  0.2863 -0.5531
 3103SOL    HW220943   0.430   0.915  13.269 -0.2061  0.4629 -0.2287
 3104SOL     OW20944   4.390   1.651   7.887  0.3075  0.4679 -0.0025
 3104SOL    HW120945   4.478   1.613   7.889 -0.7997 -2.1313 -1.6655
 3104SOL    HW220946   4.401   1.734   7.934 -0.4210  1.0675 -0.8967
 3105SOL     OW20947   3.598   4.106   0.280  0.7121  0.0365  0.0880
 3105SOL    HW120948   3.575   4.049   0.207 -1.1466  1.9367 -0.7876
 3105SOL    HW220949   3.641   4.179   0.236 -0.8295  1.6544  1.2850
 3106SOL     OW20950   3.004   4.711  17.547  0.0878  0.5589  0.4087
 3106SOL    HW120951   2.999   4.682  17.456 -1.1793  0.1593  0.6132
 3106SOL    HW220952   2.920   4.675  17.576  0.4776 -1.1471 -0.5910
 3107SOL     OW20953   4.299   4.416   3.651 -0.2521  0.2666  0.0044
 3107SOL    HW120954   4.284   4.321   3.652 -1.1697  0.4190  0.6966
 3107SOL    HW220955   4.372   4.425   3.590 -0.2632 -2.1395 -0.3616
 3108SOL     OW20956   3.054   2.362   7.201 -0.1072 -0.1320 -0.3790
 3108SOL    HW120957   3.132   2.319   7.236 -0.2595  0.0795  0.2116
 3108SOL    HW220958   3.048   2.312   7.119 -0.0769 -0.7730  0.0076
 3109SOL     OW20959   3.703   3.606   4.551 -0.2460  0.2898  0.4006
 3109SOL    HW120960   3.626   3.556   4.525  0.6065 -1.2041  0.7674
 3109SOL    HW220961   3.774   3.543   4.566 -0.5771 -0.3656 -0.7885
 3110SOL     OW20962   1.317   2.960  12.004  0.0282  0.5862  0.5498
 3110SOL    HW120963   1.233   2.931  12.041  0.4692  0.3990  1.3939
 3110SOL    HW220964   1.379   2.902  12.046  0.3532 -0.4686 -1.3772
 3111SOL     OW20965   2.588   4.098   5.329 -0.2936 -0.1802  0.5085
 3111SOL    HW120966   2.561   4.188   5.308  0.6763  0.2591  1.1160
 3111SOL    HW220967   2.681   4.104   5.308  0.1967 -3.6153  1.6729
 3112SOL     OW20968   2.358   2.391   1.643 -0.1857  0.3237  0.4903
 3112SOL    HW120969   2.425   2.439   1.691  1.5993 -1.2534 -0.4283
 3112SOL    HW220970   2.283   2.376   1.700 -0.1729 -2.5576 -0.2642
 3113SOL     OW20971   1.075   3.236  15.295 -0.0376  0.1545 -0.0363
 3113SOL    HW120972   1.127   3.316  15.301 -1.2746  0.8374  1.4020
 3113SOL    HW220973   1.132   3.172  15.252 -0.4619 -1.1649  1.3778
 3114SOL     OW20974   3.437   2.796   3.019  0.2079 -0.4471  0.0339
 3114SOL    HW120975   3.436   2.830   2.930  0.5031 -0.3837  0.0552
 3114SOL    HW220976   3.435   2.878   3.069 -2.5956 -0.3465 -0.2345
 3115SOL     OW20977   0.385   4.391   3.079  0.5511 -0.6060 -0.1048
 3115SOL    HW120978   0.313   4.357   3.027  0.1319  0.6375 -0.3330
 3115SOL    HW220979   0.457   4.335   3.050  0.6645 -1.0712  1.0724
 3116SOL     OW20980   2.040   1.623   1.557 -0.0967 -0.5219  0.3807
 3116SOL    HW120981   2.108   1.607   1.622  0.1548 -2.5601 -0.3800
 3116SOL    HW220982   2.036   1.718   1.567  2.7655 -0.3761  0.2502
 3117SOL     OW20983   2.250   0.094  10.737 -0.1601 -0.5019  0.6084
 3117SOL    HW120984   2.281   0.004  10.749  0.7918 -0.0759  1.3097
 3117SOL    HW220985   2.221   0.107  10.827 -1.7791 -1.8597  0.2612
 3118SOL     OW20986   0.157   2.672   5.198  0.0514  0.3683 -0.4203
 3118SOL    HW120987   0.075   2.714   5.171 -0.1713  0.2337  0.0438
 3118SOL    HW220988   0.136   2.578   5.196 -2.9508  1.0195  0.0233
 3119SOL     OW20989   1.641   0.864   5.339 -0.2954 -0.3957  0.1316
 3119SOL    HW120990   1.701   0.836   5.270  0.4238  1.2521  0.0949
 3119SOL    HW220991   1.609   0.948   5.305  2.0215  0.9922  1.4182
 3120SOL     OW20992   0.294   2.632  16.224  0.0626 -0.3132  0.4529
 3120SOL    HW120993   0.275   2.601  16.312 -0.8330 -1.5085 -0.1633
 3120SOL    HW220994   0.353   2.705  16.238  0.8788 -1.6269  3.8037
 3121SOL     OW20995   4.399   1.954   8.177  0.3105 -0.3951 -0.3108
 3121SOL    HW120996   4.469   1.934   8.114  0.9752  0.1125  0.2600
 3121SOL    HW220997   4.447   1.981   8.256  1.0195  0.9684 -1.1849
 3122SOL     OW20998   1.061   2.766   8.118 -0.5842  0.5677  0.1678
 3122SOL    HW120999   0.998   2.741   8.186  2.3969 -2.3778  1.8436
 3122SOL    HW221000   1.059   2.861   8.108 -2.2702  0.6386  1.1842
 3123SOL     OW21001   1.865   2.997   4.002 -0.1526 -0.0468 -0.1093
 3123SOL    HW121002   1.926   3.059   4.042 -0.4563 -2.0450  3.4947
 3123SOL    HW221003   1.843   2.927   4.064 -0.6370  1.0498  0.9537
 3124SOL     OW21004   4.138   1.148  14.476  0.4702 -0.1413  0.5868
 3124SOL    HW121005   4.076   1.175  14.543 -0.6545 -0.5282 -0.3084
 3124SOL    HW221006   4.131   1.222  14.416  1.2352 -0.2593  0.3518
 3125SOL     OW21007   1.985   2.126   2.240  0.3000  0.6739 -0.1075
 3125SOL    HW121008   1.921   2.198   2.244 -1.7666 -1.2068  0.3535
 3125SOL    HW221009   1.970   2.083   2.324  2.1354 -0.6515 -0.4632
 3126SOL     OW21010   0.864   1.102   8.653 -0.0009 -0.1365 -0.1895
 3126SOL    HW121011   0.954   1.124   8.630  0.6574 -2.0554  0.5862
 3126SOL    HW221012   0.877   1.016   8.691  0.5789  0.3363  0.6755
 3127SOL     OW21013   4.279   4.355   8.858 -0.0650  0.2817 -0.0125
 3127SOL    HW121014   4.277   4.351   8.762  1.7950 -0.2885 -0.0299
 3127SOL    HW221015   4.195   4.313   8.876  0.0425 -0.5950 -1.5748
 3128SOL     OW21016   2.982   0.616  10.101  0.1800  0.5610 -0.4616
 3128SOL    HW121017   3.065   0.567  10.107  0.1521  0.5776  0.0652
 3128SOL    HW221018   2.917   0.546  10.109  0.4985  0.4043  0.8792
 3129SOL     OW21019   0.842   3.181   8.079 -0.1199  0.5489  0.2721
 3129SOL    HW121020   0.843   3.256   8.019 -0.9490 -0.1138 -0.5793
 3129SOL    HW221021   0.775   3.135   8.029  0.5659 -0.7248  0.5407
 3130SOL     OW21022   2.749   4.452  17.362  0.2412  0.4306 -0.2471
 3130SOL    HW121023   2.710   4.466  17.276  1.5018 -0.2551 -0.9330
 3130SOL    HW221024   2.684   4.488  17.422 -0.9469 -1.2355 -0.5506
 3131SOL     OW21025   3.129   0.448   1.904  0.1437  0.6113  0.4001
 3131SOL    HW121026   3.171   0.406   1.828 -2.7646 -3.0284  0.7990
 3131SOL    HW221027   3.040   0.467   1.872  1.1255  3.1747 -0.8333
 3132SOL     OW21028   1.266   1.545   0.836  0.1463  0.0889  0.6877
 3132SOL    HW121029   1.354   1.533   0.873  0.6304 -0.7008 -0.7106
 3132SOL    HW221030   1.283   1.515   0.746  1.5465 -1.2847  1.3981
 3133SOL     OW21031   4.645   1.440  11.295  0.3614 -0.0660  0.5632
 3133SOL    HW121032   4.638   1.366  11.234 -0.8865  1.4157 -1.1131
 3133SOL    HW221033   4.704   1.408  11.363  2.0100 -0.7010 -1.1737
 3134SOL     OW21034   0.211   3.336  10.264  0.1841 -0.2137  0.1700
 3134SOL    HW121035   0.252   3.257  10.299 -1.2605  0.2179  2.8019
 3134SOL    HW221036   0.191   3.302  10.176 -2.4647  0.4143  0.5226
 3135SOL     OW21037   0.669   2.307  16.940  0.0225 -0.3205 -0.3774
 3135SOL    HW121038   0.750   2.352  16.917  1.1673 -2.2786 -0.2213
 3135SOL    HW221039   0.658   2.277  16.850  0.1184 -0.5183 -0.3244
 3136SOL     OW21040   4.146   2.781   5.571  0.2555  0.1425  0.6614
 3136SOL    HW121041   4.187   2.861   5.540  1.0029 -1.0143 -1.3337
 3136SOL    HW221042   4.111   2.812   5.655  1.4890  0.2752  1.1143
 3137SOL     OW21043   0.250   3.185  15.080  0.9544  0.6783  0.1085
 3137SOL    HW121044   0.213   3.248  15.018  0.1332 -0.6216 -0.7257
 3137SOL    HW221045   0.264   3.111  15.020 -0.4673 -0.1655  0.8258
 3138SOL     OW21046   0.414   0.706   7.306 -0.2871  0.2255 -0.1637
 3138SOL    HW121047   0.389   0.774   7.369 -0.0759 -1.0837  1.3571
 3138SOL    HW221048   0.509   0.701   7.319 -0.2741  1.8913  0.3984
 3139SOL     OW21049   1.800   0.693   2.340 -0.8721 -0.4965  0.4090
 3139SOL    HW121050   1.877   0.748   2.331 -1.9702  1.2805  1.9017
 3139SOL    HW221051   1.816   0.650   2.424 -1.7366 -0.6230  0.5150
 3140SOL     OW21052   3.539   0.798   4.869 -0.2748 -0.2881  0.0735
 3140SOL    HW121053   3.488   0.824   4.792  0.8395  1.2150 -0.1635
 3140SOL    HW221054   3.510   0.707   4.873 -0.3222 -0.2439  0.6203
 3141SOL     OW21055   4.594   2.228   7.515  0.7589  0.2077  0.7700
 3141SOL    HW121056   4.532   2.218   7.587 -0.2873  1.8954  0.1088
 3141SOL    HW221057   4.644   2.305   7.543  2.7402 -1.2181  1.1445
 3142SOL     OW21058   2.458   2.906   3.800  0.2573 -0.0203  0.1736
 3142SOL    HW121059   2.404   2.828   3.811 -2.0125  1.6767  0.9261
 3142SOL    HW221060   2.528   2.889   3.863  2.3399 -0.0455 -2.1063
 3143SOL     OW21061   2.300   1.424   8.890  0.2238 -0.5669  0.0263
 3143SOL    HW121062   2.323   1.365   8.962 -0.9191 -0.1283  0.7694
 3143SOL    HW221063   2.225   1.382   8.847  2.3607 -3.0029 -1.2861
 3144SOL     OW21064   0.844   2.070  16.804  0.3434  0.0955 -0.3404
 3144SOL    HW121065   0.810   2.032  16.885  1.9407 -3.3828 -1.3046
 3144SOL    HW221066   0.936   2.044  16.812 -0.2255 -1.6941  0.4120
 3145SOL     OW21067   4.078   0.279   5.634  0.4496 -0.3874  0.8869
 3145SOL    HW121068   4.064   0.373   5.642 -1.5908 -0.4729 -1.7023
 3145SOL    HW221069   4.174   0.279   5.632  0.3978 -0.4347 -1.3950
 3146SOL     OW21070   1.812   0.405   8.954  0.0538  0.3029 -0.0737
 3146SOL    HW121071   1.898   0.390   8.913  0.0935  1.7427 -0.5118
 3146SOL    HW221072   1.773   0.468   8.894 -1.2083  0.2413  0.6837
 3147SOL     OW21073   3.470   4.629   1.415  0.5444  1.1440  0.0535
 3147SOL    HW121074   3.456   4.581   1.334  3.1519  1.7925 -0.7708
 3147SOL    HW221075   3.442   4.712   1.375 -0.3263  0.4576 -0.7516
 3148SOL     OW21076   1.339   4.318   7.808  0.0272 -0.9409 -0.0547
 3148SOL    HW121077   1.419   4.281   7.769  1.8394  3.0221 -0.1946
 3148SOL    HW221078   1.348   4.293   7.900  0.9929 -0.3410  0.0241
 3149SOL     OW21079   0.745   3.009   2.948 -0.1044  0.6125  0.0489
 3149SOL    HW121080   0.805   2.941   2.978 -3.2136 -2.9473 -1.7047
 3149SOL    HW221081   0.736   2.989   2.855 -0.8059 -2.4174  0.7701
 3150SOL     OW21082   1.375   4.495   6.589  0.3245 -0.0366  0.3374
 3150SOL    HW121083   1.335   4.560   6.531 -0.9774 -2.4319 -1.4307
 3150SOL    HW221084   1.421   4.457   6.515 -1.8750 -2.0066 -0.0195
 3151SOL     OW21085   0.780   3.273   0.100 -0.0594 -0.7405  0.0255
 3151SOL    HW121086   0.793   3.231   0.015 -0.2291  0.4605 -0.5903
 3151SOL    HW221087   0.849   3.235   0.156 -0.3439  1.5423  1.9084
 3152SOL     OW21088   2.131   0.204   3.845  0.1941 -0.2450 -0.4366
 3152SOL    HW121089   2.185   0.282   3.860 -1.7323  1.3812 -2.0597
 3152SOL    HW221090   2.198   0.146   3.808  1.9167  1.6096 -0.2378
 3153SOL     OW21091   3.726   3.870   7.844  0.2558 -0.2874 -0.5172
 3153SOL    HW121092   3.761   3.851   7.756  0.5913 -2.2015  0.0247
 3153SOL    HW221093   3.665   3.800   7.866  1.3015 -0.4838  1.7546
 3154SOL     OW21094   1.294   0.957  13.568 -0.0593 -0.0299 -0.2800
 3154SOL    HW121095   1.206   0.929  13.540 -0.1532 -0.8697  0.8505
 3154SOL    HW221096   1.351   0.883  13.547  0.9985  0.3263  1.3327
 3155SOL     OW21097   3.202   2.947   1.282 -0.4647 -0.1856  0.5779
 3155SOL    HW121098   3.237   3.024   1.327  0.5507 -0.1400 -0.2955
 3155SOL    HW221099   3.271   2.882   1.296  1.2228  1.0020 -2.3141
 3156SOL     OW21100   1.909   4.171   9.016  0.0168  0.3211 -0.5443
 3156SOL    HW121101   1.955   4.091   8.994 -0.0345  0.0488  0.3384
 3156SOL    HW221102   1.839   4.141   9.074  1.9887 -1.3447  0.9804
 3157SOL     OW21103   1.320   4.222   8.059 -0.4993  0.1565 -0.1786
 3157SOL    HW121104   1.292   4.131   8.057  1.1068 -0.3803  1.0448
 3157SOL    HW221105   1.265   4.252   8.132 -2.6250  0.0051 -1.7370
 3158SOL     OW21106   1.471   2.030   3.387  0.4130 -0.2739 -0.1915
 3158SOL    HW121107   1.445   2.053   3.476 -1.8273  0.2368 -0.9612
 3158SOL    HW221108   1.486   1.936   3.399 -0.2962 -0.2562  0.8271
 3159SOL     OW21109   3.706   1.520  17.470  0.0404  0.2540 -0.1980
 3159SOL    HW121110   3.790   1.515  17.516 -0.3431  1.1542  0.5919
 3159SOL    HW221111   3.738   1.480  17.389 -1.9826 -1.4485 -0.1233
 3160SOL     OW21112   0.845   2.472   9.423 -0.1604  0.0729 -0.1248
 3160SOL    HW121113   0.922   2.427   9.460  0.4886  1.2464 -0.0425
 3160SOL    HW221114   0.798   2.503   9.500  0.8877 -0.0270  0.5542
 3161SOL     OW21115   1.258   0.640   4.734  0.2470  0.1231 -0.0043
 3161SOL    HW121116   1.262   0.716   4.676 -3.2937  1.6671  1.7575
 3161SOL    HW221117   1.213   0.682   4.808 -0.6338  0.1911 -0.5722
 3162SOL     OW21118   2.298   1.896   4.003 -1.0138  0.6562 -0.7070
 3162SOL    HW121119   2.333   1.831   3.942 -2.3885 -1.9663  1.2925
 3162SOL    HW221120   2.239   1.951   3.952 -1.5503  1.0733  0.3735
 3163SOL     OW21121   3.156   4.214   8.283 -0.5654  0.0708  0.4821
 3163SOL    HW121122   3.225   4.233   8.346 -1.2183  2.1046  0.5824
 3163SOL    HW221123   3.146   4.302   8.245  2.5164  0.1867 -0.0165
 3164SOL     OW21124   0.882   2.729  12.309  0.2349  0.0057 -0.1955
 3164SOL    HW121125   0.790   2.712  12.328  0.1217 -0.4356 -1.1799
 3164SOL    HW221126   0.880   2.821  12.283  1.2379 -0.1369 -0.7971
 3165SOL     OW21127   2.015   2.929  16.911  0.1513  0.3951  0.1467
 3165SOL    HW121128   2.051   2.849  16.950  0.9820  0.1402 -1.1438
 3165SOL    HW221129   1.937   2.895  16.867 -0.0433 -1.1059  1.6286
 3166SOL     OW21130   2.283   2.025   6.775 -0.1607  0.2003 -0.3735
 3166SOL    HW121131   2.252   1.936   6.790 -2.0149  0.7921 -0.7507
 3166SOL    HW221132   2.322   2.010   6.689  0.0223 -1.3205 -0.0265
 3167SOL     OW21133   0.484   3.233  11.876  0.3261  0.0049 -0.0588
 3167SOL    HW121134   0.574   3.245  11.907 -0.1763  3.1761  0.2565
 3167SOL    HW221135   0.495   3.161  11.814  1.8676 -0.2670  0.5188
 3168SOL     OW21136   0.048   2.777   2.928 -0.5035  0.1102  0.9721
 3168SOL    HW121137   4.695   2.807   2.929 -1.0112 -1.4101  0.4647
 3168SOL    HW221138   0.075   2.759   2.838  1.4488  0.3319  1.5263
 3169SOL     OW21139   2.137   3.589   9.132 -0.3322 -0.9769 -0.0270
 3169SOL    HW121140   2.172   3.508   9.095 -4.6135 -2.7126 -0.3118
 3169SOL    HW221141   2.203   3.651   9.103 -1.0344  0.0041  0.4620
 3170SOL     OW21142   2.690   3.091   4.343 -0.2012  0.4515  1.1483
 3170SOL    HW121143   2.611   3.062   4.298  1.8005 -0.6643 -1.6352
 3170SOL    HW221144   2.647   3.136   4.415  0.6784  1.4231  1.0669
 3171SOL     OW21145   3.524   1.580   3.153 -0.3340  0.3029 -0.1530
 3171SOL    HW121146   3.561   1.667   3.139  1.9889 -0.4709  1.2579
 3171SOL    HW221147   3.430   1.594   3.160 -0.2650 -0.4764  2.3316
 3172SOL     OW21148   4.689   0.040   8.101  0.3184 -0.0014  0.2629
 3172SOL    HW121149   0.020   0.068   8.040  0.2784 -0.4941 -0.0062
 3172SOL    HW221150   4.611   0.025   8.048 -0.0878 -0.4747  1.0019
 3173SOL     OW21151   2.680   1.739   1.773 -0.3072 -0.4624  0.2768
 3173SOL    HW121152   2.739   1.693   1.713  2.1488  2.1788  0.6784
 3173SOL    HW221153   2.636   1.657   1.795 -2.6839  0.2933 -1.6836
 3174SOL     OW21154   3.996   3.809   5.912  1.0202 -0.4325 -0.0406
 3174SOL    HW121155   3.969   3.822   6.003  2.8719 -1.0430  0.6004
 3174SOL    HW221156   3.915   3.841   5.872  0.6733 -0.6504  0.4915
 3175SOL     OW21157   1.336   2.361   8.521 -0.2852  0.2962  0.6374
 3175SOL    HW121158   1.277   2.287   8.532 -0.1818 -0.1693 -1.9013
 3175SOL    HW221159   1.387   2.352   8.441  0.2869  0.7363  0.9489
 3176SOL     OW21160   1.714   2.328   7.707 -0.1048  0.0577  0.2108
 3176SOL    HW121161   1.699   2.350   7.799  0.9317 -0.6304  0.5435
 3176SOL    HW221162   1.807   2.308   7.715 -0.0039  0.0741 -0.8917
 3177SOL     OW21163   1.360   0.636  10.549  0.7101  0.2609  0.1088
 3177SOL    HW121164   1.278   0.655  10.595 -0.0396 -1.5380 -0.4896
 3177SOL    HW221165   1.411   0.716  10.559  0.0688  0.5224  1.3443
 3178SOL     OW21166   3.035   0.651  11.648 -0.6754 -0.4982 -0.1382
 3178SOL    HW121167   2.954   0.603  11.634 -1.2122  0.5062 -0.4579
 3178SOL    HW221168   3.013   0.724  11.590  0.6378 -1.2084 -1.5492
 3179SOL     OW21169   3.964   0.827  10.065  0.6953 -0.2698  0.0420
 3179SOL    HW121170   3.961   0.867   9.978  0.3196 -0.4080 -0.0105
 3179SOL    HW221171   3.870   0.820  10.081  0.5933 -1.5993 -1.0703
 3180SOL     OW21172   4.213   4.521   4.864 -0.3826  0.5466 -0.5808
 3180SOL    HW121173   4.210   4.435   4.821  0.8086  1.5340 -2.6425
 3180SOL    HW221174   4.219   4.502   4.958 -1.8304 -2.9695 -1.2015
 3181SOL     OW21175   1.951   3.135   0.344 -0.2880 -0.0747 -0.4056
 3181SOL    HW121176   1.943   3.225   0.312 -1.4904  0.2923  0.9424
 3181SOL    HW221177   1.999   3.094   0.271 -1.7247 -1.3413 -0.6292
 3182SOL     OW21178   2.522   2.889   5.145 -0.2061 -0.1787  0.2733
 3182SOL    HW121179   2.447   2.946   5.163 -0.7586 -0.5771 -0.7073
 3182SOL    HW221180   2.574   2.915   5.221  0.9411  0.1186 -0.6162
 3183SOL     OW21181   0.585   2.098   4.986 -0.4302  0.4629  0.7005
 3183SOL    HW121182   0.618   2.186   5.004  2.0870 -0.4207  0.4204
 3183SOL    HW221183   0.533   2.110   4.906  1.2738  0.1467 -0.4617
 3184SOL     OW21184   1.230   0.625   2.756  0.5099  0.0496 -0.2254
 3184SOL    HW121185   1.319   0.640   2.724  0.6275 -0.9467 -0.3667
 3184SOL    HW221186   1.230   0.697   2.818 -1.9594 -0.9682  0.9388
 3185SOL     OW21187   3.067   4.058  10.143  0.6488  0.3380 -0.2760
 3185SOL    HW121188   3.078   4.139  10.092 -0.6455 -1.1105 -2.8260
 3185SOL    HW221189   3.126   3.997  10.099  2.1528  2.0133 -0.6100
 3186SOL     OW21190   3.230   2.507   8.707  0.0190 -0.0939  0.2400
 3186SOL    HW121191   3.254   2.600   8.708 -0.1559 -0.0420 -0.4154
 3186SOL    HW221192   3.233   2.487   8.801  2.3144 -1.8647 -0.2155
 3187SOL     OW21193   3.887   3.795   6.419  0.0665 -0.9377 -0.9082
 3187SOL    HW121194   3.873   3.778   6.512 -3.5744 -0.8833 -1.4322
 3187SOL    HW221195   3.909   3.888   6.420  0.0123 -0.9255 -0.8008
 3188SOL     OW21196   1.170   1.971   4.862  0.0944 -0.9047  0.5150
 3188SOL    HW121197   1.232   1.949   4.793  1.0476 -0.1191  1.1138
 3188SOL    HW221198   1.096   1.994   4.805 -0.4773  0.3411  1.7458
 3189SOL     OW21199   2.761   0.081  14.775  0.1641  0.6623 -0.2463
 3189SOL    HW121200   2.729   0.030  14.850  2.5986 -1.1169 -0.4084
 3189SOL    HW221201   2.841   0.122  14.808  0.3782  1.8363 -2.2816
 3190SOL     OW21202   2.578   3.704   0.899 -0.2027  0.4390  0.0220
 3190SOL    HW121203   2.524   3.726   0.975 -0.4071  1.1070 -0.3138
 3190SOL    HW221204   2.568   3.609   0.891  3.0849  0.2332 -1.2698
 3191SOL     OW21205   4.199   0.230   5.926  0.7546 -0.5431  0.4419
 3191SOL    HW121206   4.233   0.146   5.896  1.3275  0.3622 -1.4226
 3191SOL    HW221207   4.237   0.292   5.863  1.2210 -1.6267 -0.3380
 3192SOL     OW21208   1.800   3.512  14.533 -0.1977 -0.0701 -0.1675
 3192SOL    HW121209   1.822   3.420  14.547  0.0212 -0.3218 -2.1974
 3192SOL    HW221210   1.768   3.552  14.614  0.9229 -1.7029  1.0776
 3193SOL     OW21211   4.557   1.773  16.244 -0.1754 -0.2009  0.1785
 3193SOL    HW121212   4.571   1.850  16.300 -2.5004  0.4079 -0.0492
 3193SOL    HW221213   4.574   1.811  16.158  1.4320 -0.0777  0.5533
 3194SOL     OW21214   4.164   3.521   0.364  0.1137 -0.1738 -0.1098
 3194SOL    HW121215   4.152   3.426   0.373  0.4841 -0.3054 -1.0178
 3194SOL    HW221216   4.232   3.539   0.429  0.9385 -0.0746 -0.9926
 3195SOL     OW21217   0.777   4.133   1.379 -0.4735  0.3105 -0.5041
 3195SOL    HW121218   0.872   4.141   1.381 -0.5411  0.1392  2.8903
 3195SOL    HW221219   0.761   4.093   1.464  1.5234  0.0678 -0.2374
 3196SOL     OW21220   4.097   1.167   6.509  0.6882 -0.4165  0.7855
 3196SOL    HW121221   4.076   1.197   6.598 -1.2886 -1.5977  0.7139
 3196SOL    HW221222   4.172   1.109   6.522  1.7796  0.7079 -0.5676
 3197SOL     OW21223   3.442   2.008   2.597 -0.3076 -0.5226 -0.1591
 3197SOL    HW121224   3.493   1.974   2.523  0.5353  0.0506  0.1608
 3197SOL    HW221225   3.366   1.950   2.601 -0.2954 -0.3866  2.2873
 3198SOL     OW21226   4.106   4.142  13.289  0.0628  0.1342 -0.3831
 3198SOL    HW121227   4.022   4.149  13.245  0.5355  1.3505 -1.1215
 3198SOL    HW221228   4.116   4.233  13.319 -0.8554 -0.0348  0.4474
 3199SOL     OW21229   3.034   2.754   2.776  0.0419  0.0200 -0.3067
 3199SOL    HW121230   2.952   2.737   2.823  0.1580 -3.3177 -1.3149
 3199SOL    HW221231   3.037   2.696   2.700 -2.0212  0.8727 -1.0629
 3200SOL     OW21232   1.249   2.633   6.121  0.1425  0.1123  0.2352
 3200SOL    HW121233   1.237   2.539   6.112  1.5866 -0.4172  3.8675
 3200SOL    HW221234   1.311   2.655   6.052 -0.5586 -0.0167 -0.4280
 3201SOL     OW21235   0.250   4.370   5.622 -0.3891 -0.5371  0.2887
 3201SOL    HW121236   0.270   4.370   5.528 -2.9882 -1.2400 -0.2636
 3201SOL    HW221237   0.308   4.301   5.652  1.4155  1.0649  0.5066
 3202SOL     OW21238   4.491   3.006   4.459  0.5765 -0.3108  0.3502
 3202SOL    HW121239   4.489   2.944   4.531  2.5378  0.2728  0.8870
 3202SOL    HW221240   4.411   3.054   4.482  1.5009  1.5425 -0.3241
 3203SOL     OW21241   1.621   0.823  17.555  0.2449  0.1052  0.1011
 3203SOL    HW121242   1.662   0.770  17.487  0.4424  1.1891 -0.6155
 3203SOL    HW221243   1.527   0.822  17.537  0.3834  1.6377 -0.6683
 3204SOL     OW21244   3.891   1.651  12.799 -0.6481 -0.3403 -0.6196
 3204SOL    HW121245   3.921   1.679  12.713 -2.0246 -1.4905 -1.4653
 3204SOL    HW221246   3.951   1.579  12.814  3.0921  2.6287 -1.4244
 3205SOL     OW21247   3.197   0.805   3.932 -0.0526  0.1335  0.1052
 3205SOL    HW121248   3.108   0.821   3.901  0.0181 -0.9989 -0.6796
 3205SOL    HW221249   3.207   0.877   3.995  1.5110  0.2198 -0.2392
 3206SOL     OW21250   3.825   2.500   6.253  0.2016  0.1300  0.0492
 3206SOL    HW121251   3.736   2.533   6.257  0.5047  0.8780  0.5332
 3206SOL    HW221252   3.878   2.579   6.262  0.6526  0.0089 -1.3967
 3207SOL     OW21253   3.751   0.550   0.955 -0.2237 -0.6194 -0.5526
 3207SOL    HW121254   3.760   0.638   0.920  1.2161 -1.6711 -2.8034
 3207SOL    HW221255   3.689   0.517   0.891 -1.0868 -0.3240  0.1281
 3208SOL     OW21256   4.110   0.860   6.475 -0.7496 -0.0758 -0.5159
 3208SOL    HW121257   4.126   0.774   6.436  2.6925 -0.1204  0.9841
 3208SOL    HW221258   4.198   0.888   6.502 -0.8922  1.4645 -1.6248
 3209SOL     OW21259   2.838   4.470   5.934  0.7773  0.5832  0.4250
 3209SOL    HW121260   2.770   4.440   5.874 -0.6681  2.3387  1.1977
 3209SOL    HW221261   2.851   4.385   5.977 -1.5475 -0.2404 -0.4799
 3210SOL     OW21262   3.633   2.497   3.437 -1.0018  0.0703 -0.3875
 3210SOL    HW121263   3.652   2.531   3.349 -0.5354  0.1872 -0.2362
 3210SOL    HW221264   3.700   2.541   3.488 -1.3676  1.2210 -0.8860
 3211SOL     OW21265   2.313   0.143   0.333  0.4029 -0.8956 -0.1679
 3211SOL    HW121266   2.323   0.084   0.408 -3.5763 -0.4982  0.6793
 3211SOL    HW221267   2.398   0.119   0.297 -0.3606 -0.2630 -2.3896
 3212SOL     OW21268   0.220   2.219   8.944  0.0000 -0.1707 -0.5839
 3212SOL    HW121269   0.152   2.205   9.010 -2.1599  4.7384 -1.7618
 3212SOL    HW221270   0.182   2.161   8.877  1.1922 -1.7111  0.0660
 3213SOL     OW21271   3.737   1.713  17.699  0.3410 -0.0614 -0.7291
 3213SOL    HW121272   3.688   1.709   0.032 -0.1024 -2.2334 -1.1057
 3213SOL    HW221273   3.737   1.622  17.671  0.3410 -0.3707  0.2868
 3214SOL     OW21274   3.784   2.269   8.423 -0.0153 -0.1581  0.2580
 3214SOL    HW121275   3.749   2.358   8.427  0.5746  0.0561  0.5717
 3214SOL    HW221276   3.751   2.228   8.503  3.2181 -0.2879  1.4965
 3215SOL     OW21277   4.106   2.657   3.805  0.0163 -0.1550  0.4778
 3215SOL    HW121278   4.071   2.608   3.879 -2.1669 -0.7455 -0.9564
 3215SOL    HW221279   4.100   2.600   3.728 -4.0726  1.5539 -0.4544
 3216SOL     OW21280   2.908   0.456   1.768 -0.2107  0.5668 -0.2114
 3216SOL    HW121281   2.903   0.531   1.708  0.7460  0.2007 -0.7423
 3216SOL    HW221282   2.875   0.387   1.710  1.2806 -0.1633 -0.1730
 3217SOL     OW21283   1.814   0.075   8.410 -0.1169  0.3390  0.2694
 3217SOL    HW121284   1.740   0.057   8.468 -0.3017  1.0098  0.2415
 3217SOL    HW221285   1.791   0.160   8.371 -0.5167  0.7529  1.4138
 3218SOL     OW21286   3.335   1.813  14.575  0.6816 -0.2505 -0.2643
 3218SOL    HW121287   3.428   1.828  14.558  1.5058 -3.2245  1.5752
 3218SOL    HW221288   3.308   1.894  14.617  2.5497 -0.1518  0.7413
 3219SOL     OW21289   0.256   3.471   2.702  0.0680  0.4671 -0.0678
 3219SOL    HW121290   0.226   3.381   2.690  0.2880 -0.1645  3.9219
 3219SOL    HW221291   0.316   3.471   2.628 -1.7057  0.1861 -1.5081
 3220SOL     OW21292   1.295   0.912   5.534 -0.3815  0.1631  0.2983
 3220SOL    HW121293   1.356   0.985   5.522  1.6063 -1.6655 -0.7833
 3220SOL    HW221294   1.356   0.842   5.558 -0.9700 -1.3552 -2.5902
 3221SOL     OW21295   2.131   3.280   2.243  0.1064  0.2784 -0.0661
 3221SOL    HW121296   2.109   3.339   2.315  0.4351  2.8794 -2.0923
 3221SOL    HW221297   2.054   3.293   2.188  0.0176 -1.0852 -0.2561
 3222SOL     OW21298   2.245   3.108   7.991  0.6691 -0.6083 -0.1567
 3222SOL    HW121299   2.249   3.054   7.912  3.7450  0.8100 -0.9974
 3222SOL    HW221300   2.316   3.074   8.045 -0.9711 -3.7350  0.0298
 3223SOL     OW21301   2.076   0.037   0.706 -0.0078  0.7579  0.0479
 3223SOL    HW121302   2.004   0.082   0.751 -0.7333  0.5118 -0.8532
 3223SOL    HW221303   2.023   4.725   0.643  0.5032 -1.5249  1.4508
 3224SOL     OW21304   1.004   1.267   3.768 -0.0914  0.6748  0.1757
 3224SOL    HW121305   1.039   1.319   3.840  2.8097  0.1508 -0.8377
 3224SOL    HW221306   1.013   1.177   3.801  0.7623  0.1253 -1.5552
 3225SOL     OW21307   3.059   4.055   1.347 -0.4737 -0.2917  0.2342
 3225SOL    HW121308   3.006   3.976   1.342 -0.9790 -0.0110  1.1543
 3225SOL    HW221309   3.010   4.101   1.278 -0.6557 -0.6902  0.0969
 3226SOL     OW21310   1.449   4.476   4.605 -0.4042 -0.7860  0.4689
 3226SOL    HW121311   1.411   4.434   4.528  0.7869 -2.4649  0.7912
 3226SOL    HW221312   1.455   4.397   4.660 -1.8959 -0.5277  1.0032
 3227SOL     OW21313   4.427   0.976   2.253  0.2150  0.1246 -0.1454
 3227SOL    HW121314   4.469   1.056   2.284  0.3964  0.3184 -0.8934
 3227SOL    HW221315   4.469   0.906   2.304 -0.5625  0.0899  0.4447
 3228SOL     OW21316   1.803   0.575   2.093 -0.3174 -0.3467  0.7600
 3228SOL    HW121317   1.816   0.603   2.183 -0.5060  3.1526 -0.2961
 3228SOL    HW221318   1.779   0.482   2.098 -2.8427  0.2534 -0.3678
 3229SOL     OW21319   4.503   3.157   9.818 -0.4374 -0.4405 -0.7763
 3229SOL    HW121320   4.417   3.160   9.776  0.5820 -3.1082 -3.0366
 3229SOL    HW221321   4.539   3.243   9.796 -0.3227  0.0936  1.5174
 3230SOL     OW21322   3.231   4.021   3.269 -0.4291 -0.0516  0.3466
 3230SOL    HW121323   3.214   4.046   3.178  1.3733 -2.9678 -0.7939
 3230SOL    HW221324   3.154   3.969   3.292  0.5908 -1.8148 -0.2032
 3231SOL     OW21325   1.458   1.790  14.406 -0.2156 -0.2181  0.2897
 3231SOL    HW121326   1.399   1.832  14.344 -2.3636 -1.7762  1.2851
 3231SOL    HW221327   1.399   1.737  14.460 -0.3719  0.5793  0.9034
 3232SOL     OW21328   2.698   3.838  17.201  0.3212 -0.3155 -0.7642
 3232SOL    HW121329   2.690   3.854  17.295  1.6444  1.9779 -1.0353
 3232SOL    HW221330   2.637   3.764  17.202 -0.0277 -0.0179  0.3670
 3233SOL     OW21331   3.660   2.778  10.132  0.8220  0.3893  0.3048
 3233SOL    HW121332   3.594   2.718  10.166 -1.1294  2.1218 -0.4425
 3233SOL    HW221333   3.632   2.788  10.041 -0.3495 -1.8827  0.4348
 3234SOL     OW21334   0.861   1.130   2.548  0.0374  0.5876 -0.0837
 3234SOL    HW121335   0.892   1.130   2.458  0.6828  0.6030  0.1363
 3234SOL    HW221336   0.896   1.216   2.570  0.8242  0.4497 -0.8060
 3235SOL     OW21337   3.314   1.329   0.087  0.1197  0.2318  0.3582
 3235SOL    HW121338   3.398   1.374   0.079  0.5531  0.1741  4.3136
 3235SOL    HW221339   3.342   1.243   0.056 -0.3295  0.2476 -0.0892
 3236SOL     OW21340   2.921   3.981   0.776  0.1771  0.1940 -0.0679
 3236SOL    HW121341   3.013   3.957   0.766  1.0105  2.6287  1.8446
 3236SOL    HW221342   2.894   3.913   0.838 -1.2839  2.0899  1.3939
 3237SOL     OW21343   2.239   3.984   8.707  0.1481 -0.5367 -0.3820
 3237SOL    HW121344   2.155   3.942   8.724  1.2035 -3.4178 -2.2316
 3237SOL    HW221345   2.238   4.038   8.786 -0.3188 -2.9953  1.2986
 3238SOL     OW21346   2.017   2.260   7.050 -0.3726 -0.1063 -0.0040
 3238SOL    HW121347   2.088   2.313   7.014  0.1257 -1.9147 -1.6304
 3238SOL    HW221348   1.963   2.318   7.104 -0.9075  1.4321 -2.1727
 3239SOL     OW21349   0.151   0.004   1.339  0.6248 -0.1588  0.0548
 3239SOL    HW121350   0.136   0.012   1.433  0.1692  1.7081 -0.1919
 3239SOL    HW221351   0.246   0.003   1.351  0.6861 -1.1040 -0.5054
 3240SOL     OW21352   2.420   1.117   3.979 -0.1934 -0.4171  0.4418
 3240SOL    HW121353   2.373   1.039   3.951  0.6715 -0.1405 -1.7811
 3240SOL    HW221354   2.444   1.086   4.066 -4.0078 -3.9818  0.1907
 3241SOL     OW21355   2.019   3.986   7.935  0.5078  0.0605 -0.5908
 3241SOL    HW121356   1.959   3.997   7.862 -2.6728 -1.1316  1.8321
 3241SOL    HW221357   2.073   3.914   7.902  0.0564 -0.6745  0.2787
 3242SOL     OW21358   4.207   2.709  12.530 -0.1121 -0.2180  0.4690
 3242SOL    HW121359   4.272   2.775  12.507  0.2596 -0.6588  0.2634
 3242SOL    HW221360   4.193   2.672  12.443 -0.6043  0.4588  0.2593
 3243SOL     OW21361   2.367   0.753   8.245  0.2185 -0.3753 -0.3451
 3243SOL    HW121362   2.361   0.783   8.336  0.6382  2.1795 -1.1615
 3243SOL    HW221363   2.414   0.827   8.206  1.6589  0.7150  3.4876
 3244SOL     OW21364   0.448   2.093   0.875  0.1120  0.4977 -0.0632
 3244SOL    HW121365   0.378   2.069   0.936  1.6630 -1.1777  1.0827
 3244SOL    HW221366   0.391   2.138   0.813  0.9619  2.5630  0.6316
 3245SOL     OW21367   1.141   4.186  16.357  0.0525 -0.5142 -0.3194
 3245SOL    HW121368   1.076   4.116  16.353 -0.5335  0.1969 -3.3460
 3245SOL    HW221369   1.099   4.253  16.411  1.6346  1.0149 -0.9869
 3246SOL     OW21370   2.848   2.061   1.939 -0.1779  0.5473  0.4039
 3246SOL    HW121371   2.829   2.154   1.933 -1.5824  0.2438  0.2353
 3246SOL    HW221372   2.775   2.022   1.986  0.2049 -2.2155 -1.3004
 3247SOL     OW21373   3.260   3.336   2.003 -0.5913 -0.4569 -0.4954
 3247SOL    HW121374   3.281   3.311   1.912  1.8361  0.6340 -0.2396
 3247SOL    HW221375   3.337   3.306   2.052  0.7345  1.7111 -1.2300
 3248SOL     OW21376   2.634   2.919   7.687  0.3582  0.0561  0.1466
 3248SOL    HW121377   2.706   2.895   7.629  0.7597  1.4711  0.0410
 3248SOL    HW221378   2.688   2.942   7.763 -1.0670 -0.2111  1.2420
 3249SOL     OW21379   2.379   0.063   4.477 -0.0394 -0.4517  0.1106
 3249SOL    HW121380   2.365   4.729   4.415 -1.4299  0.0600 -0.1771
 3249SOL    HW221381   2.289   0.093   4.491  0.6468  1.3313  0.7526
 3250SOL     OW21382   2.422   0.130  15.511  0.0378 -0.2346 -0.3632
 3250SOL    HW121383   2.406   0.042  15.546  2.7379 -0.7807 -0.4654
 3250SOL    HW221384   2.496   0.112  15.454  0.7078 -1.4143  0.8851
 3251SOL     OW21385   3.976   3.925  15.645  0.2484  0.1005  0.1193
 3251SOL    HW121386   4.049   3.987  15.648  0.0116  0.4093 -0.4959
 3251SOL    HW221387   3.987   3.883  15.730  2.0817 -0.7482 -0.5404
 3252SOL     OW21388   2.922   1.948  15.947 -0.2355 -0.2238 -0.0726
 3252SOL    HW121389   2.925   1.944  15.851 -0.4470  1.6309 -0.1670
 3252SOL    HW221390   2.890   2.038  15.953  0.6147 -0.0219  1.3890
 3253SOL     OW21391   2.201   4.398   4.798 -0.7863  0.3908  0.4156
 3253SOL    HW121392   2.203   4.419   4.892  3.2370 -0.2277  0.4801
 3253SOL    HW221393   2.114   4.358   4.790 -1.4107  2.1397 -1.3528
 3254SOL     OW21394   2.474   1.898   5.576  0.6429  0.4149 -0.1860
 3254SOL    HW121395   2.417   1.837   5.622 -0.1473 -0.1900 -1.9720
 3254SOL    HW221396   2.440   1.901   5.487  1.0171 -1.6108 -0.3782
 3255SOL     OW21397   1.946   3.264   1.414  0.2974 -0.1583 -0.3310
 3255SOL    HW121398   1.987   3.347   1.391  1.1938 -1.4152 -3.1912
 3255SOL    HW221399   1.999   3.240   1.490 -0.4176  1.8389  0.8136
 3256SOL     OW21400   2.950   4.499   4.251  0.4143  0.0389 -0.0178
 3256SOL    HW121401   2.908   4.491   4.336  0.8318 -0.0358  0.1813
 3256SOL    HW221402   2.882   4.467   4.191  0.1055  1.6115 -0.5156
 3257SOL     OW21403   3.713   1.226   6.333 -0.2097  0.2219 -0.2920
 3257SOL    HW121404   3.771   1.150   6.330  1.2094  1.3031 -0.1115
 3257SOL    HW221405   3.655   1.211   6.259 -1.4293  0.2173  0.6656
 3258SOL     OW21406   0.312   2.190  14.063 -0.5925  0.4327  0.0965
 3258SOL    HW121407   0.357   2.112  14.030 -3.6082 -1.3737  0.3046
 3258SOL    HW221408   0.386   2.227  14.111 -1.2737  1.2765  0.4757
 3259SOL     OW21409   2.035   0.857   4.016  0.3999  0.0451 -0.2092
 3259SOL    HW121410   2.090   0.925   3.977 -0.2226  1.5018  1.4486
 3259SOL    HW221411   1.960   0.904   4.052 -1.5141 -2.7734 -0.4711
 3260SOL     OW21412   1.891   0.118  13.670  0.2820  0.8903  0.1819
 3260SOL    HW121413   1.883   0.037  13.720 -0.8319  0.6845 -0.3419
 3260SOL    HW221414   1.865   0.193  13.724 -0.2507 -0.1534  1.3453
 3261SOL     OW21415   0.871   2.332   7.450  0.2883  0.1451 -1.0772
 3261SOL    HW121416   0.829   2.417   7.460  1.5819  0.8575 -1.5961
 3261SOL    HW221417   0.786   2.289   7.442 -0.3709  1.2531  0.0020
 3262SOL     OW21418   3.615   1.962   2.374  0.2386 -0.0038  0.0179
 3262SOL    HW121419   3.694   1.920   2.407  1.0841  1.2089 -0.4711
 3262SOL    HW221420   3.645   2.052   2.357  0.5751  0.0792  1.0691
 3263SOL     OW21421   0.746   0.255  17.270 -0.0640  0.2119 -0.1466
 3263SOL    HW121422   0.745   0.166  17.306 -0.9122  1.6920  3.4525
 3263SOL    HW221423   0.775   0.290  17.354  0.2426  1.1292 -0.6390
 3264SOL     OW21424   1.984   4.080   4.951 -0.4591  0.0002 -0.0887
 3264SOL    HW121425   2.016   3.993   4.928  1.2404  0.4629  0.5680
 3264SOL    HW221426   2.038   4.100   5.027  1.5384  1.3810 -1.8738
 3265SOL     OW21427   2.494   0.785   7.400 -0.2579  0.5081 -0.3223
 3265SOL    HW121428   2.574   0.744   7.431 -1.1143 -1.4492 -0.6461
 3265SOL    HW221429   2.492   0.770   7.305  1.6065  1.4213 -0.4993
 3266SOL     OW21430   3.491   4.047   8.552  0.0473  0.1492  0.0450
 3266SOL    HW121431   3.448   4.126   8.519 -2.0959 -1.2639 -0.5405
 3266SOL    HW221432   3.411   3.997   8.570  0.8225 -1.3429 -0.6225
 3267SOL     OW21433   0.919   3.877   3.732 -0.2676  0.3992  0.5298
 3267SOL    HW121434   0.910   3.797   3.783  1.2629 -0.4144 -0.4778
 3267SOL    HW221435   0.913   3.947   3.796  0.9277  2.2984 -1.4177
 3268SOL     OW21436   2.214   2.463  15.379  0.6391  0.3384 -0.1725
 3268SOL    HW121437   2.243   2.380  15.339 -0.9874  0.0268 -0.7100
 3268SOL    HW221438   2.166   2.501  15.305 -0.1005 -0.1689  0.0445
 3269SOL     OW21439   2.392   3.895  17.356  0.4007 -0.1737  0.0298
 3269SOL    HW121440   2.347   3.877  17.273 -0.0237 -2.8209  0.8312
 3269SOL    HW221441   2.482   3.922  17.335 -0.4414  1.1106 -2.0017
 3270SOL     OW21442   2.405   1.963   5.296  0.1226  0.0610 -0.0933
 3270SOL    HW121443   2.344   2.030   5.329 -0.3145  0.1750 -1.1251
 3270SOL    HW221444   2.348   1.927   5.228  0.7860  1.7946 -1.5480
 3271SOL     OW21445   0.591   1.667   7.338  0.0444  0.0738 -0.0264
 3271SOL    HW121446   0.610   1.586   7.290  0.5017  1.1739 -1.7011
 3271SOL    HW221447   0.640   1.734   7.291 -0.2059  1.8092  2.2152
 3272SOL     OW21448   0.576   0.958   5.085  0.6766  0.0682 -0.2693
 3272SOL    HW121449   0.532   0.916   5.159 -0.2813  2.0917  0.3099
 3272SOL    HW221450   0.510   0.973   5.017 -0.7027  0.5583  1.1821
 3273SOL     OW21451   0.612   2.912   4.138  0.7480  0.3483 -0.1959
 3273SOL    HW121452   0.638   2.932   4.048 -0.9925 -0.8165 -0.9586
 3273SOL    HW221453   0.534   2.857   4.130  1.6724 -0.9068 -0.6957
 3274SOL     OW21454   1.122   4.487  14.834 -0.2382  0.5494 -0.0191
 3274SOL    HW121455   1.187   4.537  14.785  1.4182  0.2836  1.8931
 3274SOL    HW221456   1.043   4.539  14.823 -1.3665 -0.7246  2.1544
 3275SOL     OW21457   4.556   1.193   2.398  0.2420 -0.1823 -0.3406
 3275SOL    HW121458   4.614   1.178   2.473 -0.6822  1.2110  0.6599
 3275SOL    HW221459   4.620   1.180   2.328 -1.1756 -0.3872 -1.5857
 3276SOL     OW21460   4.451   1.669  11.453 -0.0425  0.5870 -0.5821
 3276SOL    HW121461   4.485   1.584  11.479 -0.5350  0.7390  0.5330
 3276SOL    HW221462   4.363   1.640  11.429 -0.3377 -2.5203  4.2725
 3277SOL     OW21463   4.696   2.086  16.960  0.2944  0.0578  0.6264
 3277SOL    HW121464   4.703   1.996  16.992 -0.0795 -0.0915  0.2887
 3277SOL    HW221465   4.606   2.074  16.928  1.1299 -0.0003 -1.7462
 3278SOL     OW21466   3.419   3.618   1.138  0.0789  0.4867 -0.1751
 3278SOL    HW121467   3.493   3.585   1.088  0.0177  1.3463 -0.8509
 3278SOL    HW221468   3.363   3.542   1.123  1.3909 -0.5494  0.2092
 3279SOL     OW21469   4.224   2.756   4.317 -0.3889 -0.5083 -0.0582
 3279SOL    HW121470   4.210   2.848   4.293 -1.8460 -1.1790 -1.8331
 3279SOL    HW221471   4.231   2.718   4.229  1.2251 -1.8101  0.6417
 3280SOL     OW21472   3.614   2.985   1.885 -0.5394  0.0255  0.4622
 3280SOL    HW121473   3.667   2.961   1.960  0.7976  2.8341  0.4247
 3280SOL    HW221474   3.576   2.902   1.855  1.1612 -0.3591 -0.6301
 3281SOL     OW21475   1.621   0.684   3.847  0.0764  0.1401 -0.2105
 3281SOL    HW121476   1.657   0.626   3.781  0.0108  0.7820 -0.8116
 3281SOL    HW221477   1.690   0.676   3.913  0.7517 -0.4297 -0.9787
 3282SOL     OW21478   0.113   3.802   3.668  0.0742  0.1589  0.0542
 3282SOL    HW121479   0.030   3.757   3.684 -1.2095  2.7657  0.6889
 3282SOL    HW221480   0.159   3.790   3.752 -1.3550  1.5406  1.0349
 3283SOL     OW21481   0.103   2.432   6.842  0.4528  0.0764 -0.4099
 3283SOL    HW121482   0.092   2.507   6.782  2.2623  0.6238 -0.0629
 3283SOL    HW221483   0.165   2.471   6.904  2.1847 -1.7613 -1.0018
 3284SOL     OW21484   1.665   4.044   7.933  0.6213 -0.1320 -0.0454
 3284SOL    HW121485   1.696   3.984   8.001 -1.6549  0.5221  1.5921
 3284SOL    HW221486   1.675   4.129   7.976  0.3382 -0.2784  0.3143
 3285SOL     OW21487   3.602   1.938   5.124 -0.1910  0.6132 -0.0438
 3285SOL    HW121488   3.534   1.988   5.078  0.7826  2.3482  0.4198
 3285SOL    HW221489   3.557   1.861   5.161 -0.9408  2.2910  2.5830
 3286SOL     OW21490   0.799   0.562   8.217  0.7168  0.3181  0.1379
 3286SOL    HW121491   0.823   0.650   8.245  1.1304  0.0260  0.6798
 3286SOL    HW221492   0.845   0.506   8.279 -1.3681  0.2629  1.6355
 3287SOL     OW21493   1.196   1.513   7.960 -0.2546 -0.0594  0.1232
 3287SOL    HW121494   1.168   1.460   7.886 -0.2270 -0.8909  0.7018
 3287SOL    HW221495   1.162   1.595   7.924  0.5945  0.0065 -0.5348
 3288SOL     OW21496   0.881   0.486   9.414 -0.0097  0.2219 -0.0866
 3288SOL    HW121497   0.895   0.526   9.329  1.1955  0.5198  0.2572
 3288SOL    HW221498   0.949   0.418   9.416 -1.0292 -0.8134 -0.1040
 3289SOL     OW21499   2.370   1.135   3.621 -0.2132 -0.2245 -0.0333
 3289SOL    HW121500   2.364   1.140   3.716  0.3704 -0.4068  0.0146
 3289SOL    HW221501   2.319   1.211   3.592  0.1093  0.3714  0.9521
 3290SOL     OW21502   3.891   0.723   2.466 -0.0358  0.3721 -0.1351
 3290SOL    HW121503   3.797   0.711   2.453 -0.3544 -0.2988  2.8789
 3290SOL    HW221504   3.911   0.649   2.524  0.7214  0.2154 -0.5966
 3291SOL     OW21505   2.356   0.653   9.384  0.6740 -0.0328  0.5745
 3291SOL    HW121506   2.267   0.659   9.349  2.2406  1.0630 -3.2176
 3291SOL    HW221507   2.364   0.735   9.432  0.0326 -0.7433  1.8845
 3292SOL     OW21508   1.968   3.258  17.747 -0.0919 -0.8449  0.1588
 3292SOL    HW121509   1.966   3.329  17.684 -0.1034  0.5243  1.7166
 3292SOL    HW221510   2.063   3.242  17.745  0.1159  0.4505  0.1710
 3293SOL     OW21511   2.828   2.856   1.931  0.3379 -0.4627  0.3250
 3293SOL    HW121512   2.791   2.884   1.848  1.2650 -1.4751 -0.4216
 3293SOL    HW221513   2.895   2.924   1.938 -2.5314  2.4112 -0.1076
 3294SOL     OW21514   0.716   1.623   8.477  0.3802  0.0888 -0.4286
 3294SOL    HW121515   0.765   1.542   8.491  0.3330  0.0577 -0.4463
 3294SOL    HW221516   0.626   1.591   8.479  0.8088 -0.9572  2.6308
 3295SOL     OW21517   4.435   0.638   5.606 -0.1499 -0.0731 -0.0923
 3295SOL    HW121518   4.386   0.717   5.586  1.3383  0.8528 -0.0376
 3295SOL    HW221519   4.514   0.654   5.555 -0.2013 -1.0635 -0.4873
 3296SOL     OW21520   3.096   4.278   2.195 -0.4525 -0.0007  0.5128
 3296SOL    HW121521   3.050   4.344   2.143  1.5752  0.6612 -0.4362
 3296SOL    HW221522   3.016   4.236   2.226 -0.7459 -1.7740 -2.7421
 3297SOL     OW21523   4.067   3.261   1.517  0.1032  0.4271 -0.1593
 3297SOL    HW121524   4.084   3.355   1.508 -0.5797  0.3344 -2.3462
 3297SOL    HW221525   4.114   3.228   1.594 -0.2468 -1.9051 -0.9382
 3298SOL     OW21526   2.584   3.502   3.150  0.5834  0.4212 -0.1353
 3298SOL    HW121527   2.529   3.461   3.217  0.9499  1.4449  0.7764
 3298SOL    HW221528   2.668   3.473   3.185  0.8965  0.0136 -1.2126
 3299SOL     OW21529   1.854   4.511   3.225 -0.0159  0.2820 -0.3487
 3299SOL    HW121530   1.813   4.473   3.303 -1.6566  2.6970 -0.0478
 3299SOL    HW221531   1.924   4.445   3.216  0.2908  0.5912 -0.2317
 3300SOL     OW21532   3.829   3.479  14.162 -0.0665 -0.0161  0.2728
 3300SOL    HW121533   3.779   3.427  14.098  1.3621  0.2427 -1.0440
 3300SOL    HW221534   3.875   3.417  14.218  0.2014 -0.1050 -0.0502
 3301SOL     OW21535   3.438   1.563   2.154 -0.4198 -0.2412  0.6634
 3301SOL    HW121536   3.458   1.628   2.221  1.3120 -1.2422  1.0989
 3301SOL    HW221537   3.434   1.485   2.208  2.0442 -1.5584 -1.0648
 3302SOL     OW21538   1.145   1.154   7.559  0.1263  0.0113  0.4771
 3302SOL    HW121539   1.231   1.115   7.542 -0.6865 -1.2748 -0.7445
 3302SOL    HW221540   1.153   1.227   7.498  1.6227 -0.7583 -0.2427
 3303SOL     OW21541   4.060   1.935   6.723  0.1902  0.9746  0.0121
 3303SOL    HW121542   4.148   1.896   6.722 -1.1720 -1.9894 -1.3032
 3303SOL    HW221543   4.070   1.996   6.650 -1.8017  2.6337  1.1308
 3304SOL     OW21544   4.483   2.302   4.018 -0.0851 -0.1040  0.5058
 3304SOL    HW121545   4.521   2.246   3.950 -2.6064 -1.2595  0.0510
 3304SOL    HW221546   4.435   2.362   3.961  1.7555 -0.9220 -1.8919
 3305SOL     OW21547   3.762   4.339  14.334 -0.7584 -0.5006 -0.0775
 3305SOL    HW121548   3.713   4.338  14.252  0.7155  0.1179 -0.9437
 3305SOL    HW221549   3.707   4.291  14.396  0.5220 -1.0379  0.6450
 3306SOL     OW21550   4.055   1.096   7.783 -0.5025  0.0638 -0.4397
 3306SOL    HW121551   4.016   1.073   7.868  2.7926 -0.1282  1.0104
 3306SOL    HW221552   3.990   1.060   7.723 -0.3425 -3.8855  1.6890
 3307SOL     OW21553   3.073   0.021   8.049  0.2832  0.5424  0.0015
 3307SOL    HW121554   3.052   0.102   8.002 -0.6189 -0.2905 -1.0329
 3307SOL    HW221555   3.002   0.022   8.113 -0.0252 -0.9140 -0.3119
 3308SOL     OW21556   0.115   1.123  16.486  0.5957  0.0966 -0.0823
 3308SOL    HW121557   0.171   1.116  16.409 -0.5310 -3.1985 -0.5971
 3308SOL    HW221558   0.152   1.052  16.539 -0.6464 -0.9161 -0.5460
 3309SOL     OW21559   3.174   2.426  10.839  0.0394 -0.3790  0.4831
 3309SOL    HW121560   3.114   2.473  10.897 -0.4691  0.9023 -1.0814
 3309SOL    HW221561   3.222   2.497  10.795 -1.0151  1.0042  1.5715
 3310SOL     OW21562   2.534   0.262   4.402  0.6611  0.1310 -0.1847
 3310SOL    HW121563   2.494   0.189   4.450  1.2987  0.2793  0.5853
 3310SOL    HW221564   2.586   0.207   4.345  0.0429 -1.0434  0.3922
 3311SOL     OW21565   0.429   3.230   7.090  0.4250  0.3367  0.4368
 3311SOL    HW121566   0.414   3.307   7.036 -0.3550  1.2410  1.9706
 3311SOL    HW221567   0.351   3.236   7.144 -0.6038  1.4954 -1.1646
 3312SOL     OW21568   1.418   3.215   5.397  0.7441 -1.0472  0.0751
 3312SOL    HW121569   1.384   3.149   5.337  1.2676 -0.8231 -0.4774
 3312SOL    HW221570   1.451   3.159   5.467 -1.7555 -0.9192  1.3452
 3313SOL     OW21571   2.852   3.049   1.539  0.3134 -0.1007 -0.2759
 3313SOL    HW121572   2.838   3.137   1.506  0.0404  0.5599  1.6062
 3313SOL    HW221573   2.771   3.024   1.584 -0.1419 -1.2073 -1.7132
 3314SOL     OW21574   3.271   1.141  15.819 -0.9163  0.0953 -0.0388
 3314SOL    HW121575   3.310   1.069  15.769 -0.4329  0.5042 -0.2564
 3314SOL    HW221576   3.188   1.148  15.772 -0.2240 -0.9307 -1.4156
 3315SOL     OW21577   2.544   0.470   6.390  0.0992 -0.0977 -0.0661
 3315SOL    HW121578   2.481   0.464   6.318  0.1121  3.3397 -0.3223
 3315SOL    HW221579   2.517   0.548   6.437  0.2665 -0.5942  0.8511
 3316SOL     OW21580   4.146   1.096  12.580  0.3638  0.7748  0.1961
 3316SOL    HW121581   4.132   1.084  12.486 -0.0186 -0.1473  0.3700
 3316SOL    HW221582   4.214   1.032  12.599 -0.0546  0.6731  1.3690
 3317SOL     OW21583   4.705   4.267   6.838  0.2399  0.4720  0.7845
 3317SOL    HW121584   4.610   4.276   6.835 -0.0291 -1.8648  2.0177
 3317SOL    HW221585   4.715   4.202   6.907  1.1306  0.2381  0.4414
 3318SOL     OW21586   2.816   4.104   1.934  0.2993 -0.2131  0.3631
 3318SOL    HW121587   2.777   4.021   1.961  1.2873 -0.2260  1.7830
 3318SOL    HW221588   2.907   4.077   1.928  0.6991  0.8762  1.3371
 3319SOL     OW21589   0.732   4.388   4.293  0.1540 -0.3614 -0.3280
 3319SOL    HW121590   0.768   4.403   4.380 -0.6362 -0.3101 -0.0092
 3319SOL    HW221591   0.775   4.450   4.233 -0.3364  2.6596  2.4285
 3320SOL     OW21592   2.916   0.179   6.424 -0.4703  0.7021  0.0984
 3320SOL    HW121593   2.820   0.189   6.426 -0.6363 -1.5378  2.9324
 3320SOL    HW221594   2.932   0.158   6.332 -0.0544 -0.7911  0.5011
 3321SOL     OW21595   4.081   0.445   4.071  0.1644  0.3810 -0.3068
 3321SOL    HW121596   4.175   0.436   4.083 -0.2234 -1.5158  1.2150
 3321SOL    HW221597   4.085   0.367   4.015 -0.5026  0.6903 -0.7856
 3322SOL     OW21598   3.439   0.227   5.827  0.0033  0.1993 -0.3991
 3322SOL    HW121599   3.426   0.265   5.740  3.6506  1.7981 -0.2435
 3322SOL    HW221600   3.350   0.195   5.841  0.3303 -0.5318  0.0065
 3323SOL     OW21601   0.735   2.553   1.419 -0.4187 -0.1784  0.7979
 3323SOL    HW121602   0.692   2.504   1.489 -1.6566  0.8454  0.7422
 3323SOL    HW221603   0.797   2.591   1.480 -0.7546  0.2867  0.8434
 3324SOL     OW21604   4.283   3.368   3.688 -0.0906 -0.1482  0.1497
 3324SOL    HW121605   4.275   3.302   3.619  1.1016 -1.1855  1.0139
 3324SOL    HW221606   4.359   3.333   3.733 -0.6624  1.2244  2.1743
 3325SOL     OW21607   0.245   1.916   8.524  0.7726  0.4650  0.4537
 3325SOL    HW121608   0.199   1.832   8.515 -0.3957  1.1003  0.5086
 3325SOL    HW221609   0.173   1.979   8.524  0.2202 -0.1716  1.5629
 3326SOL     OW21610   3.302   3.182  16.897 -0.5131  0.2412 -0.0754
 3326SOL    HW121611   3.267   3.220  16.978  2.9399 -0.0938  1.5471
 3326SOL    HW221612   3.218   3.164  16.855  0.1103 -2.4900 -0.1249
 3327SOL     OW21613   1.022   4.501   1.737  0.3601 -0.2433 -0.1390
 3327SOL    HW121614   0.935   4.485   1.701  0.7036  1.5431 -1.7768
 3327SOL    HW221615   1.045   4.570   1.674 -1.8043  1.5921  1.0689
 3328SOL     OW21616   3.401   3.750   6.695 -0.4265 -0.0532  0.4235
 3328SOL    HW121617   3.450   3.833   6.698 -2.0058  0.9682 -2.1746
 3328SOL    HW221618   3.322   3.779   6.740 -1.8374  0.2112 -2.2166
 3329SOL     OW21619   0.988   2.495   5.617  0.0072  1.0902 -0.4686
 3329SOL    HW121620   1.032   2.468   5.697  1.1205  1.3014 -1.0177
 3329SOL    HW221621   0.902   2.461   5.644 -0.2956  0.8526 -1.7441
 3330SOL     OW21622   1.949   1.840   7.437 -0.0451  0.3198 -0.2413
 3330SOL    HW121623   1.978   1.849   7.528  1.9490  1.6106 -1.0031
 3330SOL    HW221624   1.907   1.924   7.420 -2.2600 -0.4518  1.3025
 3331SOL     OW21625   3.430   2.523   3.048  0.0747  0.0055 -1.1075
 3331SOL    HW121626   3.381   2.602   3.024  0.9862  0.8678 -0.1559
 3331SOL    HW221627   3.356   2.467   3.072  0.5809  0.2224  0.9699
 3332SOL     OW21628   3.096   2.597   2.132 -0.1469 -0.4427  0.1509
 3332SOL    HW121629   3.014   2.554   2.153 -1.9890  1.3618 -3.3583
 3332SOL    HW221630   3.085   2.675   2.186  1.1576  0.3544 -0.7135
 3333SOL     OW21631   3.921   4.528   8.208  0.2498 -0.6982  0.2865
 3333SOL    HW121632   3.915   4.605   8.152  0.3291  1.8463  3.7485
 3333SOL    HW221633   4.002   4.551   8.254  0.9088 -1.7209 -0.3567
 3334SOL     OW21634   4.604   4.197   3.720 -0.0307  0.0395  0.2080
 3334SOL    HW121635   4.524   4.177   3.671 -0.0893  0.8924 -0.0315
 3334SOL    HW221636   4.664   4.204   3.646  1.4573 -2.7871  1.1494
 3335SOL     OW21637   2.234   2.583   2.900  0.0821  0.3481 -0.2317
 3335SOL    HW121638   2.157   2.530   2.879 -0.1621  0.4969  0.3009
 3335SOL    HW221639   2.300   2.564   2.833  0.6346 -0.3151  0.4919
 3336SOL     OW21640   4.668   3.660   1.547  0.1920 -0.0187 -0.4077
 3336SOL    HW121641   4.665   3.710   1.629  1.6042  1.4585 -1.2440
 3336SOL    HW221642   4.664   3.729   1.481  2.3713  2.6313  2.2084
 3337SOL     OW21643   3.203   3.119   8.383  0.3018  0.6717  0.1669
 3337SOL    HW121644   3.223   3.211   8.402 -2.1208  1.5753 -1.6757
 3337SOL    HW221645   3.290   3.083   8.398 -0.6419 -1.5396  0.3125
 3338SOL     OW21646   4.084   2.128   6.539  0.3129  0.0809 -0.0996
 3338SOL    HW121647   4.119   2.215   6.560 -0.7253  0.8789 -1.6740
 3338SOL    HW221648   4.014   2.149   6.478 -0.4399  0.0831  0.7620
 3339SOL     OW21649   1.063   4.466   2.887  0.1798  0.0900  0.3659
 3339SOL    HW121650   1.101   4.476   2.974  1.6029  1.3139 -0.3915
 3339SOL    HW221651   1.123   4.527   2.844 -0.1006  2.0177  2.7064
 3340SOL     OW21652   2.557   4.644  17.383 -0.5875  0.3229  0.3638
 3340SOL    HW121653   2.521   4.731  17.402  1.6741  1.6038 -1.1331
 3340SOL    HW221654   2.506   4.628  17.303 -0.3493  3.5771 -0.4417
 3341SOL     OW21655   0.325   3.344   7.658 -0.2396  0.3433  0.7950
 3341SOL    HW121656   0.284   3.360   7.573  0.1509 -0.1659  0.5073
 3341SOL    HW221657   0.409   3.312   7.624 -0.2418  0.4699  0.6682
 3342SOL     OW21658   1.275   0.759   8.525  0.4467 -0.0947  0.3315
 3342SOL    HW121659   1.301   0.810   8.448  2.2906  0.4915  1.3614
 3342SOL    HW221660   1.211   0.819   8.562 -1.2442 -1.9281  0.4103
 3343SOL     OW21661   3.310   4.183   0.440 -0.4618 -0.8600  0.0568
 3343SOL    HW121662   3.313   4.207   0.347  0.0867 -1.1879 -0.0106
 3343SOL    HW221663   3.402   4.177   0.465 -1.1864 -1.8775  2.4901
 3344SOL     OW21664   4.153   3.243   9.976 -0.1635  0.2139 -0.0089
 3344SOL    HW121665   4.121   3.248  10.066 -2.1935  2.8610 -0.8701
 3344SOL    HW221666   4.220   3.311   9.983 -1.6406  1.5073  1.7165
 3345SOL     OW21667   2.956   3.836   6.351  0.2378  0.0418 -0.2854
 3345SOL    HW121668   3.020   3.829   6.280  1.6874 -0.0600  1.0016
 3345SOL    HW221669   2.936   3.743   6.362  0.9344  0.0028  0.6615
 3346SOL     OW21670   4.180   3.518  10.445 -0.3435 -0.4864  0.0992
 3346SOL    HW121671   4.236   3.454  10.403 -1.1792 -1.2320  0.1298
 3346SOL    HW221672   4.102   3.519  10.390 -0.2763  0.5289  0.0139
 3347SOL     OW21673   4.249   2.032   6.271 -0.4296 -0.4413 -0.1831
 3347SOL    HW121674   4.156   2.029   6.293 -0.1089 -0.4582  1.1794
 3347SOL    HW221675   4.251   2.031   6.175  0.7959  0.5487 -0.1819
 3348SOL     OW21676   1.103   1.712   7.799  0.0217 -0.1272 -0.3980
 3348SOL    HW121677   1.062   1.798   7.809  0.1624  0.1073 -1.9120
 3348SOL    HW221678   1.193   1.731   7.773  0.9468  0.1315  2.9705
 3349SOL     OW21679   2.943   4.209   4.617 -0.2484  0.3737  0.2566
 3349SOL    HW121680   2.954   4.117   4.639 -0.4779  0.2916  0.0344
 3349SOL    HW221681   2.849   4.228   4.623  0.1014  1.5575  2.2394
 3350SOL     OW21682   1.362   2.212  17.133 -0.3496 -0.2919 -0.2143
 3350SOL    HW121683   1.291   2.236  17.192 -1.3106 -0.8852 -1.1425
 3350SOL    HW221684   1.430   2.195  17.198  2.4132 -0.3994 -3.1384
 3351SOL     OW21685   3.822   4.061   7.303 -0.1590  0.5612  0.0249
 3351SOL    HW121686   3.802   3.978   7.345  2.3199 -0.3671 -0.6337
 3351SOL    HW221687   3.865   4.105   7.377 -1.5395  2.1030 -0.0791
 3352SOL     OW21688   3.401   0.905  13.079  0.1856  0.3499  0.1130
 3352SOL    HW121689   3.442   0.931  13.162  0.3408 -1.9176  0.7497
 3352SOL    HW221690   3.470   0.902  13.013 -0.9084 -0.1572 -0.9957
 3353SOL     OW21691   3.677   3.333   1.457 -0.2799 -0.4031  0.2950
 3353SOL    HW121692   3.753   3.305   1.406  2.3010  2.0787  2.7005
 3353SOL    HW221693   3.671   3.270   1.529  0.5804  1.7065  2.2374
 3354SOL     OW21694   2.235   3.711   4.311 -0.1241 -0.0116  0.2906
 3354SOL    HW121695   2.313   3.697   4.364  0.6029 -0.1686 -0.8126
 3354SOL    HW221696   2.276   3.750   4.233 -0.7877  0.2240  0.0610
 3355SOL     OW21697   4.603   3.546  14.639 -0.3031 -0.3020  0.2622
 3355SOL    HW121698   4.680   3.565  14.692 -0.2263  1.5538 -0.5118
 3355SOL    HW221699   4.558   3.472  14.680  0.0101  0.6542  2.2907
 3356SOL     OW21700   3.903   0.422  16.430  0.0047 -0.1179 -0.0271
 3356SOL    HW121701   3.819   0.394  16.395  0.4287 -0.2876 -0.9032
 3356SOL    HW221702   3.914   0.517  16.425  1.2981 -0.2599  0.0121
 3357SOL     OW21703   2.446   0.200  11.937 -0.5492  0.1901 -0.2628
 3357SOL    HW121704   2.390   0.243  12.002 -2.1822 -1.1744 -0.7466
 3357SOL    HW221705   2.387   0.170  11.868 -1.1486  1.7045 -0.3955
 3358SOL     OW21706   4.426   1.415   3.263  0.1831  0.4606  0.2793
 3358SOL    HW121707   4.510   1.415   3.308 -0.8794 -2.5936  2.3346
 3358SOL    HW221708   4.418   1.326   3.228 -0.7272  1.0447 -0.9791
 3359SOL     OW21709   1.523   3.049   3.147  0.0189  0.6932 -0.3061
 3359SOL    HW121710   1.513   2.993   3.070 -1.1479  0.7597 -0.1921
 3359SOL    HW221711   1.586   2.993   3.193 -0.5049 -0.7101 -1.3176
 3360SOL     OW21712   1.551   0.274   7.542 -0.3248  0.0094 -0.2262
 3360SOL    HW121713   1.571   0.190   7.501  1.3804 -0.0178  0.6269
 3360SOL    HW221714   1.466   0.260   7.583 -0.2202  1.4464  0.5079
 3361SOL     OW21715   1.003   3.880   6.278  0.3746  0.1046  0.6695
 3361SOL    HW121716   0.989   3.803   6.222 -0.2021 -0.9804  2.3169
 3361SOL    HW221717   1.020   3.843   6.364 -2.9858 -2.0949  0.4120
 3362SOL     OW21718   0.622   3.495   6.792 -0.5468 -0.3557 -0.2354
 3362SOL    HW121719   0.556   3.476   6.859  1.2564 -1.1943  1.2943
 3362SOL    HW221720   0.637   3.587   6.816 -2.0295  0.3588 -2.0185
 3363SOL     OW21721   1.204   4.178   7.640  0.3313 -0.4107  0.1367
 3363SOL    HW121722   1.267   4.150   7.574 -0.5728  0.9515 -1.3053
 3363SOL    HW221723   1.255   4.235   7.697 -0.6672  0.8764 -0.2590
 3364SOL     OW21724   3.628   0.855  12.924 -0.7159 -1.0508  0.2198
 3364SOL    HW121725   3.680   0.933  12.909 -1.4347 -0.9776 -1.9678
 3364SOL    HW221726   3.694   0.789  12.905  1.3126  0.9759  0.2833
 3365SOL     OW21727   3.788   2.936   6.792  1.4615  0.3715  0.6022
 3365SOL    HW121728   3.742   2.942   6.876 -1.4016  1.3946 -1.0331
 3365SOL    HW221729   3.833   2.856   6.818 -1.7099 -0.6445  2.9030
 3366SOL     OW21730   0.012   4.519   1.920 -0.2316 -0.7177 -0.4354
 3366SOL    HW121731   0.104   4.547   1.919 -1.1776  2.4496  1.6319
 3366SOL    HW221732   4.714   4.564   1.844 -0.9111  0.1675  0.4148
 3367SOL     OW21733   2.758   1.240   2.088 -0.4383 -0.0441 -0.6763
 3367SOL    HW121734   2.748   1.336   2.089  0.3031  0.0299  1.4934
 3367SOL    HW221735   2.737   1.223   1.997 -0.5711  0.4431 -0.7367
 3368SOL     OW21736   1.578   2.234  10.100 -0.5037  0.0218 -0.1932
 3368SOL    HW121737   1.646   2.178  10.138 -0.0054 -0.6411 -2.0357
 3368SOL    HW221738   1.638   2.308  10.091  0.3700 -0.8630 -1.6549
 3369SOL     OW21739   0.267   3.189   9.390  0.1240 -0.1541  0.0798
 3369SOL    HW121740   0.277   3.105   9.346 -1.1377  0.4252 -1.3294
 3369SOL    HW221741   0.230   3.236   9.315  1.1366  0.8843  0.2249
 3370SOL     OW21742   3.845   3.071   2.271 -0.6197  0.2734  0.4420
 3370SOL    HW121743   3.917   3.128   2.241  2.1287 -4.6196 -2.2421
 3370SOL    HW221744   3.807   3.134   2.332 -1.3460  0.4968 -0.2343
 3371SOL     OW21745   3.250   2.394   7.575 -0.2583  0.3744 -0.2556
 3371SOL    HW121746   3.330   2.342   7.566 -0.2017  0.3262  0.4654
 3371SOL    HW221747   3.184   2.335   7.539  0.2111 -1.2339  1.5316
 3372SOL     OW21748   2.579   3.961   4.822  0.1770 -0.1025 -0.3746
 3372SOL    HW121749   2.592   3.992   4.733  1.2757  0.4409 -0.0193
 3372SOL    HW221750   2.487   3.937   4.810  0.2994 -0.8970  0.2311
 3373SOL     OW21751   1.897   0.431   6.939 -0.7693 -0.2057  0.1934
 3373SOL    HW121752   1.952   0.390   7.005  2.0548  2.5234 -0.4723
 3373SOL    HW221753   1.961   0.452   6.871 -2.1274 -0.2271 -1.1088
 3374SOL     OW21754   2.135   2.222  15.589 -0.1033 -0.1433 -0.0267
 3374SOL    HW121755   2.213   2.177  15.558  0.9964  0.7173  1.5308
 3374SOL    HW221756   2.172   2.289  15.646  0.6254 -0.1410 -0.5118
 3375SOL     OW21757   1.025   1.650   3.468 -0.3053  0.0410 -0.1177
 3375SOL    HW121758   0.963   1.585   3.435 -1.4520  0.9673  0.2073
 3375SOL    HW221759   0.988   1.663   3.555  1.4708 -0.7650  0.7436
 3376SOL     OW21760   3.689   4.445   8.037 -0.9115 -0.1792 -0.6613
 3376SOL    HW121761   3.708   4.534   8.007 -4.1651  0.7930  0.0806
 3376SOL    HW221762   3.686   4.452   8.132 -0.5325  0.2138 -0.6791
 3377SOL     OW21763   2.969   4.458   4.876  0.2119  0.4093  0.0534
 3377SOL    HW121764   3.026   4.522   4.917  0.9146 -0.1180 -0.1041
 3377SOL    HW221765   2.883   4.499   4.873  0.5114  1.0280 -0.1359
 3378SOL     OW21766   0.711   3.295   3.777 -0.0891  0.0005 -0.8850
 3378SOL    HW121767   0.624   3.290   3.816 -0.1638  0.3086 -1.0064
 3378SOL    HW221768   0.765   3.274   3.853 -1.8894 -1.9766 -0.1529
 3379SOL     OW21769   3.635   1.509   5.689  0.4145  0.0405 -0.5725
 3379SOL    HW121770   3.590   1.480   5.768  2.4963  0.9501  0.9394
 3379SOL    HW221771   3.696   1.573   5.726 -1.3268  1.9004 -0.9043
 3380SOL     OW21772   0.497   4.462  12.379  0.3833  0.1230  0.1881
 3380SOL    HW121773   0.528   4.375  12.405 -1.1136 -0.5188 -0.1589
 3380SOL    HW221774   0.546   4.481  12.299  1.2283  0.0352  0.6882
 3381SOL     OW21775   4.594   3.794  12.532 -0.1957 -0.0897  0.3305
 3381SOL    HW121776   4.570   3.877  12.571  2.6001  1.1402 -0.5488
 3381SOL    HW221777   4.509   3.758  12.506  0.7002 -0.9891 -1.3935
 3382SOL     OW21778   2.475   0.103  16.966 -0.3026 -0.1387  0.4696
 3382SOL    HW121779   2.431   0.109  16.881 -0.5661 -0.8784  0.5461
 3382SOL    HW221780   2.403   0.061  17.014 -0.7756  1.2084  0.9309
 3383SOL     OW21781   0.030   2.403   7.628 -0.5145 -0.0663  0.2567
 3383SOL    HW121782   0.121   2.432   7.620 -0.0239 -2.3348 -2.4206
 3383SOL    HW221783   0.006   2.466   7.696  0.8582  1.2871 -0.4942
 3384SOL     OW21784   3.644   1.404   4.519  0.3098 -0.6634  0.4124
 3384SOL    HW121785   3.577   1.466   4.548 -0.6111 -1.9837  1.1304
 3384SOL    HW221786   3.681   1.395   4.607  0.1861 -1.6812  0.3598
 3385SOL     OW21787   1.476   0.487   3.342  0.0090 -0.4027 -0.3847
 3385SOL    HW121788   1.493   0.523   3.429 -3.4563  2.4596 -0.8918
 3385SOL    HW221789   1.556   0.439   3.321 -0.7167 -0.6838 -2.4980
 3386SOL     OW21790   2.785   3.918  14.229 -0.2451  0.0515  0.2539
 3386SOL    HW121791   2.783   3.914  14.324  0.9384  2.1919  0.3767
 3386SOL    HW221792   2.696   3.894  14.204  0.6932 -0.2293 -2.8775
 3387SOL     OW21793   4.697   3.301   5.398 -0.2403 -0.0404  0.3600
 3387SOL    HW121794   4.736   3.256   5.473 -0.9579 -0.8085  0.2619
 3387SOL    HW221795   0.024   3.273   5.333 -2.8106 -0.8083 -1.8222
 3388SOL     OW21796   0.117   3.277   6.342  0.1049  0.0421 -0.0825
 3388SOL    HW121797   0.204   3.306   6.369 -0.3604  0.4912  0.9495
 3388SOL    HW221798   0.100   3.347   6.280 -1.0111 -0.0422  0.1240
 3389SOL     OW21799   2.475   0.381  11.279 -0.1229  0.1124  0.4214
 3389SOL    HW121800   2.415   0.412  11.211 -1.3424 -1.3854  0.8117
 3389SOL    HW221801   2.431   0.405  11.361 -0.7617  0.2419  0.0441
 3390SOL     OW21802   4.583   1.682  11.198 -0.2699 -0.3433  0.0165
 3390SOL    HW121803   4.547   1.734  11.270 -1.5502  0.0911 -0.9268
 3390SOL    HW221804   4.606   1.604  11.249  1.9351  1.0718  1.1668
 3391SOL     OW21805   2.227   0.504   3.356 -0.4403 -0.2738  0.7618
 3391SOL    HW121806   2.205   0.572   3.419  0.0527  0.0671  0.5657
 3391SOL    HW221807   2.299   0.463   3.404  1.9148  0.8665 -1.7660
 3392SOL     OW21808   3.464   3.733   3.061 -0.4237 -0.1192  0.3814
 3392SOL    HW121809   3.446   3.818   3.020 -1.1944 -0.7073 -0.5000
 3392SOL    HW221810   3.390   3.720   3.120  0.3363 -1.2261  1.0779
 3393SOL     OW21811   2.405   0.067   7.428 -0.0198  0.8770 -0.9523
 3393SOL    HW121812   2.446   0.126   7.365  2.3290 -0.9136 -1.1121
 3393SOL    HW221813   2.481   0.031   7.473 -1.2335  1.5644  1.6301
 3394SOL     OW21814   4.518   2.382   2.503  0.2805 -0.7555  0.0238
 3394SOL    HW121815   4.439   2.391   2.555 -0.1629 -0.2613 -0.7380
 3394SOL    HW221816   4.495   2.322   2.432 -1.2535 -2.3839  1.9000
 3395SOL     OW21817   0.054   3.273   3.984 -0.0723 -0.3017 -0.8231
 3395SOL    HW121818   0.038   3.345   3.923 -2.2202 -1.6715 -1.8863
 3395SOL    HW221819   4.712   3.278   4.036  1.3438  1.8692  1.1367
 3396SOL     OW21820   3.364   3.165   8.613  0.2808  0.2323  0.5048
 3396SOL    HW121821   3.409   3.184   8.695  0.3413  0.2475  0.4681
 3396SOL    HW221822   3.370   3.070   8.612  0.5577  0.2655 -1.1872
 3397SOL     OW21823   3.258   2.051   6.351  0.2444  0.1495 -0.1655
 3397SOL    HW121824   3.212   2.019   6.429  0.0497 -0.2345 -0.4396
 3397SOL    HW221825   3.211   2.135   6.349  0.6389  0.3960  0.9097
 3398SOL     OW21826   3.433   2.896  14.345  0.3733 -0.6781 -0.4959
 3398SOL    HW121827   3.417   2.925  14.255 -0.2555  1.0883  0.1887
 3398SOL    HW221828   3.467   2.806  14.340 -1.3090 -1.2858 -0.7798
 3399SOL     OW21829   2.153   2.761   9.146 -0.2474  0.0938  0.2442
 3399SOL    HW121830   2.213   2.799   9.211 -0.6912  1.9536 -0.4241
 3399SOL    HW221831   2.083   2.728   9.203 -0.5277  2.2549  1.1484
 3400SOL     OW21832   4.001   1.169   8.493  0.2082  0.3677 -0.0289
 3400SOL    HW121833   4.059   1.097   8.470 -1.0626 -0.7697  0.3530
 3400SOL    HW221834   4.015   1.228   8.418  1.1889  1.0081  0.6634
 3401SOL     OW21835   3.098   2.628   6.113 -0.0883  0.4965 -0.2616
 3401SOL    HW121836   3.071   2.689   6.045 -0.1575  0.0090 -0.6703
 3401SOL    HW221837   3.045   2.649   6.190  1.2581 -1.5904  1.2608
 3402SOL     OW21838   1.642   4.198   1.560 -0.7238 -0.3140 -0.0637
 3402SOL    HW121839   1.627   4.161   1.647 -0.6057 -4.7603 -1.9215
 3402SOL    HW221840   1.559   4.245   1.549  0.8081  2.0341 -1.5727
 3403SOL     OW21841   4.668   2.248   6.929  0.2713 -0.5867 -0.3868
 3403SOL    HW121842   4.656   2.310   7.001  1.0284  1.2612 -1.8516
 3403SOL    HW221843   4.732   2.298   6.878 -0.6462  1.0549  0.0597
 3404SOL     OW21844   4.313   2.437  13.430  0.3932 -0.1215  0.5448
 3404SOL    HW121845   4.238   2.481  13.471  0.0081 -0.9937  0.7767
 3404SOL    HW221846   4.363   2.516  13.410 -1.5162  1.0987  0.6294
 3405SOL     OW21847   1.318   0.422   1.717  0.1576  0.5647 -0.4951
 3405SOL    HW121848   1.264   0.495   1.688 -1.8075 -0.2431  1.1178
 3405SOL    HW221849   1.403   0.443   1.677  1.0981  0.4160  1.3769
 3406SOL     OW21850   2.444   1.456   9.340 -0.2514  0.1282 -0.4651
 3406SOL    HW121851   2.452   1.391   9.409  2.2060  0.1932 -0.7133
 3406SOL    HW221852   2.490   1.525   9.387  1.0695 -1.4352  0.5317
 3407SOL     OW21853   4.377   1.700   5.504 -0.4834  0.1219 -0.4662
 3407SOL    HW121854   4.429   1.753   5.565 -1.4670 -2.0281  2.2306
 3407SOL    HW221855   4.293   1.688   5.548  0.5985 -0.2152  1.5094
 3408SOL     OW21856   0.173   3.871  13.832  0.0043 -0.2248  0.0996
 3408SOL    HW121857   0.263   3.896  13.816  0.2348 -0.7852  0.5275
 3408SOL    HW221858   0.134   3.874  13.744  0.4286  0.8638 -0.0483
 3409SOL     OW21859   2.078   4.155   5.208 -0.1362 -0.2012 -0.2520
 3409SOL    HW121860   2.090   4.065   5.240  1.2991 -0.3930 -1.3449
 3409SOL    HW221861   2.036   4.188   5.288  0.7327  1.4054 -0.4729
 3410SOL     OW21862   0.167   0.376   2.219  0.0281  0.5822 -0.2770
 3410SOL    HW121863   0.204   0.299   2.263 -1.5138 -0.0919 -0.1876
 3410SOL    HW221864   0.095   0.338   2.169 -0.4547 -0.1135  0.9431
 3411SOL     OW21865   0.010   0.136   5.395 -0.3427  0.4512 -0.1151
 3411SOL    HW121866   0.081   0.105   5.449 -2.2701  0.0164  2.1620
 3411SOL    HW221867   4.735   0.066   5.331  2.0331 -0.2177  0.1523
 3412SOL     OW21868   3.511   4.112   3.191  0.3572 -0.2749  0.6936
 3412SOL    HW121869   3.423   4.079   3.208  1.1339 -1.9912  1.3466
 3412SOL    HW221870   3.564   4.040   3.224 -0.4250 -0.5402  1.3721
 3413SOL     OW21871   3.269   2.288   8.004  0.4588 -0.4364 -0.1604
 3413SOL    HW121872   3.268   2.374   8.045 -0.0783  0.1087 -1.3174
 3413SOL    HW221873   3.246   2.245   8.086 -1.3888 -0.8193 -0.8888
 3414SOL     OW21874   4.094   3.842   2.261 -0.0862 -0.2265  0.1736
 3414SOL    HW121875   4.065   3.757   2.228 -1.1608 -0.1566  0.9531
 3414SOL    HW221876   4.148   3.821   2.337  1.4196  0.7466 -0.6203
 3415SOL     OW21877   3.963   4.562  16.814 -0.6127 -0.3885  0.1372
 3415SOL    HW121878   4.053   4.562  16.848 -0.0436 -0.3249 -1.3480
 3415SOL    HW221879   3.919   4.518  16.886  0.3326 -1.0699  0.2889
 3416SOL     OW21880   1.089   3.677   8.436  0.4585 -0.2907 -0.5318
 3416SOL    HW121881   1.026   3.739   8.473 -1.8511 -2.1595 -1.4113
 3416SOL    HW221882   1.065   3.690   8.344 -0.9782 -0.2009 -0.1356
 3417SOL     OW21883   2.831   4.250   7.246 -0.3172  0.2169  0.2027
 3417SOL    HW121884   2.838   4.202   7.163 -0.6705 -1.7763  1.3155
 3417SOL    HW221885   2.870   4.333   7.220  3.0417 -1.0359  1.1557
 3418SOL     OW21886   3.125   1.115   3.585  0.4505  0.6684 -0.6038
 3418SOL    HW121887   3.081   1.181   3.532  0.3310  2.2897  1.5426
 3418SOL    HW221888   3.205   1.086   3.540 -0.1071 -0.3122 -0.9741
 3419SOL     OW21889   4.160   3.215  11.394  0.1347 -0.0670 -0.2811
 3419SOL    HW121890   4.249   3.247  11.377 -0.1011  0.4179 -0.5949
 3419SOL    HW221891   4.142   3.174  11.310  2.7977 -0.3590 -0.7323
 3420SOL     OW21892   1.991   0.206   9.598  0.1474 -0.5696  0.0131
 3420SOL    HW121893   1.991   0.154   9.518  2.3289 -0.2486 -0.2019
 3420SOL    HW221894   1.934   0.155   9.656 -0.0611 -2.5725 -1.9445
 3421SOL     OW21895   4.643   1.077  10.010 -0.2347  0.3760 -0.2448
 3421SOL    HW121896   4.570   1.065   9.949 -0.6227  0.6927  0.1547
 3421SOL    HW221897   4.695   1.140   9.960  0.8133 -1.0994 -1.0201
 3422SOL     OW21898   2.915   3.693  17.476  0.2501  0.2830 -0.0549
 3422SOL    HW121899   2.995   3.745  17.467  0.7225 -0.0051  2.4976
 3422SOL    HW221900   2.927   3.634  17.402  0.8071 -2.8886  2.5603
 3423SOL     OW21901   1.897   3.608   1.114 -0.6002  0.1834 -0.2173
 3423SOL    HW121902   1.833   3.649   1.056  2.1765  2.3879 -1.7420
 3423SOL    HW221903   1.835   3.575   1.179  0.0895 -0.7656 -0.0447
 3424SOL     OW21904   2.967   2.625   0.282 -0.3140  0.1128  0.1259
 3424SOL    HW121905   2.986   2.561   0.350  0.3688  1.0479  0.8091
 3424SOL    HW221906   2.876   2.601   0.263 -0.6331 -0.9648  2.9571
 3425SOL     OW21907   1.459   2.905  16.505  0.1247  0.0722  0.1361
 3425SOL    HW121908   1.416   2.990  16.519 -0.0439 -0.3195  2.0609
 3425SOL    HW221909   1.386   2.863  16.459  0.3658  0.4276 -0.5760
 3426SOL     OW21910   2.238   4.031  12.658  0.0255  0.4384 -0.5117
 3426SOL    HW121911   2.267   4.121  12.644  1.2878  0.2876  1.1298
 3426SOL    HW221912   2.182   4.041  12.735  1.5471 -1.2957  0.8354
 3427SOL     OW21913   2.766   0.910   6.490 -0.0020 -0.0212  0.3688
 3427SOL    HW121914   2.828   0.839   6.503 -1.8751 -1.9329 -1.1195
 3427SOL    HW221915   2.726   0.913   6.577 -1.4970  2.1127 -0.3685
 3428SOL     OW21916   2.442   0.791   8.738  0.2565  0.1985 -0.1988
 3428SOL    HW121917   2.532   0.777   8.767 -0.8482 -0.2538  3.0104
 3428SOL    HW221918   2.415   0.699   8.733 -1.0589  0.5589  0.3517
 3429SOL     OW21919   3.671   2.038   1.255  0.0673  0.1914 -0.4810
 3429SOL    HW121920   3.607   1.986   1.206  0.0825 -2.2283  2.0351
 3429SOL    HW221921   3.612   2.099   1.300  0.8456  0.4405  0.1946
 3430SOL     OW21922   4.328   3.635   9.529 -0.3881 -0.1773 -0.2461
 3430SOL    HW121923   4.267   3.632   9.455 -0.7327 -0.2535  0.0387
 3430SOL    HW221924   4.363   3.722   9.512  0.5083 -0.2881  1.0754
 3431SOL     OW21925   0.197   2.924   1.502 -0.0063 -0.3766 -0.3072
 3431SOL    HW121926   0.257   2.940   1.429  0.3246 -1.0300 -0.1782
 3431SOL    HW221927   0.143   2.855   1.462 -0.7831 -0.4183  0.8065
 3432SOL     OW21928   1.591   3.837   6.426 -0.0594  0.0956  0.1952
 3432SOL    HW121929   1.576   3.768   6.491 -1.6155 -0.2823 -0.5609
 3432SOL    HW221930   1.609   3.800   6.340 -1.2067 -0.0431  0.0117
 3433SOL     OW21931   1.874   2.485   1.978 -0.0169  0.1611  0.1888
 3433SOL    HW121932   1.956   2.505   2.023 -0.3072  1.1241  0.2973
 3433SOL    HW221933   1.906   2.415   1.921 -0.4147 -0.9563  1.3534
 3434SOL     OW21934   3.365   3.339   6.530 -0.0302 -0.1881 -0.1828
 3434SOL    HW121935   3.424   3.339   6.606  0.3066  1.3787 -0.4475
 3434SOL    HW221936   3.294   3.386   6.573 -0.2843 -2.3181  1.7344
 3435SOL     OW21937   3.268   2.593   0.189 -0.4511 -0.3064 -0.5264
 3435SOL    HW121938   3.241   2.571   0.101 -0.0219 -0.0264 -0.7287
 3435SOL    HW221939   3.302   2.680   0.166  0.7478 -0.7160 -0.3431
 3436SOL     OW21940   1.946   4.563   8.225 -0.1099 -0.2948  0.2365
 3436SOL    HW121941   1.859   4.602   8.227  0.9023  1.9810 -0.0806
 3436SOL    HW221942   1.963   4.534   8.136 -2.1700 -0.6863 -0.0261
 3437SOL     OW21943   2.950   3.953   6.590  0.0807 -0.0805 -0.4913
 3437SOL    HW121944   2.972   3.927   6.500 -1.4085 -3.2147  0.0469
 3437SOL    HW221945   2.941   3.862   6.618 -0.8418 -0.3671 -1.6924
 3438SOL     OW21946   1.692   1.368   6.142 -1.1575 -0.1577  0.8500
 3438SOL    HW121947   1.618   1.392   6.086 -0.2780  0.5724 -0.0175
 3438SOL    HW221948   1.732   1.293   6.097 -2.8396 -0.7912  0.4151
 3439SOL     OW21949   1.871   3.269   2.166 -0.0308 -0.0829  0.4899
 3439SOL    HW121950   1.854   3.181   2.133 -1.4064  0.8598 -1.3467
 3439SOL    HW221951   1.790   3.295   2.209  0.1163 -1.0598  1.3323
 3440SOL     OW21952   3.451   3.731  10.157  0.1445 -0.7204 -0.7744
 3440SOL    HW121953   3.383   3.772  10.210 -1.5118 -1.5854 -2.2439
 3440SOL    HW221954   3.458   3.644  10.198  1.2406 -0.1918  0.1546
 3441SOL     OW21955   3.944   0.440   2.559  0.3897 -0.1938  0.0042
 3441SOL    HW121956   3.865   0.401   2.596  1.0490 -1.2074  0.3374
 3441SOL    HW221957   3.950   0.419   2.466  0.3360 -2.7496  0.5868
 3442SOL     OW21958   0.232   4.264   7.333 -0.5544  0.3288  0.0328
 3442SOL    HW121959   0.321   4.291   7.356 -0.0224 -1.3431 -0.0880
 3442SOL    HW221960   0.187   4.308   7.405  2.0494 -0.0015  1.8434
 3443SOL     OW21961   3.567   1.924   7.196  0.4420  0.1416 -0.0740
 3443SOL    HW121962   3.570   1.956   7.105  1.9542 -2.4580 -0.9364
 3443SOL    HW221963   3.643   1.968   7.235 -0.9141 -0.8439  3.6755
 3444SOL     OW21964   3.021   0.840  15.248 -0.1356  0.1401 -0.7333
 3444SOL    HW121965   2.985   0.823  15.161  3.1377 -0.0624 -2.0663
 3444SOL    HW221966   2.941   0.831  15.299 -0.6253 -0.9940 -1.7120
 3445SOL     OW21967   3.603   3.320   0.810 -0.0723  0.0381  0.1334
 3445SOL    HW121968   3.518   3.277   0.794  0.1165 -0.6081  0.8677
 3445SOL    HW221969   3.658   3.249   0.843  1.5962  0.9003 -0.8180
 3446SOL     OW21970   0.974   2.554   5.202 -0.2917  0.9142  0.7046
 3446SOL    HW121971   0.918   2.478   5.214  0.3182  0.4445  0.5485
 3446SOL    HW221972   1.026   2.560   5.282 -0.4575  0.3950  0.8524
 3447SOL     OW21973   4.395   2.055   9.426  0.1102  0.0275  0.2902
 3447SOL    HW121974   4.310   2.010   9.425  1.1154 -1.8402 -1.9107
 3447SOL    HW221975   4.429   2.009   9.503 -1.1766  0.7270  1.2763
 3448SOL     OW21976   4.608   0.427   4.608  0.0465 -0.0241 -0.1701
 3448SOL    HW121977   4.681   0.382   4.566 -1.5909 -1.2865 -1.6527
 3448SOL    HW221978   4.609   0.512   4.564 -2.3564 -0.5629 -1.2529
 3449SOL     OW21979   0.272   2.488   7.595 -0.1092  0.0688 -0.7937
 3449SOL    HW121980   0.259   2.582   7.580  0.2267  0.0238 -1.3523
 3449SOL    HW221981   0.362   2.475   7.566  0.3857 -2.5755  1.8791
 3450SOL     OW21982   4.191   2.192   8.594  0.1873 -0.0243 -0.1990
 3450SOL    HW121983   4.203   2.165   8.503  0.4648 -4.0545  1.0039
 3450SOL    HW221984   4.280   2.170   8.623  0.1738  0.7867  0.4547
 3451SOL     OW21985   0.477   3.304   9.528 -0.7886 -0.0840  0.1971
 3451SOL    HW121986   0.531   3.303   9.449 -1.7876  3.5548 -0.5201
 3451SOL    HW221987   0.395   3.265   9.498 -1.3746  1.5305 -0.3041
 3452SOL     OW21988   1.749   3.503   4.832 -0.2645  0.0177  0.3268
 3452SOL    HW121989   1.686   3.503   4.905  1.3036  1.3647  1.6736
 3452SOL    HW221990   1.717   3.574   4.776  0.5276  2.1150  2.5322
 3453SOL     OW21991   0.620   1.693   3.287  0.0326  0.2118  0.2766
 3453SOL    HW121992   0.616   1.656   3.199  0.9967  1.5418 -0.3354
 3453SOL    HW221993   0.709   1.727   3.297  0.5831 -0.4330 -2.4631
 3454SOL     OW21994   3.749   2.044   4.876 -0.8464  0.2804 -0.3721
 3454SOL    HW121995   3.720   2.020   4.964  1.0398 -2.4019 -0.4816
 3454SOL    HW221996   3.674   2.086   4.835 -1.4509  0.8530  1.3216
 3455SOL     OW21997   3.337   1.914   3.004 -1.0196  0.2637 -0.0137
 3455SOL    HW121998   3.328   1.827   2.964 -0.9512  0.1348  0.2489
 3455SOL    HW221999   3.287   1.893   3.083 -0.7353  0.1170  0.1297
 3456SOL     OW22000   2.093   1.511   8.641 -0.2210  0.0722  0.2473
 3456SOL    HW122001   2.064   1.460   8.716 -0.6910  1.2819  0.8966
 3456SOL    HW222002   2.161   1.455   8.603  1.3445  1.9245  0.2826
 3457SOL     OW22003   2.343   3.602   8.522  0.5954  0.4566  0.3769
 3457SOL    HW122004   2.258   3.645   8.535 -0.9089 -2.6340  0.9186
 3457SOL    HW222005   2.377   3.664   8.458  1.6102 -0.7910 -0.2929
 3458SOL     OW22006   3.838   2.912  10.648 -0.2164 -0.5034 -0.4788
 3458SOL    HW122007   3.873   2.832  10.689 -2.4366 -0.2380  1.9138
 3458SOL    HW222008   3.794   2.870  10.574 -1.3602  0.8375 -0.5478
 3459SOL     OW22009   3.559   0.766  17.664 -0.3480  0.2610  0.4003
 3459SOL    HW122010   3.584   0.801  17.578 -1.4851  0.3126  0.0864
 3459SOL    HW222011   3.516   0.682  17.647 -2.1604  1.1514  0.6022
 3460SOL     OW22012   2.906   2.627   0.576  0.0707 -0.3943 -0.4964
 3460SOL    HW122013   2.826   2.671   0.546  0.1270 -0.0896 -0.2038
 3460SOL    HW222014   2.905   2.547   0.524  0.6531 -0.3356 -0.5968
 3461SOL     OW22015   4.114   0.698   2.255  0.0326  0.5033 -0.1441
 3461SOL    HW122016   4.032   0.653   2.234  1.2840 -3.0384  2.4801
 3461SOL    HW222017   4.108   0.776   2.200  0.4799 -1.0109 -2.3629
 3462SOL     OW22018   3.031   3.740   7.307  0.4143 -0.0276  0.0573
 3462SOL    HW122019   3.102   3.688   7.344 -0.1320 -0.6632  0.2228
 3462SOL    HW222020   3.063   3.829   7.315  0.1388  0.0399  0.3951
 3463SOL     OW22021   1.473   3.517   4.926  0.4089  0.0542  0.2482
 3463SOL    HW122022   1.446   3.591   4.872 -0.5699 -0.1145  0.5038
 3463SOL    HW222023   1.422   3.542   5.003 -0.3619  0.5334 -0.4186
 3464SOL     OW22024   1.804   0.718   3.286  0.6785 -0.1690 -0.7041
 3464SOL    HW122025   1.752   0.738   3.364  0.2796 -0.8931 -0.7912
 3464SOL    HW222026   1.821   0.630   3.320  0.3457 -0.2967 -0.8684
 3465SOL     OW22027   2.590   0.938   8.221  0.0695  0.1846  0.5097
 3465SOL    HW122028   2.611   1.030   8.237  1.0167  0.3335 -1.5383
 3465SOL    HW222029   2.636   0.911   8.141  2.5162 -0.7294  2.2452
 3466SOL     OW22030   0.811   3.794   8.477  0.4488  0.1450  0.3933
 3466SOL    HW122031   0.831   3.756   8.391  2.0864  0.5021  0.6067
 3466SOL    HW222032   0.762   3.873   8.456 -1.5980 -2.0115 -2.8576
 3467SOL     OW22033   1.961   1.757  10.350 -0.2902  0.6343  0.3258
 3467SOL    HW122034   1.893   1.817  10.381  0.0592  0.8738  0.6214
 3467SOL    HW222035   2.037   1.815  10.343  1.2134 -1.6615 -2.1138
 3468SOL     OW22036   1.546   3.545  15.033 -0.3070  0.2351 -0.0406
 3468SOL    HW122037   1.603   3.543  14.955  0.5257 -1.3487  0.6030
 3468SOL    HW222038   1.567   3.635  15.056  0.7331  0.1006 -0.4346
 3469SOL     OW22039   2.620   2.163   5.028  0.0079  0.2963 -0.8424
 3469SOL    HW122040   2.606   2.069   5.017  1.9915  0.1747 -2.1944
 3469SOL    HW222041   2.711   2.158   5.057 -0.2884  0.5224  0.1407
 3470SOL     OW22042   2.454   4.598  15.612  0.2728 -0.5320  0.8994
 3470SOL    HW122043   2.521   4.543  15.571 -0.0019 -0.7558  0.7524
 3470SOL    HW222044   2.505   4.643  15.679  0.3599 -0.7176  0.9585
 3471SOL     OW22045   4.041   4.384   8.494 -0.3596  0.1330  0.2112
 3471SOL    HW122046   3.977   4.414   8.557 -1.2542 -0.7662 -0.2673
 3471SOL    HW222047   4.001   4.302   8.466  1.8385 -0.7197 -0.4980
 3472SOL     OW22048   4.459   3.019   6.777 -0.1442  0.2894  0.0031
 3472SOL    HW122049   4.436   3.112   6.765  0.3404  0.3979 -0.0718
 3472SOL    HW222050   4.441   2.982   6.690 -0.1597 -0.1088  0.1790
 3473SOL     OW22051   1.126   0.871   7.676  0.3831  0.1134 -0.4030
 3473SOL    HW122052   1.166   0.858   7.762  0.5677 -1.1895 -0.6901
 3473SOL    HW222053   1.186   0.935   7.638  0.7175 -0.0819 -0.2054
 3474SOL     OW22054   1.623   1.594   3.200  0.8157 -0.4141  0.0895
 3474SOL    HW122055   1.692   1.539   3.163  0.2171 -1.2377  0.1850
 3474SOL    HW222056   1.559   1.533   3.237  0.0582 -0.5119 -1.3786
 3475SOL     OW22057   1.692   4.339   4.975 -0.3958  0.6952 -0.2296
 3475SOL    HW122058   1.618   4.308   4.923 -0.1115  0.9871 -0.8132
 3475SOL    HW222059   1.686   4.290   5.056 -1.8454  0.4073 -0.5179
 3476SOL     OW22060   3.746   0.322   8.835 -0.8394 -0.1387 -0.2354
 3476SOL    HW122061   3.772   0.373   8.758 -1.1557 -1.1412 -0.9969
 3476SOL    HW222062   3.823   0.318   8.892 -0.5986 -0.8105 -0.6086
 3477SOL     OW22063   2.445   2.071   8.343  0.5165  0.0828  0.0120
 3477SOL    HW122064   2.359   2.030   8.331  0.7975 -0.3157 -0.6703
 3477SOL    HW222065   2.458   2.057   8.437  0.7078 -2.1880 -0.3416
 3478SOL     OW22066   2.509   3.568  14.227  0.0665 -0.3671 -0.1678
 3478SOL    HW122067   2.509   3.655  14.188  0.0504  0.0932  0.8542
 3478SOL    HW222068   2.517   3.591  14.320  0.1576 -0.5873 -0.1206
 3479SOL     OW22069   1.864   1.384   6.510  0.5309  0.2905 -0.3599
 3479SOL    HW122070   1.877   1.468   6.466  0.0686 -0.0690 -1.1676
 3479SOL    HW222071   1.954   1.363   6.534  0.5172 -0.7822 -1.2714
 3480SOL     OW22072   3.834   0.574   5.316  0.0217 -0.5412  0.0871
 3480SOL    HW122073   3.837   0.483   5.287  1.3128 -0.7220  0.7987
 3480SOL    HW222074   3.809   0.562   5.408 -1.3521 -0.1221 -0.2390
 3481SOL     OW22075   3.452   1.864   1.256 -0.6070 -0.4342  0.2844
 3481SOL    HW122076   3.421   1.777   1.281  2.3875 -1.8846 -0.9724
 3481SOL    HW222077   3.469   1.904   1.341 -1.1784 -0.8827  0.6023
 3482SOL     OW22078   4.481   1.765  10.946 -0.0312  0.7764 -0.1053
 3482SOL    HW122079   4.535   1.759  11.025 -1.1154 -3.1166  0.3388
 3482SOL    HW222080   4.390   1.764  10.976  0.4285 -0.6857  1.2662
 3483SOL     OW22081   3.165   4.264   7.967  0.2896 -0.0670 -0.0734
 3483SOL    HW122082   3.144   4.260   7.873 -0.2976  0.0888  0.0489
 3483SOL    HW222083   3.200   4.177   7.986 -3.1675 -1.2141  1.1203
 3484SOL     OW22084   3.822   0.492  11.505  0.2788  0.3342  0.4386
 3484SOL    HW122085   3.772   0.518  11.428 -1.6351 -3.4071  0.3837
 3484SOL    HW222086   3.904   0.465  11.464  0.6282 -0.0089  1.3626
 3485SOL     OW22087   0.013   1.450   2.072  0.3405 -0.0192 -0.4581
 3485SOL    HW122088   0.041   1.364   2.102  0.3061 -0.0364 -0.4742
 3485SOL    HW222089   0.029   1.503   2.150  3.1442 -1.8315  0.1577
 3486SOL     OW22090   1.499   2.454   8.759  0.2859  0.5808  0.2760
 3486SOL    HW122091   1.564   2.512   8.720  0.9059 -0.5603 -0.3994
 3486SOL    HW222092   1.459   2.426   8.676  0.3951  1.0416  0.0673
 3487SOL     OW22093   2.503   1.146   5.958 -0.1562 -0.0285  0.2107
 3487SOL    HW122094   2.454   1.112   6.033 -0.6477 -3.5437 -1.6929
 3487SOL    HW222095   2.594   1.118   5.965  0.7587  2.7047 -0.7586
 3488SOL     OW22096   1.562   3.372   7.941 -0.1135 -0.5757  0.7948
 3488SOL    HW122097   1.649   3.353   7.905  0.3882  2.1697  0.5685
 3488SOL    HW222098   1.562   3.467   7.941  0.5403 -0.5788 -0.2089
 3489SOL     OW22099   2.015   3.258   9.154 -0.3136 -0.2431  0.0378
 3489SOL    HW122100   2.080   3.302   9.099  0.5526  0.6588  1.7799
 3489SOL    HW222101   1.940   3.314   9.135  0.7453  1.4852  0.9983
 3490SOL     OW22102   0.152   2.336   6.491 -0.1940  0.0339  0.1053
 3490SOL    HW122103   0.228   2.278   6.488  1.3606  1.9853  1.7931
 3490SOL    HW222104   0.195   2.421   6.479  0.9915 -0.3584  1.5840
 3491SOL     OW22105   2.114   4.440   0.154  0.4556  0.3690 -0.4736
 3491SOL    HW122106   2.072   4.399   0.230 -3.3728  0.3974 -2.5773
 3491SOL    HW222107   2.205   4.434   0.185 -0.4625  2.1628  2.4977
 3492SOL     OW22108   1.939   3.260   4.421 -0.6130  0.3064  0.1426
 3492SOL    HW122109   2.018   3.312   4.433  0.6790 -1.6349  0.0291
 3492SOL    HW222110   1.889   3.289   4.498  0.8246 -1.8959  1.9069
 3493SOL     OW22111   2.006   3.594   4.867  0.3631 -0.5272  0.3101
 3493SOL    HW122112   1.912   3.576   4.858 -0.1666  1.8228  1.3263
 3493SOL    HW222113   2.014   3.559   4.955 -2.0489  1.5221  1.3500
 3494SOL     OW22114   1.712   4.644   8.851 -0.5419 -0.5857  0.3775
 3494SOL    HW122115   1.729   4.550   8.856  2.2157 -0.2713 -2.6764
 3494SOL    HW222116   1.805   4.663   8.848 -0.8081  0.3738 -2.1473
 3495SOL     OW22117   0.435   1.299  13.271 -0.0248 -0.3982  0.4659
 3495SOL    HW122118   0.458   1.290  13.179  0.2630  1.1235  0.3810
 3495SOL    HW222119   0.431   1.395  13.268 -1.9636 -0.5768 -1.9371
 3496SOL     OW22120   1.602   4.703   0.874 -0.3964 -0.2914 -0.6063
 3496SOL    HW122121   1.619   4.724   0.782  0.0803 -1.6845 -0.8351
 3496SOL    HW222122   1.508   4.684   0.869 -0.7808  1.7202 -0.8358
 3497SOL     OW22123   0.528   2.215  14.224  0.6007  0.5496  0.2820
 3497SOL    HW122124   0.597   2.281  14.231  1.8342 -0.8387  1.2275
 3497SOL    HW222125   0.542   2.152  14.294 -0.4293  0.0935  0.0788
 3498SOL     OW22126   2.866   2.728  10.221 -0.0733 -0.9641 -0.0158
 3498SOL    HW122127   2.921   2.693  10.151  3.5280  0.9135  1.8307
 3498SOL    HW222128   2.799   2.768  10.166 -0.8508 -1.0844  0.8400
 3499SOL     OW22129   0.353   3.364   5.678  0.1804  0.3653  1.2557
 3499SOL    HW122130   0.317   3.423   5.612  1.1565  0.9853  1.2742
 3499SOL    HW222131   0.448   3.368   5.670  0.3030 -0.7186  2.0308
 3500SOL     OW22132   1.251   1.238   2.656  0.7006 -0.6445 -0.4044
 3500SOL    HW122133   1.285   1.176   2.721  1.3817 -0.0914 -0.2278
 3500SOL    HW222134   1.325   1.298   2.642 -0.8469  0.9746 -1.6982
 3501SOL     OW22135   1.801   2.515  10.325  0.0363 -0.0377  0.1025
 3501SOL    HW122136   1.895   2.499  10.316 -0.2795 -1.3655 -0.9418
 3501SOL    HW222137   1.792   2.548  10.414 -0.1301  0.3306 -0.0538
 3502SOL     OW22138   1.102   0.195   8.401  0.1408  0.1274 -0.3953
 3502SOL    HW122139   1.194   0.177   8.419 -0.2325  0.3839  1.7667
 3502SOL    HW222140   1.063   0.147   8.473  2.4347  1.4486  1.7281
 3503SOL     OW22141   1.951   0.751   8.818  0.3028 -0.1070  0.1575
 3503SOL    HW122142   1.921   0.694   8.747 -0.4085  0.4212  0.0322
 3503SOL    HW222143   2.036   0.709   8.827 -0.0534 -0.7677  0.4091
 3504SOL     OW22144   1.665   3.420   3.782 -0.4054 -0.1125  0.1154
 3504SOL    HW122145   1.754   3.386   3.770 -0.2672  0.8076 -1.4597
 3504SOL    HW222146   1.675   3.495   3.841  2.4952  1.0085 -1.7831
 3505SOL     OW22147   2.881   0.210   3.562 -0.2029 -0.4303  0.1301
 3505SOL    HW122148   2.835   0.161   3.493  1.1096 -2.3519  0.6198
 3505SOL    HW222149   2.973   0.183   3.559 -0.2952 -0.6633 -0.8476
 3506SOL     OW22150   2.916   3.064   6.507  0.8497  0.5091 -0.0515
 3506SOL    HW122151   2.943   3.006   6.579  1.2822 -0.0905 -0.6956
 3506SOL    HW222152   2.834   3.029   6.474  0.8072 -0.1495  0.7342
 3507SOL     OW22153   1.705   1.485   2.175  0.1583 -0.4368 -0.9429
 3507SOL    HW122154   1.778   1.429   2.150  0.7751  0.2200 -0.6171
 3507SOL    HW222155   1.634   1.425   2.198  0.0303 -0.7017 -2.0386
 3508SOL     OW22156   1.289   1.250   7.295  0.6565 -0.1335  0.8175
 3508SOL    HW122157   1.345   1.179   7.325  1.8439  1.0283  1.3876
 3508SOL    HW222158   1.279   1.224   7.203 -2.1116  1.2263  0.7333
 3509SOL     OW22159   3.914   3.428   4.610 -1.0273  0.0910  0.3029
 3509SOL    HW122160   3.918   3.346   4.659  1.4431 -0.4942 -0.8822
 3509SOL    HW222161   3.915   3.394   4.520  1.7688  1.8564 -0.3081
 3510SOL     OW22162   2.720   3.897  12.404  0.3381  0.5083  0.5390
 3510SOL    HW122163   2.782   3.924  12.472  1.2772  0.8571 -0.4492
 3510SOL    HW222164   2.650   3.961  12.416  0.1255  0.1900  0.9932
 3511SOL     OW22165   0.456   1.526   8.499  0.4127 -0.1321 -0.1455
 3511SOL    HW122166   0.455   1.442   8.545 -0.9608  0.3330  0.6732
 3511SOL    HW222167   0.401   1.510   8.422 -0.4356  0.6607  0.2920
 3512SOL     OW22168   1.933   0.502  12.101 -0.0054  0.2900 -0.1561
 3512SOL    HW122169   2.009   0.556  12.120 -0.9992  1.6447 -0.0327
 3512SOL    HW222170   1.858   0.558  12.121 -0.4929  0.1540 -1.5905
 3513SOL     OW22171   4.487   1.506   6.080 -0.2546 -0.7960 -0.1764
 3513SOL    HW122172   4.512   1.572   6.144 -0.1226  0.1439 -1.1986
 3513SOL    HW222173   4.520   1.548   6.001  0.4866 -1.1906 -0.0785
 3514SOL     OW22174   0.547   0.985   2.978  0.0514  0.2268  0.4714
 3514SOL    HW122175   0.471   1.044   2.978  0.1432  0.3437  0.2297
 3514SOL    HW222176   0.544   0.956   3.069 -2.1233  0.7372  0.5697
 3515SOL     OW22177   1.868   2.412   5.785  0.0935  0.1550  0.3876
 3515SOL    HW122178   1.799   2.477   5.777 -0.8528 -0.9681 -0.5446
 3515SOL    HW222179   1.862   2.375   5.697  2.8862  3.7164 -1.3054
 3516SOL     OW22180   4.278   2.710   2.083  0.1673 -0.2449  0.1547
 3516SOL    HW122181   4.262   2.764   2.160  0.7845  0.0139  0.1019
 3516SOL    HW222182   4.243   2.763   2.011  0.1293 -0.0771  0.2958
 3517SOL     OW22183   0.611   0.588  14.179 -0.1118  0.5533  0.0343
 3517SOL    HW122184   0.683   0.548  14.130  0.3253  0.8373  0.4371
 3517SOL    HW222185   0.539   0.525  14.181  0.3501  0.0445  0.6794
 3518SOL     OW22186   0.064   1.123   3.443 -0.0440 -0.5908 -0.2761
 3518SOL    HW122187   0.137   1.130   3.382  1.7653  1.3720  2.0905
 3518SOL    HW222188   0.100   1.181   3.510  1.3907 -0.5958 -1.0374
 3519SOL     OW22189   3.925   4.181  14.887  0.3823 -0.0655  1.0372
 3519SOL    HW122190   3.950   4.123  14.815  0.2733  0.3470  0.6614
 3519SOL    HW222191   3.954   4.115  14.949 -0.3492  0.3739  1.8501
 3520SOL     OW22192   1.209   3.578   2.738 -0.5985 -0.0263  0.0721
 3520SOL    HW122193   1.282   3.534   2.781 -1.4194 -1.6989 -0.2449
 3520SOL    HW222194   1.165   3.625   2.809  0.9337  2.1741 -0.4214
 3521SOL     OW22195   1.733   2.738   4.443  0.0395  0.1738  0.0186
 3521SOL    HW122196   1.696   2.787   4.517 -0.6726 -2.0742  1.1510
 3521SOL    HW222197   1.728   2.653   4.486 -0.3301  0.9486  1.5267
 3522SOL     OW22198   4.133   2.044   6.025  0.1125 -0.2317  0.7620
 3522SOL    HW122199   4.048   2.078   6.052 -0.4507 -0.6530 -0.4544
 3522SOL    HW222200   4.168   2.129   5.999  0.6138 -0.4559  0.7170
 3523SOL     OW22201   1.693   1.489   8.498  0.3786 -0.2406 -0.0622
 3523SOL    HW122202   1.701   1.463   8.590 -1.1073 -0.3191  0.0496
 3523SOL    HW222203   1.659   1.577   8.516  0.8895 -0.3184  1.2484
 3524SOL     OW22204   3.204   3.724   3.575  0.3285 -0.5845  0.0996
 3524SOL    HW122205   3.250   3.800   3.541  0.1353 -0.4972  0.0406
 3524SOL    HW222206   3.134   3.761   3.628 -0.1996 -1.3733 -0.0361
 3525SOL     OW22207   3.090   3.859  16.034 -0.6003 -0.2681 -0.1283
 3525SOL    HW122208   3.073   3.952  16.022 -0.1635 -0.3455 -1.3566
 3525SOL    HW222209   3.028   3.840  16.105 -0.4648 -0.9197 -0.1817
 3526SOL     OW22210   2.053   3.706   8.816  0.1057 -0.5526  0.3247
 3526SOL    HW122211   2.011   3.626   8.849 -0.6966  0.0254  0.7099
 3526SOL    HW222212   2.131   3.722   8.868  0.7833 -0.6745 -0.6480
 3527SOL     OW22213   3.863   3.794   4.892 -0.2333  0.0555  0.1376
 3527SOL    HW122214   3.870   3.742   4.972 -1.4074  1.5900  1.2424
 3527SOL    HW222215   3.788   3.853   4.900 -0.2910 -0.0354  0.2525
 3528SOL     OW22216   4.280   4.020  13.116 -0.3155  0.1245 -0.5554
 3528SOL    HW122217   4.343   4.091  13.127  0.0077 -0.1956 -0.3711
 3528SOL    HW222218   4.203   4.063  13.155 -2.9027 -4.2543 -0.8105
 3529SOL     OW22219   3.459   3.310  11.558  0.1456 -0.0262 -0.0585
 3529SOL    HW122220   3.552   3.332  11.553  0.3351 -0.8636 -0.1758
 3529SOL    HW222221   3.437   3.311  11.651 -1.0002  0.2565 -0.3254
 3530SOL     OW22222   1.232   2.484   3.035  0.1941  0.4523  0.3560
 3530SOL    HW122223   1.303   2.517   3.090 -0.8396  2.5450  0.4451
 3530SOL    HW222224   1.221   2.390   3.043 -2.0683  0.5187 -1.8652
 3531SOL     OW22225   2.559   3.708  12.319 -0.1846 -0.5883 -0.0796
 3531SOL    HW122226   2.495   3.774  12.294 -0.3756 -1.1144 -0.9836
 3531SOL    HW222227   2.618   3.766  12.366  1.0535 -2.2533  0.4058
 3532SOL     OW22228   3.792   4.056   5.891 -0.4666 -0.2577  0.0591
 3532SOL    HW122229   3.766   4.145   5.867 -0.9697 -1.0119 -2.2118
 3532SOL    HW222230   3.790   4.060   5.986 -2.7741 -0.9023  0.0325
 3533SOL     OW22231   2.265   2.241  13.491 -0.1898  0.4654 -0.1687
 3533SOL    HW122232   2.225   2.319  13.530 -1.5600 -0.4318  0.2114
 3533SOL    HW222233   2.275   2.266  13.399 -0.7305 -0.0757 -0.3690
 3534SOL     OW22234   0.751   1.288  16.399 -0.3253  0.0691 -0.1316
 3534SOL    HW122235   0.821   1.311  16.338 -0.9636  2.7069  0.1296
 3534SOL    HW222236   0.731   1.195  16.386 -1.5255 -0.0277  2.5090
 3535SOL     OW22237   2.173   2.279   1.830  0.3465  0.2441  0.2311
 3535SOL    HW122238   2.110   2.208   1.815 -1.7360  1.9594  0.7887
 3535SOL    HW222239   2.188   2.273   1.924 -2.4882 -2.3008  0.5373
 3536SOL     OW22240   0.009   4.253   2.101  0.1766  0.3845  0.2702
 3536SOL    HW122241   4.666   4.300   2.122 -1.0528 -1.2228 -0.9194
 3536SOL    HW222242   0.063   4.327   2.074  0.8701 -0.2927 -0.1983
 3537SOL     OW22243   2.051   4.278   3.954  0.5925 -0.8480  0.2750
 3537SOL    HW122244   1.978   4.333   3.985  2.1769 -0.6963  3.7816
 3537SOL    HW222245   2.126   4.320   3.997 -0.5491  1.2674  0.2361
 3538SOL     OW22246   3.510   1.386   5.901 -0.5599 -0.7024  0.0595
 3538SOL    HW122247   3.570   1.413   5.971  0.1013  1.7233 -1.4670
 3538SOL    HW222248   3.553   1.304   5.878  1.1806  0.5188 -1.0660
 3539SOL     OW22249   1.435   2.468   4.031  0.7053  0.2389 -0.2087
 3539SOL    HW122250   1.389   2.547   4.002  1.0338  0.5026 -0.0158
 3539SOL    HW222251   1.436   2.485   4.125 -0.6143 -1.3555  0.0954
 3540SOL     OW22252   4.616   2.626   3.292  0.0392  0.0136  0.1711
 3540SOL    HW122253   4.562   2.703   3.311  1.4241  1.0827 -0.2591
 3540SOL    HW222254   4.687   2.670   3.245  0.4184 -0.4693  0.2994
 3541SOL     OW22255   3.761   1.691   3.398  0.1494 -0.4539 -0.1703
 3541SOL    HW122256   3.819   1.766   3.389 -0.1402 -0.2420 -0.2630
 3541SOL    HW222257   3.819   1.635   3.346 -0.8602 -0.5004 -1.2603
 3542SOL     OW22258   0.276   1.624   9.469 -0.0681 -0.4372 -0.3503
 3542SOL    HW122259   0.205   1.663   9.521  0.3915  0.9331 -0.7359
 3542SOL    HW222260   0.348   1.613   9.531 -0.4554 -0.2101  0.1413
 3543SOL     OW22261   0.073   2.070   6.414 -0.3265  0.0657  0.2033
 3543SOL    HW122262   4.727   2.068   6.367  1.2688  0.7852 -2.6970
 3543SOL    HW222263   0.099   2.162   6.415  0.6481 -0.2062  0.1398
 3544SOL     OW22264   3.850   2.652   3.578  0.4352  0.1285  0.4434
 3544SOL    HW122265   3.898   2.721   3.533 -1.9334  2.2472  1.1425
 3544SOL    HW222266   3.924   2.598   3.606  2.6510  2.6996 -0.5223
 3545SOL     OW22267   3.385   3.092   7.533  0.2276  0.2411 -0.6144
 3545SOL    HW122268   3.349   3.013   7.493 -0.0246 -1.1973  2.4555
 3545SOL    HW222269   3.474   3.063   7.554 -0.9716 -0.6617  3.3213
 3546SOL     OW22270   4.643   2.545   4.100  0.1471  0.0376  0.1341
 3546SOL    HW122271   4.677   2.572   4.015 -1.3968 -1.7935 -1.0729
 3546SOL    HW222272   4.697   2.468   4.121 -1.2213 -0.5079  1.6717
 3547SOL     OW22273   2.071   1.343   3.672 -0.4301 -0.1324 -0.0055
 3547SOL    HW122274   2.149   1.327   3.724 -0.0240 -1.1012 -0.9177
 3547SOL    HW222275   2.114   1.376   3.593 -1.9062  2.1432  0.1458
 3548SOL     OW22276   2.019   3.249   4.057 -0.0074 -0.3337 -0.6465
 3548SOL    HW122277   2.044   3.332   4.098  0.3282 -1.0623  0.6106
 3548SOL    HW222278   1.974   3.283   3.979  0.1513 -1.0900 -1.0622
 3549SOL     OW22279   1.708   0.749  16.071  0.0956 -0.0891 -0.0743
 3549SOL    HW122280   1.752   0.669  16.099 -1.9120 -0.8085  1.0964
 3549SOL    HW222281   1.701   0.741  15.976  2.0520 -0.5847 -0.1667
 3550SOL     OW22282   3.246   4.484   5.401 -0.0003  0.2664  0.6243
 3550SOL    HW122283   3.306   4.412   5.381  0.3467  0.9568 -0.8533
 3550SOL    HW222284   3.249   4.530   5.317 -1.5864 -0.5504  0.1294
 3551SOL     OW22285   4.375   1.996  10.719  0.4080 -0.2343  0.3670
 3551SOL    HW122286   4.418   2.026  10.799 -2.3047  1.5261  1.1616
 3551SOL    HW222287   4.322   2.071  10.690  0.3662  0.2885  1.8225
 3552SOL     OW22288   2.263   3.393   3.793 -0.1237 -0.5953  0.1257
 3552SOL    HW122289   2.337   3.348   3.753  0.3709 -1.9288  2.5591
 3552SOL    HW222290   2.204   3.392   3.717  2.0002 -0.2299 -1.5426
 3553SOL     OW22291   4.429   2.106   8.741 -0.1522 -0.0542 -0.1580
 3553SOL    HW122292   4.463   2.025   8.780  0.8378  0.1071 -0.6784
 3553SOL    HW222293   4.379   2.134   8.817 -0.0360 -0.2719 -0.0030
 3554SOL     OW22294   1.097   4.723   0.001  0.2064 -0.3403  0.1444
 3554SOL    HW122295   1.162   4.700  17.684  0.9318  3.0960 -0.3618
 3554SOL    HW222296   1.072   4.635   0.028 -2.3867  0.8013  1.4380
 3555SOL     OW22297   3.129   2.173   3.127  0.0615  0.2913  0.4482
 3555SOL    HW122298   3.072   2.189   3.203  0.3991  0.6848  0.6135
 3555SOL    HW222299   3.129   2.254   3.077  1.6554  0.7326  1.1729
 3556SOL     OW22300   4.673   4.603  12.652 -0.2208 -0.0210  0.4917
 3556SOL    HW122301   4.637   4.519  12.627 -0.2242  0.9581 -2.7947
 3556SOL    HW222302   4.602   4.633  12.709 -0.0029 -0.4838  1.0039
 3557SOL     OW22303   1.307   2.546   8.136  0.0547 -0.0617 -0.3448
 3557SOL    HW122304   1.251   2.610   8.179 -0.6221 -2.1737  1.8923
 3557SOL    HW222305   1.257   2.474   8.174  2.0180 -2.1250 -1.6486
 3558SOL     OW22306   2.635   2.930   4.880  0.4603 -0.4459 -0.8912
 3558SOL    HW122307   2.541   2.943   4.886  0.5880 -1.2647  2.6111
 3558SOL    HW222308   2.656   2.905   4.970  0.5678  1.8054 -0.2986
 3559SOL     OW22309   4.006   3.421  17.748  0.1886  0.0912  0.0444
 3559SOL    HW122310   4.021   3.454   0.088 -2.6242  4.4060 -1.0432
 3559SOL    HW222311   3.911   3.407   0.007  0.6319 -2.3179  0.9529
 3560SOL     OW22312   0.179   3.043   5.843  0.2987 -0.2422 -0.0942
 3560SOL    HW122313   0.271   3.054   5.869 -0.4941  0.9825  2.2257
 3560SOL    HW222314   0.179   2.952   5.814 -0.6249 -0.2851  0.0692
 3561SOL     OW22315   1.273   3.932  13.540 -0.2045  0.0655 -0.1743
 3561SOL    HW122316   1.222   4.007  13.509  1.3373  1.2769  0.1958
 3561SOL    HW222317   1.299   3.964  13.627  0.9677  2.3959 -1.3723
 3562SOL     OW22318   4.539   2.349  11.323 -0.4403  0.5243  0.3750
 3562SOL    HW122319   4.589   2.419  11.280 -0.5068  0.4278  0.1395
 3562SOL    HW222320   4.451   2.373  11.293 -1.3798 -3.0481  0.3068
 3563SOL     OW22321   4.025   4.336  13.091 -0.0584  0.5149  0.2225
 3563SOL    HW122322   3.931   4.353  13.098 -0.0666 -0.2825  2.0268
 3563SOL    HW222323   4.046   4.339  12.998  0.1494 -0.7299  0.2250
 3564SOL     OW22324   2.380   4.512  10.922 -0.1913 -0.1202 -0.0343
 3564SOL    HW122325   2.439   4.581  10.952 -0.1045 -0.9142  1.6311
 3564SOL    HW222326   2.383   4.450  10.995 -1.0012  0.8101  0.7821
 3565SOL     OW22327   1.940   3.926   1.843 -0.4135 -0.4740  0.6377
 3565SOL    HW122328   1.970   3.857   1.901  1.4236 -0.6511 -0.5176
 3565SOL    HW222329   1.932   3.875   1.762 -2.5986  1.4551 -0.3662
 3566SOL     OW22330   0.921   2.262   6.965 -0.2231  0.0220  0.4630
 3566SOL    HW122331   0.991   2.214   6.921 -1.1896 -0.1800 -0.8696
 3566SOL    HW222332   0.962   2.330   7.018 -0.7722 -0.1471  1.1207
 3567SOL     OW22333   4.353   1.882  11.673 -0.0213  0.7652  0.1825
 3567SOL    HW122334   4.374   1.789  11.665  0.1702  0.7435  0.9526
 3567SOL    HW222335   4.310   1.882  11.758 -0.4811 -2.2116 -0.0649
 3568SOL     OW22336   4.393   2.692  15.426 -0.4060 -0.3993  0.5281
 3568SOL    HW122337   4.316   2.696  15.370 -0.1241  1.3934  0.2517
 3568SOL    HW222338   4.369   2.609  15.467 -0.4148 -0.3747  0.5728
 3569SOL     OW22339   2.068   0.261   3.543 -0.3899  0.1322 -0.5030
 3569SOL    HW122340   2.070   0.238   3.636 -1.1892 -1.6319 -0.9171
 3569SOL    HW222341   2.160   0.286   3.541 -0.7352  1.5842  1.5960
 3570SOL     OW22342   2.212   3.691   5.331 -0.4929 -0.1840  0.3646
 3570SOL    HW122343   2.308   3.688   5.332 -0.4819  0.2734  0.5215
 3570SOL    HW222344   2.197   3.634   5.406  1.3525 -0.6151  0.3913
 3571SOL     OW22345   3.782   0.013  11.739  0.1920 -0.1664  0.1375
 3571SOL    HW122346   3.718   4.707  11.683  1.4694 -1.2276 -0.4694
 3571SOL    HW222347   3.798   0.097  11.697  0.7062  0.3039  1.2661
 3572SOL     OW22348   3.289   4.289  14.591  0.4517 -0.0175  0.4534
 3572SOL    HW122349   3.315   4.380  14.581 -0.3873  0.2376  0.5698
 3572SOL    HW222350   3.213   4.293  14.532  1.8917 -0.8290 -1.4594
 3573SOL     OW22351   2.941   4.332   5.177  0.2665 -0.2519  0.0544
 3573SOL    HW122352   3.035   4.317   5.193 -0.1470 -1.2221  1.5702
 3573SOL    HW222353   2.946   4.339   5.082 -0.1437 -0.4441  0.0205
 3574SOL     OW22354   2.048   3.071  12.053  0.4193  0.2605  0.2350
 3574SOL    HW122355   2.029   3.046  12.144 -3.3498  2.2984 -0.0133
 3574SOL    HW222356   1.963   3.110  12.036  0.5166  0.6921  0.7463
 3575SOL     OW22357   1.938   4.320   4.839  0.0376  0.1916  0.1271
 3575SOL    HW122358   1.882   4.361   4.905  1.0478  1.5240  0.1558
 3575SOL    HW222359   1.957   4.236   4.881  0.0534  1.2340  2.2086
 3576SOL     OW22360   3.961   1.376   3.908 -0.1149  0.4559 -0.3604
 3576SOL    HW122361   3.993   1.286   3.914 -1.8406 -0.2273 -1.4973
 3576SOL    HW222362   3.867   1.357   3.906 -0.1602  0.4697  1.3679
 3577SOL     OW22363   0.070   2.874   3.574  0.3980 -0.3868 -0.6041
 3577SOL    HW122364   0.025   2.818   3.511  0.5234  0.7712 -1.7092
 3577SOL    HW222365   0.047   2.964   3.554  2.7764  0.4363  0.3369
 3578SOL     OW22366   4.339   0.403   5.740  0.5757 -0.2114  0.6489
 3578SOL    HW122367   4.431   0.377   5.734  0.8395  0.6784  0.8444
 3578SOL    HW222368   4.364   0.493   5.721  0.2108 -0.3643 -0.5591
 3579SOL     OW22369   3.060   4.284   5.563 -0.3267  0.2123  0.0050
 3579SOL    HW122370   2.973   4.321   5.574 -0.8295 -0.2805 -2.2161
 3579SOL    HW222371   3.089   4.352   5.502  0.0796  0.7749  0.8228
 3580SOL     OW22372   2.987   3.740  10.483 -0.4842 -0.3025  0.1053
 3580SOL    HW122373   3.027   3.672  10.430  1.6137  0.2360  1.0079
 3580SOL    HW222374   2.996   3.818  10.428  0.3503  1.0349  2.1493
 3581SOL     OW22375   0.952   3.066   4.246 -0.3852  0.6805 -0.1022
 3581SOL    HW122376   1.015   3.080   4.317 -1.2270 -0.0136  0.7865
 3581SOL    HW222377   0.967   2.972   4.245 -0.6654  0.6317  0.0963
 3582SOL     OW22378   0.701   3.221   5.879 -0.4358 -0.2428  0.2178
 3582SOL    HW122379   0.611   3.190   5.886 -0.5222  0.1522  0.8452
 3582SOL    HW222380   0.754   3.141   5.873  0.8085  0.6481 -0.8180
 3583SOL     OW22381   4.566   0.639   5.892 -0.2728  0.1537  0.3518
 3583SOL    HW122382   4.514   0.620   5.814 -2.8195  4.6249  0.9698
 3583SOL    HW222383   4.497   0.663   5.953 -0.1186  0.7637  0.2849
 3584SOL     OW22384   1.292   2.619  16.763 -0.5751  0.3281 -0.4051
 3584SOL    HW122385   1.229   2.601  16.832  2.2517  2.8149  2.8408
 3584SOL    HW222386   1.373   2.605  16.812 -0.3316 -2.5509 -1.6105
 3585SOL     OW22387   2.535   4.540  14.082  0.5754 -0.0283  0.5343
 3585SOL    HW122388   2.489   4.533  14.166  1.5150  0.1795  1.0612
 3585SOL    HW222389   2.604   4.477  14.103  0.1212 -0.7126 -0.0149
 3586SOL     OW22390   4.566   4.287   7.487  0.0590  0.6082  0.3851
 3586SOL    HW122391   4.549   4.299   7.393 -0.1153  1.4677  0.5325
 3586SOL    HW222392   4.523   4.204   7.507 -0.3223  0.5412 -0.6695
 3587SOL     OW22393   0.727   1.814   7.131 -0.0557 -0.3863 -0.0535
 3587SOL    HW122394   0.721   1.788   7.039  0.5782 -3.2043  0.7189
 3587SOL    HW222395   0.659   1.882   7.132  1.8306  1.5073 -0.1716
 3588SOL     OW22396   4.493   3.239   3.769  0.3242  0.3410 -0.2983
 3588SOL    HW122397   4.550   3.299   3.817  1.2721  0.3808 -1.4544
 3588SOL    HW222398   4.506   3.162   3.824  0.3034  0.5461 -0.0076
 3589SOL     OW22399   1.803   2.637   0.563 -0.3543 -0.0864 -0.3598
 3589SOL    HW122400   1.779   2.696   0.634  1.5365 -0.5441  0.6607
 3589SOL    HW222401   1.740   2.567   0.581 -1.5311  0.9680 -0.4207
 3590SOL     OW22402   1.443   4.497   6.854  0.3863  0.4882 -0.2895
 3590SOL    HW122403   1.428   4.501   6.760 -0.8135  0.0386 -0.1127
 3590SOL    HW222404   1.491   4.580   6.853  0.3247  0.5146 -1.2659
 3591SOL     OW22405   0.053   1.211   2.873  0.1333 -0.0371  0.3216
 3591SOL    HW122406   0.034   1.126   2.911  0.9587  0.4895  1.9154
 3591SOL    HW222407   0.025   1.266   2.946 -2.5742  0.1355 -0.8479
 3592SOL     OW22408   2.242   0.524   6.948 -0.1941 -0.4111 -0.1125
 3592SOL    HW122409   2.211   0.486   7.029 -1.4830  0.0962 -0.3639
 3592SOL    HW222410   2.308   0.459   6.925 -0.2597 -0.8562  0.9716
 3593SOL     OW22411   1.811   0.685   4.050 -0.6483 -0.1304 -0.5243
 3593SOL    HW122412   1.833   0.678   4.143 -0.9637 -0.0757 -0.4436
 3593SOL    HW222413   1.884   0.730   4.009  0.3321  0.3268  1.7584
 3594SOL     OW22414   3.812   3.666   2.487 -0.2990 -0.3063  0.3445
 3594SOL    HW122415   3.765   3.704   2.413  2.3045 -0.7589 -1.5219
 3594SOL    HW222416   3.796   3.729   2.557  2.0252  1.1905 -0.5159
 3595SOL     OW22417   1.214   4.684  14.629 -0.1736  0.3063 -0.2803
 3595SOL    HW122418   1.297   4.656  14.667 -0.7059 -0.8744  0.0440
 3595SOL    HW222419   1.206   4.622  14.556 -1.7923 -0.0981  0.2258
 3596SOL     OW22420   1.681   0.447  10.760  0.3049 -0.2015  0.0838
 3596SOL    HW122421   1.648   0.418  10.675  0.4299  1.0942 -0.4014
 3596SOL    HW222422   1.719   0.535  10.752 -0.5213  0.2460  1.0746
 3597SOL     OW22423   3.771   2.783   7.401  0.2607  0.1020 -0.0623
 3597SOL    HW122424   3.840   2.804   7.338 -0.2829  0.6222 -0.4804
 3597SOL    HW222425   3.810   2.789   7.489 -2.6989  1.6685  1.1294
 3598SOL     OW22426   3.343   0.066  17.352  0.1351 -0.6669  0.5261
 3598SOL    HW122427   3.308   0.138  17.300  0.3849 -2.0253 -1.5323
 3598SOL    HW222428   3.399   0.020  17.290  0.0433  1.1331 -0.8921
 3599SOL     OW22429   1.444   0.960  14.406  0.2731  0.0061 -0.3821
 3599SOL    HW122430   1.353   0.931  14.403  0.0138  0.6904  0.6698
 3599SOL    HW222431   1.460   0.940  14.498 -1.9862 -0.7553 -0.1489
 3600SOL     OW22432   1.259   1.807   7.549  1.1403 -0.6869  0.0799
 3600SOL    HW122433   1.327   1.870   7.524 -0.0568  0.4636 -0.2781
 3600SOL    HW222434   1.292   1.766   7.628 -0.1304 -0.1602  0.8786
 3601SOL     OW22435   4.709   2.387   8.804 -0.3011  0.0915  0.1905
 3601SOL    HW122436   0.015   2.303   8.814 -0.3868  0.2061  1.4773
 3601SOL    HW222437   0.039   2.440   8.845 -2.6683  2.4176  1.1149
 3602SOL     OW22438   0.543   1.694   9.571  0.3271 -0.1596  0.7009
 3602SOL    HW122439   0.513   1.785   9.563 -2.9178 -1.3680 -1.0895
 3602SOL    HW222440   0.636   1.714   9.561  0.4077 -0.9534 -0.1482
 3603SOL     OW22441   1.989   4.550  11.371 -0.2136 -0.2631  0.0134
 3603SOL    HW122442   1.904   4.590  11.357  1.1157  1.0916 -3.9264
 3603SOL    HW222443   2.038   4.617  11.418 -1.0876  1.0630 -0.9827
 3604SOL     OW22444   3.096   2.619   1.606 -0.2990  0.3809 -0.1899
 3604SOL    HW122445   3.080   2.711   1.582 -1.1524 -0.1329 -1.6137
 3604SOL    HW222446   3.192   2.624   1.599 -0.2765  1.1646  0.7577
 3605SOL     OW22447   2.489   1.453   7.695 -0.7190  0.4779  0.2222
 3605SOL    HW122448   2.528   1.390   7.755 -0.0084 -0.4824 -1.2494
 3605SOL    HW222449   2.439   1.388   7.647 -1.9772  2.5777 -1.2858
 3606SOL     OW22450   2.227   2.336   3.968  0.3050  0.4325  0.4046
 3606SOL    HW122451   2.157   2.382   3.922  1.4032  2.0522  0.3551
 3606SOL    HW222452   2.290   2.319   3.898 -1.5845  3.2958 -1.9822
 3607SOL     OW22453   3.631   0.259   5.052 -0.0488 -0.1545 -0.2955
 3607SOL    HW122454   3.623   0.280   4.960 -0.6078 -0.2507 -0.2656
 3607SOL    HW222455   3.595   0.171   5.063 -1.7766  0.8579  2.2875
 3608SOL     OW22456   4.006   3.618   2.092 -0.0709 -0.6723  0.1271
 3608SOL    HW122457   4.101   3.629   2.080 -0.1488  1.2062  1.1627
 3608SOL    HW222458   3.962   3.671   2.025  2.9312 -0.8662 -2.0005
 3609SOL     OW22459   3.737   1.670  14.986  0.4628  0.0144 -0.1060
 3609SOL    HW122460   3.806   1.733  15.008  0.4070  0.1047 -0.1946
 3609SOL    HW222461   3.752   1.603  15.053  0.0770 -0.3684 -0.4106
 3610SOL     OW22462   1.626   3.386   7.193  0.2448  0.7062  0.6107
 3610SOL    HW122463   1.619   3.291   7.185 -1.7852  0.9420 -0.3747
 3610SOL    HW222464   1.717   3.402   7.167  0.4595 -2.1313 -0.2949
 3611SOL     OW22465   3.771   2.326   9.473 -0.1844 -0.6474 -0.1369
 3611SOL    HW122466   3.774   2.233   9.496  0.9216 -0.7978 -0.8616
 3611SOL    HW222467   3.743   2.325   9.382  0.0900 -1.2960 -0.2085
 3612SOL     OW22468   2.812   1.678   6.542  0.0435 -0.0229 -0.0065
 3612SOL    HW122469   2.860   1.736   6.483  0.0187  1.5273  1.4965
 3612SOL    HW222470   2.728   1.675   6.497 -0.5414  0.5668  1.0683
 3613SOL     OW22471   3.580   0.355   4.787 -0.4442  0.3100  0.0679
 3613SOL    HW122472   3.565   0.398   4.703 -0.7658  1.1153  0.5281
 3613SOL    HW222473   3.668   0.320   4.777 -0.7140 -0.2858 -0.2229
 3614SOL     OW22474   2.562   4.506   0.233  0.0982 -0.5067  0.7809
 3614SOL    HW122475   2.520   4.579   0.280  0.6973 -0.3562  1.0893
 3614SOL    HW222476   2.634   4.497   0.295  1.1173 -0.1535 -0.3521
 3615SOL     OW22477   3.705   3.723  14.716 -0.2799  0.4357  0.1078
 3615SOL    HW122478   3.733   3.662  14.785 -2.2316 -0.5810  0.0141
 3615SOL    HW222479   3.609   3.728  14.720 -0.2215  1.6678 -0.0297
 3616SOL     OW22480   3.591   4.340   9.313  0.3819 -0.1849  0.2318
 3616SOL    HW122481   3.588   4.249   9.343  0.7721 -0.3567 -0.2493
 3616SOL    HW222482   3.501   4.372   9.322  1.8773  4.3937 -0.8028
 3617SOL     OW22483   3.115   3.398   9.421  0.3268 -0.1654  0.1747
 3617SOL    HW122484   3.118   3.375   9.328 -2.2763  0.4112 -0.0492
 3617SOL    HW222485   3.048   3.339   9.456  0.1256 -0.6836 -1.0597
 3618SOL     OW22486   2.353   1.196   2.374 -0.2993  0.9271 -0.3337
 3618SOL    HW122487   2.328   1.271   2.320 -0.5120  0.7056 -0.5413
 3618SOL    HW222488   2.439   1.172   2.338 -1.4251 -0.2538 -2.2187
 3619SOL     OW22489   0.116   2.375  14.131 -0.1650 -0.1023  0.2116
 3619SOL    HW122490   0.172   2.298  14.122  1.7366  1.4181 -0.8816
 3619SOL    HW222491   0.186   2.433  14.104 -0.5546 -0.2796 -1.1545
 3620SOL     OW22492   1.228   3.126   1.475  0.2119 -0.0440  0.2384
 3620SOL    HW122493   1.182   3.063   1.530 -0.7621  0.7863  0.3714
 3620SOL    HW222494   1.155   3.177   1.440 -0.6896 -0.7157  1.1740
 3621SOL     OW22495   2.332   4.731  16.751  0.2404 -0.6226  0.3549
 3621SOL    HW122496   2.265   0.053  16.784 -1.0096 -1.0021 -1.4751
 3621SOL    HW222497   2.282   4.693  16.678  1.4397  1.1366 -1.3755
 3622SOL     OW22498   0.392   2.488   4.833 -0.2859 -0.1678  0.3118
 3622SOL    HW122499   0.299   2.469   4.845 -0.3550 -0.5259 -0.8204
 3622SOL    HW222500   0.411   2.453   4.746 -0.6289 -1.2311  0.6518
 3623SOL     OW22501   2.811   2.361   8.018  0.0931 -0.4784  0.1571
 3623SOL    HW122502   2.888   2.400   7.977 -0.2225  0.0593  0.0795
 3623SOL    HW222503   2.740   2.381   7.957 -1.1550 -0.1051  1.7121
 3624SOL     OW22504   1.339   2.632   8.980  0.4233  0.1551 -0.0687
 3624SOL    HW122505   1.309   2.676   8.901  0.4033 -4.1082 -2.3973
 3624SOL    HW222506   1.356   2.543   8.950 -0.5190 -0.6703  1.8606
 3625SOL     OW22507   4.058   0.351   1.378  0.1344 -0.2669  0.1397
 3625SOL    HW122508   3.992   0.370   1.311 -0.1521  2.4890  1.1919
 3625SOL    HW222509   4.137   0.392   1.346  1.0198  0.9720  3.9031
 3626SOL     OW22510   2.647   1.745   5.458 -0.3101  0.2299 -0.3585
 3626SOL    HW122511   2.584   1.795   5.510 -1.7929 -0.7804 -1.1690
 3626SOL    HW222512   2.667   1.677   5.522 -0.3767 -1.7216 -2.3846
 3627SOL     OW22513   3.253   1.361   7.098  0.3844 -0.8129 -0.3274
 3627SOL    HW122514   3.230   1.408   7.018  1.8043 -1.3223 -1.0203
 3627SOL    HW222515   3.348   1.361   7.095  0.3555 -1.8750 -1.0261
 3628SOL     OW22516   0.353   4.115   8.817 -0.0743 -0.4542  0.2369
 3628SOL    HW122517   0.333   4.107   8.724 -0.1005 -2.3553  0.4139
 3628SOL    HW222518   0.440   4.077   8.814  1.0535  2.2046 -0.4477
 3629SOL     OW22519   4.328   1.306   3.956 -0.5248  0.2847 -0.1623
 3629SOL    HW122520   4.266   1.374   3.928 -0.9283 -1.1976 -2.7985
 3629SOL    HW222521   4.259   1.245   3.981  0.6803 -0.4393  1.3588
 3630SOL     OW22522   4.722   2.791   8.531 -0.1967  0.2658  1.2380
 3630SOL    HW122523   0.009   2.699   8.517 -2.0859 -0.5223  3.1759
 3630SOL    HW222524   4.703   2.825   8.444 -0.9712 -1.5144  0.7059
 3631SOL     OW22525   2.540   3.829  15.089  0.0620  0.8387 -0.0536
 3631SOL    HW122526   2.450   3.860  15.095 -0.9388 -1.8146 -1.9206
 3631SOL    HW222527   2.550   3.819  14.995 -0.7338 -0.3360 -0.0020
 3632SOL     OW22528   1.898   4.137   2.336 -0.9850 -0.2297 -0.7069
 3632SOL    HW122529   1.817   4.187   2.331 -0.0384  1.2914 -0.8859
 3632SOL    HW222530   1.860   4.049   2.331 -0.7269 -0.3400 -0.7481
 3633SOL     OW22531   4.517   3.407  16.209 -0.0073  0.3102 -0.0195
 3633SOL    HW122532   4.471   3.375  16.286 -0.2786 -0.8390 -0.6564
 3633SOL    HW222533   4.472   3.351  16.146 -1.5802  0.1881  1.2134
 3634SOL     OW22534   1.257   4.668  10.918  0.1288 -0.0881 -0.5884
 3634SOL    HW122535   1.306   4.723  10.858  1.8259 -0.3946  0.5078
 3634SOL    HW222536   1.189   4.629  10.862  0.6525 -1.2863 -0.3928
 3635SOL     OW22537   1.005   1.386  15.532 -0.7223  0.1359  0.6503
 3635SOL    HW122538   0.984   1.342  15.450  1.0458  0.3750  0.0546
 3635SOL    HW222539   0.999   1.320  15.602  0.8432 -1.1033 -0.3654
 3636SOL     OW22540   4.654   0.790   2.113 -0.2012 -0.0395 -0.1286
 3636SOL    HW122541   4.604   0.758   2.188 -1.0315 -1.8761 -1.4740
 3636SOL    HW222542   4.659   0.883   2.135 -2.2279  0.3889 -1.5204
 3637SOL     OW22543   1.597   3.110   7.203  0.0790 -0.4541  0.2491
 3637SOL    HW122544   1.589   3.035   7.144  2.3374  1.6554 -2.7344
 3637SOL    HW222545   1.643   3.069   7.276 -1.0475  0.0950  1.2573
 3638SOL     OW22546   2.473   1.468  10.212  0.2854  0.8388  0.1530
 3638SOL    HW122547   2.445   1.399  10.272 -1.8767  1.4313 -0.1674
 3638SOL    HW222548   2.567   1.454  10.214  0.0060 -0.7927  1.6036
 3639SOL     OW22549   2.931   1.149   7.399  0.0229  0.0303 -0.8723
 3639SOL    HW122550   3.015   1.180   7.364  0.1627  0.1210 -0.4604
 3639SOL    HW222551   2.944   1.124   7.491 -1.8195  0.8682 -0.3876
 3640SOL     OW22552   2.989   1.868  10.083 -0.1458 -0.2286  0.3668
 3640SOL    HW122553   2.895   1.858  10.097  0.3994  0.3078  4.6454
 3640SOL    HW222554   3.001   1.804  10.013  1.5594 -0.3050  0.7177
 3641SOL     OW22555   1.617   1.912  13.628 -0.0910  0.4364 -0.2026
 3641SOL    HW122556   1.560   1.870  13.564  1.1781 -0.5369 -0.6913
 3641SOL    HW222557   1.560   1.934  13.702 -0.8280 -1.0968 -0.3094
 3642SOL     OW22558   0.898   3.423  16.171 -0.0840 -0.0913  0.2520
 3642SOL    HW122559   0.914   3.344  16.120 -0.1467  0.1212 -0.1012
 3642SOL    HW222560   0.803   3.432  16.158  0.3052  1.4718 -1.5542
 3643SOL     OW22561   4.355   3.814   7.020  0.3224 -0.6037  0.1789
 3643SOL    HW122562   4.445   3.844   7.010  0.7118 -1.6000  0.7978
 3643SOL    HW222563   4.308   3.860   6.950  0.1699 -3.0646 -1.3647
 3644SOL     OW22564   4.006   4.708  16.074 -0.0806 -0.0811  0.1569
 3644SOL    HW122565   3.918   4.730  16.042 -0.5384 -0.4607  1.1586
 3644SOL    HW222566   3.990   4.622  16.113 -1.5831 -0.0716 -0.4026
 3645SOL     OW22567   4.002   0.676   7.815 -0.4970  0.4423  0.2596
 3645SOL    HW122568   3.930   0.713   7.765 -0.4570  1.0703  0.6700
 3645SOL    HW222569   3.983   0.582   7.826  0.4538  0.6035  3.2905
 3646SOL     OW22570   3.907   0.038   1.875  1.1080 -0.1813  0.0279
 3646SOL    HW122571   3.858   0.120   1.869 -0.1260 -0.9524 -0.3930
 3646SOL    HW222572   3.832   4.718   1.889  0.9050  0.5392  1.8489
 3647SOL     OW22573   2.019   0.310   0.386  0.3762  0.4203  0.1015
 3647SOL    HW122574   2.112   0.321   0.406  0.7401 -1.9409 -0.3158
 3647SOL    HW222575   2.012   0.243   0.318  1.4397  1.5117 -1.0922
 3648SOL     OW22576   1.122   0.943   8.320  0.0134 -0.4721  0.0207
 3648SOL    HW122577   1.206   0.916   8.284 -0.2461  0.4198 -1.2565
 3648SOL    HW222578   1.100   1.017   8.263 -0.8176 -1.0801 -0.4475
 3649SOL     OW22579   2.640   4.219   7.465  0.3919 -0.1202  0.5107
 3649SOL    HW122580   2.616   4.311   7.457 -1.0412 -0.5456 -0.1244
 3649SOL    HW222581   2.710   4.215   7.399  0.3512  1.3850  0.3746
 3650SOL     OW22582   1.499   4.669   9.033 -0.0955  0.4815 -0.7945
 3650SOL    HW122583   1.563   4.647   8.966 -1.5289 -2.9034 -1.0275
 3650SOL    HW222584   1.435   4.598   9.024 -0.2033  0.5257 -0.3880
 3651SOL     OW22585   1.763   3.965   9.609  0.1879  0.2507  0.0599
 3651SOL    HW122586   1.699   3.905   9.648  0.5878  0.7328  1.4685
 3651SOL    HW222587   1.848   3.919   9.608  0.4234  0.7256 -0.8724
 3652SOL     OW22588   2.031   0.024   1.062 -0.1377  0.1005  0.1738
 3652SOL    HW122589   2.063   4.690   1.007 -1.9991  0.2691 -1.1523
 3652SOL    HW222590   1.952   4.729   1.104  0.8325  1.2966  2.9166
 3653SOL     OW22591   3.650   2.542  12.821 -0.8044  0.3039  0.8477
 3653SOL    HW122592   3.575   2.583  12.863  2.1934  3.0547  3.5124
 3653SOL    HW222593   3.612   2.482  12.757  0.0008 -1.5325  2.0624
 3654SOL     OW22594   2.271   3.858   1.737  0.4451 -0.3640  0.1019
 3654SOL    HW122595   2.277   3.951   1.756 -0.9635 -0.0468 -1.0659
 3654SOL    HW222596   2.229   3.831   1.819  0.4471  0.1363  0.2679
 3655SOL     OW22597   0.778   0.683   4.218  0.4794  0.0321 -0.4143
 3655SOL    HW122598   0.767   0.707   4.126 -2.5795 -0.4681 -0.1817
 3655SOL    HW222599   0.694   0.637   4.224  0.0713  0.8372  0.0429
 3656SOL     OW22600   2.779   4.342  15.846 -0.3989  0.2545  0.0414
 3656SOL    HW122601   2.745   4.314  15.931 -0.0994  1.0898  0.4312
 3656SOL    HW222602   2.862   4.380  15.874 -0.0646 -1.4490  1.3903
 3657SOL     OW22603   2.481   3.262   3.678  0.0175  0.2209 -0.0677
 3657SOL    HW122604   2.528   3.200   3.622 -0.0968  0.1858 -0.1252
 3657SOL    HW222605   2.548   3.281   3.743  2.1829 -2.0595 -1.6317
 3658SOL     OW22606   3.491   0.582   5.928  0.0844 -0.1943 -0.2091
 3658SOL    HW122607   3.573   0.629   5.946  0.1192 -0.5959  0.6816
 3658SOL    HW222608   3.454   0.562   6.014  1.1989  2.1324  0.8325
 3659SOL     OW22609   4.243   2.990   3.665  0.5940  0.0347 -0.7078
 3659SOL    HW122610   4.334   2.967   3.645  0.8190  0.2731  0.0247
 3659SOL    HW222611   4.242   3.076   3.622 -1.7277 -0.2698 -1.2536
 3660SOL     OW22612   2.846   0.019   2.759 -0.0740 -0.2896  0.0592
 3660SOL    HW122613   2.934   0.026   2.795 -0.4091  1.1429  0.5951
 3660SOL    HW222614   2.821   0.110   2.771  0.1383 -0.5535  2.5813
 3661SOL     OW22615   4.632   3.702   0.359  0.0002  0.1719  0.3350
 3661SOL    HW122616   4.696   3.773   0.360  1.3679 -1.0459 -0.5300
 3661SOL    HW222617   4.593   3.713   0.273  0.5621 -1.9961 -0.2125
 3662SOL     OW22618   4.418   3.619   2.880  0.9269  0.2414  0.1009
 3662SOL    HW122619   4.479   3.691   2.862 -0.5572  0.8272 -2.6366
 3662SOL    HW222620   4.462   3.588   2.959  0.9677 -1.1021 -0.4583
 3663SOL     OW22621   2.181   0.665   3.824  0.0362  0.1217  0.2668
 3663SOL    HW122622   2.224   0.594   3.872  0.9648  0.5304  0.0468
 3663SOL    HW222623   2.150   0.722   3.895 -2.8488 -0.5941 -0.4196
 3664SOL     OW22624   2.455   2.917   5.774  0.4783  0.2025 -0.1656
 3664SOL    HW122625   2.523   2.922   5.841  1.4504  1.9762 -1.2924
 3664SOL    HW222626   2.473   2.829   5.739 -2.2755 -1.1243  1.7030
 3665SOL     OW22627   1.478   2.908   7.711  0.4479 -0.0336  0.2979
 3665SOL    HW122628   1.465   2.979   7.774  0.2901  1.0147 -0.9131
 3665SOL    HW222629   1.502   2.832   7.764  0.7687 -0.3899 -0.3595
 3666SOL     OW22630   1.824   0.698   1.256  0.5102 -0.1033  0.0315
 3666SOL    HW122631   1.755   0.708   1.322 -0.6666 -2.8876 -0.7509
 3666SOL    HW222632   1.899   0.708   1.314 -1.4204  4.1320  1.7795
 3667SOL     OW22633   4.632   1.585   7.154  0.2236  0.1959 -0.3946
 3667SOL    HW122634   4.651   1.652   7.088 -1.2765  1.5278  0.5245
 3667SOL    HW222635   4.562   1.629   7.203  0.8553  1.9842 -1.0890
 3668SOL     OW22636   2.694   0.799   5.816 -0.3520  0.3719 -0.0779
 3668SOL    HW122637   2.754   0.796   5.742  1.5088 -0.5152  1.4415
 3668SOL    HW222638   2.629   0.863   5.789 -0.3050 -0.0422 -1.1413
 3669SOL     OW22639   3.793   3.654  12.069  0.3304  0.6436 -0.4169
 3669SOL    HW122640   3.703   3.685  12.081  0.3251  0.9102 -1.1689
 3669SOL    HW222641   3.785   3.559  12.075  1.0777  0.7297  2.3506
 3670SOL     OW22642   3.507   2.192   2.016  0.2067  0.4634 -0.0981
 3670SOL    HW122643   3.528   2.226   1.929 -0.9347 -1.3581 -1.0943
 3670SOL    HW222644   3.592   2.212   2.054  0.4094  1.6111 -1.1509
 3671SOL     OW22645   2.127   2.695  15.539 -0.6780  0.1273  0.0423
 3671SOL    HW122646   2.131   2.619  15.479 -0.8786 -0.4857  0.8113
 3671SOL    HW222647   2.037   2.694  15.570 -1.0054 -0.4876 -0.9157
 3672SOL     OW22648   0.676   3.176  16.316 -0.3266 -0.4480  0.4968
 3672SOL    HW122649   0.617   3.225  16.259 -0.3353  1.5686  2.2192
 3672SOL    HW222650   0.703   3.101  16.262 -0.8692  0.7765 -1.4606
 3673SOL     OW22651   3.615   4.517  10.539 -0.6638  0.2505 -0.3086
 3673SOL    HW122652   3.637   4.609  10.557  1.0418 -0.4809  1.4313
 3673SOL    HW222653   3.671   4.478  10.607  0.1496  0.0779 -1.0823
 3674SOL     OW22654   1.176   3.333  14.738 -0.9057 -0.0875  0.0826
 3674SOL    HW122655   1.156   3.339  14.832  0.6036  0.3833  0.3807
 3674SOL    HW222656   1.269   3.355  14.735 -0.6871 -1.6300 -3.6997
 3675SOL     OW22657   3.164   3.520   2.912 -0.0255  0.2750  0.4584
 3675SOL    HW122658   3.104   3.524   2.838  0.4684  3.2353  0.2257
 3675SOL    HW222659   3.249   3.520   2.867  0.4249 -1.0018  1.2896
 3676SOL     OW22660   2.650   2.708   1.389  0.1007  0.4943  0.0156
 3676SOL    HW122661   2.570   2.656   1.383  0.9532 -0.8113 -0.2727
 3676SOL    HW222662   2.711   2.642   1.424 -0.7291 -0.6084 -0.6446
 3677SOL     OW22663   4.443   3.054   6.450  0.3166  0.6885 -0.3383
 3677SOL    HW122664   4.521   3.034   6.399  1.9269  2.1805  1.5170
 3677SOL    HW222665   4.440   3.148   6.431  0.2647  0.8628  0.5311
 3678SOL     OW22666   3.745   3.974   8.385  0.4953 -0.0918  0.4235
 3678SOL    HW122667   3.739   4.024   8.304  2.3424 -2.3784 -1.1135
 3678SOL    HW222668   3.653   3.973   8.412  0.1273  0.9986 -0.7685
 3679SOL     OW22669   1.567   2.470   1.996 -0.4114 -0.2729 -0.4050
 3679SOL    HW122670   1.555   2.415   2.073 -0.7860 -0.4208 -0.5687
 3679SOL    HW222671   1.657   2.459   1.966  0.0107  1.1280  0.3612
 3680SOL     OW22672   0.187   3.434   7.432 -0.2310  0.0282 -0.3291
 3680SOL    HW122673   0.210   3.359   7.377  0.7167 -0.9802  1.4333
 3680SOL    HW222674   0.183   3.496   7.359 -0.3012  0.0512 -0.3064
 3681SOL     OW22675   0.469   0.468  17.147 -0.1633 -0.1523  0.5381
 3681SOL    HW122676   0.529   0.446  17.076 -0.5221  1.5644 -0.2900
 3681SOL    HW222677   0.425   0.545  17.112  2.1101  0.8360 -0.1314
 3682SOL     OW22678   0.285   2.363   1.797  0.6276 -0.1438 -0.5468
 3682SOL    HW122679   0.256   2.438   1.745 -0.9499 -1.8415 -2.1026
 3682SOL    HW222680   0.234   2.292   1.759 -1.1190  0.3222  0.9386
 3683SOL     OW22681   0.420   1.827  11.404 -0.2298 -0.6063  0.0333
 3683SOL    HW122682   0.445   1.834  11.497 -1.4575  0.3259  0.2917
 3683SOL    HW222683   0.397   1.734  11.395  1.0495 -0.9762  0.5233
 3684SOL     OW22684   3.697   1.187   5.867  0.5121  0.0507 -0.3184
 3684SOL    HW122685   3.728   1.190   5.776  1.7693 -1.3511  0.0663
 3684SOL    HW222686   3.775   1.155   5.912  0.5182 -0.8214 -0.9390
 3685SOL     OW22687   2.400   0.548   8.594 -0.0743 -0.0066 -0.5482
 3685SOL    HW122688   2.477   0.572   8.543 -1.2713  1.2269 -1.7967
 3685SOL    HW222689   2.333   0.550   8.526  0.4819  1.5788 -1.0414
 3686SOL     OW22690   1.773   0.970   4.102  0.0503  0.2835 -0.1448
 3686SOL    HW122691   1.827   1.048   4.116  1.2664 -0.6788  0.4652
 3686SOL    HW222692   1.701   0.985   4.164  0.0409 -0.9298  0.1379
 3687SOL     OW22693   3.815   4.653   4.450 -0.5836  0.4624  0.0916
 3687SOL    HW122694   3.755   4.705   4.397  0.9514  0.3697 -1.7279
 3687SOL    HW222695   3.884   4.717   4.469  1.5984 -1.6615 -0.6692
 3688SOL     OW22696   1.263   3.502  12.428 -0.3604 -0.0708 -0.0302
 3688SOL    HW122697   1.285   3.425  12.377  0.6811  0.6685 -0.6981
 3688SOL    HW222698   1.216   3.560  12.368 -0.7483 -0.8619 -0.4789
 3689SOL     OW22699   1.939   3.800   1.600  0.0754  0.0593  0.1255
 3689SOL    HW122700   1.889   3.738   1.547  0.4620  1.7613 -2.2414
 3689SOL    HW222701   1.955   3.866   1.532 -0.2851  1.1404  1.0978
 3690SOL     OW22702   0.271   0.624   6.956 -0.7510 -0.7475  0.5507
 3690SOL    HW122703   0.177   0.608   6.957 -0.7738 -0.5210  1.6684
 3690SOL    HW222704   0.291   0.713   6.927 -2.1865  0.4232  3.2432
 3691SOL     OW22705   3.510   4.115   0.793 -0.5545  0.0097  0.1310
 3691SOL    HW122706   3.594   4.126   0.839 -0.4595  0.5024 -0.1526
 3691SOL    HW222707   3.528   4.135   0.701 -1.4790 -0.2459 -0.0984
 3692SOL     OW22708   3.464   3.345   4.974 -0.1902  0.1307  0.1401
 3692SOL    HW122709   3.442   3.269   4.920 -3.2078 -0.1726  1.8364
 3692SOL    HW222710   3.535   3.382   4.920  0.3378  0.3016  0.9600
 3693SOL     OW22711   2.767   1.834   7.307 -0.6987  0.0245  0.5218
 3693SOL    HW122712   2.860   1.832   7.328 -1.3680 -3.3778  3.2357
 3693SOL    HW222713   2.775   1.818   7.213  0.1211  1.0414  0.4197
 3694SOL     OW22714   3.036   3.297   6.476 -0.2504 -0.1641  0.1721
 3694SOL    HW122715   3.102   3.270   6.411 -0.1965  1.8148 -0.5965
 3694SOL    HW222716   2.987   3.215   6.479 -0.4864 -0.1606 -2.7951
 3695SOL     OW22717   2.383   3.752   3.797 -0.5400  0.1294 -0.5295
 3695SOL    HW122718   2.420   3.674   3.755 -0.2450  1.1489 -2.1379
 3695SOL    HW222719   2.317   3.708   3.852  0.3342 -2.8874 -1.9151
 3696SOL     OW22720   4.133   2.501  12.326 -0.2841 -0.1766 -0.0659
 3696SOL    HW122721   4.173   2.440  12.388 -1.2932 -0.7708 -0.0088
 3696SOL    HW222722   4.051   2.454  12.314 -0.7562  0.4901  0.5799
 3697SOL     OW22723   0.451   2.636  11.221  0.7932  0.0894  0.7986
 3697SOL    HW122724   0.389   2.567  11.197  0.5833  0.9793 -1.2692
 3697SOL    HW222725   0.397   2.710  11.191  0.7478  0.0969  0.9005
 3698SOL     OW22726   2.740   3.314   0.958 -0.5105  0.2959  0.0883
 3698SOL    HW122727   2.660   3.366   0.954 -0.9826 -0.4706 -0.6062
 3698SOL    HW222728   2.723   3.257   1.033  0.3044 -1.0418 -0.7253
 3699SOL     OW22729   3.726   3.449   2.357  0.0664  0.4872  0.2643
 3699SOL    HW122730   3.767   3.525   2.399  0.9425  0.9108 -1.3424
 3699SOL    HW222731   3.725   3.470   2.264 -1.6894 -1.6411 -0.1866
 3700SOL     OW22732   2.144   0.493  14.464  0.5927  0.0627  0.1779
 3700SOL    HW122733   2.205   0.443  14.517  1.9693  0.7164 -0.8102
 3700SOL    HW222734   2.075   0.427  14.452 -1.4426  1.6592  3.0907
 3701SOL     OW22735   2.349   3.218   9.124  0.3618  1.0204  0.2365
 3701SOL    HW122736   2.388   3.298   9.159  1.9160  0.4708 -0.2326
 3701SOL    HW222737   2.298   3.259   9.055  2.0918 -1.2122 -2.3739
 3702SOL     OW22738   0.738   0.339   4.972  0.0530 -0.2706 -0.0396
 3702SOL    HW122739   0.654   0.334   4.926 -0.3830  0.9449  0.6128
 3702SOL    HW222740   0.711   0.372   5.058  2.1831 -3.3309  1.7898
 3703SOL     OW22741   2.604   2.452  15.804 -0.3001  0.1836  0.4314
 3703SOL    HW122742   2.696   2.478  15.797 -0.7459  1.7343  0.1308
 3703SOL    HW222743   2.562   2.533  15.834 -1.8881 -1.0663  1.6072
 3704SOL     OW22744   3.530   1.130  15.091 -0.0549 -0.5750  0.0637
 3704SOL    HW122745   3.487   1.208  15.129  0.5424 -0.3986  0.3729
 3704SOL    HW222746   3.522   1.145  14.997  0.8622  0.0967  0.0929
 3705SOL     OW22747   2.427   4.730  13.156 -0.2065 -0.1887 -0.2692
 3705SOL    HW122748   2.487   4.657  13.145 -0.1421 -0.3626  1.2730
 3705SOL    HW222749   2.478   0.058  13.204  0.3077 -0.7459 -0.0589
 3706SOL     OW22750   4.447   2.492   8.445 -0.4216  0.1174 -0.0898
 3706SOL    HW122751   4.497   2.426   8.492 -0.0250 -0.4726 -1.3504
 3706SOL    HW222752   4.373   2.515   8.502 -0.2643  2.5964 -0.8710
 3707SOL     OW22753   3.740   3.838  15.262  0.1437  0.3678 -0.2617
 3707SOL    HW122754   3.714   3.893  15.336 -0.0501 -0.4679  0.2815
 3707SOL    HW222755   3.821   3.883  15.237  0.1966 -0.6019 -1.8474
 3708SOL     OW22756   2.058   0.360   5.806 -0.2041  0.0018  0.2346
 3708SOL    HW122757   2.141   0.393   5.842  0.0406 -1.8329  1.3833
 3708SOL    HW222758   2.095   0.287   5.757 -0.6169 -0.2901  0.3618
 3709SOL     OW22759   1.908   0.445  13.372 -0.1818 -0.4134 -0.2283
 3709SOL    HW122760   1.886   0.404  13.288  1.8780 -0.5338 -0.6946
 3709SOL    HW222761   1.828   0.489  13.402  0.6709  1.0693 -0.1455
 3710SOL     OW22762   1.208   0.926   1.601 -0.9347  0.0384  0.3059
 3710SOL    HW122763   1.139   0.979   1.640 -1.3580 -1.1668  1.1657
 3710SOL    HW222764   1.190   0.846   1.650  0.1187 -1.1832 -1.3183
 3711SOL     OW22765   4.124   1.154   4.046  0.2603 -0.1266 -0.3017
 3711SOL    HW122766   4.061   1.213   4.087  0.1366  0.2991 -1.0862
 3711SOL    HW222767   4.062   1.083   4.034  0.1398  0.0207 -0.5610
 3712SOL     OW22768   0.260   0.895  16.616 -0.6415  0.5436  0.2592
 3712SOL    HW122769   0.325   0.846  16.566 -0.0043  0.0159  1.6033
 3712SOL    HW222770   0.292   0.896  16.706 -1.9163 -0.2340  0.7036
 3713SOL     OW22771   1.833   2.840   4.207 -0.1034 -0.2923 -0.0140
 3713SOL    HW122772   1.793   2.803   4.286 -1.4619 -0.6077 -0.8382
 3713SOL    HW222773   1.910   2.880   4.248  1.0067 -0.8977 -1.5047
 3714SOL     OW22774   0.223   2.009   6.622  0.4789  0.0398  0.0728
 3714SOL    HW122775   0.238   2.092   6.667  0.0199 -0.7112  1.6102
 3714SOL    HW222776   0.150   2.035   6.566 -0.9676 -0.5568  1.6859
 3715SOL     OW22777   3.100   1.986  10.299 -0.1862  0.1395  0.3000
 3715SOL    HW122778   3.081   1.952  10.212  0.9757 -1.0231  0.4959
 3715SOL    HW222779   3.107   1.903  10.347  0.5027 -1.3749 -2.4627
 3716SOL     OW22780   4.081   3.194  13.997  0.0204 -0.7850 -0.1190
 3716SOL    HW122781   4.122   3.123  13.947  1.8735 -0.1761  0.4990
 3716SOL    HW222782   4.076   3.159  14.086 -0.0844 -0.6471 -0.0719
 3717SOL     OW22783   4.736   3.596   2.132 -0.2358  0.0425 -0.4455
 3717SOL    HW122784   0.078   3.635   2.169 -0.6709  1.7528 -1.3052
 3717SOL    HW222785   4.728   3.525   2.196 -0.3163  0.8769  0.4780
 3718SOL     OW22786   2.489   4.480  17.722 -0.0832 -0.3928 -0.4133
 3718SOL    HW122787   2.480   4.387  17.702  1.5886 -0.4572 -0.8212
 3718SOL    HW222788   2.519   4.480   0.064 -1.2965 -0.3888 -0.0142
 3719SOL     OW22789   4.623   2.918   2.492  0.2993 -0.2168  0.3525
 3719SOL    HW122790   4.608   3.004   2.452 -0.4912  0.1455  1.4277
 3719SOL    HW222791   4.667   2.958   2.567 -3.3586  3.2794  0.6348
 3720SOL     OW22792   3.133   4.069  11.593  0.0463  0.1873 -0.0944
 3720SOL    HW122793   3.078   4.147  11.593 -1.7150 -1.0623 -3.1909
 3720SOL    HW222794   3.086   4.029  11.521 -0.4550 -1.5912  1.2385
 3721SOL     OW22795   0.013   1.172  11.691 -0.3099  0.2767  0.5932
 3721SOL    HW122796   0.003   1.240  11.758  1.0101 -0.8287  1.8797
 3721SOL    HW222797   0.046   1.109  11.754 -0.1513  0.7630  1.0020
 3722SOL     OW22798   2.731   2.846   3.427 -0.2088  0.1593 -0.2818
 3722SOL    HW122799   2.775   2.885   3.352  0.8874  0.4209  0.4981
 3722SOL    HW222800   2.743   2.915   3.492 -0.5644 -0.8103  0.8210
 3723SOL     OW22801   2.071   2.458   2.147 -0.0910  0.3257 -0.4726
 3723SOL    HW122802   2.140   2.502   2.197  1.9649 -3.6668  0.2488
 3723SOL    HW222803   2.118   2.379   2.118 -0.2044  0.2120 -0.3483
 3724SOL     OW22804   0.763   4.060   2.899  0.1722 -0.4376  0.4849
 3724SOL    HW122805   0.750   4.069   2.805  1.4817  1.7624  0.5388
 3724SOL    HW222806   0.700   3.994   2.929 -2.4865  1.9402  0.1686
 3725SOL     OW22807   2.697   1.918   6.741 -0.8734  0.4712 -0.6315
 3725SOL    HW122808   2.698   1.869   6.658 -1.8655  0.3217 -0.5475
 3725SOL    HW222809   2.695   1.837   6.792  0.2388 -0.8273 -2.6422
 3726SOL     OW22810   4.694   3.000   2.107 -0.6926 -0.0083 -0.6194
 3726SOL    HW122811   4.700   2.920   2.159  2.4892 -0.6012 -1.9006
 3726SOL    HW222812   4.636   2.980   2.034 -0.3365  2.1135 -1.4899
 3727SOL     OW22813   3.760   4.352   1.397  0.1899 -0.1246  0.1238
 3727SOL    HW122814   3.694   4.375   1.332 -0.0868 -1.0781  0.0746
 3727SOL    HW222815   3.774   4.438   1.437 -1.0098  0.3539 -0.4833
 3728SOL     OW22816   1.991   3.828  16.588 -0.7777 -0.7082 -0.1285
 3728SOL    HW122817   1.895   3.828  16.585 -0.8121  0.3587  0.7502
 3728SOL    HW222818   1.997   3.878  16.669  0.2519  2.5009 -2.1884
 3729SOL     OW22819   0.194   0.794   8.398 -0.1778  0.0177  0.1586
 3729SOL    HW122820   0.145   0.850   8.457  2.1367  1.7183  0.4401
 3729SOL    HW222821   0.144   0.798   8.316  0.7277  0.2445 -0.3861
 3730SOL     OW22822   1.777   2.259  10.499  0.3627 -0.2035  0.2191
 3730SOL    HW122823   1.872   2.252  10.512  0.2221 -0.3834  1.1397
 3730SOL    HW222824   1.769   2.308  10.417 -1.0112 -2.0547 -0.7484
 3731SOL     OW22825   4.180   2.312   5.922  0.3878 -0.2443  0.6804
 3731SOL    HW122826   4.223   2.398   5.917 -0.8001  0.3974  1.4689
 3731SOL    HW222827   4.234   2.269   5.856 -1.6538  0.4003 -1.3987
 3732SOL     OW22828   2.902   0.665   4.801 -0.1303 -0.0369  0.3848
 3732SOL    HW122829   2.903   0.577   4.838  0.2734  0.2187  0.9816
 3732SOL    HW222830   2.996   0.685   4.796 -0.5102  0.9777 -2.5822
 3733SOL     OW22831   1.081   3.735   3.504 -0.1112 -0.2286  0.1606
 3733SOL    HW122832   1.175   3.742   3.519 -0.1019  0.1131 -0.0465
 3733SOL    HW222833   1.045   3.774   3.584  2.3041  0.2313  0.9950
 3734SOL     OW22834   1.256   4.236   3.863 -0.4246 -0.1085 -0.0507
 3734SOL    HW122835   1.345   4.209   3.885  0.0959  1.4680 -0.1999
 3734SOL    HW222836   1.266   4.330   3.877  0.2047 -0.3665  1.2074
 3735SOL     OW22837   4.585   3.668   8.546  0.0652 -0.4185  0.0340
 3735SOL    HW122838   4.670   3.630   8.523  0.8458  1.3935 -0.1307
 3735SOL    HW222839   4.618   3.737   8.604 -0.0017 -1.3360  1.1601
 3736SOL     OW22840   4.479   1.254  15.286 -0.6770  0.2048 -0.7163
 3736SOL    HW122841   4.569   1.235  15.314 -0.5214 -0.3143 -1.5975
 3736SOL    HW222842   4.483   1.232  15.193  0.8833  0.4225 -0.7017
 3737SOL     OW22843   2.009   3.572   9.889  0.6081  0.8125 -0.2306
 3737SOL    HW122844   2.037   3.523   9.967 -0.8706 -0.7795 -0.6922
 3737SOL    HW222845   1.915   3.573   9.908  0.8247 -0.3590  0.9149
 3738SOL     OW22846   0.986   3.126   8.962  0.2122 -0.6119  0.3473
 3738SOL    HW122847   0.970   3.216   8.990 -2.3506 -0.0056 -3.0461
 3738SOL    HW222848   0.896   3.100   8.942  0.4181 -0.2241 -1.0825
 3739SOL     OW22849   4.420   2.660   4.993 -0.0928  0.8284  0.2068
 3739SOL    HW122850   4.333   2.670   5.030  0.2301 -0.4980  1.2926
 3739SOL    HW222851   4.397   2.649   4.901 -1.4729  2.4156  0.3591
 3740SOL     OW22852   0.172   2.916   7.085 -0.0441 -0.1566  0.7511
 3740SOL    HW122853   0.182   2.988   7.023  0.0743 -0.8743 -0.0669
 3740SOL    HW222854   0.257   2.935   7.124  0.6562 -0.2286 -0.7625
 3741SOL     OW22855   1.181   3.842   5.394  0.8364 -0.0574 -0.1283
 3741SOL    HW122856   1.150   3.757   5.363  2.1127  0.0126 -1.5656
 3741SOL    HW222857   1.246   3.820   5.460  1.1817  2.9766  0.5393
 3742SOL     OW22858   4.126   0.523  13.510 -0.0737 -0.4515  0.5253
 3742SOL    HW122859   4.150   0.466  13.583 -0.2115 -1.5385 -0.2778
 3742SOL    HW222860   4.057   0.468  13.474 -0.7357  1.4083 -1.0520
 3743SOL     OW22861   0.291   3.558   3.410  0.5431 -0.2243  0.6657
 3743SOL    HW122862   0.329   3.530   3.326 -1.1096 -0.8150  0.1095
 3743SOL    HW222863   0.359   3.556   3.477  0.2821  3.3840  1.0508
 3744SOL     OW22864   0.832   0.564   6.094 -0.3264  0.0861  0.1670
 3744SOL    HW122865   0.900   0.534   6.034 -1.4834 -0.5690 -0.8259
 3744SOL    HW222866   0.858   0.655   6.109 -0.5262  0.4425 -1.6622
 3745SOL     OW22867   1.295   4.578   9.213 -0.4940 -0.5302  0.4067
 3745SOL    HW122868   1.300   4.489   9.246  2.3907  0.1132  1.6721
 3745SOL    HW222869   1.248   4.558   9.132  1.3043  0.0892 -0.7857
 3746SOL     OW22870   3.188   0.240   1.149 -0.4611  0.2111  0.0757
 3746SOL    HW122871   3.110   0.283   1.113 -0.7010  0.4857  0.9357
 3746SOL    HW222872   3.256   0.262   1.086 -0.2671  0.7922  0.4915
 3747SOL     OW22873   2.119   1.931  12.199 -0.3794  0.0379 -0.1002
 3747SOL    HW122874   2.175   1.955  12.125 -1.2410 -1.8364 -1.3613
 3747SOL    HW222875   2.173   1.953  12.275 -0.2288 -2.8835  0.6450
 3748SOL     OW22876   0.704   3.686   7.630 -0.1155  0.0552  0.2533
 3748SOL    HW122877   0.656   3.605   7.649  1.3878 -0.2024  2.8826
 3748SOL    HW222878   0.783   3.645   7.593 -1.1892 -2.1546  0.3838
 3749SOL     OW22879   4.388   3.202   1.739 -0.8371  0.6292  0.1751
 3749SOL    HW122880   4.421   3.219   1.651 -0.7419  0.0410  0.0975
 3749SOL    HW222881   4.465   3.196   1.795 -0.2527 -0.4480 -0.7556
 3750SOL     OW22882   2.599   0.712  15.913 -0.4922  0.0788 -0.2807
 3750SOL    HW122883   2.559   0.631  15.881 -0.4309 -0.4201  0.8979
 3750SOL    HW222884   2.666   0.743  15.852 -2.3057  2.5718 -0.9865
 3751SOL     OW22885   3.657   4.381   8.764 -0.3974  0.0041 -0.4587
 3751SOL    HW122886   3.693   4.310   8.818 -0.0513 -0.4231 -1.2583
 3751SOL    HW222887   3.583   4.396   8.823  0.2984  0.4611  0.3014
 3752SOL     OW22888   1.651   2.447   9.428  0.6345 -0.2537 -0.1676
 3752SOL    HW122889   1.604   2.447   9.344 -2.5837 -1.2631  1.6481
 3752SOL    HW222890   1.595   2.385   9.474 -0.8871  0.6585 -0.8140
 3753SOL     OW22891   1.126   2.381   7.509 -0.2152 -0.2902  0.2943
 3753SOL    HW122892   1.127   2.427   7.593 -0.8308  1.3019 -0.5699
 3753SOL    HW222893   1.055   2.429   7.466 -1.2929 -0.8976  1.3833
 3754SOL     OW22894   4.581   1.896  10.016 -0.4883  0.5536  0.1152
 3754SOL    HW122895   4.491   1.927  10.008 -1.0192 -0.5803  1.6174
 3754SOL    HW222896   4.588   1.913  10.110 -2.0956 -1.1141  0.5282
 3755SOL     OW22897   1.506   0.867  10.507 -0.2306 -0.1495  0.1238
 3755SOL    HW122898   1.500   0.942  10.449 -1.7013 -1.1612 -1.0244
 3755SOL    HW222899   1.585   0.889  10.557  0.3910  1.8313 -1.7302
 3756SOL     OW22900   2.182   3.025   3.980  0.0747 -0.5649  0.2187
 3756SOL    HW122901   2.210   3.050   3.892  1.0660  1.7400  1.2000
 3756SOL    HW222902   2.134   3.100   4.015 -0.5384 -0.4297 -0.9097
 3757SOL     OW22903   0.759   3.987   1.598 -0.1316 -0.0455  0.0523
 3757SOL    HW122904   0.717   3.991   1.683 -0.3113 -1.3496  0.0172
 3757SOL    HW222905   0.706   3.923   1.551  2.0052 -1.4970 -0.4233
 3758SOL     OW22906   3.850   4.110   2.997 -0.2499  0.6148  0.3885
 3758SOL    HW122907   3.863   4.049   2.925 -0.4991 -1.1353  1.8280
 3758SOL    HW222908   3.840   4.054   3.074  3.2775 -1.9624 -1.0725
 3759SOL     OW22909   1.809   3.390  17.363 -0.6319  0.0852  0.3243
 3759SOL    HW122910   1.800   3.486  17.356 -0.1460  0.2080  1.4105
 3759SOL    HW222911   1.748   3.366  17.433 -0.8878 -0.4941 -0.0973
 3760SOL     OW22912   2.671   1.962   9.710  0.1536  0.3631  1.1175
 3760SOL    HW122913   2.605   1.999   9.652 -2.2365 -0.8437  3.0669
 3760SOL    HW222914   2.628   1.973   9.795  0.3162 -0.9171  1.3664
 3761SOL     OW22915   1.149   3.377  12.851 -0.1020  0.3800  0.4148
 3761SOL    HW122916   1.218   3.342  12.907 -0.2187 -1.2625 -0.4596
 3761SOL    HW222917   1.164   3.324  12.773 -1.7090  0.4311  0.0562
 3762SOL     OW22918   3.189   0.914   2.666  0.0119 -0.3357  0.1406
 3762SOL    HW122919   3.251   0.878   2.730 -1.1644 -0.6783  1.0920
 3762SOL    HW222920   3.115   0.882   2.717 -0.7393 -1.3944 -1.6137
 3763SOL     OW22921   4.005   3.759   3.373 -0.4154  0.1787  0.6145
 3763SOL    HW122922   3.930   3.705   3.350 -0.9188  0.4625  1.5706
 3763SOL    HW222923   4.070   3.689   3.376 -1.7164 -1.0747 -0.2447
 3764SOL     OW22924   2.351   1.938   4.859  0.3210 -0.7452  0.1861
 3764SOL    HW122925   2.430   1.921   4.808  1.1274  0.9980  0.8511
 3764SOL    HW222926   2.337   2.031   4.842  0.2919 -0.8728 -0.4942
 3765SOL     OW22927   0.972   4.000  17.296 -0.6214  0.0880 -0.2902
 3765SOL    HW122928   0.889   4.041  17.320 -0.4524 -0.9596  2.0915
 3765SOL    HW222929   0.984   4.043  17.211 -0.4725  0.4872 -0.0683
 3766SOL     OW22930   0.256   2.517  13.321 -0.5843  0.2408  0.2111
 3766SOL    HW122931   0.350   2.500  13.330 -0.3105 -0.4141 -3.6788
 3766SOL    HW222932   0.247   2.503  13.226  0.7598 -0.7944  0.2351
 3767SOL     OW22933   3.856   3.807   8.569 -0.1651  0.2752  0.0569
 3767SOL    HW122934   3.877   3.722   8.531  0.9203  0.6740 -0.2365
 3767SOL    HW222935   3.824   3.849   8.489  1.5482  0.8507 -0.3392
 3768SOL     OW22936   3.261   1.451   3.146  0.3965  0.7825  0.1370
 3768SOL    HW122937   3.255   1.382   3.212 -1.6289  2.3762  1.6402
 3768SOL    HW222938   3.171   1.440   3.116 -0.0192 -0.2361  1.7479
 3769SOL     OW22939   1.507   4.081  13.771  0.1720 -0.1353 -0.1025
 3769SOL    HW122940   1.558   4.120  13.843 -0.5949 -1.7549  1.3288
 3769SOL    HW222941   1.570   4.098  13.701  0.9371 -2.5671  0.0248
 3770SOL     OW22942   0.539   0.287   4.807 -0.4790 -0.2271  0.3688
 3770SOL    HW122943   0.468   0.350   4.813 -0.3103  0.0039 -0.0796
 3770SOL    HW222944   0.566   0.315   4.720 -1.2224 -3.3288 -0.8621
 3771SOL     OW22945   3.987   3.168   4.162  0.7725 -0.0068  0.6076
 3771SOL    HW122946   4.032   3.210   4.089 -1.0755 -1.1111 -1.1305
 3771SOL    HW222947   3.903   3.213   4.160  0.2809 -0.9878 -0.6849
 3772SOL     OW22948   1.425   3.786   7.904  0.1620  0.0674  0.5206
 3772SOL    HW122949   1.520   3.784   7.909  0.1879 -1.1390 -0.3083
 3772SOL    HW222950   1.400   3.843   7.977 -3.2661 -1.9306  0.9176
 3773SOL     OW22951   0.867   3.168   3.975  0.5779  0.2808 -0.0982
 3773SOL    HW122952   0.863   3.074   3.961 -0.2268  0.0912  1.4213
 3773SOL    HW222953   0.920   3.175   4.054  0.4191 -1.9125  0.2073
 3774SOL     OW22954   0.187   0.417   1.132  0.2637  0.1731 -0.1190
 3774SOL    HW122955   0.227   0.470   1.200  1.3997  1.4742 -1.8028
 3774SOL    HW222956   0.127   0.356   1.174 -1.1588  1.0232 -0.9184
 3775SOL     OW22957   0.271   0.634   6.640  0.0547  0.2162 -0.0694
 3775SOL    HW122958   0.222   0.705   6.683 -2.2638  0.1482 -2.5643
 3775SOL    HW222959   0.205   0.578   6.599  0.0922 -0.7968  1.2877
 3776SOL     OW22960   3.141   1.091   2.950 -0.1065  0.4331 -0.0870
 3776SOL    HW122961   3.222   1.043   2.935  1.1264  2.4301  0.1037
 3776SOL    HW222962   3.118   1.072   3.041  1.7692  1.4525  0.6008
 3777SOL     OW22963   1.965   0.397   1.342  0.0834 -0.1008 -0.2832
 3777SOL    HW122964   1.968   0.458   1.416  1.5517 -0.6565  0.1328
 3777SOL    HW222965   2.059   0.397   1.324 -0.0851  0.0934 -1.1408
 3778SOL     OW22966   3.985   3.777  14.949 -0.5745  0.3069  0.2199
 3778SOL    HW122967   3.918   3.708  14.946  2.6324 -2.6328 -2.4629
 3778SOL    HW222968   4.055   3.721  14.981 -0.1382  0.5115 -0.3906
 3779SOL     OW22969   4.313   2.236   0.906 -0.3789  0.4093 -0.2368
 3779SOL    HW122970   4.229   2.253   0.949  1.9016  0.6750  4.1799
 3779SOL    HW222971   4.284   2.152   0.869  1.4185 -0.7745  0.9818
 3780SOL     OW22972   1.615   3.510   1.902 -0.5318  0.2180  0.5249
 3780SOL    HW122973   1.548   3.528   1.836  0.0008  0.5248  0.0739
 3780SOL    HW222974   1.563   3.456   1.963 -0.2886 -0.3476  0.2326
 3781SOL     OW22975   1.067   2.950   8.632 -0.2601 -0.6124  0.0935
 3781SOL    HW122976   1.093   2.859   8.645  1.2870 -0.1057  0.6048
 3781SOL    HW222977   1.120   2.987   8.703 -0.6103  0.1930 -0.0652
 3782SOL     OW22978   2.776   2.863  16.781 -0.0652  0.2939  0.2626
 3782SOL    HW122979   2.734   2.947  16.797  0.2262  0.1968  1.5886
 3782SOL    HW222980   2.794   2.876  16.688  1.9358 -1.7755  0.3449
 3783SOL     OW22981   1.147   3.645   7.264 -0.2895  0.5599  0.6806
 3783SOL    HW122982   1.167   3.571   7.205  2.4865  1.7028  0.1531
 3783SOL    HW222983   1.088   3.693   7.206  0.3826  0.3560 -0.1848
 3784SOL     OW22984   1.889   0.241   0.764  0.5556 -0.0141  0.0745
 3784SOL    HW122985   1.939   0.259   0.844 -0.1566 -1.1302  0.7713
 3784SOL    HW222986   1.823   0.309   0.777 -0.8219 -0.7592 -2.9353
 3785SOL     OW22987   0.401   0.922   4.095 -0.3358 -0.6100  0.4059
 3785SOL    HW122988   0.306   0.938   4.092 -0.1893  0.3494  0.9759
 3785SOL    HW222989   0.402   0.865   4.018  2.0355 -1.4755  1.1083
 3786SOL     OW22990   1.976   0.953   1.820 -0.2948  0.0728 -0.4358
 3786SOL    HW122991   1.931   0.983   1.898  1.1354  0.3538  0.2843
 3786SOL    HW222992   1.999   1.039   1.784 -0.1469  0.4423  0.5505
 3787SOL     OW22993   0.059   1.797   9.554  0.0779  0.5122 -0.1044
 3787SOL    HW122994   0.039   1.888   9.532  1.8909  0.3111 -2.5341
 3787SOL    HW222995   0.052   1.800   9.650 -5.5226 -0.6926 -0.4789
 3788SOL     OW22996   2.215   4.715   1.823  0.2636  0.1842 -0.0296
 3788SOL    HW122997   2.248   0.066   1.840  0.9194 -0.3249  1.3750
 3788SOL    HW222998   2.141   0.009   1.771  0.7530  1.4200  0.0337
 3789SOL     OW22999   1.635   0.483  13.341  0.2291  0.4385  0.1472
 3789SOL    HW123000   1.550   0.439  13.350  2.1611 -3.1821  0.8833
 3789SOL    HW223001   1.635   0.507  13.248 -0.3792 -0.9637 -0.2176
 3790SOL     OW23002   3.821   3.176   2.676 -0.1409  0.1716  0.0272
 3790SOL    HW123003   3.865   3.094   2.657 -2.3710 -0.7984 -0.8497
 3790SOL    HW223004   3.870   3.205   2.753  1.8167 -0.2844 -1.0608
 3791SOL     OW23005   4.070   1.494   4.439 -0.0048  0.2857 -0.0160
 3791SOL    HW123006   4.011   1.537   4.501 -0.5272  0.7504 -0.8261
 3791SOL    HW223007   4.081   1.406   4.473  1.4130 -0.1555 -1.6316
 3792SOL     OW23008   3.826   3.832   6.153  0.0861  0.0033 -0.0131
 3792SOL    HW123009   3.863   3.830   6.242  0.2683 -1.4118 -0.1296
 3792SOL    HW223010   3.743   3.787   6.166  0.4068 -0.7589 -0.6839
 3793SOL     OW23011   1.230   4.245   6.998  0.2959  0.0018 -0.7688
 3793SOL    HW123012   1.183   4.320   6.961  0.2935 -0.3455 -1.4861
 3793SOL    HW223013   1.283   4.225   6.920 -0.1007  0.4183 -1.1469
 3794SOL     OW23014   4.516   2.968   5.058 -0.1233 -0.0634 -0.3891
 3794SOL    HW123015   4.450   2.904   5.033 -0.2372  0.3776 -1.1973
 3794SOL    HW223016   4.557   2.922   5.131 -0.7457 -1.0827 -0.6816
 3795SOL     OW23017   3.360   3.948   3.549  0.1478  0.1893  0.5983
 3795SOL    HW123018   3.309   4.008   3.604  1.4601  0.3235  1.6915
 3795SOL    HW223019   3.447   3.980   3.573 -0.0484  0.6718  0.6671
 3796SOL     OW23020   1.846   0.131  17.695 -0.2251  0.0704  0.6078
 3796SOL    HW123021   1.887   0.181  17.625 -2.1504 -0.4628 -0.9100
 3796SOL    HW223022   1.914   0.064  17.699 -0.4001 -0.2279 -1.3130
 3797SOL     OW23023   1.932   0.567  12.454 -0.3753  0.4323 -0.1662
 3797SOL    HW123024   1.987   0.592  12.380  1.4922 -0.0200  1.0837
 3797SOL    HW223025   1.904   0.482  12.419 -0.0804 -0.0957  0.8833
 3798SOL     OW23026   4.128   4.288   2.922  0.5093 -0.0682 -0.5369
 3798SOL    HW123027   4.043   4.248   2.908  0.4427  0.0761 -0.5521
 3798SOL    HW223028   4.132   4.332   2.837  0.5329 -0.4061 -0.7096
 3799SOL     OW23029   1.538   3.263   2.607  0.2937 -0.8513  0.2839
 3799SOL    HW123030   1.518   3.245   2.699  0.7583 -0.3355  0.4815
 3799SOL    HW223031   1.633   3.263   2.598  0.3151 -1.3589  0.5140
 3800SOL     OW23032   1.655   4.514  16.282  0.3934 -0.5125  0.6051
 3800SOL    HW123033   1.670   4.593  16.231  1.6777 -0.4327  1.1103
 3800SOL    HW223034   1.576   4.484  16.238  0.3689 -0.8341  0.8643
 3801SOL     OW23035   3.041   0.048   9.759 -0.0643  0.1180  0.2530
 3801SOL    HW123036   3.048   0.036   9.664  1.3138 -1.6994  0.5838
 3801SOL    HW223037   2.984   4.713   9.786 -1.2132  0.1698 -2.0058
 3802SOL     OW23038   2.098   4.224   8.543  0.4609  0.4249 -0.0312
 3802SOL    HW123039   2.082   4.303   8.491 -0.3564  0.7488  0.7232
 3802SOL    HW223040   2.014   4.180   8.557 -0.0504  0.9331 -1.4149
 3803SOL     OW23041   2.596   4.191   6.903 -0.4001  0.2401 -0.9459
 3803SOL    HW123042   2.662   4.257   6.880  1.5135 -1.7985 -1.2347
 3803SOL    HW223043   2.622   4.123   6.842 -0.3771 -0.3698 -0.2523
 3804SOL     OW23044   4.563   3.766  15.860  0.0363 -0.5430  0.0773
 3804SOL    HW123045   4.475   3.803  15.866  0.7035  0.8061  1.4432
 3804SOL    HW223046   4.627   3.830  15.889  0.0461 -0.6783  0.3541
 3805SOL     OW23047   0.545   1.035   7.532  0.3537 -0.1496  0.1348
 3805SOL    HW123048   0.613   0.984   7.576  1.0066 -0.4894 -1.2574
 3805SOL    HW223049   0.592   1.114   7.505 -1.0377  0.9073  0.8179
 3806SOL     OW23050   4.675   1.413  14.020  0.0053 -0.6339 -0.2178
 3806SOL    HW123051   4.679   1.397  14.114 -1.1569  1.1371  0.1491
 3806SOL    HW223052   4.582   1.408  13.995 -0.1793 -0.2117  0.3812
 3807SOL     OW23053   3.233   1.303   4.941  0.3810 -1.3535  0.1750
 3807SOL    HW123054   3.206   1.363   5.010  0.7903 -3.1711  1.9333
 3807SOL    HW223055   3.177   1.350   4.879  0.4657 -3.1387 -1.2770
 3808SOL     OW23056   1.630   0.575   8.763 -0.4265  0.1961  0.4382
 3808SOL    HW123057   1.615   0.668   8.777  0.8761  0.6924 -1.4532
 3808SOL    HW223058   1.556   0.558   8.705  0.1621 -0.2181 -0.1921
 3809SOL     OW23059   4.708   2.790   2.260 -0.3820  0.2606 -0.0352
 3809SOL    HW123060   0.064   2.803   2.272 -0.4690 -0.7619  1.6506
 3809SOL    HW223061   4.687   2.818   2.349 -0.4584  2.6717 -0.7954
 3810SOL     OW23062   0.444   1.307   8.646 -0.0512  0.1874  0.3155
 3810SOL    HW123063   0.430   1.215   8.668  1.5056  0.0505  0.7169
 3810SOL    HW223064   0.535   1.308   8.675 -0.0655  1.6724  0.2938
 3811SOL     OW23065   0.631   2.784  16.005  0.0074 -0.4575 -0.0257
 3811SOL    HW123066   0.628   2.701  15.957  1.1725  0.0864 -1.0322
 3811SOL    HW223067   0.604   2.845  15.937  3.1453  0.6237 -0.2903
 3812SOL     OW23068   1.555   3.376   3.025  0.1366 -0.0860 -0.2139
 3812SOL    HW123069   1.479   3.400   3.079  0.3651  0.4856 -0.1418
 3812SOL    HW223070   1.523   3.294   2.989  0.3013 -1.2887  2.3646
 3813SOL     OW23071   0.793   2.351   7.829 -0.0644 -0.5295  0.3024
 3813SOL    HW123072   0.775   2.430   7.778  1.0037 -0.7232 -0.3875
 3813SOL    HW223073   0.860   2.386   7.888  1.4684 -0.2385 -1.6113
 3814SOL     OW23074   3.241   3.925   8.320 -0.6969  0.2875 -0.2491
 3814SOL    HW123075   3.200   3.993   8.373 -2.8953  0.4810 -2.1986
 3814SOL    HW223076   3.293   3.874   8.383 -0.9779  0.3531  0.0352
 3815SOL     OW23077   3.821   4.249  15.395 -0.0700 -0.1654 -0.0037
 3815SOL    HW123078   3.800   4.220  15.484  0.0146 -0.1211  0.0296
 3815SOL    HW223079   3.827   4.159  15.361 -0.3172  0.2573 -1.1639
 3816SOL     OW23080   0.648   3.767   6.856  0.9783 -0.1873  0.5981
 3816SOL    HW123081   0.649   3.833   6.787  0.5487 -0.2682  0.5106
 3816SOL    HW223082   0.662   3.825   6.930  0.3733  2.7063 -1.5265
 3817SOL     OW23083   1.288   4.287  14.625 -0.3614 -0.5311  0.2654
 3817SOL    HW123084   1.196   4.314  14.619  0.1015  0.9033 -0.4543
 3817SOL    HW223085   1.324   4.371  14.654 -2.8873  0.7903 -0.4047
 3818SOL     OW23086   2.696   1.097   5.435 -0.4652 -0.6263  0.3428
 3818SOL    HW123087   2.637   1.150   5.381  0.0225 -0.3600  0.0780
 3818SOL    HW223088   2.767   1.074   5.375 -0.8334 -0.6476 -0.0842
 3819SOL     OW23089   3.495   3.715   3.371  0.0987 -0.2703  0.4394
 3819SOL    HW123090   3.555   3.774   3.326  0.2030  0.2632  1.2883
 3819SOL    HW223091   3.469   3.769   3.445  2.0014  0.9704  0.1793
 3820SOL     OW23092   2.646   4.324   4.644 -0.0105  0.0152  0.3491
 3820SOL    HW123093   2.696   4.395   4.685  0.4004  0.2070 -0.4747
 3820SOL    HW223094   2.590   4.305   4.719  1.0869  0.6504  1.3256
 3821SOL     OW23095   3.793   2.055   5.770 -0.3973  0.5469  0.6105
 3821SOL    HW123096   3.775   2.046   5.863  0.4463 -0.8879  0.6293
 3821SOL    HW223097   3.712   2.029   5.725  1.2165  0.9037 -2.5454
 3822SOL     OW23098   2.003   4.565   6.982  0.2460 -0.2109  0.3862
 3822SOL    HW123099   2.014   4.501   7.052 -1.8940 -0.4912  0.4647
 3822SOL    HW223100   2.080   4.552   6.927  0.7132  1.4983  0.6250
 3823SOL     OW23101   0.890   0.336   7.782  0.0588 -0.6617 -0.6370
 3823SOL    HW123102   0.842   0.330   7.865  1.4654 -0.6702  0.1683
 3823SOL    HW223103   0.933   0.421   7.789 -0.2201 -0.7110  1.5035
 3824SOL     OW23104   1.345   1.883   9.804 -0.5299  0.1941 -0.2576
 3824SOL    HW123105   1.362   1.970   9.769 -1.1888  0.8008  0.9116
 3824SOL    HW223106   1.404   1.873   9.878 -0.1406  0.8046 -0.4880
 3825SOL     OW23107   3.133   0.214  14.181  0.4042 -0.6763  0.3258
 3825SOL    HW123108   3.102   0.295  14.220  1.0688 -0.4665  0.4186
 3825SOL    HW223109   3.080   0.201  14.102  1.1687 -1.7069 -0.0187
 3826SOL     OW23110   4.134   2.500  10.231  0.7908  0.1824  0.0063
 3826SOL    HW123111   4.142   2.557  10.155  1.4130 -0.8258 -0.6830
 3826SOL    HW223112   4.206   2.441  10.209  1.8292  2.5712 -2.9763
 3827SOL     OW23113   2.377   3.964   5.177 -0.2044  0.3951  0.1438
 3827SOL    HW123114   2.323   3.937   5.252  0.2074 -1.2671 -0.1577
 3827SOL    HW223115   2.437   4.020   5.226  1.9573 -0.2097 -1.8247
 3828SOL     OW23116   1.140   1.379   5.600 -0.4657 -0.1570  0.3557
 3828SOL    HW123117   1.088   1.303   5.574 -0.8679 -0.2173  1.3496
 3828SOL    HW223118   1.065   1.430   5.631 -1.3287 -1.2900  0.1497
 3829SOL     OW23119   1.656   3.697   9.470  0.2380  0.6067 -0.2000
 3829SOL    HW123120   1.670   3.619   9.417  0.3756 -0.3460  1.2596
 3829SOL    HW223121   1.712   3.680   9.546  1.8134 -0.0160 -1.4959
 3830SOL     OW23122   2.227   4.311  17.433  0.0612 -0.6210  0.1879
 3830SOL    HW123123   2.233   4.349  17.521  1.9539  0.3098 -0.3638
 3830SOL    HW223124   2.205   4.219  17.451 -1.7515 -0.3127 -0.4295
 3831SOL     OW23125   2.020   1.367   5.852  0.0783 -0.1662  0.4901
 3831SOL    HW123126   2.087   1.423   5.814  0.6248 -0.1631  1.4533
 3831SOL    HW223127   2.019   1.403   5.941  1.4925  2.2685 -0.4847
 3832SOL     OW23128   1.760   0.303   8.599  0.3699  0.1048  0.1275
 3832SOL    HW123129   1.697   0.292   8.670  1.2661 -0.1276  0.8748
 3832SOL    HW223130   1.844   0.298   8.644  0.4466  1.5915  0.1725
 3833SOL     OW23131   0.288   1.622   6.226  0.8436  0.0550 -0.7602
 3833SOL    HW123132   0.336   1.540   6.231  1.8416  0.8272  2.6345
 3833SOL    HW223133   0.315   1.658   6.311 -2.2471  1.9094 -0.5578
 3834SOL     OW23134   3.920   3.510   3.729 -0.3537 -0.2501 -0.0151
 3834SOL    HW123135   3.847   3.524   3.669  1.1051  1.8562 -1.2885
 3834SOL    HW223136   3.971   3.468   3.661 -0.6067  0.2812 -0.5357
 3835SOL     OW23137   2.473   1.258  14.090  0.3264  0.1786 -0.5353
 3835SOL    HW123138   2.406   1.192  14.074  0.1585  0.1490  0.2947
 3835SOL    HW223139   2.507   1.225  14.173 -1.1081 -0.5306 -0.2224
 3836SOL     OW23140   1.961   2.886  14.011  0.0174  0.0462  0.1942
 3836SOL    HW123141   1.909   2.807  13.997 -1.4310  0.8625  1.0059
 3836SOL    HW223142   1.908   2.947  13.959  0.4187  1.0061  0.9083
 3837SOL     OW23143   2.453   1.215   1.787 -0.3825  0.0861  0.7347
 3837SOL    HW123144   2.506   1.199   1.709 -0.5964 -0.2591  0.6591
 3837SOL    HW223145   2.454   1.124   1.815 -1.9882 -0.0510  0.3435
 3838SOL     OW23146   2.815   4.724   6.782 -0.8748  0.0431  0.0119
 3838SOL    HW123147   2.804   4.689   6.694  1.0678 -0.6389  0.0292
 3838SOL    HW223148   2.731   4.722   6.828  0.3210  0.8635  2.2338
 3839SOL     OW23149   1.888   1.310   5.607  0.0378  0.3351 -0.1350
 3839SOL    HW123150   1.943   1.293   5.684  0.2765  0.4317 -0.2855
 3839SOL    HW223151   1.912   1.239   5.547 -0.9596  0.9166 -1.2131
 3840SOL     OW23152   2.763   2.237   7.419  0.2054 -0.6772  0.1081
 3840SOL    HW123153   2.731   2.159   7.465  0.3797 -0.6545  0.2668
 3840SOL    HW223154   2.710   2.252   7.341  0.0230  0.1893  0.4029
 3841SOL     OW23155   3.218   3.370   5.060 -0.5956  0.0790  0.1491
 3841SOL    HW123156   3.313   3.369   5.059 -0.5277  3.9643 -2.0831
 3841SOL    HW223157   3.202   3.428   4.985  0.1428  0.3785  0.2191
 3842SOL     OW23158   2.298   3.741   8.983  0.4434  0.3455 -0.1073
 3842SOL    HW123159   2.349   3.693   8.917 -0.7537 -2.7579  1.2438
 3842SOL    HW223160   2.337   3.829   8.988 -0.0692  0.4190  2.3205
 3843SOL     OW23161   0.250   2.582   6.449  0.1300 -0.2739 -0.5822
 3843SOL    HW123162   0.205   2.659   6.482  0.2963 -0.0565 -0.8675
 3843SOL    HW223163   0.303   2.607   6.373  2.3094  1.6095  1.5760
 3844SOL     OW23164   2.554   1.416  10.541  0.0461  0.0586 -0.2210
 3844SOL    HW123165   2.490   1.428  10.611  0.5810  0.8534  0.1337
 3844SOL    HW223166   2.508   1.350  10.491 -0.3452 -0.0335  0.2558
 3845SOL     OW23167   3.486   4.498   6.821 -0.4580  0.4024  0.1970
 3845SOL    HW123168   3.552   4.461   6.762 -2.4444 -1.6304 -0.7400
 3845SOL    HW223169   3.541   4.507   6.899 -1.2159  0.0151  0.7816
 3846SOL     OW23170   0.701   0.442   8.696  0.2905 -0.2876 -0.5388
 3846SOL    HW123171   0.745   0.513   8.651  0.2464  1.7783  2.6779
 3846SOL    HW223172   0.685   0.485   8.781 -1.7629  0.7625 -1.4582
 3847SOL     OW23173   0.037   1.356  11.871 -0.7831 -0.2191 -0.5451
 3847SOL    HW123174   0.004   1.445  11.875  0.9905  0.5808 -3.1496
 3847SOL    HW223175   0.112   1.366  11.930 -1.5280  0.1746  0.3165
 3848SOL     OW23176   3.397   2.184   3.653 -0.0794  0.1169 -0.3202
 3848SOL    HW123177   3.427   2.128   3.581 -0.3304  0.0561 -0.3773
 3848SOL    HW223178   3.382   2.269   3.611 -0.0357 -0.0602 -0.6979
 3849SOL     OW23179   4.374   0.390  11.376  0.3781  0.4713 -0.2124
 3849SOL    HW123180   4.349   0.382  11.468  1.5437  0.4781  0.0996
 3849SOL    HW223181   4.388   0.301  11.346  0.0523  0.4043 -0.1686
 3850SOL     OW23182   3.528   0.369   2.179 -0.4852  0.4677  0.4589
 3850SOL    HW123183   3.454   0.376   2.239 -1.0880 -0.3699 -0.2011
 3850SOL    HW223184   3.581   0.305   2.226 -1.0596 -1.0953 -1.0609
 3851SOL     OW23185   1.529   2.577   2.644 -0.3743 -0.4734  0.4944
 3851SOL    HW123186   1.541   2.549   2.734  4.5876 -2.2495 -0.7013
 3851SOL    HW223187   1.525   2.492   2.600  0.8102 -0.3250  0.0897
 3852SOL     OW23188   2.993   1.468   1.079 -0.1925  0.1228 -0.5917
 3852SOL    HW123189   2.949   1.383   1.082 -0.7749  0.5473  2.4310
 3852SOL    HW223190   3.025   1.475   1.169 -3.9743  2.9813  0.5584
 3853SOL     OW23191   3.785   0.289   7.431 -0.3399 -0.2001  0.3530
 3853SOL    HW123192   3.784   0.385   7.429  0.6093 -0.2654 -4.0333
 3853SOL    HW223193   3.872   0.276   7.393  0.5424  2.9315  1.3254
 3854SOL     OW23194   4.615   3.794   4.825  0.0462  0.2544 -0.5086
 3854SOL    HW123195   4.555   3.843   4.768 -0.8438 -0.8191 -0.4800
 3854SOL    HW223196   4.574   3.708   4.830 -2.4273  1.5309  0.6334
 3855SOL     OW23197   4.428   0.491   4.987  0.4559 -0.7815 -0.3375
 3855SOL    HW123198   4.407   0.513   4.896  2.1746  0.9233 -0.3358
 3855SOL    HW223199   4.522   0.509   4.992 -0.4813  3.3912  1.9958
 3856SOL     OW23200   4.053   2.029   4.796 -0.4771 -0.4795  0.4421
 3856SOL    HW123201   3.972   2.042   4.847 -0.6874 -0.2783  0.0537
 3856SOL    HW223202   4.077   2.120   4.781 -0.6928 -0.4427  0.3185
 3857SOL     OW23203   1.630   0.820   4.373 -0.0114  0.1311 -0.0376
 3857SOL    HW123204   1.725   0.824   4.360 -0.0224 -1.1374 -0.5027
 3857SOL    HW223205   1.625   0.736   4.419  0.9085 -0.0984 -0.3491
 3858SOL     OW23206   3.009   3.636   1.328  0.0450  0.4919 -0.1620
 3858SOL    HW123207   3.030   3.556   1.377  1.5191  1.5431  0.8988
 3858SOL    HW223208   2.969   3.602   1.248  1.4666 -1.5057 -0.0373
 3859SOL     OW23209   1.046   4.572   9.916  0.0988 -0.3011 -0.1240
 3859SOL    HW123210   0.975   4.508   9.922  0.8993 -1.3143 -1.4027
 3859SOL    HW223211   1.007   4.631   9.851 -1.1351  1.1129  1.8950
 3860SOL     OW23212   1.455   3.441   1.043 -0.0555 -0.1844  0.0193
 3860SOL    HW123213   1.376   3.484   1.011  0.9595  1.5388 -0.1431
 3860SOL    HW223214   1.511   3.433   0.965  1.7031  1.0616  1.1776
 3861SOL     OW23215   2.486   1.737  16.239 -0.1243  0.1619  0.3277
 3861SOL    HW123216   2.520   1.794  16.170  0.7723  0.2240  0.8163
 3861SOL    HW223217   2.411   1.784  16.275 -1.4968 -0.8920 -1.1640
 3862SOL     OW23218   2.021   4.443   7.316 -0.5096  0.2188 -0.0271
 3862SOL    HW123219   2.045   4.461   7.407 -2.8073  0.6489  0.4865
 3862SOL    HW223220   2.072   4.363   7.308  1.5582  1.2136  2.9510
 3863SOL     OW23221   4.705   0.705   2.604 -0.2100  0.7245  0.3889
 3863SOL    HW123222   0.056   0.704   2.569  0.6469 -0.8894  2.6405
 3863SOL    HW223223   4.696   0.613   2.629 -0.8126 -0.1418 -2.9270
 3864SOL     OW23224   2.255   1.698   5.561  0.1287  0.0842 -0.2709
 3864SOL    HW123225   2.280   1.618   5.515 -1.4065 -1.2564  1.2071
 3864SOL    HW223226   2.183   1.731   5.507 -1.7639 -2.5161  0.6392
 3865SOL     OW23227   1.929   3.060   6.822  0.0590  0.0075 -0.2229
 3865SOL    HW123228   1.877   3.114   6.763  0.0354  1.3847  1.0654
 3865SOL    HW223229   1.917   3.093   6.911  1.8601  0.9645 -0.3485
 3866SOL     OW23230   1.396   1.107  12.489 -0.0632  0.4194 -0.1456
 3866SOL    HW123231   1.337   1.182  12.475 -1.8414 -0.9092  0.2904
 3866SOL    HW223232   1.477   1.136  12.446  0.7074 -1.8773 -0.1999
 3867SOL     OW23233   1.548   3.555   2.539  0.2629  0.6173 -0.0896
 3867SOL    HW123234   1.521   3.468   2.568 -1.6015  1.0311 -0.6156
 3867SOL    HW223235   1.470   3.605   2.516  1.0043  1.4911 -0.7031
 3868SOL     OW23236   2.482   1.917   7.302 -0.3498 -0.2486  0.5900
 3868SOL    HW123237   2.491   1.949   7.212 -0.2210  0.6549  0.9196
 3868SOL    HW223238   2.560   1.863   7.312  0.9153  1.4191 -0.2510
 3869SOL     OW23239   4.240   3.622   1.815 -0.6518 -0.0373  0.7804
 3869SOL    HW123240   4.329   3.590   1.797 -1.7548 -2.5311 -0.1611
 3869SOL    HW223241   4.246   3.597   1.908 -2.4249  0.3325  0.9975
 3870SOL     OW23242   2.263   1.791   2.971 -0.4220  0.3771  0.2386
 3870SOL    HW123243   2.348   1.820   2.939  0.0034 -0.8034  0.2831
 3870SOL    HW223244   2.214   1.871   2.956 -0.5482  0.2297 -0.1307
 3871SOL     OW23245   0.017   0.311   1.826  0.5418  0.3148  0.0536
 3871SOL    HW123246   4.714   0.304   1.912 -1.0145  0.0966 -0.6978
 3871SOL    HW223247   0.101   0.276   1.857  1.5842  2.7233 -0.0556
 3872SOL     OW23248   2.129   3.880  13.308  0.5460  0.5911 -0.2188
 3872SOL    HW123249   2.198   3.863  13.244 -0.4243 -0.4288 -0.9983
 3872SOL    HW223250   2.051   3.833  13.277 -0.0324  1.3863  0.0482
 3873SOL     OW23251   0.877   0.531   6.670  0.2532  0.4469  0.4127
 3873SOL    HW123252   0.782   0.526   6.680  0.1789 -1.0959 -0.9965
 3873SOL    HW223253   0.903   0.495   6.755  0.1798  1.2371  0.7647
 3874SOL     OW23254   4.495   3.253   8.103  0.1174  0.1469 -0.6400
 3874SOL    HW123255   4.440   3.303   8.164  1.5964  1.2061 -0.1672
 3874SOL    HW223256   4.582   3.276   8.137 -0.4195 -0.7811  1.3762
 3875SOL     OW23257   0.515   2.591   2.885  0.1063 -0.5799 -0.0777
 3875SOL    HW123258   0.462   2.644   2.945 -0.6357 -1.3537 -0.0450
 3875SOL    HW223259   0.579   2.555   2.947  1.7389 -0.2716 -1.6093
 3876SOL     OW23260   0.802   3.055   7.800  0.2133  0.5168 -0.6551
 3876SOL    HW123261   0.846   2.970   7.804  0.4285  0.7172  1.1716
 3876SOL    HW223262   0.722   3.037   7.751 -0.2329 -2.0227  1.0276
 3877SOL     OW23263   1.018   2.605   4.578 -0.0631 -0.2191 -0.3094
 3877SOL    HW123264   1.065   2.521   4.574  0.1156 -0.0839 -1.0315
 3877SOL    HW223265   1.056   2.653   4.505 -1.8451 -0.1527 -1.2120
 3878SOL     OW23266   3.654   0.512   7.154 -0.5972 -0.3685 -0.3330
 3878SOL    HW123267   3.603   0.452   7.209  1.0380  0.3823  1.9506
 3878SOL    HW223268   3.593   0.540   7.086 -0.8589 -0.3676 -0.0980
 3879SOL     OW23269   0.405   2.497   3.468  0.4211 -0.4215  0.5383
 3879SOL    HW123270   0.362   2.582   3.475  1.5493  0.2685 -0.8611
 3879SOL    HW223271   0.493   2.523   3.440 -0.0233  1.3094  0.7247
 3880SOL     OW23272   1.204   3.371  15.014  0.1822  0.1739 -0.9856
 3880SOL    HW123273   1.240   3.334  15.095  0.6285 -2.0177 -2.1962
 3880SOL    HW223274   1.244   3.457  15.006 -0.4226  0.6984  1.5968
 3881SOL     OW23275   1.968   4.652   9.430 -0.0524  0.0149 -0.7037
 3881SOL    HW123276   1.946   4.655   9.524 -1.3875  0.7409 -1.0454
 3881SOL    HW223277   2.061   4.673   9.426  0.2042 -1.3434 -1.4690
 3882SOL     OW23278   0.807   3.365   7.860  0.0832  0.6504  0.0100
 3882SOL    HW123279   0.720   3.390   7.830 -0.4787  0.1923  1.2644
 3882SOL    HW223280   0.825   3.284   7.811  0.4658  0.8733 -0.2174
 3883SOL     OW23281   0.265   3.032   3.223 -0.5250 -0.4041  0.2034
 3883SOL    HW123282   0.261   3.127   3.217 -0.1532 -0.3862  0.2271
 3883SOL    HW223283   0.172   3.009   3.227 -0.3394 -1.3532 -0.9420
 3884SOL     OW23284   1.492   1.633   6.745 -0.2978  0.2525  0.4100
 3884SOL    HW123285   1.559   1.609   6.809 -1.2149  1.4219  1.8109
 3884SOL    HW223286   1.511   1.577   6.670 -0.3414 -0.7179  1.1228
 3885SOL     OW23287   0.093   2.781   7.352  0.3060 -0.3357 -0.2549
 3885SOL    HW123288   0.067   2.695   7.320  1.8224 -0.5417 -0.9460
 3885SOL    HW223289   0.144   2.825   7.284 -2.0878  2.1812 -0.4147
 3886SOL     OW23290   0.101   1.415   7.578  0.5155 -0.2397 -0.5777
 3886SOL    HW123291   0.120   1.509   7.588  0.5100 -0.6363  3.1570
 3886SOL    HW223292   0.082   1.408   7.485 -2.1695 -0.0328 -0.0443
 3887SOL     OW23293   2.185   2.462   4.895  0.0702 -0.2613 -0.0493
 3887SOL    HW123294   2.175   2.425   4.808  1.2873 -2.6707  0.8516
 3887SOL    HW223295   2.254   2.528   4.889  0.4822 -0.7385 -0.5362
 3888SOL     OW23296   0.323   2.888  15.960 -0.0854  0.0647  0.1390
 3888SOL    HW123297   0.343   2.964  15.905  1.4962 -0.8744 -0.5625
 3888SOL    HW223298   0.337   2.819  15.896 -1.1113 -0.5570  0.5804
 3889SOL     OW23299   2.344   4.593   6.015 -0.0736 -0.6357  0.8770
 3889SOL    HW123300   2.354   4.627   6.104  1.4913 -0.7679  0.7507
 3889SOL    HW223301   2.299   4.512   6.035  0.2788 -0.8168  0.9331
 3890SOL     OW23302   4.581   0.692   1.684  0.2493 -0.2264  0.2958
 3890SOL    HW123303   4.540   0.707   1.769  0.1963 -2.4738  0.6609
 3890SOL    HW223304   4.661   0.746   1.688 -0.4357  0.6475  2.2173
 3891SOL     OW23305   1.345   0.589  10.292 -0.0984  0.1210 -0.0592
 3891SOL    HW123306   1.354   0.509  10.343 -1.0952  2.2621  3.4918
 3891SOL    HW223307   1.334   0.652  10.364 -3.6261  0.1591 -0.6440
 3892SOL     OW23308   4.245   4.531  15.376 -0.6003 -0.1304 -0.1509
 3892SOL    HW123309   4.273   4.565  15.291  2.6449  0.0894  1.0043
 3892SOL    HW223310   4.151   4.548  15.367 -0.8130 -1.5610 -0.6097
 3893SOL     OW23311   0.913   3.712  17.385  0.5771 -0.4144 -0.3950
 3893SOL    HW123312   0.825   3.738  17.357  0.6920  1.6728  1.2635
 3893SOL    HW223313   0.971   3.784  17.359 -1.4697  0.5317 -2.3370
 3894SOL     OW23314   1.740   3.769  14.985  0.3889 -0.2941  0.0616
 3894SOL    HW123315   1.835   3.768  14.989  0.3857  1.8875  0.9975
 3894SOL    HW223316   1.727   3.852  14.939 -1.0602 -0.4721  0.1380
 3895SOL     OW23317   4.138   3.784   1.315  0.1308 -0.1513 -0.7089
 3895SOL    HW123318   4.071   3.773   1.247 -1.6446  0.9842  0.8337
 3895SOL    HW223319   4.096   3.744   1.391  0.9842  1.4365  0.6021
 3896SOL     OW23320   1.283   0.927   2.614 -0.2364  0.5251  0.1545
 3896SOL    HW123321   1.348   0.979   2.663  0.3030  0.4552 -0.4915
 3896SOL    HW223322   1.209   0.984   2.635 -0.0168  0.8141  0.1582
 3897SOL     OW23323   1.288   3.886   6.613 -0.3372 -0.1811  0.3216
 3897SOL    HW123324   1.315   3.962   6.562  0.7681 -1.8621 -1.6039
 3897SOL    HW223325   1.334   3.896   6.696  1.2011  0.7578 -0.6591
 3898SOL     OW23326   4.092   3.205   2.549 -0.4242  0.3696 -0.4747
 3898SOL    HW123327   4.188   3.205   2.545 -0.4750 -1.6956 -1.6305
 3898SOL    HW223328   4.071   3.298   2.551  1.7491  0.8611  0.0067
 3899SOL     OW23329   4.298   1.720   3.833  0.3897  0.5972  0.2319
 3899SOL    HW123330   4.252   1.643   3.801  0.7645  0.9304 -1.1343
 3899SOL    HW223331   4.265   1.779   3.765  0.2049 -0.8385 -0.9328
 3900SOL     OW23332   0.454   1.379   5.931 -0.0337  0.3471  0.1553
 3900SOL    HW123333   0.387   1.431   5.886  0.2891  0.4262 -0.2237
 3900SOL    HW223334   0.525   1.442   5.936 -2.8234  3.6001 -1.2067
 3901SOL     OW23335   1.993   4.621   0.503  0.1638 -0.2182 -0.8548
 3901SOL    HW123336   1.927   4.552   0.503 -1.4111  1.3146  1.5821
 3901SOL    HW223337   2.034   4.601   0.419 -1.0969 -0.8738 -1.3047
 3902SOL     OW23338   3.827   0.967   4.503  0.0399 -0.3683 -0.1784
 3902SOL    HW123339   3.813   1.056   4.534 -2.2157 -0.1464 -1.8336
 3902SOL    HW223340   3.921   0.950   4.503 -0.1029 -1.1811  0.2570
 3903SOL     OW23341   4.150   3.214   8.393 -0.0717 -0.7540 -0.3002
 3903SOL    HW123342   4.057   3.194   8.405  0.5091 -2.6709  0.9829
 3903SOL    HW223343   4.189   3.226   8.480  0.3923 -2.0897 -0.3231
 3904SOL     OW23344   4.714   0.470  15.489  0.7389  0.0872  0.1129
 3904SOL    HW123345   0.023   0.454  15.407 -0.3689  0.5413 -0.5983
 3904SOL    HW223346   4.622   0.477  15.465  0.3100 -1.8203  1.1962
 3905SOL     OW23347   4.288   0.857   4.636  0.0521  0.1722  0.1835
 3905SOL    HW123348   4.241   0.865   4.719  0.5828  1.4293  0.3558
 3905SOL    HW223349   4.374   0.892   4.657  0.0307  0.8741 -0.9046
 3906SOL     OW23350   3.213   3.228   1.419 -0.1203 -0.7151 -0.8122
 3906SOL    HW123351   3.126   3.259   1.444  0.6005  0.8057 -0.2104
 3906SOL    HW223352   3.262   3.310   1.422 -0.5377 -0.5575  2.1258
 3907SOL     OW23353   1.755   2.865   5.201  0.2633  0.5903  0.0399
 3907SOL    HW123354   1.829   2.805   5.213  0.4635  0.8705  0.2140
 3907SOL    HW223355   1.687   2.807   5.168 -0.0230  2.1841 -2.2041
 3908SOL     OW23356   1.106   3.698   5.702  0.2307  0.2522 -0.2921
 3908SOL    HW123357   1.041   3.768   5.701  2.1657  2.0337 -0.1625
 3908SOL    HW223358   1.093   3.661   5.790 -0.4120 -0.9076 -0.8834
 3909SOL     OW23359   4.154   1.714   1.764  0.2703 -0.4195  0.6730
 3909SOL    HW123360   4.232   1.660   1.749  0.8458  0.3478  0.9319
 3909SOL    HW223361   4.178   1.789   1.818  0.1120  0.0983  0.0286
 3910SOL     OW23362   3.205   1.982   5.165  0.5221 -0.3688 -0.9111
 3910SOL    HW123363   3.200   2.034   5.245 -1.3410 -1.9941  0.0555
 3910SOL    HW223364   3.281   2.020   5.123 -0.0705 -0.3210 -1.9425
 3911SOL     OW23365   1.729   4.302   8.311  0.1506  0.5694 -0.4247
 3911SOL    HW123366   1.676   4.250   8.251  0.2025 -0.6322  0.5732
 3911SOL    HW223367   1.786   4.334   8.241  1.6612 -0.3838  0.3657
 3912SOL     OW23368   0.384   3.192  14.696  0.3071 -0.1738  0.3537
 3912SOL    HW123369   0.304   3.218  14.743  0.2914  0.1893  0.1327
 3912SOL    HW223370   0.418   3.280  14.678 -2.7300  1.1245  0.8932
 3913SOL     OW23371   3.568   0.445  15.295  0.2527 -0.1259  0.5737
 3913SOL    HW123372   3.557   0.511  15.227 -1.2838 -0.6401  0.3276
 3913SOL    HW223373   3.490   0.394  15.275  0.0201  0.3197  0.3470
 3914SOL     OW23374   2.740   0.852   0.301 -0.1382  0.2985  0.1394
 3914SOL    HW123375   2.755   0.770   0.253 -2.3550  1.4091 -2.4116
 3914SOL    HW223376   2.805   0.911   0.262  0.8532  0.8911  2.6451
 3915SOL     OW23377   0.369   1.520  11.402  0.4042  0.0391 -0.4379
 3915SOL    HW123378   0.464   1.533  11.402  0.3543  0.4345  0.4542
 3915SOL    HW223379   0.359   1.475  11.486  2.1143  0.3128 -0.0892
 3916SOL     OW23380   1.257   1.642   4.480  0.1254  0.4484  0.2980
 3916SOL    HW123381   1.304   1.725   4.470 -0.4567  0.3957 -2.8298
 3916SOL    HW223382   1.168   1.673   4.464 -0.2994 -0.8346  0.1499
 3917SOL     OW23383   2.930   0.721   8.961  0.4096 -0.2917 -0.1175
 3917SOL    HW123384   2.934   0.758   9.049  0.9996 -0.7919  0.0581
 3917SOL    HW223385   3.024   0.718   8.946  0.6438  1.4803  0.9696
 3918SOL     OW23386   2.428   0.118  10.034  0.5137  0.7631 -0.5165
 3918SOL    HW123387   2.337   0.120  10.003  0.5202 -0.1593 -0.5983
 3918SOL    HW223388   2.412   0.058  10.106  0.0574  0.8152 -0.5741
 3919SOL     OW23389   1.290   3.431   3.139 -0.3389  0.3910 -0.1714
 3919SOL    HW123390   1.306   3.387   3.223 -0.2241 -0.3229 -0.5632
 3919SOL    HW223391   1.196   3.437   3.152 -0.5832 -2.2421 -0.7344
 3920SOL     OW23392   4.159   3.502   6.768 -0.0763 -0.2752  0.5615
 3920SOL    HW123393   4.148   3.551   6.686  1.7094  1.7613  1.5371
 3920SOL    HW223394   4.169   3.570   6.834  1.7695 -0.0626  0.0686
 3921SOL     OW23395   2.571   2.652   3.534 -0.4409  0.7172  0.0869
 3921SOL    HW123396   2.645   2.698   3.495 -0.4383 -0.0561 -0.8388
 3921SOL    HW223397   2.509   2.725   3.538 -0.7383  0.4506  0.3828
 3922SOL     OW23398   4.661   3.352   2.790  0.2100 -0.5016  0.3022
 3922SOL    HW123399   4.698   3.303   2.863 -0.3428 -0.1394  0.8257
 3922SOL    HW223400   4.570   3.344   2.818 -0.2368  1.3960 -0.5874
 3923SOL     OW23401   4.662   3.592   3.006  0.2981 -0.1784  0.4520
 3923SOL    HW123402   4.708   3.513   3.036  0.8618  0.1404  0.4293
 3923SOL    HW223403   4.712   3.619   2.930  1.5610  0.1110  1.3812
 3924SOL     OW23404   1.381   0.405  14.924  0.3350 -0.2280 -0.2677
 3924SOL    HW123405   1.374   0.447  14.838 -1.6257 -2.4756 -1.2080
 3924SOL    HW223406   1.459   0.350  14.914  1.1654  1.0884 -1.1136
 3925SOL     OW23407   1.601   3.075   3.470  0.2242  0.0620 -0.4396
 3925SOL    HW123408   1.588   3.140   3.401  1.5599  0.5924 -0.1898
 3925SOL    HW223409   1.516   3.066   3.514  0.2637 -1.4961 -0.6669
 3926SOL     OW23410   0.734   0.924   6.467  0.6438 -0.1601  0.5517
 3926SOL    HW123411   0.765   0.918   6.557  0.9273 -1.0751  0.3909
 3926SOL    HW223412   0.663   0.860   6.475 -0.3832  1.0228  0.9096
 3927SOL     OW23413   0.618   1.814   8.660  0.4064 -0.3943  0.0178
 3927SOL    HW123414   0.684   1.783   8.722 -0.6330 -2.0878  0.2970
 3927SOL    HW223415   0.653   1.779   8.578 -0.3674  0.4681 -0.6866
 3928SOL     OW23416   0.077   1.014   3.107 -0.1560  0.0094 -0.0855
 3928SOL    HW123417   0.054   0.924   3.082  1.7033 -1.1078  2.1813
 3928SOL    HW223418   0.148   1.001   3.170 -1.7871 -0.7407  1.5882
 3929SOL     OW23419   0.114   1.148   5.508 -0.1491 -0.2397  0.1934
 3929SOL    HW123420   0.184   1.088   5.481 -0.5312  0.0356 -1.4231
 3929SOL    HW223421   0.036   1.104   5.476 -0.7839  1.4429 -0.5775
 3930SOL     OW23422   2.185   3.823   5.914 -0.1731  0.2955 -0.2497
 3930SOL    HW123423   2.106   3.874   5.932  0.3571  1.1783 -0.3723
 3930SOL    HW223424   2.180   3.830   5.819 -0.0125 -0.3805 -0.3071
 3931SOL     OW23425   4.344   2.077  11.125 -0.6357  0.3958 -0.4410
 3931SOL    HW123426   4.364   2.083  11.219 -0.5236 -1.7397 -0.3282
 3931SOL    HW223427   4.300   1.992  11.122 -0.4616  0.2101  2.0741
 3932SOL     OW23428   1.652   4.668   2.869 -0.1718 -0.4805 -0.5290
 3932SOL    HW123429   1.697   4.713   2.940  1.0453 -2.9517  0.2656
 3932SOL    HW223430   1.589   4.620   2.923  0.3029 -0.8531 -0.3136
 3933SOL     OW23431   2.607   1.464   4.189  0.4650  0.5838 -0.3636
 3933SOL    HW123432   2.664   1.483   4.263  2.7514  0.0754 -1.9965
 3933SOL    HW223433   2.654   1.390   4.150 -2.4583 -1.8325  0.6340
 3934SOL     OW23434   1.926   3.441   7.516 -0.3248  0.3547 -0.1701
 3934SOL    HW123435   2.006   3.392   7.498  0.4002  1.0984  1.0392
 3934SOL    HW223436   1.976   3.518   7.543  0.9663  0.0578 -1.6724
 3935SOL     OW23437   3.165   2.961   5.297  0.1171 -0.1039 -0.1885
 3935SOL    HW123438   3.186   2.868   5.289  0.1683  0.0491 -1.9204
 3935SOL    HW223439   3.150   2.963   5.392 -0.8092  1.9087 -0.3714
 3936SOL     OW23440   1.960   1.975  14.457 -0.5063 -0.3387  0.2932
 3936SOL    HW123441   1.891   1.984  14.392 -0.3773 -0.9079  0.0776
 3936SOL    HW223442   2.016   2.045  14.425  0.5024 -0.4157  1.8875
 3937SOL     OW23443   4.549   1.122  11.494  0.2118  0.5277 -0.3435
 3937SOL    HW123444   4.596   1.132  11.577 -2.3353 -0.5400  1.2652
 3937SOL    HW223445   4.499   1.203  11.505  1.6229  1.4428 -0.6592
 3938SOL     OW23446   0.995   1.922   5.628  0.7067  0.3070  0.1076
 3938SOL    HW123447   1.009   1.961   5.714  1.4392  0.0593  0.1003
 3938SOL    HW223448   1.083   1.934   5.593  0.8945  1.5904  1.0282
 3939SOL     OW23449   3.858   1.032   1.924  0.5923  0.2593  0.1101
 3939SOL    HW123450   3.896   1.075   2.001  1.0737  1.0404 -0.5635
 3939SOL    HW223451   3.887   1.094   1.858  0.9744 -1.6040 -1.4682
 3940SOL     OW23452   3.190   3.724  17.623 -0.1576  0.1519 -0.4303
 3940SOL    HW123453   3.270   3.672  17.619 -0.0983  0.0759  1.4991
 3940SOL    HW223454   3.222   3.812  17.606 -0.7341 -0.0256 -2.4098
 3941SOL     OW23455   0.259   3.881  13.390 -0.5496  0.1998  0.2733
 3941SOL    HW123456   0.240   3.951  13.452  0.0624 -0.0254  0.7095
 3941SOL    HW223457   0.211   3.806  13.427 -0.9099  0.0413 -0.5071
 3942SOL     OW23458   1.253   4.120   3.078  0.1026  0.1338 -0.3147
 3942SOL    HW123459   1.264   4.146   2.987  0.0872 -0.4385 -0.4806
 3942SOL    HW223460   1.161   4.142   3.088 -0.3624 -0.9565 -2.1105
 3943SOL     OW23461   2.540   3.984   3.783 -0.3945 -0.6050 -0.0721
 3943SOL    HW123462   2.489   3.904   3.791 -1.4053  0.2181  1.7370
 3943SOL    HW223463   2.480   4.037   3.731  1.0227  1.8863  0.8015
 3944SOL     OW23464   1.773   4.730   2.453 -0.6117 -0.4262 -0.0853
 3944SOL    HW123465   1.802   4.683   2.531  0.1847  2.5459  1.4109
 3944SOL    HW223466   1.833   4.688   2.392  2.1049 -2.0396  3.6765
 3945SOL     OW23467   2.874   1.428   4.421 -0.0946  0.0223  0.0842
 3945SOL    HW123468   2.820   1.357   4.457  1.2378 -1.6226 -1.1358
 3945SOL    HW223469   2.947   1.373   4.391  0.6962  0.3165  1.4701
 3946SOL     OW23470   3.240   4.407  15.755  0.0916 -0.1927  0.3322
 3946SOL    HW123471   3.270   4.419  15.665 -0.8492  0.6498  0.1285
 3946SOL    HW223472   3.278   4.487  15.791 -0.9805  0.7659 -0.6699
 3947SOL     OW23473   4.325   0.901   5.601  0.1099 -0.4726  0.7898
 3947SOL    HW123474   4.270   0.954   5.542  1.2853 -0.8958 -0.6878
 3947SOL    HW223475   4.265   0.869   5.668  0.6416  0.1249  1.5559
 3948SOL     OW23476   4.165   1.515   3.732 -0.6318 -0.3037  0.0049
 3948SOL    HW123477   4.085   1.562   3.709 -1.1584  0.1978  2.9067
 3948SOL    HW223478   4.129   1.426   3.738  0.2714 -0.6469  0.4461
 3949SOL     OW23479   0.616   4.564  17.710 -0.1620 -0.0959 -0.0767
 3949SOL    HW123480   0.632   4.657  17.699  0.1321 -0.2628 -1.0617
 3949SOL    HW223481   0.522   4.561  17.692 -0.1691  1.3902 -0.2436
 3950SOL     OW23482   4.030   4.242  11.345 -0.7199  0.0383 -0.3076
 3950SOL    HW123483   3.966   4.279  11.407 -1.2488 -0.9730 -0.2488
 3950SOL    HW223484   3.987   4.159  11.324 -1.1555  0.7039 -2.0042
 3951SOL     OW23485   1.832   3.049   6.237  0.2344  0.6805 -0.8327
 3951SOL    HW123486   1.771   3.121   6.223  2.0539  2.6085  1.1008
 3951SOL    HW223487   1.865   3.044   6.147 -0.0800  1.0988 -0.9700
 3952SOL     OW23488   2.046   4.309  12.664 -0.8879  0.3331 -0.4753
 3952SOL    HW123489   1.982   4.249  12.625 -0.9847 -0.4664  0.9365
 3952SOL    HW223490   2.131   4.301  12.620 -0.0135  1.0786  1.0854
 3953SOL     OW23491   0.279   3.488  13.428  0.5151 -0.4821 -0.2170
 3953SOL    HW123492   0.256   3.551  13.497  0.7365  0.1950 -0.7575
 3953SOL    HW223493   0.338   3.545  13.379 -3.4904  4.8320  1.0933
 3954SOL     OW23494   4.647   3.461  10.275  0.5586  0.4932 -0.1919
 3954SOL    HW123495   4.683   3.520  10.340  2.2506  0.8271 -1.4096
 3954SOL    HW223496   4.727   3.412  10.253 -1.3823 -2.9222  0.2324
 3955SOL     OW23497   3.606   1.053   7.108  0.1844 -0.2917  0.2696
 3955SOL    HW123498   3.653   1.012   7.034  2.0064  3.4068 -0.6295
 3955SOL    HW223499   3.664   1.128   7.120  1.3402 -1.6363  3.2287
 3956SOL     OW23500   3.494   3.634   3.713  0.7737  0.3217 -0.2532
 3956SOL    HW123501   3.509   3.603   3.802  0.4291 -1.5431 -0.8448
 3956SOL    HW223502   3.399   3.626   3.707  0.6995  2.5139 -1.9156
 3957SOL     OW23503   0.685   3.667  13.186  0.1815  0.3351 -0.2505
 3957SOL    HW123504   0.743   3.742  13.177 -1.8300  1.9142 -0.0752
 3957SOL    HW223505   0.656   3.653  13.096  1.7097  1.2926 -0.8836
 3958SOL     OW23506   4.089   3.201   2.220 -0.5123  0.2260 -0.2110
 3958SOL    HW123507   4.098   3.123   2.275  0.0989 -0.0549 -0.7132
 3958SOL    HW223508   4.171   3.201   2.170  0.1763  2.1941  0.9326
 3959SOL     OW23509   3.773   2.512  11.796 -0.6390 -0.0199 -0.0599
 3959SOL    HW123510   3.796   2.561  11.875 -0.1016  1.2586 -1.0086
 3959SOL    HW223511   3.855   2.516  11.747  0.1990 -0.0843  1.3577
 3960SOL     OW23512   0.113   3.666   2.814  0.1929  0.1958  0.4995
 3960SOL    HW123513   0.163   3.586   2.801  1.2620  0.7481  1.1521
 3960SOL    HW223514   0.082   3.665   2.724  3.8693  1.5357 -0.7857
 3961SOL     OW23515   2.752   0.554   1.976 -0.4936 -0.2339 -0.1390
 3961SOL    HW123516   2.698   0.620   1.933  0.1680 -0.3994 -1.2226
 3961SOL    HW223517   2.804   0.528   1.900  1.3252 -0.0305  1.0392
 3962SOL     OW23518   2.770   0.117   5.663 -0.3180 -0.1882  0.5798
 3962SOL    HW123519   2.788   0.076   5.747  0.2680  0.7611  0.9114
 3962SOL    HW223520   2.829   0.062   5.612 -2.3639 -0.4210 -1.5600
 3963SOL     OW23521   0.456   0.117   8.926 -0.1396 -0.4396 -0.2006
 3963SOL    HW123522   0.463   0.168   9.007 -0.6355  0.6185 -0.8249
 3963SOL    HW223523   0.474   0.179   8.855  4.0589 -0.9490  0.4345
 3964SOL     OW23524   1.666   3.626   8.874  0.0582 -0.9847  0.3336
 3964SOL    HW123525   1.670   3.531   8.866 -0.5442 -1.3031  3.7482
 3964SOL    HW223526   1.571   3.632   8.887  0.2457 -2.5696  2.4125
 3965SOL     OW23527   3.004   2.298  16.820 -0.1698 -0.4452 -0.8171
 3965SOL    HW123528   3.028   2.342  16.739 -3.0232  0.6152 -1.0803
 3965SOL    HW223529   3.076   2.236  16.836  1.1607  0.8833 -1.6222
 3966SOL     OW23530   2.303   0.052   1.379 -0.2856 -0.5793  0.8018
 3966SOL    HW123531   2.255   4.722   1.333 -1.0389  0.1391  0.5363
 3966SOL    HW223532   2.396   0.029   1.368 -0.2220  0.2795 -0.5095
 3967SOL     OW23533   4.574   3.716   2.436 -0.4780 -0.1605  0.4064
 3967SOL    HW123534   4.577   3.796   2.489  0.3368  0.7115 -0.9651
 3967SOL    HW223535   4.556   3.745   2.347  2.1768 -1.1826 -0.4633
 3968SOL     OW23536   4.090   1.259   4.583  0.0700  0.2003 -0.4173
 3968SOL    HW123537   4.095   1.167   4.558 -0.2785  0.3257 -0.9533
 3968SOL    HW223538   4.019   1.251   4.646  1.0311  1.8251  0.8934
 3969SOL     OW23539   0.408   2.357   5.310 -0.0620  0.1237  0.0864
 3969SOL    HW123540   0.464   2.389   5.239 -0.2210 -0.9188 -0.4983
 3969SOL    HW223541   0.321   2.375   5.274  0.0770 -0.8012 -0.7002
 3970SOL     OW23542   0.384   1.563   1.835  0.0405 -0.4975  0.6293
 3970SOL    HW123543   0.307   1.620   1.843  0.2588  0.0114 -0.8012
 3970SOL    HW223544   0.452   1.624   1.864 -0.3314 -2.6470  6.0544
 3971SOL     OW23545   1.433   2.595   3.455  0.1841  0.1372 -0.2007
 3971SOL    HW123546   1.370   2.657   3.492 -0.1224 -0.1518 -0.2336
 3971SOL    HW223547   1.401   2.513   3.491 -3.1619  0.5947 -2.1230
 3972SOL     OW23548   2.439   0.369   3.487  0.2070 -0.3824  0.1237
 3972SOL    HW123549   2.465   0.290   3.440 -2.4194 -3.2535  3.5231
 3972SOL    HW223550   2.508   0.387   3.552  0.5652 -0.4320 -0.2386
 3973SOL     OW23551   4.361   3.241  16.366  0.8392 -0.0792 -0.1431
 3973SOL    HW123552   4.266   3.239  16.356  0.9729 -0.5101 -1.3412
 3973SOL    HW223553   4.372   3.226  16.460  1.3435  2.1465  0.1461
 3974SOL     OW23554   1.083   0.468   2.552 -0.4352  0.7724 -0.3093
 3974SOL    HW123555   1.057   0.560   2.543 -0.8987  0.5784 -1.0074
 3974SOL    HW223556   1.117   0.482   2.640 -0.9483  2.0980 -0.3222
 3975SOL     OW23557   1.585   2.194  12.374 -0.0797 -0.0461 -0.5597
 3975SOL    HW123558   1.568   2.101  12.358  2.3940 -0.7535  0.8818
 3975SOL    HW223559   1.558   2.208  12.465  0.0408 -2.8633 -0.0714
 3976SOL     OW23560   3.181   1.958   6.922  0.1209  0.3088 -0.3119
 3976SOL    HW123561   3.203   1.956   7.015  0.8236 -0.2056 -0.4959
 3976SOL    HW223562   3.267   1.962   6.880 -0.8364  1.6096 -2.1765
 3977SOL     OW23563   2.771   3.595   9.812  0.0064 -0.0657 -0.4633
 3977SOL    HW123564   2.681   3.573   9.837  0.2876 -0.2872  0.3570
 3977SOL    HW223565   2.768   3.540   9.734  1.0807  0.0375 -0.5780
 3978SOL     OW23566   1.898   2.195   6.765 -0.0401 -0.6161  0.1744
 3978SOL    HW123567   1.839   2.263   6.797  1.6783  0.3813  1.2711
 3978SOL    HW223568   1.934   2.242   6.690 -0.8801 -1.0121 -0.4686
 3979SOL     OW23569   0.469   1.337   7.058 -0.2353 -0.2255  0.1468
 3979SOL    HW123570   0.488   1.394   6.983  0.6691  1.6798  1.8229
 3979SOL    HW223571   0.501   1.256   7.018 -3.8899 -2.2221  1.2210
 3980SOL     OW23572   2.792   3.993   5.002 -0.5593  0.0842  0.4912
 3980SOL    HW123573   2.711   3.956   4.965 -0.2262 -0.3173  0.1655
 3980SOL    HW223574   2.798   4.075   4.953  1.6638 -0.9357 -0.9597
 3981SOL     OW23575   3.570   0.985  13.283 -0.6053 -0.3932  0.0589
 3981SOL    HW123576   3.662   0.964  13.300 -0.4431  0.1858 -0.0989
 3981SOL    HW223577   3.564   1.080  13.299  2.1740 -0.2835  0.4176
 3982SOL     OW23578   3.741   3.888   1.641 -0.1008  0.1207 -0.9321
 3982SOL    HW123579   3.658   3.875   1.687 -0.8138  0.6551 -2.0732
 3982SOL    HW223580   3.763   3.973   1.678 -1.4081  0.9104 -1.9574
 3983SOL     OW23581   2.213   0.016   4.897  0.1761 -0.0498 -0.1776
 3983SOL    HW123582   2.211   0.105   4.861  2.0182 -0.3214 -0.9495
 3983SOL    HW223583   2.121   4.731   4.912  0.1402  0.1879 -0.0335
 3984SOL     OW23584   3.639   4.565  16.327  0.0467  0.2482 -0.4963
 3984SOL    HW123585   3.602   4.586  16.412 -0.3266 -0.1156 -0.5732
 3984SOL    HW223586   3.634   4.469  16.328  0.8597  0.2366  1.1129
 3985SOL     OW23587   0.273   4.538   1.860  0.2241  0.3411 -0.0894
 3985SOL    HW123588   0.315   4.613   1.817 -0.7056  0.1829 -1.3021
 3985SOL    HW223589   0.320   4.545   1.942  1.4573  1.5556 -0.8934
 3986SOL     OW23590   2.536   1.209   5.215  0.6365 -0.0972  0.3908
 3986SOL    HW123591   2.459   1.155   5.233  0.5871 -0.5978 -1.2517
 3986SOL    HW223592   2.539   1.185   5.122  0.1919 -2.3863  0.9742
 3987SOL     OW23593   3.414   2.483   3.608 -0.2513 -0.5130  0.3980
 3987SOL    HW123594   3.493   2.453   3.563  0.4721  0.8521  0.7648
 3987SOL    HW223595   3.398   2.563   3.558  0.1739  0.4576  1.8135
 3988SOL     OW23596   4.413   2.345   6.824 -0.2102  0.0952  0.4609
 3988SOL    HW123597   4.364   2.370   6.746 -0.6034 -1.1246  0.3288
 3988SOL    HW223598   4.500   2.324   6.791 -1.1751  0.2194 -2.0926
 3989SOL     OW23599   2.010   2.856  12.477 -0.0339 -1.0090 -0.0746
 3989SOL    HW123600   1.971   2.769  12.488 -2.4802  0.0862 -0.0095
 3989SOL    HW223601   2.076   2.839  12.409 -0.6059  2.0762 -1.4204
 3990SOL     OW23602   2.152   1.745   6.806 -0.3544 -0.4316  0.0858
 3990SOL    HW123603   2.080   1.696   6.847 -0.4394 -1.6051 -1.4577
 3990SOL    HW223604   2.228   1.695   6.835  1.9562  4.5074  2.5589
 3991SOL     OW23605   0.182   3.227   5.222 -0.4012  1.0371  0.0719
 3991SOL    HW123606   0.237   3.269   5.156  0.7110 -0.6659 -0.0650
 3991SOL    HW223607   0.121   3.173   5.171  0.8615  0.4914 -0.8787
 3992SOL     OW23608   4.561   3.718   5.463 -0.2521 -0.2618  0.0225
 3992SOL    HW123609   4.543   3.645   5.403 -0.4378 -0.2469  0.0592
 3992SOL    HW223610   4.542   3.796   5.411  0.8957  0.1668  0.2633
 3993SOL     OW23611   0.605   1.155   5.876  0.1820  0.0809  0.3300
 3993SOL    HW123612   0.543   1.212   5.923  0.8782  1.8270 -0.8822
 3993SOL    HW223613   0.688   1.172   5.920  1.1942 -0.7358 -1.2515
 3994SOL     OW23614   2.658   3.745   6.290  0.3787  0.6633  0.3324
 3994SOL    HW123615   2.720   3.680   6.256  2.5326  2.4368  0.7809
 3994SOL    HW223616   2.639   3.710   6.376 -0.3209  1.7666  0.6294
 3995SOL     OW23617   0.793   0.643  17.291  0.0766 -0.0237  0.6371
 3995SOL    HW123618   0.784   0.619  17.199 -0.8316  0.9432  0.4741
 3995SOL    HW223619   0.799   0.738  17.304  0.0967  0.3545 -2.3296
 3996SOL     OW23620   2.824   0.548   1.512 -0.4912  0.2147 -0.0995
 3996SOL    HW123621   2.756   0.538   1.446  2.1885 -1.7268 -2.5610
 3996SOL    HW223622   2.908   0.510   1.489  0.0806  1.0852  0.5452
 3997SOL     OW23623   3.698   0.747   5.963 -0.1435 -0.4815  0.4632
 3997SOL    HW123624   3.755   0.765   6.038  1.2720  0.1261 -0.7578
 3997SOL    HW223625   3.634   0.818   5.962 -2.5199 -2.6605  0.2626
 3998SOL     OW23626   4.720   2.507   6.353 -0.5095 -0.0997  0.3455
 3998SOL    HW123627   0.006   2.585   6.403 -0.1194 -0.8807  1.3711
 3998SOL    HW223628   0.053   2.445   6.367 -2.3036 -2.1311  0.5505
 3999SOL     OW23629   3.014   1.777  16.396 -0.1609 -0.4144 -0.1605
 3999SOL    HW123630   3.001   1.682  16.391  0.4690 -0.3995 -2.0906
 3999SOL    HW223631   2.926   1.802  16.369  0.4526  2.0931  0.2190
 4000SOL     OW23632   1.054   4.156   5.853 -0.5933 -0.4361 -0.3221
 4000SOL    HW123633   0.986   4.202   5.902 -1.2679  1.0428 -2.6448
 4000SOL    HW223634   1.014   4.172   5.768 -1.2406 -0.6909 -0.0649
 4001SOL     OW23635   2.592   3.256  15.443 -0.0870 -0.5642 -0.3582
 4001SOL    HW123636   2.573   3.310  15.520 -0.1012 -2.2559  0.8095
 4001SOL    HW223637   2.657   3.304  15.392 -1.2531  1.4094 -0.0270
 4002SOL     OW23638   1.650   1.655   5.842  0.7300 -0.1062 -0.2534
 4002SOL    HW123639   1.730   1.628   5.796  0.6609 -0.8746  0.0736
 4002SOL    HW223640   1.640   1.575   5.893  0.3386 -0.0261 -0.2067
 4003SOL     OW23641   3.057   2.837  10.591 -0.2433  0.0337 -0.6356
 4003SOL    HW123642   2.970   2.843  10.550 -0.0861  0.3161 -0.9305
 4003SOL    HW223643   3.110   2.865  10.516 -0.7478 -0.9877 -1.3696
 4004SOL     OW23644   4.044   1.747   0.588  0.0303  0.7599  0.2804
 4004SOL    HW123645   4.036   1.743   0.683 -3.8115  0.5378 -0.0557
 4004SOL    HW223646   4.107   1.818   0.576  1.2490 -0.4671 -0.6153
 4005SOL     OW23647   3.531   2.580   2.723 -0.6963  0.2531  0.0022
 4005SOL    HW123648   3.492   2.495   2.744 -1.8839  0.1707 -2.5140
 4005SOL    HW223649   3.507   2.637   2.796  0.4531 -1.5767  1.8051
 4006SOL     OW23650   3.890   1.453   2.019 -0.2050  0.3287 -0.2190
 4006SOL    HW123651   3.974   1.411   2.005 -0.1161 -0.2553  2.0626
 4006SOL    HW223652   3.887   1.526   1.957  2.3567 -0.9638 -1.8348
 4007SOL     OW23653   1.935   0.338   7.720  0.4724  0.1356 -0.2903
 4007SOL    HW123654   1.975   0.353   7.634  3.3379 -2.6285  0.5524
 4007SOL    HW223655   1.906   0.426   7.744 -0.4513 -0.4782  0.8374
 4008SOL     OW23656   1.306   3.133   7.336 -0.7511  0.1792  0.0177
 4008SOL    HW123657   1.363   3.180   7.397  2.0044 -0.5453 -1.9464
 4008SOL    HW223658   1.285   3.198   7.268  2.6479  0.8350 -0.4186
 4009SOL     OW23659   1.738   3.097   5.334  0.7250  0.6044 -0.1747
 4009SOL    HW123660   1.673   3.048   5.385  0.4794  0.8999 -0.2039
 4009SOL    HW223661   1.760   3.039   5.261  3.0249 -0.1742  1.1508
 4010SOL     OW23662   1.652   0.797   5.906  0.3617  0.1910  0.4765
 4010SOL    HW123663   1.696   0.713   5.922  0.6536  0.3881  0.7150
 4010SOL    HW223664   1.618   0.788   5.817  1.6801 -1.8096  0.1607
 4011SOL     OW23665   1.411   3.453   4.234  0.5812 -0.2522 -0.0933
 4011SOL    HW123666   1.392   3.383   4.296  1.0438 -0.7585 -0.5217
 4011SOL    HW223667   1.436   3.419   4.148 -0.8683 -2.1320  0.2560
 4012SOL     OW23668   2.995   4.475   0.567 -0.2068 -0.0693  0.0520
 4012SOL    HW123669   3.005   4.380   0.564  0.7307  0.0569 -0.7344
 4012SOL    HW223670   3.087   4.491   0.588  0.3147 -2.1710 -0.6865
 4013SOL     OW23671   1.471   2.124   0.850  0.6496  0.4546 -0.1221
 4013SOL    HW123672   1.384   2.105   0.817  1.1305  0.2339 -1.2650
 4013SOL    HW223673   1.520   2.099   0.771  0.3085  0.3659 -0.3030
 4014SOL     OW23674   2.457   0.323   1.871 -0.6171  0.5834  0.0310
 4014SOL    HW123675   2.494   0.273   1.798  1.5575 -0.5718  1.9446
 4014SOL    HW223676   2.515   0.311   1.946  0.9742 -1.6693 -1.5417
 4015SOL     OW23677   0.493   3.617  14.522  0.0679 -0.3470  0.1605
 4015SOL    HW123678   0.541   3.700  14.521  1.9506 -1.4425 -0.0500
 4015SOL    HW223679   0.402   3.646  14.509 -0.1992 -1.0437  0.4559
 4016SOL     OW23680   3.048   1.009   3.215 -0.3658 -0.0930  0.2925
 4016SOL    HW123681   2.955   1.017   3.195 -0.4884  0.9237  1.2531
 4016SOL    HW223682   3.045   0.919   3.247  1.6987 -0.6386 -1.0706
 4017SOL     OW23683   0.681   3.155   8.556 -0.5981 -0.4231  0.0395
 4017SOL    HW123684   0.722   3.216   8.617 -1.4011  0.9734 -0.8222
 4017SOL    HW223685   0.672   3.210   8.478 -0.2909 -0.2930  0.0953
 4018SOL     OW23686   2.649   3.041   3.646  0.7780  0.6212  0.5742
 4018SOL    HW123687   2.717   3.013   3.708  1.1821  0.8232  0.2284
 4018SOL    HW223688   2.572   3.002   3.686 -0.0295  0.8447 -0.7860
 4019SOL     OW23689   0.407   2.972   6.155  0.9225 -0.0616  0.2897
 4019SOL    HW123690   0.414   2.999   6.063 -0.6798  0.3916  0.2873
 4019SOL    HW223691   0.391   3.058   6.195  1.0397  0.2146 -0.2511
 4020SOL     OW23692   0.658   3.569   5.667 -0.1518  0.3643 -0.2421
 4020SOL    HW123693   0.603   3.581   5.744 -2.9290  2.0204 -2.4521
 4020SOL    HW223694   0.727   3.515   5.704 -1.1650 -0.9012 -0.1989
 4021SOL     OW23695   2.450   3.121   7.562 -0.0654  0.1175 -0.3486
 4021SOL    HW123696   2.467   3.049   7.501  3.6282 -0.6180  1.5921
 4021SOL    HW223697   2.377   3.088   7.613  1.7961 -1.6689  1.1264
 4022SOL     OW23698   0.198   1.753   1.917  0.6016  0.1210 -0.2857
 4022SOL    HW123699   0.215   1.681   1.978  1.0375  0.0560 -0.4865
 4022SOL    HW223700   0.133   1.806   1.964 -1.3926 -2.2542 -0.3378
 4023SOL     OW23701   2.043   4.311   3.263 -0.1240 -0.1176  0.3011
 4023SOL    HW123702   2.127   4.322   3.307  0.5830  1.3776 -1.4432
 4023SOL    HW223703   2.005   4.234   3.306 -1.4664 -0.1625 -0.9857
 4024SOL     OW23704   3.826   3.487   0.763  0.5369  0.1245 -0.3408
 4024SOL    HW123705   3.862   3.489   0.851  1.2647 -1.8768 -0.6097
 4024SOL    HW223706   3.759   3.419   0.774 -1.0006  1.8385  0.9827
 4025SOL     OW23707   3.624   3.435  12.674 -0.0312  0.6284 -0.2855
 4025SOL    HW123708   3.606   3.455  12.766  0.1571  0.8066 -0.2873
 4025SOL    HW223709   3.601   3.516  12.629 -1.6163 -0.6935 -1.8802
 4026SOL     OW23710   2.385   3.829   1.481 -0.5077 -0.2046 -0.2843
 4026SOL    HW123711   2.477   3.806   1.498 -0.9354 -1.0409  0.8516
 4026SOL    HW223712   2.342   3.803   1.562 -1.3682  3.2179  0.3829
 4027SOL     OW23713   0.004   1.735   9.832  0.0065 -0.5198 -0.3791
 4027SOL    HW123714   4.677   1.664   9.826  0.7313 -1.0743 -1.5650
 4027SOL    HW223715   4.701   1.802   9.887  0.8245 -0.0175 -0.3804
 4028SOL     OW23716   4.561   2.098  11.634  0.4447  0.2559  0.2792
 4028SOL    HW123717   4.581   2.031  11.569 -0.2579 -0.3477  0.6740
 4028SOL    HW223718   4.481   2.055  11.666  1.1196 -0.6178  0.7675
 4029SOL     OW23719   2.929   0.806   5.393 -0.6101 -0.4020  0.1063
 4029SOL    HW123720   2.840   0.777   5.413 -0.8469 -1.1091 -2.0419
 4029SOL    HW223721   2.978   0.738   5.439  0.5748  2.5633  3.2869
 4030SOL     OW23722   4.475   1.464   5.703 -0.0002  0.3107  0.3509
 4030SOL    HW123723   4.456   1.448   5.610 -0.1474  0.1588  0.4085
 4030SOL    HW223724   4.492   1.374   5.730  2.9239  0.2728 -1.5593
 4031SOL     OW23725   1.039   0.485   5.555  0.6591 -0.3578  0.1850
 4031SOL    HW123726   1.101   0.418   5.526  0.3819  0.3758 -2.1726
 4031SOL    HW223727   0.960   0.431   5.561  0.9357 -0.8618 -0.6326
 4032SOL     OW23728   4.566   3.349   2.079 -0.2256  0.2259 -0.0376
 4032SOL    HW123729   4.586   3.380   2.167 -0.0250  1.4227 -0.5069
 4032SOL    HW223730   4.655   3.319   2.061  0.7613  3.5446 -0.7548
 4033SOL     OW23731   0.920   4.032   3.950  0.3833 -0.7086  0.2378
 4033SOL    HW123732   0.951   4.112   3.909  0.7265  0.4119  2.6781
 4033SOL    HW223733   0.955   4.032   4.039  2.7121 -1.8158 -0.6787
 4034SOL     OW23734   0.369   3.575  11.589  0.1467  0.1795 -0.4353
 4034SOL    HW123735   0.408   3.637  11.527 -0.8396  1.8201  0.6000
 4034SOL    HW223736   0.356   3.636  11.661  0.0142  0.3096 -0.5689
 4035SOL     OW23737   4.057   3.304  17.245 -0.2787 -0.2097 -0.3068
 4035SOL    HW123738   3.988   3.254  17.290 -0.5938 -1.0171 -1.6897
 4035SOL    HW223739   4.071   3.386  17.293 -1.4195  1.1788 -2.3510
 4036SOL     OW23740   0.934   3.800   0.326  0.7728 -0.8432 -0.0061
 4036SOL    HW123741   0.842   3.820   0.306  1.0029  0.9991  0.7879
 4036SOL    HW223742   0.935   3.731   0.392  0.0942  0.0975  1.0002
 4037SOL     OW23743   2.642   2.476   8.489 -0.0641  0.2911 -0.2810
 4037SOL    HW123744   2.566   2.424   8.517 -1.7418  2.9549  0.1496
 4037SOL    HW223745   2.668   2.433   8.408  1.7870 -1.6930  1.3582
 4038SOL     OW23746   2.645   3.739   2.986  0.0876 -0.9082  0.1966
 4038SOL    HW123747   2.555   3.773   2.992 -0.0531 -1.0923 -1.0433
 4038SOL    HW223748   2.620   3.647   2.991  1.3900 -1.2254  0.7562
 4039SOL     OW23749   3.587   0.217  11.376 -0.1584  0.4217 -0.7532
 4039SOL    HW123750   3.577   0.307  11.346 -2.1016  0.5081  0.1861
 4039SOL    HW223751   3.501   0.200  11.414  0.0105  0.1833 -0.4797
 4040SOL     OW23752   0.515   3.713   8.204  0.0865 -0.2387  0.0308
 4040SOL    HW123753   0.458   3.790   8.209  0.4808 -0.0212  1.2116
 4040SOL    HW223754   0.571   3.720   8.126 -3.9025 -2.5538 -3.0383
 4041SOL     OW23755   0.864   0.635   3.199 -0.2164  0.2635  0.1829
 4041SOL    HW123756   0.796   0.651   3.133 -1.0428 -0.0636  0.9642
 4041SOL    HW223757   0.838   0.550   3.234  2.8368  0.0922  1.9591
 4042SOL     OW23758   4.359   1.106   9.009 -0.0469  0.5217 -0.1291
 4042SOL    HW123759   4.307   1.176   8.969 -0.1500 -0.3896 -1.6046
 4042SOL    HW223760   4.347   1.112   9.104  1.0326 -3.3516  0.2473
 4043SOL     OW23761   3.636   2.416  16.360 -0.1746  0.4380  0.0584
 4043SOL    HW123762   3.650   2.333  16.407 -1.3994  0.1897 -0.0230
 4043SOL    HW223763   3.647   2.490  16.419 -2.5205 -0.5310  1.7056
 4044SOL     OW23764   2.350   0.716   6.735  0.0489  0.3178  0.1860
 4044SOL    HW123765   2.333   0.666   6.655 -1.4910 -1.2860  1.5239
 4044SOL    HW223766   2.330   0.654   6.805  2.5207 -0.3788  0.2589
 4045SOL     OW23767   1.721   0.266   4.278 -0.2000 -0.3736 -0.1975
 4045SOL    HW123768   1.808   0.307   4.281 -0.2495 -0.2781 -0.0907
 4045SOL    HW223769   1.694   0.274   4.369  4.0343 -1.3818  1.1285
 4046SOL     OW23770   0.451   3.789   9.136 -0.0764  0.1178 -0.4098
 4046SOL    HW123771   0.472   3.878   9.109  0.2742 -0.5338 -2.3303
 4046SOL    HW223772   0.370   3.807   9.183  0.4718  0.4102  0.4182
 4047SOL     OW23773   2.829   1.594   5.078  0.2507 -0.3563 -0.0350
 4047SOL    HW123774   2.745   1.637   5.095  1.5888  1.4856  1.8145
 4047SOL    HW223775   2.833   1.518   5.136  3.7974 -0.1475 -0.0060
 4048SOL     OW23776   3.820   1.651   5.804 -0.4343  0.1910  0.1426
 4048SOL    HW123777   3.764   1.690   5.871  0.1728 -0.7421  1.2113
 4048SOL    HW223778   3.887   1.614   5.863  0.5339  0.4784 -0.7852
 4049SOL     OW23779   0.747   0.117   6.183  0.4033 -0.2137  0.6984
 4049SOL    HW123780   0.720   0.199   6.225  2.2471  1.0811 -0.6199
 4049SOL    HW223781   0.818   0.079   6.235 -1.4475 -2.5394  1.5255
 4050SOL     OW23782   3.915   3.141  14.211 -0.1980  0.3226  0.2974
 4050SOL    HW123783   3.827   3.104  14.205  0.3364 -0.8672 -0.1531
 4050SOL    HW223784   3.915   3.207  14.281 -3.2902  1.1749 -0.5049
 4051SOL     OW23785   1.286   2.669   7.394  0.3498 -0.0433  0.0118
 4051SOL    HW123786   1.269   2.760   7.421  0.2456 -0.1795  0.4183
 4051SOL    HW223787   1.195   2.641   7.386  1.1014 -2.4480  0.0124
 4052SOL     OW23788   2.856   0.344   0.662  0.2808 -0.0841  0.3784
 4052SOL    HW123789   2.823   0.259   0.634 -0.8459  1.1122 -1.9087
 4052SOL    HW223790   2.909   0.361   0.584 -0.3561  0.4843  0.0679
 4053SOL     OW23791   2.015   2.419   2.755  0.0490  0.8474  0.5248
 4053SOL    HW123792   2.078   2.407   2.684 -0.8679  0.4282 -0.2204
 4053SOL    HW223793   1.981   2.506   2.735 -0.0011  1.1752  2.0794
 4054SOL     OW23794   0.592   0.533   6.656 -0.2525  0.1995  0.7869
 4054SOL    HW123795   0.576   0.626   6.637 -0.4801  0.1122  0.5496
 4054SOL    HW223796   0.580   0.491   6.571  1.3994  0.1368  0.5816
 4055SOL     OW23797   4.175   3.973   6.444 -0.3222  0.2822  0.6854
 4055SOL    HW123798   4.101   4.032   6.452 -0.7083  0.1711 -1.9730
 4055SOL    HW223799   4.220   4.027   6.379 -0.4301 -0.5593 -0.1005
 4056SOL     OW23800   3.562   2.128   4.341  0.1127  0.8812  0.1105
 4056SOL    HW123801   3.610   2.109   4.260  0.7951 -1.5509  1.0699
 4056SOL    HW223802   3.474   2.098   4.319  1.3218 -2.8525  0.2337
 4057SOL     OW23803   2.363   3.288   0.131 -0.7501 -0.0306  0.3394
 4057SOL    HW123804   2.326   3.300   0.043 -0.0709 -0.7352 -0.0441
 4057SOL    HW223805   2.348   3.373   0.172 -1.2613 -0.2406  0.5827
 4058SOL     OW23806   1.838   2.646   9.946  0.5860  0.2657 -0.7983
 4058SOL    HW123807   1.827   2.698   9.866  2.1469 -1.7027 -2.2907
 4058SOL    HW223808   1.931   2.665   9.948  0.4493  1.0960 -1.8069
 4059SOL     OW23809   3.094   1.157   1.633  0.1277 -0.2920 -0.6907
 4059SOL    HW123810   3.141   1.090   1.683  0.8518  0.4834 -0.3249
 4059SOL    HW223811   3.063   1.119   1.551 -0.4985 -2.4975  0.5804
 4060SOL     OW23812   2.016   1.069   4.816 -0.0076  0.4643  0.1988
 4060SOL    HW123813   1.931   1.029   4.836  0.1950 -0.6495 -1.1754
 4060SOL    HW223814   2.063   0.991   4.787  0.0401  1.5191 -2.6197
 4061SOL     OW23815   0.404   0.917   3.548  0.3265  0.1726  0.8285
 4061SOL    HW123816   0.498   0.895   3.548 -0.1162 -1.7506  0.0833
 4061SOL    HW223817   0.405   1.004   3.586  1.7226 -0.9433  3.3315
 4062SOL     OW23818   2.605   1.840   5.151 -0.0383  0.4545  0.5501
 4062SOL    HW123819   2.687   1.845   5.200  0.3503 -0.2354 -0.0379
 4062SOL    HW223820   2.541   1.879   5.212 -1.9239  0.1858 -1.2641
 4063SOL     OW23821   2.672   1.472   6.991  0.4404  0.0893 -0.0077
 4063SOL    HW123822   2.702   1.449   7.079  3.4387 -0.4737 -1.1562
 4063SOL    HW223823   2.582   1.442   6.996  0.7792 -0.7867  0.7129
 4064SOL     OW23824   4.393   2.765   2.401 -0.4608 -0.0718 -0.1426
 4064SOL    HW123825   4.449   2.828   2.446  0.8297 -0.8072 -0.7217
 4064SOL    HW223826   4.447   2.687   2.402 -0.9848 -0.3774  3.0651
 4065SOL     OW23827   2.392   0.877   9.532 -0.1722  0.3463  0.3299
 4065SOL    HW123828   2.306   0.919   9.526  0.6941  2.0755 -0.3233
 4065SOL    HW223829   2.412   0.903   9.622 -0.3364  0.8828  0.2166
 4066SOL     OW23830   3.882   0.559   3.917 -0.3737  0.1851 -0.3875
 4066SOL    HW123831   3.947   0.520   3.974 -0.6261 -0.6757 -0.6931
 4066SOL    HW223832   3.943   0.620   3.876 -1.5752 -0.5622 -3.2652
 4067SOL     OW23833   2.192   3.426   7.468 -0.5631  0.1946 -0.5262
 4067SOL    HW123834   2.255   3.447   7.400  0.7896  2.1248  1.3242
 4067SOL    HW223835   2.239   3.358   7.516 -0.9148  1.8383  2.1420
 4068SOL     OW23836   0.754   4.368   5.047 -0.3586 -0.2512  0.5785
 4068SOL    HW123837   0.702   4.311   4.990 -0.0902 -0.7051  0.7916
 4068SOL    HW223838   0.705   4.449   5.062 -1.1934 -0.6227 -0.0929
 4069SOL     OW23839   3.922   2.847   4.104  0.0739 -0.7251  0.9891
 4069SOL    HW123840   3.987   2.904   4.064 -0.9931 -0.8365 -0.9089
 4069SOL    HW223841   3.953   2.762   4.072  0.1444  0.7052 -2.8061
 4070SOL     OW23842   1.334   2.643   5.404 -0.1191  0.2969 -0.4418
 4070SOL    HW123843   1.420   2.610   5.430 -0.4815  0.1472  0.5870
 4070SOL    HW223844   1.348   2.632   5.310 -0.0601  0.3686 -0.4409
 4071SOL     OW23845   4.300   1.964   7.136 -0.0976  0.2455  0.0528
 4071SOL    HW123846   4.309   1.941   7.043  0.2901 -3.5448  1.0306
 4071SOL    HW223847   4.308   2.059   7.127 -0.2269  0.1966 -0.6468
 4072SOL     OW23848   1.804   2.003  10.819  1.0004  0.1901  0.0584
 4072SOL    HW123849   1.749   1.928  10.838 -1.0860  1.5965 -0.4258
 4072SOL    HW223850   1.754   2.033  10.743  0.2087 -1.3744 -0.0369
 4073SOL     OW23851   2.572   4.723   0.882  0.3562  0.0841 -0.0355
 4073SOL    HW123852   2.493   4.672   0.899 -0.2582  1.5377  1.4385
 4073SOL    HW223853   2.634   4.654   0.858 -1.0026 -0.2413 -2.6311
 4074SOL     OW23854   4.526   0.048   5.632  0.0129  0.1534  0.6081
 4074SOL    HW123855   4.594   0.048   5.699  1.1288 -1.5673 -0.5273
 4074SOL    HW223856   4.586   0.028   5.561  0.7231 -1.1497  1.5831
 4075SOL     OW23857   4.629   4.476   9.380 -0.0065 -0.3001 -0.1620
 4075SOL    HW123858   4.560   4.543   9.383  1.3088  1.1537 -2.3704
 4075SOL    HW223859   4.637   4.461   9.286  1.6686  0.6762 -0.1797
 4076SOL     OW23860   3.300   3.850   7.128 -0.1461 -0.5087  0.5880
 4076SOL    HW123861   3.346   3.912   7.072 -1.3935  1.3614  1.6088
 4076SOL    HW223862   3.343   3.862   7.213  1.7210  0.5410 -0.5237
 4077SOL     OW23863   2.721   4.320   6.216 -0.0535  0.9112 -0.4006
 4077SOL    HW123864   2.688   4.352   6.300  0.0201 -0.7933  0.2833
 4077SOL    HW223865   2.737   4.227   6.228  1.4326  1.2419  0.1983
 4078SOL     OW23866   2.406   1.154   7.642 -0.0077  0.4565 -0.2972
 4078SOL    HW123867   2.467   1.081   7.631 -1.3406 -0.7717  0.4097
 4078SOL    HW223868   2.366   1.168   7.556  1.2289 -0.0362 -0.9554
 4079SOL     OW23869   3.069   0.292   0.857 -0.4797 -0.2943 -0.1752
 4079SOL    HW123870   3.053   0.373   0.906  0.6565  0.4182 -0.9710
 4079SOL    HW223871   3.021   0.310   0.776 -2.1239 -0.3333  0.8014
 4080SOL     OW23872   1.612   0.823  12.347  0.0884 -0.4464 -0.0028
 4080SOL    HW123873   1.647   0.830  12.436  0.6627  2.1530 -0.4080
 4080SOL    HW223874   1.519   0.824  12.368  0.1825 -0.5903  0.4100
 4081SOL     OW23875   3.700   3.849  10.216  0.3226  0.5231  0.0773
 4081SOL    HW123876   3.611   3.830  10.186  0.2550 -0.7312  1.0657
 4081SOL    HW223877   3.718   3.922  10.157  1.6078  0.5932  0.5521
 4082SOL     OW23878   1.790   1.442  11.159  1.1018  0.0536  0.1966
 4082SOL    HW123879   1.846   1.520  11.158  0.4858  0.5371  1.9624
 4082SOL    HW223880   1.846   1.367  11.181  0.6445 -0.4377 -0.3275
 4083SOL     OW23881   0.208   0.127   2.304  0.2247  0.2997  0.1371
 4083SOL    HW123882   0.288   0.084   2.333  0.4988  1.4778  1.1368
 4083SOL    HW223883   0.160   0.045   2.297  1.5775 -0.4695 -0.0440
 4084SOL     OW23884   1.900   1.286   7.377  0.0614 -0.1503  0.0699
 4084SOL    HW123885   1.906   1.207   7.431  0.0316 -0.7196 -0.7588
 4084SOL    HW223886   1.818   1.323   7.408  0.2822 -1.2641  1.9928
 4085SOL     OW23887   0.065   3.612   8.829 -0.3182 -0.0277  0.1869
 4085SOL    HW123888   4.722   3.604   8.880  0.1311  2.5463  1.3111
 4085SOL    HW223889   0.136   3.587   8.889  0.6488  1.4847 -0.3126
 4086SOL     OW23890   3.095   1.196   6.463  0.4849  0.4509 -0.2254
 4086SOL    HW123891   3.001   1.209   6.462  0.4947  0.3075 -2.4345
 4086SOL    HW223892   3.095   1.109   6.503  0.3882  0.1598 -0.8505
 4087SOL     OW23893   2.128   1.623  16.007  0.1927  0.1563 -0.4519
 4087SOL    HW123894   2.159   1.540  16.045 -0.1229  0.5720  0.7272
 4087SOL    HW223895   2.038   1.617  16.039  0.8753 -0.6410  1.3107
 4088SOL     OW23896   2.217   4.554   6.853 -0.6717 -0.0899 -0.0967
 4088SOL    HW123897   2.212   4.481   6.792 -1.1443  0.3771 -0.6148
 4088SOL    HW223898   2.294   4.522   6.900 -1.1818  0.4044  1.0634
 4089SOL     OW23899   4.097   3.211   7.576  0.1317 -0.0241  0.4448
 4089SOL    HW123900   4.115   3.121   7.604  1.2753 -0.5007 -1.8070
 4089SOL    HW223901   4.116   3.203   7.483 -2.7960  2.6396 -0.3621
 4090SOL     OW23902   1.379   0.113   7.685 -0.7536  0.3476  0.2365
 4090SOL    HW123903   1.446   0.102   7.753 -1.0066  0.4382  0.4961
 4090SOL    HW223904   1.310   0.152   7.739  0.3516  3.4140 -0.5403
 4091SOL     OW23905   1.259   0.401   5.372 -0.2438 -0.0417  0.5601
 4091SOL    HW123906   1.349   0.368   5.371 -0.3047 -0.1741 -0.2985
 4091SOL    HW223907   1.260   0.460   5.297 -1.6928 -1.6383 -0.7065
 4092SOL     OW23908   2.380   2.502   2.039 -0.5446 -0.1054 -0.2627
 4092SOL    HW123909   2.309   2.547   1.993  0.0397  2.2510  1.1268
 4092SOL    HW223910   2.452   2.563   2.024  0.4481 -1.5166 -1.1839
 4093SOL     OW23911   2.921   3.104   6.983  0.2610 -0.4856  0.3297
 4093SOL    HW123912   2.902   3.031   6.924  3.1306 -1.2598  0.3684
 4093SOL    HW223913   2.856   3.169   6.958  1.0865  0.0630 -0.3972
 4094SOL     OW23914   4.009   0.873   9.030  0.5752  0.1532  0.0477
 4094SOL    HW123915   3.918   0.880   9.057  0.4625 -3.7811  0.7225
 4094SOL    HW223916   4.057   0.914   9.102 -2.4524  1.9632  1.0543
 4095SOL     OW23917   0.282   1.791   7.928 -0.1949 -0.7348 -0.1343
 4095SOL    HW123918   0.359   1.736   7.914 -0.0291 -0.6294  0.3846
 4095SOL    HW223919   0.320   1.869   7.888 -0.4945 -0.2349  0.5540
 4096SOL     OW23920   1.529   2.281   2.513  0.2670 -0.3919  0.0421
 4096SOL    HW123921   1.610   2.236   2.488  1.7515  1.6200  1.2090
 4096SOL    HW223922   1.487   2.226   2.579 -1.6271  1.2850  0.2468
 4097SOL     OW23923   2.589   4.459   5.419  0.2444 -0.4468 -0.1236
 4097SOL    HW123924   2.499   4.490   5.429  0.1476 -1.2878  1.6152
 4097SOL    HW223925   2.612   4.485   5.330 -1.9634 -1.3024 -0.9460
 4098SOL     OW23926   1.474   3.396   8.360 -0.0438  0.4289  0.7207
 4098SOL    HW123927   1.480   3.470   8.300  2.9097 -1.4241 -1.2575
 4098SOL    HW223928   1.399   3.423   8.414 -0.0393 -0.6257  1.2720
 4099SOL     OW23929   1.206   2.932   3.243 -0.1099  0.4559 -0.4031
 4099SOL    HW123930   1.235   2.985   3.169 -1.9858  1.8848 -0.1031
 4099SOL    HW223931   1.263   2.969   3.311 -1.0587  0.7661  0.2287
 4100SOL     OW23932   1.614   4.024   1.348 -0.6103  0.5621  0.4542
 4100SOL    HW123933   1.632   3.955   1.412 -1.3007 -0.5995 -0.6010
 4100SOL    HW223934   1.645   4.103   1.393  1.6195 -0.1042  0.0839
 4101SOL     OW23935   0.274   0.707   2.577 -0.0209  0.0395 -0.0586
 4101SOL    HW123936   0.295   0.615   2.591  2.1525  0.1776 -2.4102
 4101SOL    HW223937   0.343   0.740   2.635 -0.3752 -0.2015  0.4981
 4102SOL     OW23938   2.365   3.516   4.883 -0.7829  0.2498  0.5798
 4102SOL    HW123939   2.363   3.594   4.939 -2.2129  0.1819  0.6269
 4102SOL    HW223940   2.456   3.531   4.857 -1.4067  1.6108 -0.8373
 4103SOL     OW23941   2.793   0.085   9.976 -0.4387 -0.1234  0.2147
 4103SOL    HW123942   2.766   4.731   9.982 -2.4473  0.1809 -4.1963
 4103SOL    HW223943   2.808   0.109  10.067  3.7134 -0.3577 -0.4189
 4104SOL     OW23944   2.453   3.760   5.748 -0.2597  0.3894 -0.1178
 4104SOL    HW123945   2.470   3.830   5.685  0.5214 -0.9946 -1.4654
 4104SOL    HW223946   2.466   3.809   5.829 -0.5283 -1.2362  0.9127
 4105SOL     OW23947   0.476   3.796  11.458 -0.0975  0.3804  0.3481
 4105SOL    HW123948   0.521   3.793  11.373 -0.3851  1.6297  0.1536
 4105SOL    HW223949   0.494   3.887  11.483 -1.7953  1.1034 -1.0444
 4106SOL     OW23950   1.517   1.307   2.201 -0.4021  0.5846 -0.3812
 4106SOL    HW123951   1.509   1.212   2.213 -1.8525  0.9755  1.7294
 4106SOL    HW223952   1.438   1.334   2.247 -0.0482 -1.1093  1.2452
 4107SOL     OW23953   4.009   4.486   9.915 -0.0623 -0.0254 -0.6577
 4107SOL    HW123954   4.010   4.581   9.906 -2.0165 -0.0327 -0.8697
 4107SOL    HW223955   4.015   4.463   9.822  0.7988 -0.3557 -0.5291
 4108SOL     OW23956   2.222   1.670   4.715 -0.2887  0.3384  0.1189
 4108SOL    HW123957   2.294   1.719   4.675  0.8277 -1.9964 -0.7387
 4108SOL    HW223958   2.257   1.674   4.805 -1.7710  0.0174  0.7058
 4109SOL     OW23959   2.840   1.677   9.502  0.5542 -0.5711  0.2473
 4109SOL    HW123960   2.786   1.598   9.508  2.8949 -2.1794  0.4004
 4109SOL    HW223961   2.788   1.733   9.445  1.0737 -1.3936 -1.0187
 4110SOL     OW23962   1.270   2.083   3.563  0.0368 -0.3446 -0.6118
 4110SOL    HW123963   1.194   2.125   3.524  1.0422  2.0293 -0.0036
 4110SOL    HW223964   1.250   1.990   3.553  2.1781 -1.1753  2.7511
 4111SOL     OW23965   2.788   1.526   1.277  0.4762  0.6447  0.0359
 4111SOL    HW123966   2.770   1.557   1.189 -0.7808 -1.4916 -0.4735
 4111SOL    HW223967   2.883   1.538   1.283  0.7878 -1.8450  0.0827
 4112SOL     OW23968   2.712   3.005  10.818 -0.3244 -0.3283  0.3884
 4112SOL    HW123969   2.678   3.001  10.728  2.8956 -3.0809 -0.7007
 4112SOL    HW223970   2.727   3.098  10.830  2.2379 -0.6275 -0.6272
 4113SOL     OW23971   4.439   1.131  13.191  0.3409  0.1886 -0.2092
 4113SOL    HW123972   4.383   1.092  13.258  2.0334  0.3189  1.2780
 4113SOL    HW223973   4.438   1.054  13.134  0.1789  0.9235 -1.2052
 4114SOL     OW23974   3.517   1.595   3.425 -0.5554  0.1628 -0.4119
 4114SOL    HW123975   3.530   1.572   3.333  0.8365 -1.6378  0.2258
 4114SOL    HW223976   3.604   1.636   3.428 -0.1981 -0.4136 -2.7441
 4115SOL     OW23977   0.910   3.789   2.619  0.2514 -0.1477  0.5519
 4115SOL    HW123978   0.942   3.876   2.596  0.8061 -0.9711 -1.8781
 4115SOL    HW223979   0.851   3.770   2.546  0.9615  0.8299 -0.2750
 4116SOL     OW23980   1.474   2.180  12.653  0.4544  0.6800  0.3260
 4116SOL    HW123981   1.413   2.115  12.619  0.4246  0.4986  0.7325
 4116SOL    HW223982   1.412   2.215  12.717 -2.1371  2.3213 -3.0740
 4117SOL     OW23983   0.473   2.280   2.539 -0.9745  0.5371  0.0303
 4117SOL    HW123984   0.424   2.213   2.490  1.6918 -1.1894 -0.3004
 4117SOL    HW223985   0.424   2.279   2.621 -0.0652 -1.7904  0.5626
 4118SOL     OW23986   1.116   1.461   3.220 -0.4987  0.1870 -0.3180
 4118SOL    HW123987   1.049   1.400   3.251 -0.0516 -1.9414 -3.4848
 4118SOL    HW223988   1.168   1.463   3.300 -0.8903 -0.8300 -0.0411
 4119SOL     OW23989   4.306   3.199   2.069 -0.1910 -0.1243 -0.1120
 4119SOL    HW123990   4.298   3.178   1.976  1.9793  2.4731 -0.8961
 4119SOL    HW223991   4.390   3.245   2.074  0.9082 -2.2831  1.3234
 4120SOL     OW23992   3.822   3.339  12.067  0.1639  0.3763  0.0990
 4120SOL    HW123993   3.759   3.310  12.134  0.5133  1.3683  0.8574
 4120SOL    HW223994   3.778   3.311  11.987 -0.2580 -0.0562  0.4843
 4121SOL     OW23995   4.643   3.997   2.125 -0.7458 -0.6293 -0.4873
 4121SOL    HW123996   4.579   4.020   2.192 -0.7768  0.8591 -1.0264
 4121SOL    HW223997   4.693   4.079   2.133 -2.8945  0.3204  2.8272
 4122SOL     OW23998   3.031   4.112  15.961  0.9109 -0.6998 -0.7030
 4122SOL    HW123999   3.020   4.087  15.870  1.0284  0.6918 -1.0895
 4122SOL    HW224000   3.053   4.205  15.964  0.5815 -0.6442 -0.0551
 4123SOL     OW24001   1.872   3.324   5.427  0.0529  0.2303 -0.5260
 4123SOL    HW124002   1.946   3.292   5.376 -0.0956 -2.9387  1.2611
 4123SOL    HW224003   1.825   3.240   5.425 -1.6489  1.1992 -1.8729
 4124SOL     OW24004   1.345   1.810  16.826 -0.0343  0.1701  0.5258
 4124SOL    HW124005   1.350   1.795  16.920  1.6654  0.7350  0.5333
 4124SOL    HW224006   1.337   1.905  16.817 -0.2915  0.0830 -0.1497
 4125SOL     OW24007   2.141   0.756   5.948  0.0094 -0.5512  0.5016
 4125SOL    HW124008   2.099   0.778   5.866 -2.1027 -0.6107  1.5653
 4125SOL    HW224009   2.144   0.661   5.939  0.1677 -0.4892 -0.0638
 4126SOL     OW24010   1.276   4.138   2.012  0.2299 -0.1437 -0.6525
 4126SOL    HW124011   1.247   4.224   2.044  0.3452 -0.3744  0.0556
 4126SOL    HW224012   1.355   4.167   1.966  0.9569 -0.0721  0.6436
 4127SOL     OW24013   0.066   2.973  10.136 -0.4316 -0.2213 -0.5070
 4127SOL    HW124014   0.157   2.954  10.158 -0.8550  1.2737  2.5789
 4127SOL    HW224015   0.018   2.899  10.173  1.3051 -0.0561  2.0690
 4128SOL     OW24016   2.500   1.280   7.903 -0.1485 -0.2787 -0.8476
 4128SOL    HW124017   2.561   1.209   7.879 -0.5926 -1.6496  2.1202
 4128SOL    HW224018   2.553   1.316   7.974  0.1932 -0.7128 -0.8774
 4129SOL     OW24019   1.942   1.417   2.485 -0.1669  0.2939  0.3833
 4129SOL    HW124020   2.023   1.464   2.466  0.0522  0.5248  1.8345
 4129SOL    HW224021   1.894   1.475   2.545  0.2168  1.5530 -0.5284
 4130SOL     OW24022   3.524   0.814   7.329 -0.0322 -0.6583 -0.4440
 4130SOL    HW124023   3.567   0.880   7.274  1.7799 -1.0741  0.4927
 4130SOL    HW224024   3.556   0.849   7.412  0.0655  2.5167 -1.8109
 4131SOL     OW24025   0.680   2.370   3.285  0.6007  0.8190 -0.0614
 4131SOL    HW124026   0.676   2.280   3.318  1.2806  1.4581  1.7156
 4131SOL    HW224027   0.692   2.352   3.191 -1.1534  2.8949 -0.6664
 4132SOL     OW24028   0.341   4.577  17.709 -0.1552 -0.1781 -0.7457
 4132SOL    HW124029   0.289   4.637  17.656  3.1287  2.3680 -1.1363
 4132SOL    HW224030   0.299   4.494  17.689 -0.9727  0.4288 -1.5221
 4133SOL     OW24031   3.863   2.951   4.382  0.5402 -0.2065 -0.1211
 4133SOL    HW124032   3.849   3.044   4.366  2.1012  0.1836  0.7059
 4133SOL    HW224033   3.903   2.921   4.300  1.1127 -0.6434  0.3178
 4134SOL     OW24034   0.135   0.037   8.911 -0.1506  0.6757  0.0921
 4134SOL    HW124035   0.048   0.028   8.873  0.0790 -1.6729  0.1001
 4134SOL    HW224036   0.152   4.683   8.930  0.2950  0.8645  0.6193
 4135SOL     OW24037   2.988   2.271   6.906  0.7677 -0.0606  0.4619
 4135SOL    HW124038   3.065   2.279   6.851  1.8305 -0.8636  1.8372
 4135SOL    HW224039   2.946   2.354   6.882  0.3435 -0.3508  0.1895
 4136SOL     OW24040   2.006   4.406  16.624  1.1199 -0.0936 -0.6679
 4136SOL    HW124041   2.024   4.320  16.660  1.5364  0.3655  0.2294
 4136SOL    HW224042   1.910   4.411  16.624  1.1266  0.4108  2.6600
 4137SOL     OW24043   1.216   2.375   9.020  0.5447  0.4432  0.2796
 4137SOL    HW124044   1.156   2.316   9.064 -1.4692  2.0868 -0.2870
 4137SOL    HW224045   1.255   2.313   8.958 -0.5338 -1.0478  1.1030
 4138SOL     OW24046   1.297   3.687   2.493 -0.8543 -0.1978 -0.3032
 4138SOL    HW124047   1.223   3.656   2.442 -0.8228 -1.8280  0.6363
 4138SOL    HW224048   1.258   3.670   2.579  0.9055 -1.4864  0.2528
 4139SOL     OW24049   2.714   2.768  11.525  0.2939  0.4198  0.0423
 4139SOL    HW124050   2.809   2.768  11.523  0.2693 -0.1435 -0.8073
 4139SOL    HW224051   2.698   2.681  11.560  0.0297  0.8906  1.1250
 4140SOL     OW24052   1.921   4.446   1.937 -0.2493 -0.5527 -0.4019
 4140SOL    HW124053   1.842   4.432   1.989 -0.3367 -4.1833 -1.5600
 4140SOL    HW224054   1.976   4.479   2.008 -0.3642 -0.4849 -0.3433
 4141SOL     OW24055   4.438   4.304   3.058  0.0382  0.0977  0.1002
 4141SOL    HW124056   4.526   4.307   3.021 -0.1043  0.6775 -0.1948
 4141SOL    HW224057   4.383   4.283   2.982  0.9393  0.2313 -0.5851
 4142SOL     OW24058   4.116   1.838   3.690  0.0226  0.0382  0.3423
 4142SOL    HW124059   4.093   1.907   3.628 -1.1300  0.4536  1.2183
 4142SOL    HW224060   4.047   1.771   3.683  1.1244 -1.1060  0.3626
 4143SOL     OW24061   0.986   3.863   9.519 -0.1629 -0.5446 -0.3449
 4143SOL    HW124062   0.947   3.828   9.439 -0.3909  1.1134 -0.9593
 4143SOL    HW224063   1.058   3.801   9.507  0.6070  0.6054 -1.6119
 4144SOL     OW24064   2.721   2.903  17.111 -0.2481 -0.2939  0.1658
 4144SOL    HW124065   2.736   2.848  17.034 -1.8805  0.4329 -0.6757
 4144SOL    HW224066   2.792   2.867  17.164  0.5235  1.3043  0.2443
 4145SOL     OW24067   3.996   3.797  17.230  0.6961 -0.0457 -0.2625
 4145SOL    HW124068   4.020   3.850  17.306 -2.1413  1.2306 -0.2851
 4145SOL    HW224069   3.902   3.814  17.227  0.2966 -2.0802  0.9803
 4146SOL     OW24070   1.692   3.279   6.468 -0.3278 -0.0584 -0.3170
 4146SOL    HW124071   1.751   3.350   6.441  2.0711 -3.0580 -2.8519
 4146SOL    HW224072   1.629   3.271   6.396  1.1201 -0.4143 -1.5409
 4147SOL     OW24073   1.905   3.948   5.676  0.4219  0.3263 -0.4481
 4147SOL    HW124074   1.833   4.003   5.645 -0.4376  0.1266  1.1808
 4147SOL    HW224075   1.918   3.981   5.765 -0.3101  0.3934 -0.3665
 4148SOL     OW24076   4.541   3.767   9.736 -0.6173  0.0631 -0.0876
 4148SOL    HW124077   4.580   3.680   9.724 -2.6968 -0.8521 -0.1390
 4148SOL    HW224078   4.460   3.752   9.688 -0.6467 -2.1072  0.6058
 4149SOL     OW24079   4.630   4.051   0.365 -0.3947  0.3814 -0.0478
 4149SOL    HW124080   4.721   4.028   0.346  0.4664  3.0009  0.8421
 4149SOL    HW224081   4.585   4.041   0.282 -0.8447  1.1712  0.1013
 4150SOL     OW24082   3.339   2.723   5.064  0.0639 -0.0557  0.2630
 4150SOL    HW124083   3.333   2.648   5.123 -0.4039  0.0425  0.3400
 4150SOL    HW224084   3.299   2.690   4.983 -1.1648  0.1071  0.7974
 4151SOL     OW24085   1.876   0.927   6.053  0.1515  0.0237  0.2490
 4151SOL    HW124086   1.910   0.983   5.983  0.7784  0.5748  1.0033
 4151SOL    HW224087   1.829   0.857   6.008  0.8742 -0.2783 -0.0359
 4152SOL     OW24088   3.909   1.089   3.247  0.5771  0.0767  0.1834
 4152SOL    HW124089   3.951   1.004   3.238 -1.1423 -0.7222 -0.3408
 4152SOL    HW224090   3.911   1.113   3.154  0.5172 -0.0903  0.1389
 4153SOL     OW24091   3.625   4.499   5.716  0.3654  0.2946  0.6091
 4153SOL    HW124092   3.672   4.532   5.639  1.4262  1.0881  1.6086
 4153SOL    HW224093   3.540   4.541   5.701 -0.4902 -1.6270 -0.0484
 4154SOL     OW24094   3.186   3.963  12.923  0.4884  0.7624 -0.0605
 4154SOL    HW124095   3.137   3.902  12.867 -1.6042 -0.0937  2.6931
 4154SOL    HW224096   3.118   3.983  12.988 -2.4738 -0.3464 -2.7935
 4155SOL     OW24097   2.041   2.148  13.322 -0.0147  0.4944  0.3356
 4155SOL    HW124098   2.136   2.155  13.320 -0.0566  1.7198  1.9322
 4155SOL    HW224099   2.033   2.109  13.410  1.1671  3.3466  1.7129
 4156SOL     OW24100   0.128   0.879   6.986  0.1406 -0.1252 -0.3761
 4156SOL    HW124101   0.060   0.813   6.996 -0.7545  0.9426  0.6591
 4156SOL    HW224102   0.107   0.949   7.048 -1.4903  1.3186 -2.5469
 4157SOL     OW24103   0.625   3.379   1.754  0.1310 -0.1009  0.5355
 4157SOL    HW124104   0.567   3.432   1.701  1.4958  0.0519 -0.7990
 4157SOL    HW224105   0.677   3.441   1.805  0.9606  0.9008 -1.5501
 4158SOL     OW24106   3.444   4.653   0.095  0.3010 -0.5511 -0.3840
 4158SOL    HW124107   3.521   4.706   0.073 -0.1470  0.5893  0.7698
 4158SOL    HW224108   3.400   4.647   0.011  1.0450 -0.7534 -0.7618
 4159SOL     OW24109   0.703   1.547   6.253 -0.2062 -0.4553  0.5736
 4159SOL    HW124110   0.798   1.552   6.256 -0.2982  2.2245 -0.9836
 4159SOL    HW224111   0.691   1.620   6.192  0.3115  0.3086  1.3921
 4160SOL     OW24112   3.469   1.161   4.960  0.3595 -0.1007 -0.1021
 4160SOL    HW124113   3.505   1.203   5.038  0.9575 -0.7557 -0.0195
 4160SOL    HW224114   3.382   1.196   4.945  0.4058  0.0396 -0.0391
 4161SOL     OW24115   4.470   3.683   4.530 -0.2014 -0.3688  0.5554
 4161SOL    HW124116   4.403   3.751   4.532 -1.4778 -1.5830 -1.1468
 4161SOL    HW224117   4.412   3.613   4.500 -0.4573 -0.1209  0.4739
 4162SOL     OW24118   2.297   2.935   9.696 -0.1453  0.2459 -0.0701
 4162SOL    HW124119   2.339   2.887   9.767  0.3986 -3.3727 -2.8669
 4162SOL    HW224120   2.222   2.880   9.676  0.7406 -1.2079  0.6646
 4163SOL     OW24121   1.112   2.220  16.754 -0.1700 -1.1585 -0.3322
 4163SOL    HW124122   1.053   2.293  16.775  0.5414 -0.5555 -0.4275
 4163SOL    HW224123   1.113   2.229  16.659  3.1694  0.7931 -0.1175
 4164SOL     OW24124   3.519   1.156   8.830  1.0848 -0.0841 -0.0597
 4164SOL    HW124125   3.580   1.161   8.903 -0.3738  1.9919  1.0239
 4164SOL    HW224126   3.542   1.228   8.771 -1.0828  0.6035 -0.0844
 4165SOL     OW24127   1.761   4.362   3.467  0.4627  0.0898  0.2815
 4165SOL    HW124128   1.735   4.281   3.511 -0.2524 -0.4613 -1.1533
 4165SOL    HW224129   1.733   4.429   3.529 -1.1577  1.4879 -1.9632
 4166SOL     OW24130   1.126   3.081   4.453 -0.1690 -0.0497  0.1820
 4166SOL    HW124131   1.154   3.022   4.524 -1.7590  0.4017  1.1805
 4166SOL    HW224132   1.113   3.165   4.497  0.2749  0.2822 -0.3115
 4167SOL     OW24133   3.293   2.137   9.603 -0.6467 -0.0726  0.0046
 4167SOL    HW124134   3.340   2.081   9.542  0.8281  0.0077  1.0619
 4167SOL    HW224135   3.321   2.117   9.693  1.5972  1.7882 -0.2890
 4168SOL     OW24136   1.697   1.401   3.472 -0.6599  0.3880 -0.0304
 4168SOL    HW124137   1.767   1.351   3.514 -0.5747  0.8231  0.3492
 4168SOL    HW224138   1.666   1.443   3.553 -0.7378 -1.1351  0.7337
 4169SOL     OW24139   3.283   4.635   3.303  0.3641 -0.5184  0.1336
 4169SOL    HW124140   3.201   4.600   3.268 -0.4255  0.4956  0.9763
 4169SOL    HW224141   3.312   4.558   3.352  2.5064  1.1158  1.4512
 4170SOL     OW24142   4.455   3.969   4.665  0.0724 -0.3202  0.0849
 4170SOL    HW124143   4.402   4.003   4.736  0.7499 -0.6949  0.7778
 4170SOL    HW224144   4.388   3.949   4.600  0.7254  1.1627 -1.0463
 4171SOL     OW24145   3.018   2.203   9.122 -0.1106  0.3279  0.3737
 4171SOL    HW124146   2.982   2.274   9.175  1.7759  0.5921  1.3130
 4171SOL    HW224147   2.938   2.188   9.071 -0.8197 -2.5554  2.3651
 4172SOL     OW24148   2.123   2.261   5.809 -0.9711 -0.3557 -0.2238
 4172SOL    HW124149   2.121   2.235   5.716  0.6740 -0.9279 -0.0941
 4172SOL    HW224150   2.041   2.310   5.814 -0.0137  1.1221  0.9514
 4173SOL     OW24151   2.220   1.874   1.966  0.1208  0.0423 -0.0037
 4173SOL    HW124152   2.166   1.928   1.908 -0.8275  0.8479  1.6242
 4173SOL    HW224153   2.308   1.881   1.928  0.4868  1.8510  1.1415
 4174SOL     OW24154   1.028   0.512   5.926 -0.0453 -0.5425  0.0357
 4174SOL    HW124155   1.120   0.501   5.903  0.1289  0.7607  0.1308
 4174SOL    HW224156   1.004   0.576   5.859 -2.9528 -0.8033  0.7997
 4175SOL     OW24157   1.180   3.695   9.467 -0.1759 -0.2031  0.2773
 4175SOL    HW124158   1.256   3.654   9.507  0.6991  1.0966 -0.0401
 4175SOL    HW224159   1.152   3.614   9.425 -0.7779  1.1629 -1.9952
 4176SOL     OW24160   3.157   3.139   1.685 -0.2408  0.8262  0.3022
 4176SOL    HW124161   3.231   3.157   1.742 -0.3950  1.0694  0.4234
 4176SOL    HW224162   3.183   3.171   1.598 -0.9120 -0.9216 -0.5628
 4177SOL     OW24163   4.128   2.065   7.618 -0.5068  0.6817  0.6253
 4177SOL    HW124164   4.051   2.029   7.574 -0.7643  1.2794  0.5892
 4177SOL    HW224165   4.129   2.031   7.707 -0.1567 -0.0608  0.3401
 4178SOL     OW24166   2.409   2.649   0.823 -0.5602  1.0481 -0.3958
 4178SOL    HW124167   2.411   2.661   0.917  0.3812 -0.4108 -0.2199
 4178SOL    HW224168   2.462   2.569   0.818  1.1470  2.2063 -1.0606
 4179SOL     OW24169   4.706   2.983   9.857 -0.3479 -0.2479  0.3424
 4179SOL    HW124170   4.725   2.993   9.950 -0.8992  3.1814  0.0878
 4179SOL    HW224171   4.643   3.055   9.849 -1.5362 -1.3337  0.1274
 4180SOL     OW24172   2.109   3.934  17.441 -0.6414  0.8833  0.4336
 4180SOL    HW124173   2.126   3.988  17.519 -1.2318 -0.4563  1.4762
 4180SOL    HW224174   2.201   3.919  17.419 -0.2583  1.0200  1.9962
 4181SOL     OW24175   1.031   0.486  12.924 -0.3483  0.4378  0.3565
 4181SOL    HW124176   1.119   0.481  12.960 -0.5116 -0.2453  0.6480
 4181SOL    HW224177   0.979   0.522  12.995 -0.9640  0.6819 -0.2119
 4182SOL     OW24178   1.460   0.940   9.438  0.2486  0.1535 -0.4239
 4182SOL    HW124179   1.422   0.859   9.470  0.5651  0.5403  0.9154
 4182SOL    HW224180   1.377   0.979   9.410 -0.2740  0.4562  1.6000
 4183SOL     OW24181   1.825   1.003  11.201 -0.6818 -0.5569 -0.3854
 4183SOL    HW124182   1.745   1.037  11.160 -2.4884 -2.1056  1.8175
 4183SOL    HW224183   1.859   1.078  11.249  1.1960 -0.8345 -1.2837
 4184SOL     OW24184   4.207   0.515  16.623 -0.5993  0.1023 -0.3400
 4184SOL    HW124185   4.198   0.550  16.711  3.0319 -0.6395  0.3121
 4184SOL    HW224186   4.213   0.599  16.576 -0.3807  0.0881 -0.3405
 4185SOL     OW24187   0.174   3.271   0.964 -0.0194  0.2096 -0.4852
 4185SOL    HW124188   0.175   3.267   1.060 -0.0023  1.3911 -0.4402
 4185SOL    HW224189   0.267   3.277   0.943  0.2297  0.6924  0.7577
 4186SOL     OW24190   2.263   0.649   7.456  0.2114  0.1750  0.1666
 4186SOL    HW124191   2.335   0.707   7.432 -1.6923  0.5869 -4.5710
 4186SOL    HW224192   2.194   0.712   7.435  2.8153  1.5877 -4.0530
 4187SOL     OW24193   0.396   0.634   8.798  0.0807 -0.2732  0.1244
 4187SOL    HW124194   0.311   0.645   8.842 -0.5214 -1.7201 -0.6878
 4187SOL    HW224195   0.364   0.614   8.710  1.1756  1.8575 -0.7582
 4188SOL     OW24196   4.090   0.472   0.978 -0.3807 -0.2771 -0.4581
 4188SOL    HW124197   4.178   0.439   0.993 -0.8036 -2.2992 -2.4483
 4188SOL    HW224198   4.101   0.564   1.004  0.1188 -0.0310 -1.5606
 4189SOL     OW24199   3.002   1.102  16.120  0.2884 -0.7473 -0.7548
 4189SOL    HW124200   3.071   1.045  16.085  1.1559 -0.7055  0.9088
 4189SOL    HW224201   2.947   1.030  16.148  0.8474 -0.8440  0.0801
 4190SOL     OW24202   2.964   2.926  14.664 -0.1237  0.6114  0.3586
 4190SOL    HW124203   3.054   2.938  14.693 -0.2094  0.4250  0.7074
 4190SOL    HW224204   2.950   3.020  14.650  0.1250  0.9066  2.0351
 4191SOL     OW24205   1.358   0.103  15.765 -0.7961  0.1217 -0.0312
 4191SOL    HW124206   1.367   0.100  15.860 -0.7666  1.4999  0.0089
 4191SOL    HW224207   1.277   0.153  15.754  0.6938  2.4005 -0.7346
 4192SOL     OW24208   0.040   2.917  11.075 -0.0716 -0.2133 -0.1298
 4192SOL    HW124209   4.686   2.914  11.099 -0.3017  1.1489 -0.8430
 4192SOL    HW224210   0.063   2.996  11.123 -0.1603 -0.9400  1.1091
 4193SOL     OW24211   3.654   3.182   8.383 -0.0395 -0.4063  0.0309
 4193SOL    HW124212   3.593   3.217   8.318 -0.7729  0.1728  1.0390
 4193SOL    HW224213   3.687   3.258   8.430 -0.1156 -1.3720  1.6463
 4194SOL     OW24214   3.224   0.779   5.459  0.0882  0.3650 -0.0788
 4194SOL    HW124215   3.265   0.726   5.392 -0.7878 -0.5257  0.0882
 4194SOL    HW224216   3.165   0.713   5.496  0.9739 -0.0459  0.5867
 4195SOL     OW24217   0.271   1.377   2.741  0.0658  0.3575  0.1729
 4195SOL    HW124218   0.241   1.299   2.786 -1.3493  0.8060  0.0026
 4195SOL    HW224219   0.189   1.425   2.750 -0.1377  0.1641 -0.5965
 4196SOL     OW24220   4.729   3.057   0.653  0.0272 -0.0667  0.0540
 4196SOL    HW124221   4.671   3.087   0.583 -0.2695 -3.1257 -0.9864
 4196SOL    HW224222   0.018   3.142   0.690  1.8291  0.0940 -1.6128
 4197SOL     OW24223   2.167   3.556   5.983 -0.6455  0.6133 -0.1282
 4197SOL    HW124224   2.170   3.646   5.951  0.0783  1.0617  1.1995
 4197SOL    HW224225   2.075   3.550   6.010 -0.3001  1.8334  1.3797
 4198SOL     OW24226   0.482   3.034   5.855 -0.2153  0.0725  0.3576
 4198SOL    HW124227   0.506   2.942   5.841 -0.2672 -0.1508  1.6801
 4198SOL    HW224228   0.523   3.078   5.781  2.0290 -2.8095 -0.0914
 4199SOL     OW24229   1.653   1.909   9.249  0.2417 -0.0544 -0.5210
 4199SOL    HW124230   1.682   1.908   9.340  2.1618 -0.9745 -1.1433
 4199SOL    HW224231   1.573   1.857   9.241 -1.3511  2.8609 -3.4021
 4200SOL     OW24232   0.211   2.559   2.361  0.1881 -0.2982 -0.2334
 4200SOL    HW124233   0.176   2.648   2.363 -2.1877 -1.2927  2.7092
 4200SOL    HW224234   0.288   2.562   2.417  0.5166 -1.0921 -0.6269
 4201SOL     OW24235   3.878   2.666  10.766  0.5443  0.2701  0.3533
 4201SOL    HW124236   3.946   2.685  10.831  0.1640 -0.6629  1.0325
 4201SOL    HW224237   3.809   2.616  10.811  1.5390 -1.4797 -0.0595
 4202SOL     OW24238   0.417   1.320   7.475 -0.1189  0.1831 -0.4972
 4202SOL    HW124239   0.437   1.346   7.385  0.5995  1.0060 -0.0980
 4202SOL    HW224240   0.479   1.373   7.524 -1.4860  0.1023  1.2901
 4203SOL     OW24241   4.059   0.863  14.597 -0.5819  0.2392 -0.4746
 4203SOL    HW124242   3.983   0.812  14.567 -1.4099  0.0777  1.9068
 4203SOL    HW224243   4.032   0.944  14.553 -1.7785 -0.2681 -0.6820
 4204SOL     OW24244   3.701   0.929   9.994  0.0767  0.4436 -0.1211
 4204SOL    HW124245   3.656   0.993   9.939  0.9840  0.2726 -1.0596
 4204SOL    HW224246   3.724   0.975  10.075 -0.7784 -0.4415  0.6231
 4205SOL     OW24247   3.893   1.006   7.066  0.5896 -0.1353 -0.2891
 4205SOL    HW124248   3.903   1.097   7.093  0.8954 -0.0205 -0.7830
 4205SOL    HW224249   3.895   0.962   7.150  1.9236 -1.4054 -0.9827
 4206SOL     OW24250   2.274   3.088   0.302  0.1776 -0.4202 -0.0340
 4206SOL    HW124251   2.289   3.142   0.224 -1.9535  1.2507  0.7411
 4206SOL    HW224252   2.294   3.152   0.370 -0.7021  1.0630 -1.1748
 4207SOL     OW24253   3.109   1.694   8.408  0.1580  1.0422 -0.4964
 4207SOL    HW124254   3.089   1.607   8.372  1.4452  0.8741 -0.8095
 4207SOL    HW224255   3.194   1.677   8.449 -0.8001 -0.4978  0.8652
 4208SOL     OW24256   4.400   0.999   7.496 -0.3047 -0.8864  0.0210
 4208SOL    HW124257   4.352   1.018   7.577  1.4902  1.6480  0.5141
 4208SOL    HW224258   4.481   1.049   7.501 -0.7307 -0.2059  0.2294
 4209SOL     OW24259   2.706   0.407   4.215  0.6445  0.5354 -1.0122
 4209SOL    HW124260   2.648   0.387   4.289  0.0058 -1.0350 -1.9330
 4209SOL    HW224261   2.792   0.403   4.258  0.9548  2.1589 -1.5068
 4210SOL     OW24262   0.485   0.584   5.678 -0.1885  0.3119  0.1566
 4210SOL    HW124263   0.450   0.498   5.703  1.7775  0.1020  2.1969
 4210SOL    HW224264   0.408   0.639   5.691 -2.0075 -2.6871  2.0670
 4211SOL     OW24265   4.014   0.396  11.339  0.2462  0.0981  0.7039
 4211SOL    HW124266   4.041   0.311  11.305 -0.4747  0.5118 -0.9438
 4211SOL    HW224267   4.089   0.401  11.397  2.1561 -0.9828 -1.6648
 4212SOL     OW24268   1.775   0.075   6.504  0.2837 -0.2707 -0.1605
 4212SOL    HW124269   1.803   0.029   6.425 -0.2732 -1.9460  0.6251
 4212SOL    HW224270   1.825   0.028   6.570 -0.3907 -2.7265 -1.3939
 4213SOL     OW24271   1.296   2.211   9.479 -0.1891  0.2759  0.0023
 4213SOL    HW124272   1.390   2.204   9.462 -0.3728  1.0747 -1.3302
 4213SOL    HW224273   1.284   2.296   9.438  1.9641  1.3403  1.5927
 4214SOL     OW24274   0.920   0.932  15.932 -1.1951  0.0530 -0.2508
 4214SOL    HW124275   0.877   0.931  16.017  0.2220  1.8988  0.4900
 4214SOL    HW224276   0.873   1.004  15.890  0.9986  1.7488  0.2143
 4215SOL     OW24277   3.941   2.816   7.644 -0.0865 -0.2703 -0.5144
 4215SOL    HW124278   4.029   2.840   7.671 -0.7301 -0.9876  2.2124
 4215SOL    HW224279   3.918   2.749   7.708 -0.7011  1.1440  0.7357
 4216SOL     OW24280   3.005   0.804  16.374 -0.0132 -0.0332  0.2867
 4216SOL    HW124281   3.094   0.768  16.368 -0.5980 -1.4677  0.2300
 4216SOL    HW224282   2.960   0.720  16.362  0.3634  0.0039 -1.4247
 4217SOL     OW24283   2.628   1.265  11.736 -0.4157 -0.1653  0.3201
 4217SOL    HW124284   2.657   1.208  11.807  2.8109 -1.5329 -2.0684
 4217SOL    HW224285   2.573   1.204  11.688  0.3105 -1.4633  1.1507
 4218SOL     OW24286   2.665   3.647  15.555  0.1700  0.3685  0.3356
 4218SOL    HW124287   2.668   3.741  15.541 -2.3937  0.3265 -0.4238
 4218SOL    HW224288   2.683   3.622  15.465 -0.0434 -0.7510  0.5999
 4219SOL     OW24289   2.866   4.456   7.980 -0.2385 -0.4130 -0.2052
 4219SOL    HW124290   2.869   4.539   8.028  1.3501 -0.9114  0.5692
 4219SOL    HW224291   2.780   4.454   7.938 -1.2662  1.5056  1.8238
 4220SOL     OW24292   3.853   0.830   6.183 -0.4559 -0.3553 -0.3826
 4220SOL    HW124293   3.943   0.835   6.150 -0.5474 -1.0226 -0.7293
 4220SOL    HW224294   3.842   0.908   6.238 -0.8078 -0.2702 -0.5752
 4221SOL     OW24295   4.545   4.155   8.506  0.0212 -0.2596  0.1979
 4221SOL    HW124296   4.526   4.184   8.417 -1.1341 -0.6066  0.3230
 4221SOL    HW224297   4.470   4.097   8.523  0.9827 -1.8270 -0.8328
 4222SOL     OW24298   0.969   1.471   7.474  0.2395 -0.3644  0.2080
 4222SOL    HW124299   0.925   1.537   7.421  2.3401  0.1047 -0.9832
 4222SOL    HW224300   0.902   1.403   7.462 -1.8549  1.7435 -0.0451
 4223SOL     OW24301   0.467   3.410   2.914 -0.1746 -0.6820 -0.2115
 4223SOL    HW124302   0.508   3.378   2.834 -2.4659  0.0834 -1.6810
 4223SOL    HW224303   0.378   3.415   2.880 -0.2012  3.4084  0.4814
 4224SOL     OW24304   4.201   1.623   6.165  0.3240 -0.5278 -0.0864
 4224SOL    HW124305   4.285   1.581   6.148  0.2633 -0.3698 -0.7654
 4224SOL    HW224306   4.194   1.612   6.260  0.2826  1.9038  0.1922
 4225SOL     OW24307   1.031   3.476  16.988 -0.0148  0.2545 -0.4467
 4225SOL    HW124308   1.013   3.564  17.021  2.6942  0.2537  1.0904
 4225SOL    HW224309   1.104   3.482  16.926 -0.0134  0.1524 -0.4546
 4226SOL     OW24310   0.905   2.713   6.080 -0.3649  0.8442 -0.5141
 4226SOL    HW124311   0.839   2.747   6.019  0.0142  0.7679 -0.9673
 4226SOL    HW224312   0.896   2.771   6.156 -0.8561 -1.7767  1.4157
 4227SOL     OW24313   2.419   2.005   7.033  0.2819  0.1942  0.6553
 4227SOL    HW124314   2.408   2.041   6.945  0.5030  0.9962  0.9476
 4227SOL    HW224315   2.364   2.073   7.072 -0.6169 -0.5877  0.7543
 4228SOL     OW24316   3.246   4.049   3.800 -0.1083 -0.0275 -0.2116
 4228SOL    HW124317   3.275   4.117   3.861 -0.3650  0.0068 -0.1292
 4228SOL    HW224318   3.152   4.061   3.816 -0.2328 -0.1667 -0.8334
 4229SOL     OW24319   1.727   2.955   1.600  0.0176  0.2766 -0.0391
 4229SOL    HW124320   1.675   3.031   1.575  0.5794  0.0556 -1.8845
 4229SOL    HW224321   1.679   2.909   1.669 -0.2551 -0.6491 -0.8314
 4230SOL     OW24322   1.586   3.869   4.295 -0.2539  0.2011 -0.4334
 4230SOL    HW124323   1.641   3.851   4.219  0.4150 -0.1198  0.1302
 4230SOL    HW224324   1.559   3.779   4.311  0.4271  0.3228  1.4178
 4231SOL     OW24325   1.541   0.393   5.475  0.2156  0.1648 -0.1769
 4231SOL    HW124326   1.629   0.429   5.487 -0.3477  1.5238 -0.0964
 4231SOL    HW224327   1.563   0.312   5.429 -3.4470  0.0004 -1.7016
 4232SOL     OW24328   2.620   1.100   2.524 -0.7018  0.2799 -0.6203
 4232SOL    HW124329   2.543   1.056   2.559  0.9884 -1.4675  0.9478
 4232SOL    HW224330   2.601   1.101   2.430 -0.6064  0.4642 -0.6372
 4233SOL     OW24331   0.350   1.008   4.876  0.1693 -0.0231 -0.5699
 4233SOL    HW124332   0.297   0.930   4.861 -0.6103  0.4314 -0.1508
 4233SOL    HW224333   0.292   1.052   4.938  0.0666 -1.1407  0.1149
 4234SOL     OW24334   1.338   0.550  14.684 -0.0388  0.8061 -0.2949
 4234SOL    HW124335   1.351   0.645  14.678 -1.9355  1.1569  0.8498
 4234SOL    HW224336   1.285   0.532  14.607  1.8426  2.5342 -1.9747
 4235SOL     OW24337   2.717   2.811   0.554  0.3765 -0.0493 -0.2531
 4235SOL    HW124338   2.740   2.901   0.576 -0.8089 -0.1042  1.2122
 4235SOL    HW224339   2.668   2.831   0.474 -1.0024 -1.3566  0.2738
 4236SOL     OW24340   4.536   2.917   2.941 -0.6439 -0.4221  0.5521
 4236SOL    HW124341   4.487   2.998   2.929 -1.9065 -0.8988  2.5205
 4236SOL    HW224342   4.468   2.863   2.982 -0.8824  0.3147  1.1149
 4237SOL     OW24343   0.375   0.937   1.442 -0.2221  0.1316  0.0847
 4237SOL    HW124344   0.465   0.926   1.473 -1.2465 -1.6348  2.4346
 4237SOL    HW224345   0.333   0.895   1.517 -2.6980 -0.8270 -1.8567
 4238SOL     OW24346   0.802   3.611  11.247 -0.1434 -0.9002  0.6584
 4238SOL    HW124347   0.798   3.579  11.157 -0.6724  0.6961  0.1212
 4238SOL    HW224348   0.734   3.677  11.258  2.0169  1.1010  2.0118
 4239SOL     OW24349   3.216   0.542   9.727  0.5161 -0.2238  0.1597
 4239SOL    HW124350   3.165   0.471   9.688  1.1714 -1.1458  1.0035
 4239SOL    HW224351   3.215   0.538   9.822  2.4744  1.5761  0.2571
 4240SOL     OW24352   1.546   0.076   5.077  0.0153  0.0200  0.2016
 4240SOL    HW124353   1.569   4.727   5.043 -0.1123  1.0226 -2.4402
 4240SOL    HW224354   1.584   0.135   5.012  0.2039 -1.5887 -1.1360
 4241SOL     OW24355   3.980   1.270  15.924  0.9510  0.5556  0.6661
 4241SOL    HW124356   3.959   1.322  16.001  0.0002  1.9799 -0.5645
 4241SOL    HW224357   3.967   1.346  15.867 -1.1892  1.9726  3.0987
 4242SOL     OW24358   0.786   2.731   2.499  0.5442 -0.5148 -0.0379
 4242SOL    HW124359   0.874   2.766   2.485 -0.3494  1.8169  0.1929
 4242SOL    HW224360   0.799   2.661   2.563 -2.2554 -1.9442 -1.0544
 4243SOL     OW24361   3.068   1.472   7.407 -0.0438 -0.2884 -0.3637
 4243SOL    HW124362   3.136   1.404   7.401  0.9882  0.5309  1.7226
 4243SOL    HW224363   3.039   1.446   7.495  0.5827 -0.6414 -0.2601
 4244SOL     OW24364   2.712   1.246   3.170  0.5732  0.3083 -0.8838
 4244SOL    HW124365   2.715   1.286   3.083  0.4338  0.6917 -0.7127
 4244SOL    HW224366   2.747   1.159   3.153  1.1300  0.4782 -0.6219
 4245SOL     OW24367   1.120   1.376   6.920 -0.0251  0.4260  0.4182
 4245SOL    HW124368   1.096   1.410   7.006  2.1317 -0.0564  1.2046
 4245SOL    HW224369   1.148   1.287   6.938 -1.7464  0.1372  1.6420
 4246SOL     OW24370   4.649   0.262   8.687 -0.7445  0.4542  0.4522
 4246SOL    HW124371   4.683   0.237   8.600 -1.6381  0.0477  0.2224
 4246SOL    HW224372   4.670   0.355   8.689  2.5520 -0.2702  0.0308
 4247SOL     OW24373   1.074   0.646   4.168  0.6985  0.3234 -0.6408
 4247SOL    HW124374   1.082   0.602   4.252  1.2428 -0.2586 -0.9985
 4247SOL    HW224375   0.980   0.664   4.157 -0.1892 -2.1413  3.3143
 4248SOL     OW24376   1.267   2.959  10.289 -0.1002 -0.3939 -0.0225
 4248SOL    HW124377   1.175   2.983  10.297  0.1834  0.1246  1.6897
 4248SOL    HW224378   1.289   2.941  10.380  2.1801 -1.1280 -0.7158
 4249SOL     OW24379   3.356   1.000  10.591  0.1713  0.5427 -0.8375
 4249SOL    HW124380   3.261   0.988  10.599  0.1629  1.1243 -0.0541
 4249SOL    HW224381   3.395   0.927  10.640  0.5153 -0.4697 -2.6180
 4250SOL     OW24382   1.613   4.500   1.468 -0.0250 -0.2757 -0.4054
 4250SOL    HW124383   1.637   4.445   1.393 -0.7743 -2.6000  1.0628
 4250SOL    HW224384   1.691   4.554   1.480  1.5068 -2.8404  1.1948
 4251SOL     OW24385   2.647   1.468  13.651 -0.4366  0.1330 -0.8168
 4251SOL    HW124386   2.731   1.447  13.610  0.2765  2.1127 -0.3897
 4251SOL    HW224387   2.631   1.384  13.694 -1.2552  0.3632 -0.6833
 4252SOL     OW24388   2.569   2.582   2.319 -0.0446 -0.2864 -0.3916
 4252SOL    HW124389   2.614   2.653   2.365 -0.8802 -0.8882  1.3371
 4252SOL    HW224390   2.635   2.566   2.251  0.4425 -1.9058  0.4698
 4253SOL     OW24391   1.219   1.536   6.710  0.0504 -0.5834  0.1284
 4253SOL    HW124392   1.302   1.565   6.749  0.3995 -0.2359 -0.8759
 4253SOL    HW224393   1.185   1.482   6.781  0.1413 -1.3863 -0.4382
 4254SOL     OW24394   4.493   3.346  14.231  0.2394 -0.5029  0.1813
 4254SOL    HW124395   4.494   3.253  14.254 -0.3341 -0.5548 -0.0044
 4254SOL    HW224396   4.492   3.343  14.136  1.1460  0.3970  0.1430
 4255SOL     OW24397   2.340   4.465  10.446  0.0421  0.2819  0.3415
 4255SOL    HW124398   2.314   4.548  10.408  3.2338  1.1928  0.1037
 4255SOL    HW224399   2.417   4.487  10.499  0.9537  0.4547 -1.0464
 4256SOL     OW24400   4.196   4.128   2.643 -0.2434 -0.4455  0.1970
 4256SOL    HW124401   4.164   4.205   2.595  0.5373  0.4046  1.0361
 4256SOL    HW224402   4.256   4.169   2.706  0.1481  1.0904 -1.1560
 4257SOL     OW24403   0.674   0.315   4.178  0.3760  0.5390  0.0609
 4257SOL    HW124404   0.658   0.389   4.120  1.2997  1.0331  0.4304
 4257SOL    HW224405   0.585   0.296   4.207  0.5104  0.5727  0.4959
 4258SOL     OW24406   1.024   0.989   3.855  0.1427 -0.3805  0.2563
 4258SOL    HW124407   0.986   0.914   3.810 -1.3768 -0.1674  1.2006
 4258SOL    HW224408   1.103   0.950   3.892  0.6908  0.7861  0.3250
 4259SOL     OW24409   1.711   2.076   7.957  0.5372  0.2438  0.0234
 4259SOL    HW124410   1.675   2.071   8.045 -2.0889  0.3948 -1.0443
 4259SOL    HW224411   1.802   2.047   7.966  0.1522 -1.1825 -0.6561
 4260SOL     OW24412   3.051   0.698   7.161 -0.6490  0.2808 -0.0551
 4260SOL    HW124413   3.080   0.783   7.127 -2.5714  1.5522  1.4831
 4260SOL    HW224414   3.022   0.655   7.081  1.2489  0.4574 -0.8381
 4261SOL     OW24415   0.805   4.474   1.950  0.2751  0.0476 -0.0033
 4261SOL    HW124416   0.833   4.382   1.955  0.0658  0.0438  1.2529
 4261SOL    HW224417   0.835   4.523   2.027  1.8017 -1.7387  0.5468
 4262SOL     OW24418   4.472   0.002   3.017  0.8846 -0.2332 -0.4392
 4262SOL    HW124419   4.409   4.669   3.006  1.8132 -1.2571  0.9279
 4262SOL    HW224420   4.459   0.047   2.933 -2.0529  0.1986  0.2353
 4263SOL     OW24421   0.193   3.292   3.313 -0.4711  0.0178  0.1757
 4263SOL    HW124422   0.204   3.378   3.354 -1.3655  0.9595 -1.5716
 4263SOL    HW224423   0.102   3.293   3.285  0.1102  0.7766 -1.7163
 4264SOL     OW24424   2.845   2.392   3.783 -0.0613 -0.0701  0.2695
 4264SOL    HW124425   2.761   2.348   3.770  0.6383 -0.9934 -1.2344
 4264SOL    HW224426   2.863   2.417   3.692  0.3460 -0.6936  0.1854
 4265SOL     OW24427   2.703   2.629   6.749  0.4419  0.1613 -0.0208
 4265SOL    HW124428   2.634   2.643   6.814 -0.3257 -0.2924 -0.7329
 4265SOL    HW224429   2.697   2.534   6.740 -1.9889  0.1425  1.6957
 4266SOL     OW24430   2.665   2.919   5.413 -0.0251 -0.4436  0.0661
 4266SOL    HW124431   2.703   2.852   5.469 -1.2782 -0.5876  0.7544
 4266SOL    HW224432   2.573   2.908   5.437  0.1225 -0.9108  0.4082
 4267SOL     OW24433   3.482   3.781   4.570  0.0340  0.4550  0.3588
 4267SOL    HW124434   3.434   3.709   4.612  0.0249  1.2221  1.6744
 4267SOL    HW224435   3.568   3.750   4.541  0.2312  1.5633 -0.2006
 4268SOL     OW24436   4.142   0.064   1.982 -0.1904  0.1379 -0.3553
 4268SOL    HW124437   4.179   0.135   1.930 -1.4836  0.2621 -1.1028
 4268SOL    HW224438   4.066   0.052   1.925 -0.2970 -0.4709 -0.0785
 4269SOL     OW24439   3.373   4.283   8.459  0.6296  0.6968 -0.6401
 4269SOL    HW124440   3.450   4.336   8.442 -0.6431  1.5953 -3.5061
 4269SOL    HW224441   3.312   4.344   8.500 -0.9803 -1.6710  0.5150
 4270SOL     OW24442   1.361   1.305   9.783 -0.2536  0.2822  0.5072
 4270SOL    HW124443   1.292   1.330   9.722 -0.7357  0.5852  1.1790
 4270SOL    HW224444   1.436   1.284   9.727 -0.8669 -4.1301  1.3152
 4271SOL     OW24445   1.195   0.577   9.405 -0.1198  0.4018 -0.3987
 4271SOL    HW124446   1.142   0.600   9.329  1.1938  1.2591 -1.0508
 4271SOL    HW224447   1.164   0.492   9.437  0.4865  0.5001  0.4600
 4272SOL     OW24448   2.500   0.373   4.831 -0.1523 -0.2307  0.2952
 4272SOL    HW124449   2.534   0.462   4.834 -1.1345  0.1606 -0.3455
 4272SOL    HW224450   2.537   0.341   4.749  0.4042 -0.8932  0.8100
 4273SOL     OW24451   3.418   0.183   7.549  0.3863 -0.0141 -0.3314
 4273SOL    HW124452   3.413   0.102   7.599  0.6624  1.2402  1.7267
 4273SOL    HW224453   3.485   0.229   7.600 -0.3126 -0.4917  1.0283
 4274SOL     OW24454   1.088   0.850   6.830  0.2053 -0.1372  0.1377
 4274SOL    HW124455   1.102   0.880   6.920  1.0951  0.6864 -0.2802
 4274SOL    HW224456   1.139   0.769   6.837  1.0670  0.6387  3.0242
 4275SOL     OW24457   3.390   2.715   3.447  0.5639  0.0108 -0.2881
 4275SOL    HW124458   3.333   2.792   3.453 -2.6005 -2.2625 -1.5185
 4275SOL    HW224459   3.458   2.742   3.386  0.3626  0.1815 -0.4347
 4276SOL     OW24460   1.778   4.239   6.130 -0.7154 -0.3155  0.1191
 4276SOL    HW124461   1.751   4.318   6.083 -0.3769  0.2602  0.8896
 4276SOL    HW224462   1.701   4.215   6.182 -0.3198 -2.8425 -0.4604
 4277SOL     OW24463   1.316   2.037   1.179 -0.2702 -0.0542  0.2357
 4277SOL    HW124464   1.391   2.014   1.234 -0.8018  1.5906  1.6195
 4277SOL    HW224465   1.364   2.113   1.147  0.2019 -0.5051 -0.1314
 4278SOL     OW24466   0.266   0.999   2.732 -0.3387  0.4383  0.4093
 4278SOL    HW124467   0.221   0.915   2.728  0.7542 -0.2435  2.4105
 4278SOL    HW224468   0.355   0.975   2.706 -0.9911  0.2039 -1.5882
 4279SOL     OW24469   3.065   4.198   7.741  0.7914  0.1552  0.1217
 4279SOL    HW124470   3.070   4.149   7.659  1.0104 -0.5592  0.5743
 4279SOL    HW224471   2.970   4.212   7.733  0.7038 -0.0678  0.8059
 4280SOL     OW24472   3.392   2.689  11.283 -0.2468  0.1086 -0.3274
 4280SOL    HW124473   3.455   2.746  11.240 -0.8307  0.9910 -0.0053
 4280SOL    HW224474   3.423   2.699  11.373  1.1091 -2.0501 -0.5539
 4281SOL     OW24475   3.424   4.721   0.469  0.5045 -0.2766 -0.3663
 4281SOL    HW124476   3.506   4.672   0.483 -0.7769 -1.0282  4.5886
 4281SOL    HW224477   3.430   0.048   0.539  1.4144  0.4160 -1.0935
 4282SOL     OW24478   0.219   2.119   4.118 -0.3419  0.1494 -0.4506
 4282SOL    HW124479   0.180   2.046   4.070 -2.4344  1.6362 -0.9621
 4282SOL    HW224480   0.278   2.066   4.173 -1.3794 -1.5769 -1.0062
 4283SOL     OW24481   0.774   1.219  11.281 -0.0073  0.1256  0.2609
 4283SOL    HW124482   0.813   1.298  11.244  0.3619  0.8006  2.0475
 4283SOL    HW224483   0.788   1.155  11.212  1.2821  0.9290 -0.2168
 4284SOL     OW24484   2.970   4.610   2.222 -0.7706  0.1179  0.3422
 4284SOL    HW124485   2.967   4.554   2.144  3.1509  0.7551 -0.2789
 4284SOL    HW224486   2.933   4.683   2.173  2.0878  1.2193 -0.1612
 4285SOL     OW24487   0.465   1.394   6.317 -0.4096 -0.0668 -0.3164
 4285SOL    HW124488   0.557   1.421   6.307  0.0215 -0.6333  2.1075
 4285SOL    HW224489   0.445   1.389   6.411 -3.5897  2.0945 -0.8798
 4286SOL     OW24490   0.719   3.842  17.227  0.9153  0.2017 -0.3689
 4286SOL    HW124491   0.777   3.871  17.157  2.8095 -0.1462  1.0441
 4286SOL    HW224492   0.670   3.922  17.247  1.9134  0.1921  2.1138
 4287SOL     OW24493   0.782   2.976   0.949  0.7675 -0.5527  0.4344
 4287SOL    HW124494   0.800   2.936   1.034  4.0309  0.2074  0.1117
 4287SOL    HW224495   0.838   3.054   0.953 -0.1487  0.3110 -2.9492
 4288SOL     OW24496   3.687   0.944   2.977  0.3844  0.1635 -0.2775
 4288SOL    HW124497   3.708   1.033   2.949  1.1864 -0.7486 -2.5625
 4288SOL    HW224498   3.593   0.945   2.992  0.2094 -0.9072 -1.2227
 4289SOL     OW24499   4.538   0.029   6.956 -0.2402 -0.3918 -0.2656
 4289SOL    HW124500   4.580   0.094   6.899  2.6831 -1.8969  0.1495
 4289SOL    HW224501   4.448   0.029   6.925 -0.1466 -3.1163 -0.5091
 4290SOL     OW24502   4.014   4.023   7.107 -0.7396 -0.2171  1.0065
 4290SOL    HW124503   3.956   3.949   7.093  0.7321 -1.4097  1.1234
 4290SOL    HW224504   3.952   4.082   7.150 -0.6059 -0.1866  1.1586
 4291SOL     OW24505   0.795   0.288  14.955 -0.4968  0.7869 -0.5681
 4291SOL    HW124506   0.759   0.329  15.034 -1.5454 -0.2136 -0.5441
 4291SOL    HW224507   0.876   0.339  14.943 -1.1190  1.9605  0.2028
 4292SOL     OW24508   2.862   3.906   1.182 -0.4434  0.1124 -0.1430
 4292SOL    HW124509   2.846   3.837   1.117 -4.0233  0.7055  0.1426
 4292SOL    HW224510   2.836   3.978   1.125 -0.0053  1.1087  0.9121
 4293SOL     OW24511   4.694   2.721   8.797 -0.0147 -0.3184  0.4533
 4293SOL    HW124512   4.624   2.770   8.840  0.1829 -0.1620  0.5957
 4293SOL    HW224513   4.707   2.758   8.709 -0.8595 -0.6035  0.2050
 4294SOL     OW24514   3.375   0.538   1.949  0.0723  0.0023  0.0072
 4294SOL    HW124515   3.285   0.510   1.934  0.1987  0.2837 -1.2229
 4294SOL    HW224516   3.402   0.484   2.024  1.4431 -1.6055 -1.6479
 4295SOL     OW24517   0.015   4.090   7.326 -0.0422  0.2943 -0.1498
 4295SOL    HW124518   0.094   4.144   7.321  0.2940 -0.1373  0.4321
 4295SOL    HW224519   4.677   4.148   7.331  0.2380  0.5820  0.8063
 4296SOL     OW24520   2.663   3.143   3.213 -0.3536 -0.1537  0.0979
 4296SOL    HW124521   2.636   3.058   3.179  0.2445 -1.5815  3.2054
 4296SOL    HW224522   2.749   3.152   3.171 -0.8897  1.7322 -0.6002
 4297SOL     OW24523   0.501   1.382   6.599 -0.4151 -0.0452 -0.1146
 4297SOL    HW124524   0.593   1.407   6.596 -0.7796  1.4226  1.4603
 4297SOL    HW224525   0.470   1.409   6.685  1.7820 -0.8099  0.9333
 4298SOL     OW24526   2.918   3.590   5.128  0.6609 -0.0919  0.2222
 4298SOL    HW124527   2.908   3.681   5.157 -1.7540 -0.6876  1.2151
 4298SOL    HW224528   2.875   3.542   5.198 -0.0212 -3.4272 -2.4718
 4299SOL     OW24529   2.068   2.562  13.165  0.0397 -0.5790  0.2358
 4299SOL    HW124530   2.032   2.496  13.225 -2.3931 -0.7150 -1.3838
 4299SOL    HW224531   2.003   2.552  13.096  0.9111 -2.9675 -0.2478
 4300SOL     OW24532   1.669   4.139   0.756 -0.2235  0.4342  0.3666
 4300SOL    HW124533   1.576   4.119   0.751  0.1481 -1.2450  0.2876
 4300SOL    HW224534   1.697   4.047   0.755 -0.2536  0.4293 -0.0577
 4301SOL     OW24535   0.074   0.502   6.510 -0.3576 -0.0072  0.0334
 4301SOL    HW124536   0.107   0.499   6.421  0.1556 -0.9865  0.2593
 4301SOL    HW224537   4.719   0.498   6.488 -0.0585 -1.6557 -0.9104
 4302SOL     OW24538   1.546   2.521   2.319 -0.6029  0.3270  0.2445
 4302SOL    HW124539   1.459   2.561   2.332  0.7808  2.4041  3.1733
 4302SOL    HW224540   1.537   2.448   2.380  0.4530 -0.2494 -0.3120
 4303SOL     OW24541   4.722   4.485  13.477  0.1242 -0.5278 -0.1939
 4303SOL    HW124542   4.723   4.445  13.564 -2.1406  1.3902  0.7179
 4303SOL    HW224543   4.672   4.421  13.427  0.4555 -1.0943  0.2047
 4304SOL     OW24544   1.497   0.822   5.024  0.0671  0.4073  0.1042
 4304SOL    HW124545   1.528   0.779   4.944 -0.2257 -1.6281  1.0639
 4304SOL    HW224546   1.500   0.914   4.999  0.1325  0.1506 -0.8254
 4305SOL     OW24547   3.734   1.751   7.611  0.5522 -0.0392 -0.0769
 4305SOL    HW124548   3.652   1.748   7.660  1.0905  0.5142  0.8460
 4305SOL    HW224549   3.783   1.771   7.690  0.1857  0.7780 -0.0580
 4306SOL     OW24550   3.744   1.180   1.533  0.2793 -0.6267  0.1774
 4306SOL    HW124551   3.808   1.110   1.547 -2.2123 -2.7215  1.1362
 4306SOL    HW224552   3.780   1.247   1.590 -1.4417 -0.5719  1.2097
 4307SOL     OW24553   4.391   3.616   0.515 -0.6065 -0.5714  0.3629
 4307SOL    HW124554   4.445   3.560   0.459 -0.2326  0.7549 -0.6231
 4307SOL    HW224555   4.465   3.650   0.567 -0.6723 -2.9856  2.0258
 4308SOL     OW24556   1.986   0.986  15.128 -0.2849 -0.3340  0.2152
 4308SOL    HW124557   2.048   0.989  15.200 -0.6282 -1.0917  0.5351
 4308SOL    HW224558   2.010   0.905  15.084 -1.9469 -1.6379  1.7207
 4309SOL     OW24559   2.131   3.194   6.669  0.0024 -0.2714 -0.0807
 4309SOL    HW124560   2.089   3.117   6.708 -0.7325 -0.9860 -2.3014
 4309SOL    HW224561   2.104   3.263   6.730  2.0984 -2.1433  2.9813
 4310SOL     OW24562   1.748   2.284   6.083 -0.2997 -0.2104  0.3488
 4310SOL    HW124563   1.830   2.281   6.133 -0.2873  0.7763  0.3790
 4310SOL    HW224564   1.765   2.364   6.033 -1.6417  0.1717  0.5186
 4311SOL     OW24565   3.169   0.373   6.055 -0.2051 -0.0283  1.0363
 4311SOL    HW124566   3.224   0.448   6.073 -0.5152 -0.0209  1.9369
 4311SOL    HW224567   3.092   0.429   6.045  0.9755  1.8515  2.4426
 4312SOL     OW24568   3.986   1.816  11.077  0.4270  0.2721 -0.2002
 4312SOL    HW124569   3.948   1.729  11.086  0.0453  0.4469 -0.1304
 4312SOL    HW224570   3.913   1.854  11.028  0.3064 -2.0584 -1.8075
 4313SOL     OW24571   0.621   0.548   2.011  0.0513  0.5366 -0.2105
 4313SOL    HW124572   0.594   0.573   2.099 -0.1430  0.0768 -0.1343
 4313SOL    HW224573   0.606   0.453   2.018 -0.9409  0.6747 -0.4323
 4314SOL     OW24574   1.230   3.898   1.248  0.0779 -0.3881 -0.6431
 4314SOL    HW124575   1.204   3.942   1.167 -0.4831  2.2966  0.9744
 4314SOL    HW224576   1.145   3.871   1.283 -0.4799  0.8310 -1.0482
 4315SOL     OW24577   2.204   3.797   7.876  0.3259  0.1486 -0.2883
 4315SOL    HW124578   2.229   3.707   7.900  1.0317  0.8121  1.4292
 4315SOL    HW224579   2.242   3.791   7.788  1.0123  0.4677 -0.0172
 4316SOL     OW24580   1.669   2.646   5.044 -0.7084 -0.5241  0.2910
 4316SOL    HW124581   1.679   2.727   4.992 -0.4850 -1.1482 -0.6444
 4316SOL    HW224582   1.712   2.584   4.985 -2.5779 -0.0424 -1.6202
 4317SOL     OW24583   0.098   2.719   3.184  0.6616  0.6528  0.6234
 4317SOL    HW124584   0.192   2.709   3.194  0.5627  0.5314  1.3988
 4317SOL    HW224585   0.078   2.711   3.090  0.2702  1.1015  0.6671
 4318SOL     OW24586   3.449   2.467   4.721 -0.4913  0.5002  0.1704
 4318SOL    HW124587   3.518   2.529   4.743 -1.3990  1.4608  0.3543
 4318SOL    HW224588   3.431   2.490   4.630 -3.1464 -2.0888  0.0341
 4319SOL     OW24589   4.438   2.124   2.374 -0.4614 -0.0159  0.0266
 4319SOL    HW124590   4.345   2.137   2.354 -0.6068  0.2989  0.9024
 4319SOL    HW224591   4.443   2.074   2.456 -2.2860  0.6478  0.5545
 4320SOL     OW24592   3.092   0.896  15.526 -0.3194  0.3279 -0.2334
 4320SOL    HW124593   3.060   0.985  15.543 -0.0041  0.7244 -1.6834
 4320SOL    HW224594   3.025   0.862  15.468 -0.0879  0.2039 -0.4295
 4321SOL     OW24595   0.103   1.093   5.029  0.0024 -0.2180  0.7465
 4321SOL    HW124596   0.029   1.131   4.982  0.8287  1.3785  0.7541
 4321SOL    HW224597   0.119   1.158   5.097  2.0415 -0.1054  0.1395
 4322SOL     OW24598   0.872   0.314   8.091  0.4167  0.3538 -0.0941
 4322SOL    HW124599   0.871   0.405   8.121 -0.9512  0.4739 -0.5233
 4322SOL    HW224600   0.804   0.273   8.145 -0.0956 -0.4514 -1.3447
 4323SOL     OW24601   1.443   1.470   9.427 -0.1587  0.0964  0.1981
 4323SOL    HW124602   1.402   1.497   9.346  0.9231  0.9448 -0.0698
 4323SOL    HW224603   1.382   1.491   9.498 -2.8670 -1.2779 -1.7408
 4324SOL     OW24604   3.915   0.353   3.470  0.0281 -0.1205  0.2323
 4324SOL    HW124605   3.954   0.441   3.469 -0.8507  0.2603 -1.1224
 4324SOL    HW224606   3.960   0.313   3.396 -0.5668 -0.4647  0.0529
 4325SOL     OW24607   1.660   1.252   9.022  0.2192 -0.1203 -0.8608
 4325SOL    HW124608   1.690   1.256   9.113 -0.8865  2.2564 -0.5868
 4325SOL    HW224609   1.714   1.181   8.988 -1.0300 -1.3652 -0.2023
 4326SOL     OW24610   3.986   0.227   8.973 -0.4379 -0.1828 -0.2210
 4326SOL    HW124611   4.075   0.261   8.980 -0.6890  0.2974  0.6483
 4326SOL    HW224612   4.004   0.195   8.885  1.2075  1.3409 -0.4292
 4327SOL     OW24613   3.540   1.786   4.813  0.8604  0.0291 -0.4344
 4327SOL    HW124614   3.497   1.753   4.892  0.3880  0.0977 -0.6658
 4327SOL    HW224615   3.483   1.857   4.784 -1.4347 -1.0010  1.5859
 4328SOL     OW24616   0.995   3.897   5.952  0.0404 -0.5565  0.0385
 4328SOL    HW124617   0.901   3.904   5.966 -0.0172  0.0468 -0.6048
 4328SOL    HW224618   1.027   3.983   5.924 -1.6348  0.1316  0.2221
 4329SOL     OW24619   0.786   3.015   4.563 -0.2647  0.1698 -0.3076
 4329SOL    HW124620   0.863   3.070   4.581 -0.9456  0.5698  1.3413
 4329SOL    HW224621   0.809   2.945   4.624  0.4532 -0.2374 -1.0413
 4330SOL     OW24622   2.376   3.130  16.595  0.2506 -0.3803  0.1061
 4330SOL    HW124623   2.287   3.133  16.630  1.5901 -0.5151  3.5452
 4330SOL    HW224624   2.372   3.056  16.534 -3.4681 -0.1787  0.1465
 4331SOL     OW24625   2.717   2.681  17.395 -0.4456  0.4203 -0.3361
 4331SOL    HW124626   2.748   2.642  17.476  0.9314 -0.3225 -1.2063
 4331SOL    HW224627   2.796   2.699  17.343  0.4571  0.0016  0.9107
 4332SOL     OW24628   1.323   3.411  10.144 -0.4163 -0.4478  0.0776
 4332SOL    HW124629   1.264   3.435  10.073  0.9822  0.6543 -0.7175
 4332SOL    HW224630   1.371   3.494  10.152  0.5945 -1.1005  0.9236
 4333SOL     OW24631   2.254   0.831  16.782 -0.1143 -0.1508  0.1888
 4333SOL    HW124632   2.276   0.782  16.861 -0.1729 -2.2754 -1.1165
 4333SOL    HW224633   2.333   0.885  16.776  0.5568 -1.3151 -1.7307
 4334SOL     OW24634   2.460   3.855  12.726  0.5533  0.2191  0.3299
 4334SOL    HW124635   2.516   3.918  12.771 -0.4021  1.3237 -0.0542
 4334SOL    HW224636   2.390   3.912  12.696 -0.0805 -1.5447 -1.5446
 4335SOL     OW24637   1.216   1.676   9.575 -0.3048 -0.2262  0.3276
 4335SOL    HW124638   1.274   1.655   9.648 -0.9482  0.6638  1.0827
 4335SOL    HW224639   1.163   1.743   9.617 -1.3893  0.2102 -1.7365
 4336SOL     OW24640   4.613   3.036  17.347  0.5257  0.0121  0.5675
 4336SOL    HW124641   4.614   3.121  17.390  0.3931  0.2566  0.0763
 4336SOL    HW224642   4.522   3.039  17.319 -0.1111  0.0043  2.6467
 4337SOL     OW24643   4.386   0.659   1.403 -0.0762 -0.3207  0.2600
 4337SOL    HW124644   4.418   0.720   1.470  1.4963 -2.7515  1.7216
 4337SOL    HW224645   4.462   0.602   1.394 -0.6054 -0.3244 -3.8622
 4338SOL     OW24646   3.154   0.994  16.522 -0.1643  0.4238 -0.3607
 4338SOL    HW124647   3.224   0.967  16.462 -1.7909 -0.9425 -1.6499
 4338SOL    HW224648   3.073   0.985  16.471  0.4242 -0.1354 -1.1941
 4339SOL     OW24649   0.311   1.274  17.488  0.4446 -0.0660 -0.7084
 4339SOL    HW124650   0.343   1.331  17.558 -0.4918 -0.1389 -0.2293
 4339SOL    HW224651   0.391   1.223  17.474  0.3225  0.1032 -2.0227
 4340SOL     OW24652   1.131   2.814  11.088  0.7215 -0.3376 -0.1567
 4340SOL    HW124653   1.140   2.750  11.158 -2.5824 -0.1510  0.4554
 4340SOL    HW224654   1.171   2.886  11.138 -0.9001  1.0608 -0.8450
 4341SOL     OW24655   2.535   3.904   9.538  0.2044 -0.2541 -0.2540
 4341SOL    HW124656   2.470   3.857   9.487 -1.2009  0.3325  1.0055
 4341SOL    HW224657   2.502   3.888   9.626  0.7195 -0.1727 -0.0495
 4342SOL     OW24658   2.197   2.896   2.894 -0.7101 -0.2301  0.3963
 4342SOL    HW124659   2.155   2.931   2.973 -2.0225 -0.6814 -0.1022
 4342SOL    HW224660   2.228   2.807   2.914  0.7787  0.4370  1.0512
 4343SOL     OW24661   0.007   0.004  14.907 -0.3589  0.7246  0.2323
 4343SOL    HW124662   0.062   4.664  14.917 -1.7303 -0.4605 -1.5205
 4343SOL    HW224663   4.662   4.695  14.921 -0.2058  0.1412 -0.8239
 4344SOL     OW24664   3.519   1.399   6.998  0.2948 -0.0504  0.1676
 4344SOL    HW124665   3.562   1.427   7.079  0.0998 -2.2818  1.0466
 4344SOL    HW224666   3.582   1.330   6.979  1.3344  0.4875  1.6777
 4345SOL     OW24667   0.151   0.848   4.941  0.6291 -0.0384 -0.5669
 4345SOL    HW124668   0.071   0.829   4.893 -0.0356  0.4888  0.3256
 4345SOL    HW224669   0.127   0.928   4.988  0.0940  0.3924 -1.5776
 4346SOL     OW24670   0.321   0.573   1.729 -0.1838 -0.7423  0.1408
 4346SOL    HW124671   0.249   0.540   1.676  0.3248 -3.0514  0.8592
 4346SOL    HW224672   0.300   0.666   1.731  2.5975 -0.1336  1.0507
 4347SOL     OW24673   2.447   2.008   5.948  0.3819 -0.0585 -0.3280
 4347SOL    HW124674   2.463   2.070   6.019  1.8974 -0.5570 -0.2329
 4347SOL    HW224675   2.358   1.982   5.974 -0.1344  1.3675 -0.6836
 4348SOL     OW24676   3.027   3.427   1.501  0.9669 -0.2132  0.0527
 4348SOL    HW124677   3.007   3.468   1.586  3.5620 -3.1174  2.0803
 4348SOL    HW224678   2.953   3.368   1.494 -0.2245  1.0942  1.5720
 4349SOL     OW24679   0.699   1.858   6.836 -0.4961  0.4094  0.8019
 4349SOL    HW124680   0.704   1.926   6.769  1.7743  1.6961  2.3020
 4349SOL    HW224681   0.606   1.835   6.824 -0.2865  0.9287 -1.7873
 4350SOL     OW24682   3.792   4.689  14.978  0.2544 -0.0975 -0.0661
 4350SOL    HW124683   3.806   4.607  14.930  2.2721 -0.3014  0.8650
 4350SOL    HW224684   3.716   4.663  15.030 -0.3738 -1.9091 -1.8706
 4351SOL     OW24685   1.557   0.537   9.309 -0.3336  0.1645  0.2004
 4351SOL    HW124686   1.581   0.465   9.367 -0.7724  0.8151  1.1888
 4351SOL    HW224687   1.514   0.597   9.370 -2.4607 -0.9126 -0.2317
 4352SOL     OW24688   2.351   0.915   4.928 -0.2497  0.2716 -0.0052
 4352SOL    HW124689   2.375   1.008   4.931  2.1411 -0.3535  0.7253
 4352SOL    HW224690   2.284   0.921   4.860 -0.4538 -0.9666  0.0897
 4353SOL     OW24691   2.754   0.686   3.334 -0.1461  0.6217 -0.3974
 4353SOL    HW124692   2.793   0.599   3.328  0.3956  0.6591  2.6128
 4353SOL    HW224693   2.738   0.691   3.428 -0.4206 -0.1833 -0.3987
 4354SOL     OW24694   1.535   0.729   1.126 -0.2791  0.0316 -0.1846
 4354SOL    HW124695   1.506   0.702   1.213 -2.0628 -0.3457 -0.8966
 4354SOL    HW224696   1.532   0.824   1.127 -0.5570  0.0106  0.7492
 4355SOL     OW24697   2.457   1.926   7.794 -0.1348 -0.0026 -0.0391
 4355SOL    HW124698   2.411   1.898   7.715 -2.1438 -0.1390  1.1913
 4355SOL    HW224699   2.385   1.951   7.851  0.5393  2.0540 -0.0982
 4356SOL     OW24700   0.210   4.653   3.937  0.3817  0.0716  0.0321
 4356SOL    HW124701   0.135   4.697   3.897 -0.9678 -1.1125  1.2907
 4356SOL    HW224702   0.186   4.561   3.938 -0.3350  0.2898  2.9310
 4357SOL     OW24703   0.955   2.794   7.817  0.7050 -0.5794 -0.0505
 4357SOL    HW124704   0.981   2.767   7.905 -0.2892 -0.7990  0.1811
 4357SOL    HW224705   1.035   2.807   7.767 -1.2194 -0.8332 -3.1810
 4358SOL     OW24706   3.394   1.213   4.175 -0.1098 -0.8978 -0.1384
 4358SOL    HW124707   3.428   1.194   4.262  0.9051  0.7898 -0.1561
 4358SOL    HW224708   3.392   1.309   4.177 -0.0612 -0.9090  0.3752
 4359SOL     OW24709   2.379   0.963   8.001  0.3382 -0.2832  0.7483
 4359SOL    HW124710   2.409   0.983   7.912 -0.6801  1.4134  0.7678
 4359SOL    HW224711   2.305   0.906   7.981  2.4186 -2.1648 -1.4451
 4360SOL     OW24712   3.494   1.085   6.199 -0.5838 -0.0858 -0.1358
 4360SOL    HW124713   3.405   1.093   6.162 -0.4499  1.1042 -0.1934
 4360SOL    HW224714   3.526   1.009   6.149 -0.6000  0.9690 -1.7390
 4361SOL     OW24715   2.055   1.739   0.776  0.0100  0.1957 -0.0247
 4361SOL    HW124716   2.065   1.655   0.731  0.2994 -0.9549  2.2411
 4361SOL    HW224717   2.091   1.791   0.704 -1.6464 -0.2121 -1.1636
 4362SOL     OW24718   0.179   4.016   3.514  0.2455  0.5963 -0.5967
 4362SOL    HW124719   0.121   4.034   3.441  0.0754  1.9661 -0.1292
 4362SOL    HW224720   0.143   3.941   3.561 -1.1612 -0.1032 -2.8156
 4363SOL     OW24721   0.295   3.136  10.643 -0.0106  0.5668 -0.9452
 4363SOL    HW124722   0.379   3.134  10.689  0.2377  0.0295 -1.4282
 4363SOL    HW224723   0.237   3.087  10.701 -2.0430  0.0033 -3.4216
 4364SOL     OW24724   2.381   3.833   2.985  0.0861  0.1055  0.2764
 4364SOL    HW124725   2.394   3.890   2.909  2.1706  0.9651  1.2584
 4364SOL    HW224726   2.344   3.758   2.940  1.1167 -1.4025  1.9581
 4365SOL     OW24727   2.362   3.211   2.509 -0.1149 -0.1112  0.4941
 4365SOL    HW124728   2.299   3.157   2.462 -0.4269  1.0848 -0.4523
 4365SOL    HW224729   2.421   3.140   2.534  0.2321 -0.6142 -1.7625
 4366SOL     OW24730   3.102   1.065   5.104  0.2063  0.2006  0.0984
 4366SOL    HW124731   3.147   1.048   5.187  2.1681 -1.9618 -1.3920
 4366SOL    HW224732   3.129   1.155   5.089  0.0348  0.0000 -1.4432
 4367SOL     OW24733   1.589   0.069   7.377  0.0681 -0.0443 -0.4463
 4367SOL    HW124734   1.647   4.735   7.403 -0.2783 -0.1895 -0.0811
 4367SOL    HW224735   1.553   0.031   7.296  1.8726 -0.2636 -1.1490
 4368SOL     OW24736   2.378   3.412   2.177 -0.1827  0.7429 -0.0203
 4368SOL    HW124737   2.410   3.330   2.141 -1.4767 -1.3637  3.7172
 4368SOL    HW224738   2.299   3.378   2.219 -0.5393  0.0901 -1.2247
 4369SOL     OW24739   2.254   4.687   9.353  0.2981  0.0006  0.5868
 4369SOL    HW124740   2.320   4.686   9.422  1.2361 -0.0262 -0.2984
 4369SOL    HW224741   2.264   4.599   9.316 -1.8481 -0.3146  0.7698
 4370SOL     OW24742   0.192   4.352   9.790  0.2400  0.0152  0.7129
 4370SOL    HW124743   0.245   4.392   9.860  0.7185  0.1856  0.2525
 4370SOL    HW224744   0.186   4.275   9.846  0.7847 -0.2760  0.3620
 4371SOL     OW24745   0.334   4.672   0.848 -0.7022  0.0832 -0.2450
 4371SOL    HW124746   0.266   4.614   0.813  0.7393 -0.9394 -1.3279
 4371SOL    HW224747   0.282   4.727   0.908  0.2907  0.8254 -0.0605
 4372SOL     OW24748   2.759   0.087   0.556  0.5203  0.6978  0.5246
 4372SOL    HW124749   2.767   4.734   0.585 -2.0987 -0.1075 -1.2869
 4372SOL    HW224750   2.729   0.082   0.465  0.1949 -1.8966  0.7845
 4373SOL     OW24751   4.621   1.048  12.639 -0.1990 -0.1943  0.2226
 4373SOL    HW124752   4.689   1.112  12.619 -0.4648  0.3560  1.0735
 4373SOL    HW224753   4.672   1.002  12.706  1.2575  1.1705  0.0462
 4374SOL     OW24754   2.337   4.131   1.773 -0.2022 -0.0568  0.0829
 4374SOL    HW124755   2.426   4.101   1.757 -0.5679 -0.4805 -1.1924
 4374SOL    HW224756   2.327   4.176   1.689  0.2704  0.1625  0.1449
 4375SOL     OW24757   0.400   0.989   9.182 -0.1860 -0.1853  0.0258
 4375SOL    HW124758   0.378   1.052   9.251  2.4206 -0.1456  0.8172
 4375SOL    HW224759   0.317   0.956   9.146 -0.6564  0.4247  0.5588
 4376SOL     OW24760   0.594   2.149  10.874 -0.4663 -0.2402 -0.2457
 4376SOL    HW124761   0.639   2.229  10.844 -0.2349  0.3022  1.5655
 4376SOL    HW224762   0.546   2.176  10.952  0.5588  0.2523  0.2167
 4377SOL     OW24763   1.072   3.845  17.028  0.6415 -0.9494 -0.6567
 4377SOL    HW124764   1.023   3.859  16.947  0.0175  1.7074  0.1857
 4377SOL    HW224765   1.144   3.796  16.989  0.4268 -1.1913 -0.7542
 4378SOL     OW24766   2.930   4.089   8.184  0.3675  0.1967 -0.4248
 4378SOL    HW124767   2.951   4.045   8.101  1.2421  0.5510 -0.3860
 4378SOL    HW224768   3.008   4.143   8.192  1.3274 -1.3415  0.4281
 4379SOL     OW24769   2.363   1.945   9.672 -0.7314  0.0482 -0.1762
 4379SOL    HW124770   2.297   1.890   9.714  0.6610  0.6340  2.8170
 4379SOL    HW224771   2.308   2.015   9.635 -0.7835  0.4074  0.5779
 4380SOL     OW24772   4.323   1.924   4.843 -0.0200  0.2123 -0.5110
 4380SOL    HW124773   4.235   1.918   4.807 -1.2403  1.7653  2.2649
 4380SOL    HW224774   4.313   1.952   4.934  2.2775  1.0534 -0.4996
 4381SOL     OW24775   1.535   3.805   3.259  0.1721  0.2429 -0.0339
 4381SOL    HW124776   1.481   3.804   3.339 -0.3793 -0.9196 -0.4282
 4381SOL    HW224777   1.506   3.881   3.208 -0.6704  0.4395  0.7357
 4382SOL     OW24778   1.542   4.084  11.517 -0.1629  0.6174 -0.2319
 4382SOL    HW124779   1.631   4.059  11.543  0.1187  1.3029 -0.5285
 4382SOL    HW224780   1.571   4.167  11.478  4.2572 -0.5961  0.4860
 4383SOL     OW24781   3.932   0.583  11.168  0.2535  0.2820 -0.1087
 4383SOL    HW124782   3.986   0.548  11.238  1.0327 -1.5247 -1.5968
 4383SOL    HW224783   3.845   0.559  11.200 -0.1743  3.5819  1.1460
 4384SOL     OW24784   3.763   4.563   1.595 -0.3877  0.1735  0.4980
 4384SOL    HW124785   3.706   4.576   1.671  2.7727  1.5442  2.6513
 4384SOL    HW224786   3.753   4.648   1.553  2.4151 -0.3432 -1.1651
 4385SOL     OW24787   0.441   0.419   0.998  0.1371 -0.2875  0.4724
 4385SOL    HW124788   0.503   0.468   1.052  1.2886  0.7001 -1.7661
 4385SOL    HW224789   0.357   0.433   1.042 -0.3034  0.8560 -0.7433
 4386SOL     OW24790   2.564   4.355   2.937 -0.0390  0.1482 -0.0298
 4386SOL    HW124791   2.502   4.372   3.008 -1.1543  0.2234 -1.0276
 4386SOL    HW224792   2.528   4.422   2.880  2.1734  0.5375 -0.9618
 4387SOL     OW24793   0.073   3.836   7.449  0.0141 -1.0917 -0.5615
 4387SOL    HW124794   0.068   3.926   7.416 -0.6731 -0.8682  0.1446
 4387SOL    HW224795   0.164   3.818   7.472 -0.2934 -2.8698 -0.6885
 4388SOL     OW24796   1.411   3.162   7.810 -0.3775  1.0007  0.3330
 4388SOL    HW124797   1.456   3.219   7.873 -0.5859  0.7692  0.6953
 4388SOL    HW224798   1.338   3.114   7.851 -1.3101  2.6056  0.5630
 4389SOL     OW24799   0.208   3.331   9.162 -0.0745 -0.3774 -0.0111
 4389SOL    HW124800   0.292   3.375   9.145 -1.0417  1.0904 -0.9320
 4389SOL    HW224801   0.191   3.303   9.073  0.5076  2.8147 -1.1401
 4390SOL     OW24802   0.349   2.770  15.711 -0.2078 -0.4760  0.1102
 4390SOL    HW124803   0.270   2.786  15.659  0.8345  0.9859 -1.0197
 4390SOL    HW224804   0.375   2.700  15.651  0.5408  0.1783 -0.3217
 4391SOL     OW24805   1.028   0.135   1.109 -0.3502  0.2374  0.0176
 4391SOL    HW124806   1.044   0.210   1.052  2.4225 -0.1450  0.3319
 4391SOL    HW224807   0.933   0.142   1.121 -0.2402 -0.8354  1.4920
 4392SOL     OW24808   1.232   1.697   1.909  0.0508 -0.3631 -0.0175
 4392SOL    HW124809   1.294   1.628   1.885  2.1423  2.2865 -2.1851
 4392SOL    HW224810   1.288   1.762   1.951  2.0527 -2.0664 -0.0743
 4393SOL     OW24811   2.523   2.950   6.935  0.1316 -0.1149  0.2759
 4393SOL    HW124812   2.458   2.898   6.888  1.9686 -0.8046 -1.4937
 4393SOL    HW224813   2.494   3.040   6.922  1.3473  0.7275  3.4921
 4394SOL     OW24814   2.817   0.879   9.525 -0.2663  0.2676 -0.3791
 4394SOL    HW124815   2.758   0.911   9.457 -3.2881 -1.4407  1.4362
 4394SOL    HW224816   2.827   0.968   9.557  0.2154  0.1646 -0.2499
 4395SOL     OW24817   0.923   0.314   1.671 -0.5546  0.4418  0.2238
 4395SOL    HW124818   0.935   0.221   1.689  2.3203  0.5943 -1.0806
 4395SOL    HW224819   0.957   0.348   1.754 -0.6723 -1.1295  0.9255
 4396SOL     OW24820   3.865   3.697  13.971  0.0754 -0.3191 -0.2034
 4396SOL    HW124821   3.794   3.761  13.968 -1.9443 -2.4858  2.0274
 4396SOL    HW224822   3.827   3.634  14.032  0.9532 -0.9613 -0.3230
 4397SOL     OW24823   2.281   2.448  13.053  0.3447  0.0120 -0.7914
 4397SOL    HW124824   2.202   2.487  13.090  0.1319 -1.7783  0.6192
 4397SOL    HW224825   2.326   2.524  13.015 -1.3719  2.1620  1.5097
 4398SOL     OW24826   0.422   1.786   0.104 -0.1934  0.1970 -0.2433
 4398SOL    HW124827   0.409   1.691   0.101  2.1150 -0.1525  0.3711
 4398SOL    HW224828   0.511   1.790   0.068 -0.9281  1.0544 -1.9232
 4399SOL     OW24829   4.128   2.041   8.073 -0.2621  0.3641 -0.8443
 4399SOL    HW124830   4.070   2.078   8.139 -0.0069 -1.4105  0.3741
 4399SOL    HW224831   4.203   2.011   8.124  0.9763  2.0029 -1.6946
 4400SOL     OW24832   1.782   3.801   3.492  0.1090 -0.6162 -0.0350
 4400SOL    HW124833   1.795   3.844   3.576 -0.6970 -0.4762  0.0213
 4400SOL    HW224834   1.771   3.878   3.437  0.2229 -0.6943 -0.1666
 4401SOL     OW24835   4.127   2.164  10.053 -0.3107  0.1510 -0.3287
 4401SOL    HW124836   4.201   2.209  10.094 -0.4798 -0.5351  0.7389
 4401SOL    HW224837   4.072   2.155  10.132  0.2087 -0.0241  0.0127
 4402SOL     OW24838   2.982   2.171   1.465  0.6659 -0.1621 -0.1285
 4402SOL    HW124839   3.033   2.237   1.513 -0.4405  0.8703 -0.3651
 4402SOL    HW224840   2.954   2.117   1.539 -0.7465 -0.8697 -1.1756
 4403SOL     OW24841   3.132   1.817   1.248 -0.5121  0.6713 -0.0475
 4403SOL    HW124842   3.221   1.852   1.243  0.2260 -1.6297 -2.6591
 4403SOL    HW224843   3.112   1.815   1.155 -0.0448 -1.7344 -0.0805
 4404SOL     OW24844   2.882   1.588   1.626  0.4586  0.6497  0.5825
 4404SOL    HW124845   2.930   1.653   1.574 -0.2259  1.4844  1.0105
 4404SOL    HW224846   2.861   1.517   1.566  1.9246  0.6491  0.0640
 4405SOL     OW24847   0.873   2.426  16.501 -0.6806  0.0317  0.3857
 4405SOL    HW124848   0.858   2.519  16.519  1.3463  0.6323 -1.0383
 4405SOL    HW224849   0.819   2.380  16.566  0.5388  1.2162  2.2160
 4406SOL     OW24850   0.961   3.951   5.523  0.1588  0.0945  0.2865
 4406SOL    HW124851   0.891   3.898   5.485  1.0391 -1.9193  1.4552
 4406SOL    HW224852   1.029   3.923   5.462 -0.9672  0.7832 -1.2591
 4407SOL     OW24853   2.147   0.658   6.206  0.9494 -0.2005 -0.0986
 4407SOL    HW124854   2.237   0.668   6.238  0.1993 -1.2902  2.2994
 4407SOL    HW224855   2.139   0.723   6.136  0.2972 -0.4627 -0.2691
 4408SOL     OW24856   0.299   3.081   8.287 -0.0706 -0.6753  0.4169
 4408SOL    HW124857   0.297   3.036   8.202  0.7770 -1.1113  0.6231
 4408SOL    HW224858   0.371   3.033   8.329 -1.5120 -1.5308  1.8969
 4409SOL     OW24859   4.147   3.921  16.835 -0.0104 -0.1544  0.2703
 4409SOL    HW124860   4.094   4.001  16.829  2.1300  1.4330  2.5143
 4409SOL    HW224861   4.165   3.914  16.928  1.9616  1.3771  0.0079
 4410SOL     OW24862   2.125   2.786  15.992  0.1162  0.4290 -0.9351
 4410SOL    HW124863   2.187   2.854  16.018  0.2944  0.1657 -0.6799
 4410SOL    HW224864   2.070   2.834  15.930 -0.1519 -1.5973 -2.2525
 4411SOL     OW24865   3.751   3.807   9.013 -0.2095 -0.1464  0.5148
 4411SOL    HW124866   3.686   3.737   9.016 -0.1705 -0.2249 -0.3370
 4411SOL    HW224867   3.704   3.866   8.953 -0.4939 -0.3213  0.5662
 4412SOL     OW24868   4.017   1.911   3.960  0.5762  0.1654 -0.2968
 4412SOL    HW124869   4.000   1.818   3.976 -1.0504  0.5849  0.3342
 4412SOL    HW224870   4.077   1.913   3.884  0.9703  2.5872  0.0657
 4413SOL     OW24871   1.259   1.154   7.027 -0.1389  0.3329 -0.5376
 4413SOL    HW124872   1.328   1.129   6.966 -0.1526 -4.9803  1.6484
 4413SOL    HW224873   1.219   1.068   7.043 -0.8372  0.7614  0.0657
 4414SOL     OW24874   3.603   1.515  15.835  0.4874  0.3306  0.6106
 4414SOL    HW124875   3.522   1.542  15.792  0.2095  0.8178  1.4433
 4414SOL    HW224876   3.612   1.595  15.885  2.4526  0.7292 -0.3667
 4415SOL     OW24877   1.381   0.391   6.252  0.2575  0.1447 -0.4433
 4415SOL    HW124878   1.476   0.405   6.259  0.1923  0.2863  0.1247
 4415SOL    HW224879   1.371   0.385   6.157 -0.8089 -1.7818 -0.2085
 4416SOL     OW24880   2.030   0.709   6.965 -0.2399 -0.0853 -0.3494
 4416SOL    HW124881   1.996   0.740   6.881 -2.9186  0.2677  0.8579
 4416SOL    HW224882   2.093   0.645   6.931 -1.6087 -0.6587 -1.8020
 4417SOL     OW24883   0.628   2.107  16.073  0.1069  0.7437  0.6687
 4417SOL    HW124884   0.555   2.047  16.065  0.6171  0.2182 -0.0705
 4417SOL    HW224885   0.631   2.128  16.166 -0.1465 -2.6687  1.4284
 4418SOL     OW24886   2.613   3.550   8.251  0.5259 -0.2183 -0.1780
 4418SOL    HW124887   2.556   3.474   8.243 -2.1786  1.9482 -1.5375
 4418SOL    HW224888   2.604   3.601   8.170 -0.6500 -0.6955 -0.3508
 4419SOL     OW24889   1.017   0.235   6.033  0.1718  0.1710 -0.1603
 4419SOL    HW124890   0.953   0.220   5.963  0.5368 -1.5792 -0.1311
 4419SOL    HW224891   1.039   0.326   6.014 -1.9091  1.4236  3.5393
 4420SOL     OW24892   1.286   4.718   9.983 -0.0451 -0.1886 -0.0351
 4420SOL    HW124893   1.207   4.666   9.968 -0.4002  0.3223  0.0787
 4420SOL    HW224894   1.259   0.068   9.958  1.2808 -0.0491 -0.9846
 4421SOL     OW24895   0.286   0.294   7.894 -0.1643  0.1992  0.2837
 4421SOL    HW124896   0.292   0.386   7.869 -0.3995  1.1450  3.6921
 4421SOL    HW224897   0.365   0.269   7.846 -1.2650 -1.8272 -0.4989
 4422SOL     OW24898   1.716   3.900   2.554  0.2982 -0.6081  0.3139
 4422SOL    HW124899   1.622   3.883   2.560  0.0432  0.1178 -1.3622
 4422SOL    HW224900   1.740   3.933   2.640 -2.9896  2.1187  0.2029
 4423SOL     OW24901   2.785   0.660  16.473 -0.5308 -0.1502 -0.2431
 4423SOL    HW124902   2.825   0.577  16.498  0.6510 -0.2333 -2.3135
 4423SOL    HW224903   2.754   0.684  16.560 -2.9532 -0.2300 -1.0814
 4424SOL     OW24904   0.271   3.909   6.467  0.2111  0.0646  0.1364
 4424SOL    HW124905   0.191   3.962   6.467  0.1479 -0.0130  2.0315
 4424SOL    HW224906   0.257   3.863   6.384  1.3347  0.9298 -0.5285
 4425SOL     OW24907   4.609   3.154   2.330 -0.1281  0.4294  0.6637
 4425SOL    HW124908   4.645   3.100   2.259 -0.9010  0.1005  0.5280
 4425SOL    HW224909   4.664   3.232   2.320  0.2621 -0.1070 -1.4416
 4426SOL     OW24910   1.102   2.472  17.265 -0.1951  0.1157  0.2789
 4426SOL    HW124911   1.067   2.559  17.286  0.2866  0.0292  1.4321
 4426SOL    HW224912   1.190   2.476  17.304 -0.2129  0.7736  0.2597
 4427SOL     OW24913   0.301   4.241   1.464  0.0638  0.1372  0.7492
 4427SOL    HW124914   0.279   4.302   1.533  0.5184 -0.9432  1.8566
 4427SOL    HW224915   0.233   4.180   1.492  1.2761 -1.2818  0.6155
 4428SOL     OW24916   4.147   3.810   7.846  0.2531 -0.2039  0.8027
 4428SOL    HW124917   4.186   3.723   7.855 -0.2439 -0.4520  0.5525
 4428SOL    HW224918   4.112   3.824   7.933  0.6546 -0.8069  1.0611
 4429SOL     OW24919   4.560   1.747   3.285  0.6406 -0.0659  0.4140
 4429SOL    HW124920   4.542   1.758   3.379  0.1047  1.2397  0.1532
 4429SOL    HW224921   4.609   1.824   3.257  2.7197 -1.4680  0.2424
 4430SOL     OW24922   2.946   2.953   3.292 -0.0377 -0.1867  0.3812
 4430SOL    HW124923   2.974   3.038   3.324  2.4407 -1.0929  0.5851
 4430SOL    HW224924   3.006   2.955   3.218 -1.1459 -0.3251 -0.5250
 4431SOL     OW24925   4.334   1.574   8.822 -0.8854 -0.0823 -0.8592
 4431SOL    HW124926   4.420   1.538   8.800  0.2937  1.2052  1.7410
 4431SOL    HW224927   4.280   1.495   8.822 -0.5663 -0.2997 -0.6527
 4432SOL     OW24928   3.348   2.373   2.721 -0.0024  0.1994 -0.2041
 4432SOL    HW124929   3.303   2.407   2.644  1.8496 -0.0338 -1.3975
 4432SOL    HW224930   3.275   2.366   2.782 -0.1640  0.7420 -0.3289
 4433SOL     OW24931   0.448   1.569  11.103  0.1316  0.6273  0.1468
 4433SOL    HW124932   0.503   1.565  11.182  0.3099  1.7002  0.0717
 4433SOL    HW224933   0.363   1.543  11.137  1.0154 -0.3224  1.6584
 4434SOL     OW24934   2.006   1.185   8.403  0.3141  0.3083  0.0851
 4434SOL    HW124935   1.956   1.183   8.485  1.4432  1.0583  0.7956
 4434SOL    HW224936   1.991   1.273   8.369 -1.8804  0.1818  0.7332
 4435SOL     OW24937   3.875   3.216   6.374 -0.2635  0.1409  0.0356
 4435SOL    HW124938   3.843   3.305   6.387  0.4027  0.4538 -0.4571
 4435SOL    HW224939   3.821   3.169   6.439  2.2904  0.0187  2.0613
 4436SOL     OW24940   0.161   4.510   7.903 -0.1580 -0.2834  0.2711
 4436SOL    HW124941   0.071   4.479   7.890 -0.9597  1.7383  1.0169
 4436SOL    HW224942   0.165   4.564   7.824  2.3930 -0.4050  0.3273
 4437SOL     OW24943   4.332   4.324   8.590 -0.1570  0.0889  0.4396
 4437SOL    HW124944   4.417   4.283   8.575  0.0296  0.0799  1.4983
 4437SOL    HW224945   4.269   4.262   8.552  2.9757 -2.1870 -1.0768
 4438SOL     OW24946   3.895   1.432   3.552 -0.1246  0.5012 -0.2737
 4438SOL    HW124947   3.864   1.349   3.588 -2.2296  1.9685  1.3158
 4438SOL    HW224948   3.878   1.407   3.462 -0.4397  0.0653 -0.0891
 4439SOL     OW24949   1.346   2.833   9.180 -0.3778  0.4838 -0.2421
 4439SOL    HW124950   1.338   2.776   9.103 -1.6206  0.7910 -0.3396
 4439SOL    HW224951   1.255   2.860   9.191 -0.0001  1.1013  1.3815
 4440SOL     OW24952   2.596   4.457  14.577 -0.3813  0.1391  0.4026
 4440SOL    HW124953   2.553   4.539  14.555 -1.3507 -0.9221 -1.6736
 4440SOL    HW224954   2.532   4.410  14.525 -0.4787 -0.8593  1.4334
 4441SOL     OW24955   2.771   4.592   7.222  0.0872  0.2669  0.4961
 4441SOL    HW124956   2.817   4.546   7.292 -0.7040 -0.3363  0.6242
 4441SOL    HW224957   2.804   4.543   7.147  0.5626 -0.2092  1.0086
 4442SOL     OW24958   3.626   3.209   7.428 -0.3733 -0.3637  0.2447
 4442SOL    HW124959   3.692   3.275   7.447  0.8264 -1.2601 -0.8304
 4442SOL    HW224960   3.640   3.141   7.493 -0.5953  0.2946  0.9855
 4443SOL     OW24961   3.866   4.356   5.807  0.7149  0.0332  0.2346
 4443SOL    HW124962   3.817   4.430   5.772 -1.6164 -0.3536  2.6285
 4443SOL    HW224963   3.871   4.309   5.724 -2.0305  0.2577 -0.0631
 4444SOL     OW24964   1.678   1.208  14.403  0.3430 -0.3976  0.3582
 4444SOL    HW124965   1.658   1.274  14.337  1.7572 -1.1306 -0.8009
 4444SOL    HW224966   1.770   1.227  14.418 -0.0053  1.7044 -0.2054
 4445SOL     OW24967   0.945   3.185   5.507 -0.2741 -0.2778  0.6852
 4445SOL    HW124968   0.905   3.099   5.516 -1.4927  0.0093 -1.9109
 4445SOL    HW224969   0.917   3.209   5.419  2.3050 -0.4203 -0.1667
 4446SOL     OW24970   3.734   3.643   5.611 -0.0866  0.6845 -0.0950
 4446SOL    HW124971   3.717   3.679   5.697  0.8292 -1.8775  1.1550
 4446SOL    HW224972   3.646   3.615   5.584 -0.7203  1.0419  1.6170
 4447SOL     OW24973   1.054   0.396   1.953 -0.5179  0.4750  0.2300
 4447SOL    HW124974   1.123   0.441   1.904 -1.0416 -1.4563 -2.2614
 4447SOL    HW224975   1.003   0.474   1.974 -1.3998 -0.0702  0.1013
 4448SOL     OW24976   2.092   0.425   5.138  0.0504  0.5871  0.0601
 4448SOL    HW124977   2.127   0.459   5.056  3.6966 -2.9602  0.1503
 4448SOL    HW224978   2.011   0.476   5.134 -0.1380  0.1084 -1.9845
 4449SOL     OW24979   1.093   4.698  15.646  0.4905  0.4729  0.2628
 4449SOL    HW124980   0.998   4.694  15.631  0.4143  2.5059  0.2322
 4449SOL    HW224981   1.122   4.631  15.584 -0.9300  1.1856 -1.1811
 4450SOL     OW24982   2.151   2.878   1.778  0.2349  0.3250  0.7083
 4450SOL    HW124983   2.085   2.903   1.713  2.2503 -0.1273 -1.4730
 4450SOL    HW224984   2.130   2.949   1.839  1.1169  0.8055  0.4556
 4451SOL     OW24985   1.902   0.748   9.286 -0.3080 -0.0624 -0.1598
 4451SOL    HW124986   1.849   0.700   9.222  1.0287 -1.3246 -0.3264
 4451SOL    HW224987   1.980   0.693   9.284 -1.0923 -1.2913  1.9495
 4452SOL     OW24988   0.845   1.487   3.364 -0.5375 -0.1714 -0.0605
 4452SOL    HW124989   0.780   1.472   3.433 -0.8205 -0.9195 -0.4898
 4452SOL    HW224990   0.807   1.441   3.289  3.2279 -1.3127 -1.2417
 4453SOL     OW24991   1.041   1.846  16.638 -0.2806 -0.1749 -0.0093
 4453SOL    HW124992   1.024   1.822  16.547 -1.8254 -0.1534  0.2848
 4453SOL    HW224993   1.103   1.918  16.624  1.2477 -1.2027  1.4174
 4454SOL     OW24994   2.331   4.305   1.560  0.4679 -0.6606  0.1928
 4454SOL    HW124995   2.250   4.339   1.522 -0.1484 -1.4461  0.7828
 4454SOL    HW224996   2.346   4.375   1.622 -2.6977  0.9545 -0.8311
 4455SOL     OW24997   4.662   4.503   2.481 -0.0689  0.2193  0.2569
 4455SOL    HW124998   4.634   4.415   2.457 -1.3723  0.2665  1.5876
 4455SOL    HW224999   4.581   4.553   2.466  1.0142  1.3386 -1.8051
 4456SOL     OW25000   3.822   4.439   2.823  0.2878  0.5995 -0.1180
 4456SOL    HW125001   3.810   4.421   2.916 -3.2885 -0.0501 -0.6899
 4456SOL    HW225002   3.898   4.495   2.810 -0.8002  1.7719 -1.4940
 4457SOL     OW25003   0.520   1.798   6.109  0.2374  0.6636 -0.2445
 4457SOL    HW125004   0.513   1.829   6.199  2.5855 -2.5141  1.0525
 4457SOL    HW225005   0.437   1.829   6.073  0.2507  1.4484  0.4030
 4458SOL     OW25006   3.128   1.812   5.525 -0.4739  0.1551 -0.9725
 4458SOL    HW125007   3.076   1.890   5.505 -1.3415 -0.6052 -1.7291
 4458SOL    HW225008   3.067   1.741   5.546  0.3222 -0.3291 -0.3163
 4459SOL     OW25009   1.195   4.170  13.444  0.6644 -0.2083  0.1550
 4459SOL    HW125010   1.262   4.234  13.422 -0.3479  0.8203  0.0309
 4459SOL    HW225011   1.124   4.234  13.454  0.3013 -0.4840 -0.6597
 4460SOL     OW25012   2.852   0.437   4.438 -0.5258  0.2668  0.1334
 4460SOL    HW125013   2.875   0.517   4.391 -3.5522  0.6654 -0.6263
 4460SOL    HW225014   2.932   0.427   4.490 -1.7947 -1.1824  1.7982
 4461SOL     OW25015   1.487   0.861   3.157 -0.5811 -0.3322 -0.2593
 4461SOL    HW125016   1.445   0.864   3.244 -0.2330  0.9778 -0.1337
 4461SOL    HW225017   1.422   0.805   3.114 -1.9978  0.6204  0.6435
 4462SOL     OW25018   1.113   4.689   8.141  0.4866 -0.0189  0.1786
 4462SOL    HW125019   1.050   4.643   8.087  0.2050  1.0752 -0.4263
 4462SOL    HW225020   1.111   4.631   8.217  1.7546 -0.9458 -0.4860
 4463SOL     OW25021   4.007   2.544   9.336  0.0376  0.4698 -0.3802
 4463SOL    HW125022   4.027   2.636   9.350 -0.8431  0.6022  0.0037
 4463SOL    HW225023   3.967   2.526   9.422 -1.8789  0.6403 -1.2382
 4464SOL     OW25024   4.252   4.384   5.663  0.0882 -0.4834 -0.7198
 4464SOL    HW125025   4.290   4.455   5.611 -0.3037 -0.8215 -1.4584
 4464SOL    HW225026   4.190   4.434   5.715 -1.2180 -1.4896 -1.3250
 4465SOL     OW25027   1.557   1.716  17.566  0.0681 -0.6855  0.4490
 4465SOL    HW125028   1.632   1.700  17.623 -0.0255  1.7389  1.2428
 4465SOL    HW225029   1.501   1.766  17.626  1.7897  1.6339  0.1407
 4466SOL     OW25030   0.131   3.034   7.947  0.2698  0.2421  0.9014
 4466SOL    HW125031   0.137   2.996   7.859 -1.2936  1.3009  0.3368
 4466SOL    HW225032   0.171   3.118   7.923  0.7006 -0.4609 -0.9106
 4467SOL     OW25033   0.845   2.126   4.234 -0.9444 -0.3890  0.3190
 4467SOL    HW125034   0.817   2.138   4.325 -0.3713  0.2350  0.4100
 4467SOL    HW225035   0.906   2.199   4.227 -1.3593 -0.0151  0.6680
 4468SOL     OW25036   0.621   1.722   7.597 -0.4891 -0.0571  0.1239
 4468SOL    HW125037   0.551   1.788   7.605 -0.9431 -0.5974  0.5529
 4468SOL    HW225038   0.606   1.685   7.510  0.5531  1.5626 -0.7552
 4469SOL     OW25039   3.233   0.532   8.114 -0.6788  0.5795 -0.5257
 4469SOL    HW125040   3.157   0.580   8.082 -1.8292 -1.8397 -1.4439
 4469SOL    HW225041   3.313   0.583   8.101  1.4653 -2.3333  1.1423
 4470SOL     OW25042   0.530   3.496   4.200 -0.1262 -0.0885  0.8521
 4470SOL    HW125043   0.491   3.545   4.272 -1.0226  0.1699  0.1985
 4470SOL    HW225044   0.455   3.442   4.176 -1.0896  2.3113 -1.5797
 4471SOL     OW25045   1.627   3.789   5.288 -0.3211  0.1241 -0.2243
 4471SOL    HW125046   1.555   3.837   5.327  0.4105 -0.7399  2.2623
 4471SOL    HW225047   1.698   3.807   5.350 -0.2800  0.4520 -0.3679
 4472SOL     OW25048   3.453   3.255   8.872  0.0236  1.1067 -0.6907
 4472SOL    HW125049   3.500   3.176   8.894 -0.8812  0.7458 -0.0544
 4472SOL    HW225050   3.442   3.295   8.958 -0.5281 -0.0179 -0.2502
 4473SOL     OW25051   4.016   2.582   8.737  0.4195  0.4946  0.1795
 4473SOL    HW125052   3.990   2.490   8.728 -1.1375  0.7344  2.1774
 4473SOL    HW225053   4.009   2.598   8.831  1.1377  1.1536  0.1180
 4474SOL     OW25054   3.027   3.394   7.180 -0.8035  0.1174 -0.0416
 4474SOL    HW125055   2.940   3.358   7.195  0.1035 -1.8225  0.5313
 4474SOL    HW225056   3.033   3.467   7.242  0.7745 -1.4252  1.6073
 4475SOL     OW25057   3.757   1.103   8.579  0.4303  0.1733  0.3282
 4475SOL    HW125058   3.846   1.094   8.543  0.3993  1.1438  0.0131
 4475SOL    HW225059   3.732   1.179   8.528 -0.7382 -1.5370 -1.6672
 4476SOL     OW25060   3.787   2.020   7.307  0.6959  0.5736  0.2007
 4476SOL    HW125061   3.871   1.985   7.279  0.8475  0.8469  0.3149
 4476SOL    HW225062   3.819   2.109   7.324  0.9638  0.9113 -2.0285
 4477SOL     OW25063   3.896   0.664   7.052  0.4510  0.2656 -0.1992
 4477SOL    HW125064   3.901   0.613   6.971  0.6333 -0.1681  0.0853
 4477SOL    HW225065   3.807   0.657   7.086  0.9629 -1.6079  0.7451
 4478SOL     OW25066   1.586   4.317   0.962  0.4862 -0.3764  0.8025
 4478SOL    HW125067   1.497   4.294   0.990  0.4675 -1.6290 -0.2939
 4478SOL    HW225068   1.622   4.240   0.918  1.9298  0.5667  0.3286
 4479SOL     OW25069   4.446   1.397  13.142 -0.2725 -0.3678 -0.1367
 4479SOL    HW125070   4.443   1.304  13.162 -1.6550 -0.4125 -0.5453
 4479SOL    HW225071   4.532   1.428  13.170  0.2733 -0.1363 -2.0602
 4480SOL     OW25072   4.346   0.735   5.998  0.0465  0.1855  0.4847
 4480SOL    HW125073   4.325   0.786   6.076  0.8001  0.3363  0.5877
 4480SOL    HW225074   4.322   0.791   5.925 -0.1653  0.9634  1.1536
 4481SOL     OW25075   4.121   4.547   4.497 -0.2128 -0.2829 -0.0968
 4481SOL    HW125076   4.122   4.642   4.509  0.7505  0.0619 -3.0360
 4481SOL    HW225077   4.028   4.524   4.503  0.5012 -3.0156  0.3457
 4482SOL     OW25078   4.333   2.528   5.913  0.5948  0.1994  0.1252
 4482SOL    HW125079   4.409   2.541   5.969  1.0036  3.8508 -1.3027
 4482SOL    HW225080   4.282   2.602   5.948  0.9861 -0.3204  1.7798
 4483SOL     OW25081   1.882   1.917   2.125  0.4256 -0.1140  0.1429
 4483SOL    HW125082   1.888   1.948   2.035 -1.1039 -1.3956 -0.3916
 4483SOL    HW225083   1.905   1.998   2.171 -1.3202  0.3112  0.2657
 4484SOL     OW25084   1.051   2.270   5.478  0.2702  0.3306  0.0174
 4484SOL    HW125085   1.023   2.354   5.513 -2.3001  0.4353 -2.3277
 4484SOL    HW225086   1.135   2.253   5.521  0.1857 -0.5084 -0.1336
 4485SOL     OW25087   3.492   2.297   8.729 -0.0782 -0.8822  0.1086
 4485SOL    HW125088   3.489   2.214   8.777  0.5679 -1.2270 -0.4499
 4485SOL    HW225089   3.399   2.321   8.725  0.1830  0.2902  1.4731
 4486SOL     OW25090   4.042   4.018   1.921 -0.9907  0.6405  0.1762
 4486SOL    HW125091   4.020   3.927   1.905  0.7193  0.3928 -0.8214
 4486SOL    HW225092   4.093   4.020   2.002  2.3593 -0.1318 -1.9162
 4487SOL     OW25093   4.396   4.656  15.878  0.0176  0.9356  0.1884
 4487SOL    HW125094   4.394   4.625  15.787 -2.7677 -0.9394  0.8897
 4487SOL    HW225095   4.389   0.012  15.858  0.0344  0.8840 -0.0683
 4488SOL     OW25096   4.450   2.067   1.105  0.8117  0.4321  0.1656
 4488SOL    HW125097   4.373   2.116   1.134 -0.5435 -0.9569 -1.0267
 4488SOL    HW225098   4.413   1.979   1.116  1.4693  0.2508  0.9317
 4489SOL     OW25099   1.966   1.605   6.367  0.3229 -0.0741 -0.4294
 4489SOL    HW125100   2.029   1.619   6.437 -2.0865  0.8246  1.5684
 4489SOL    HW225101   1.941   1.695   6.347  0.4380 -0.0171 -0.3196
 4490SOL     OW25102   4.073   0.291   8.248 -0.2057 -0.1766  0.5302
 4490SOL    HW125103   4.114   0.282   8.162 -0.4570 -1.4928  0.5568
 4490SOL    HW225104   4.125   0.231   8.301 -0.4327 -1.0425 -0.2226
 4491SOL     OW25105   3.724   2.574   4.255 -0.4886 -0.5952  0.1109
 4491SOL    HW125106   3.651   2.523   4.221 -2.3043  1.7131  0.6089
 4491SOL    HW225107   3.672   2.644   4.293  0.7084 -0.3592  1.3271
 4492SOL     OW25108   4.574   2.332   8.062  0.0811 -0.0281 -0.6732
 4492SOL    HW125109   4.481   2.314   8.074  0.0126  1.5838  1.2731
 4492SOL    HW225110   4.569   2.416   8.017 -3.3025 -0.7156 -1.5354
 4493SOL     OW25111   2.864   1.808   3.294  0.3163 -0.2503  0.4382
 4493SOL    HW125112   2.891   1.740   3.357 -2.6699 -1.6074  0.2468
 4493SOL    HW225113   2.924   1.787   3.222 -0.3531 -0.9155  0.0721
 4494SOL     OW25114   4.066   4.225   7.818  0.1031  0.4292 -0.3405
 4494SOL    HW125115   4.047   4.230   7.911  1.9239  2.8871 -0.0884
 4494SOL    HW225116   4.031   4.300   7.770 -0.5026  0.6767  0.5001
 4495SOL     OW25117   3.294   2.850   6.996  0.0297 -0.5435  1.4060
 4495SOL    HW125118   3.376   2.812   7.026  0.9824  0.5085  0.1104
 4495SOL    HW225119   3.280   2.912   7.068  0.6526  2.2562 -0.8636
 4496SOL     OW25120   1.863   0.236   7.288 -0.0291  0.1807 -0.1489
 4496SOL    HW125121   1.816   0.235   7.372  0.8323 -0.1330  0.3250
 4496SOL    HW225122   1.787   0.249   7.231 -1.8854 -0.6562  2.1289
 4497SOL     OW25123   4.728   1.148   2.596 -0.2623  0.5233  0.1685
 4497SOL    HW125124   4.707   1.069   2.645 -0.8223  1.8558  2.0797
 4497SOL    HW225125   0.002   1.206   2.671  0.4360  1.0699 -0.3621
 4498SOL     OW25126   4.390   1.530   4.285  0.5089 -0.1629 -0.3033
 4498SOL    HW125127   4.323   1.553   4.221 -0.9190  0.7720  1.5139
 4498SOL    HW225128   4.421   1.616   4.313 -1.8137 -0.1268  2.2214
 4499SOL     OW25129   3.018   3.517   8.163 -0.1536 -0.1310 -0.5195
 4499SOL    HW125130   3.019   3.600   8.211  1.0493 -0.2872 -0.2662
 4499SOL    HW225131   3.101   3.515   8.117 -0.4955  2.7222 -1.2153
 4500SOL     OW25132   3.592   2.497   6.007  0.2815 -0.2548 -0.2099
 4500SOL    HW125133   3.585   2.536   6.094  1.0121 -0.5973  0.0044
 4500SOL    HW225134   3.499   2.502   5.985  0.6375 -0.2024 -1.7571
 4501SOL     OW25135   3.244   0.362   0.454  0.4537 -0.1248  0.3198
 4501SOL    HW125136   3.150   0.341   0.454  0.5923 -0.7185 -1.7692
 4501SOL    HW225137   3.265   0.310   0.376  0.4910 -3.0369  2.2602
 4502SOL     OW25138   2.365   2.404   4.192 -0.2699 -0.7585  0.8620
 4502SOL    HW125139   2.311   2.372   4.120 -1.0298 -1.4842  1.7581
 4502SOL    HW225140   2.452   2.373   4.165 -0.7032 -1.1365 -0.0681
 4503SOL     OW25141   1.607   4.496   7.974 -0.3582 -0.1967 -0.3724
 4503SOL    HW125142   1.552   4.535   7.905 -0.2677 -1.1448 -0.9847
 4503SOL    HW225143   1.697   4.514   7.949  0.1782 -0.5162  1.3273
 4504SOL     OW25144   0.385   1.976   1.372 -0.3084 -0.0419  0.0545
 4504SOL    HW125145   0.438   1.903   1.403 -2.0137 -0.9385  0.7781
 4504SOL    HW225146   0.403   2.044   1.437 -1.2290  0.3778 -0.1265
 4505SOL     OW25147   4.207   4.661  14.820  0.3092  0.3761  0.3850
 4505SOL    HW125148   4.162   0.002  14.851 -1.1021 -0.4132  0.3106
 4505SOL    HW225149   4.137   4.620  14.771  1.5272 -0.5765 -0.5698
 4506SOL     OW25150   3.450   2.508   3.884  0.0743  0.1329 -0.2595
 4506SOL    HW125151   3.436   2.483   3.792 -0.7589 -1.9304  0.4355
 4506SOL    HW225152   3.526   2.562   3.861 -1.0927  0.6292 -3.0689
 4507SOL     OW25153   2.034   4.721  15.118  0.0461 -0.2905 -0.7411
 4507SOL    HW125154   2.110   0.042  15.122 -0.1399 -0.0040 -1.5244
 4507SOL    HW225155   1.977   0.017  15.187 -1.2460 -2.3799 -0.7718
 4508SOL     OW25156   2.254   3.592  17.589  0.0746  0.1166  0.2723
 4508SOL    HW125157   2.336   3.641  17.600 -0.2532  0.2229  2.3236
 4508SOL    HW225158   2.181   3.653  17.598 -0.6321 -0.7190  0.1751
 4509SOL     OW25159   0.666   1.870  12.517 -0.0739 -0.0635  0.1324
 4509SOL    HW125160   0.596   1.814  12.552  0.4564 -0.8006  0.0151
 4509SOL    HW225161   0.702   1.809  12.453  1.8129  2.2313 -0.9880
 4510SOL     OW25162   1.631   2.544   3.840 -0.3372 -0.0819  0.4006
 4510SOL    HW125163   1.683   2.467   3.860 -0.9391 -0.0835  1.9784
 4510SOL    HW225164   1.577   2.559   3.917 -1.2645 -0.7306 -0.1254
 4511SOL     OW25165   0.686   4.112   5.381  0.6988  0.0514  0.2568
 4511SOL    HW125166   0.744   4.074   5.315 -1.8462  0.7878 -2.4001
 4511SOL    HW225167   0.601   4.075   5.357  1.0088  0.3034 -1.2233
 4512SOL     OW25168   4.018   0.659  15.406  1.0900 -0.4089  0.5427
 4512SOL    HW125169   4.074   0.728  15.442 -0.2502  0.7645  0.3892
 4512SOL    HW225170   3.939   0.668  15.458  0.8666 -1.4636  0.3716
 4513SOL     OW25171   2.406   3.820   6.874 -0.1809  0.1931  0.0029
 4513SOL    HW125172   2.346   3.746   6.872 -0.3579  0.3602 -0.8175
 4513SOL    HW225173   2.487   3.786   6.836 -1.4104 -1.8119 -0.8277
 4514SOL     OW25174   0.739   4.191   3.674 -0.1077  0.2078  0.0222
 4514SOL    HW125175   0.722   4.239   3.755 -0.9767  1.6008 -0.9688
 4514SOL    HW225176   0.830   4.214   3.653 -0.6002  1.9782 -0.1911
 4515SOL     OW25177   4.524   0.224   4.340 -0.2100 -0.0798  0.2123
 4515SOL    HW125178   4.542   0.133   4.318 -0.4679  0.1981 -1.1591
 4515SOL    HW225179   4.614   0.247   4.362 -0.0972 -0.3234  0.0058
 4516SOL     OW25180   4.295   0.026   6.824  0.3425 -0.0799 -0.1926
 4516SOL    HW125181   4.217   0.068   6.861  0.5793 -0.0123  0.2334
 4516SOL    HW225182   4.275   0.009   6.732  1.1140 -2.0207 -0.0019
 4517SOL     OW25183   2.598   4.102  14.364 -0.5740  0.1544 -0.7528
 4517SOL    HW125184   2.630   4.132  14.279  0.0944  2.1514  0.2127
 4517SOL    HW225185   2.525   4.161  14.385 -0.8158  0.6865 -3.0788
 4518SOL     OW25186   2.510   2.963   2.977  0.1873 -0.7118 -0.5916
 4518SOL    HW125187   2.451   3.019   3.028  0.3336 -0.0970 -1.1101
 4518SOL    HW225188   2.458   2.944   2.899 -1.8646 -3.1392  1.3300
 4519SOL     OW25189   3.360   1.384   6.748  1.1234  0.2746 -0.1721
 4519SOL    HW125190   3.419   1.360   6.677  1.4294  0.5100  0.0062
 4519SOL    HW225191   3.421   1.387   6.821  0.4378  0.6076  0.3860
 4520SOL     OW25192   1.816   2.440   6.432 -0.0811  0.0791 -0.5640
 4520SOL    HW125193   1.733   2.405   6.400 -0.2739  0.5001 -0.5267
 4520SOL    HW225194   1.798   2.534   6.434  0.9250  0.2315  2.3038
 4521SOL     OW25195   0.486   0.148   5.832 -0.4086  0.0461 -0.0586
 4521SOL    HW125196   0.481   0.241   5.810  0.9522  0.5422  1.7025
 4521SOL    HW225197   0.556   0.149   5.897  0.7185  0.3632 -1.3036
 4522SOL     OW25198   2.104   4.513   0.894 -0.4201  0.0303 -0.2221
 4522SOL    HW125199   2.015   4.489   0.868 -1.2430  3.0654 -0.3146
 4522SOL    HW225200   2.146   4.469   0.821  2.4517  0.8752  0.9520
 4523SOL     OW25201   0.669   0.793  11.302 -0.1521  0.2633  0.1091
 4523SOL    HW125202   0.604   0.723  11.308  0.2889 -0.1633 -0.0927
 4523SOL    HW225203   0.698   0.785  11.211  2.2171 -1.8794  1.0659
 4524SOL     OW25204   3.006   1.578  16.778 -0.5350 -0.0191 -0.1353
 4524SOL    HW125205   2.955   1.658  16.788 -0.9691 -0.3838  0.5264
 4524SOL    HW225206   3.080   1.617  16.731 -0.4031 -0.4645 -0.2911
 4525SOL     OW25207   2.880   2.794   0.800 -0.3990  0.6281 -0.6160
 4525SOL    HW125208   2.931   2.722   0.837  0.5132  1.2966 -0.5663
 4525SOL    HW225209   2.886   2.759   0.711 -0.9823 -0.5830 -0.1829
 4526SOL     OW25210   0.697   3.345   6.330  0.0674  0.4453 -0.3214
 4526SOL    HW125211   0.700   3.376   6.421  1.8307 -1.8689  0.4069
 4526SOL    HW225212   0.760   3.273   6.328 -0.0156  0.2468  2.9982
 4527SOL     OW25213   3.891   2.934  14.868  0.0152 -0.4739  0.5216
 4527SOL    HW125214   3.973   2.895  14.840  0.1659  2.4801 -3.2319
 4527SOL    HW225215   3.900   2.928  14.963  1.1909 -0.5273  0.3997
 4528SOL     OW25216   2.104   3.856  12.492  0.2070 -0.1348  0.2102
 4528SOL    HW125217   2.162   3.898  12.555  0.7861  0.3183 -0.6255
 4528SOL    HW225218   2.015   3.879  12.520  0.5785  1.9182 -0.3061
 4529SOL     OW25219   3.135   2.228   4.876 -0.3090  0.0320 -0.6949
 4529SOL    HW125220   3.072   2.156   4.885 -2.3005  1.8746  0.2544
 4529SOL    HW225221   3.146   2.215   4.782  0.8954 -0.6948 -0.4489
 4530SOL     OW25222   0.722   0.124   3.572  0.1384  0.2575 -0.5079
 4530SOL    HW125223   0.751   0.045   3.526 -0.2983 -1.0050  1.3983
 4530SOL    HW225224   0.640   0.129   3.523 -0.1642  1.0530  0.0922
 4531SOL     OW25225   3.039   0.581   6.403 -0.2818 -0.1263  0.1068
 4531SOL    HW125226   2.957   0.552   6.363 -2.1349  1.1188  3.0418
 4531SOL    HW225227   3.059   0.497   6.444  0.3353  0.2244  0.5077
 4532SOL     OW25228   1.212   3.027   2.629  0.8348 -0.6495  0.2028
 4532SOL    HW125229   1.258   2.976   2.563  0.8560 -1.3265  0.7444
 4532SOL    HW225230   1.208   3.118   2.601  0.9802 -0.7609 -0.1812
 4533SOL     OW25231   0.067   4.443   4.227 -0.1936  0.2531 -0.3206
 4533SOL    HW125232   0.104   4.355   4.217  1.3704  0.8968 -0.2170
 4533SOL    HW225233   0.065   4.434   4.323 -0.6794 -1.9376 -0.5401
 4534SOL     OW25234   4.331   0.044   4.008 -0.5709  0.0697 -0.1932
 4534SOL    HW125235   4.385   4.708   3.980  0.8689  0.8207  0.6178
 4534SOL    HW225236   4.323   0.013   4.098 -2.5038  0.6652 -0.1571
 4535SOL     OW25237   1.380   2.799   2.580 -0.3464 -0.5617 -0.2175
 4535SOL    HW125238   1.436   2.875   2.595  0.8477 -1.9727  2.4294
 4535SOL    HW225239   1.442   2.732   2.608  0.8986  0.6151 -0.1599
 4536SOL     OW25240   4.728   1.181  11.168 -0.1894  0.2586 -0.0335
 4536SOL    HW125241   4.717   1.089  11.145 -1.1257  0.4711 -0.4421
 4536SOL    HW225242   0.076   1.183  11.211 -1.4341 -0.3384  2.4355
 4537SOL     OW25243   4.641   2.993   7.091 -0.1806  0.0580 -0.6887
 4537SOL    HW125244   4.618   3.076   7.050  1.1710  0.4928 -0.5677
 4537SOL    HW225245   4.736   3.003   7.097 -0.0242 -1.3495 -0.6364
 4538SOL     OW25246   2.660   4.707   4.537  0.8274 -0.0674 -0.2575
 4538SOL    HW125247   2.601   0.031   4.580 -1.6414 -1.7938 -1.1415
 4538SOL    HW225248   2.622   4.720   4.450 -2.1506  1.3852  1.2386
 4539SOL     OW25249   1.571   2.600  16.864 -0.0621 -0.1371  0.2069
 4539SOL    HW125250   1.587   2.603  16.770  0.6776  0.7113  0.3625
 4539SOL    HW225251   1.658   2.599  16.904  0.6460  2.3445 -1.3191
 4540SOL     OW25252   1.766   4.480   0.513  0.2368 -0.1771 -0.0369
 4540SOL    HW125253   1.732   4.544   0.575 -0.6427  0.0095 -0.7042
 4540SOL    HW225254   1.727   4.512   0.431 -1.2993  0.6774  1.0290
 4541SOL     OW25255   2.087   0.730  15.052 -0.0094  0.8561  0.2164
 4541SOL    HW125256   2.100   0.712  15.145 -1.6423 -1.8228 -0.0507
 4541SOL    HW225257   2.101   0.643  15.014  2.1013  1.1891  0.2295
 4542SOL     OW25258   0.982   4.026   0.762 -0.0720 -0.0875 -0.0024
 4542SOL    HW125259   1.026   4.030   0.678 -2.6072  0.0914 -1.3329
 4542SOL    HW225260   1.008   4.112   0.796  0.8923 -1.4655  2.7926
 4543SOL     OW25261   1.247   0.789   6.299  0.4601  0.2479 -0.0721
 4543SOL    HW125262   1.342   0.786   6.312  0.8939 -1.5050 -3.3892
 4543SOL    HW225263   1.223   0.707   6.342 -1.5719 -0.5259 -2.6682
 4544SOL     OW25264   3.035   0.113   6.137  0.3529  0.3348  0.7097
 4544SOL    HW125265   3.086   0.034   6.118 -0.5034 -0.0134 -0.1111
 4544SOL    HW225266   3.093   0.188   6.121  0.0802  0.6669  1.2481
 4545SOL     OW25267   3.472   3.364   7.931 -0.1420  0.8168 -0.2848
 4545SOL    HW125268   3.400   3.351   7.869 -0.2035 -0.5453  0.0766
 4545SOL    HW225269   3.548   3.321   7.892 -0.0118  0.6914  0.1077
 4546SOL     OW25270   3.548   2.796  17.385 -0.3682  0.2557 -0.4216
 4546SOL    HW125271   3.554   2.741  17.463  2.0487 -0.0378 -0.8296
 4546SOL    HW225272   3.533   2.734  17.314 -1.3554 -0.9008  0.7885
 4547SOL     OW25273   1.786   4.644  10.787 -0.3650 -0.1781  0.4104
 4547SOL    HW125274   1.773   4.629  10.881  0.7187  2.2401  0.9463
 4547SOL    HW225275   1.869   4.605  10.762 -0.4940  1.7939 -2.9859
 4548SOL     OW25276   1.933   2.136   9.324  0.2170 -0.1010 -0.0423
 4548SOL    HW125277   1.911   2.227   9.342 -2.9349 -0.6755 -0.8683
 4548SOL    HW225278   1.913   2.099   9.410  0.0659  1.1398  0.4420
 4549SOL     OW25279   2.284   1.819   5.095  0.4974  0.1877  0.5963
 4549SOL    HW125280   2.317   1.855   5.012 -1.1937  0.5270  0.0679
 4549SOL    HW225281   2.199   1.863   5.099  0.4222  0.0318  0.7345
 4550SOL     OW25282   0.240   1.550   9.891 -0.1208  0.1050 -0.1652
 4550SOL    HW125283   0.163   1.607   9.889  0.6111  1.1518  1.4638
 4550SOL    HW225284   0.216   1.463   9.924  0.0211  0.1295  0.0057
 4551SOL     OW25285   2.050   0.491  12.988  0.1584  0.3211  0.5373
 4551SOL    HW125286   2.092   0.418  12.943 -0.7311  0.0004  0.2140
 4551SOL    HW225287   2.019   0.541  12.912 -0.8960 -3.1618 -1.3326
 4552SOL     OW25288   0.145   4.397   3.864 -0.2869  0.0073 -0.2227
 4552SOL    HW125289   0.173   4.366   3.778 -0.1009  0.8514 -0.4711
 4552SOL    HW225290   0.077   4.333   3.884 -0.6012  0.3672 -0.1377
 4553SOL     OW25291   3.315   0.153   1.869  1.0974 -0.0923  0.0727
 4553SOL    HW125292   3.364   0.074   1.891  0.2370 -0.4369  0.7445
 4553SOL    HW225293   3.267   0.162   1.951  1.3165  1.1246  0.0729
 4554SOL     OW25294   2.260   0.955   6.565 -0.3958  0.8121 -0.5206
 4554SOL    HW125295   2.308   0.981   6.486  1.4895 -1.2787 -0.0763
 4554SOL    HW225296   2.313   0.880   6.593  1.9966  2.3057 -0.9958
 4555SOL     OW25297   2.031   3.284   5.852  0.3667  0.3205  0.6289
 4555SOL    HW125298   2.050   3.363   5.801  0.2212 -1.4736 -2.2058
 4555SOL    HW225299   1.938   3.285   5.873 -0.4303  0.4306 -2.9157
 4556SOL     OW25300   3.032   2.391   0.416  0.3211  0.4202  0.2830
 4556SOL    HW125301   3.115   2.438   0.424 -0.8594  2.4842  0.6111
 4556SOL    HW225302   3.047   2.324   0.482 -0.2299 -1.3496 -1.3754
 4557SOL     OW25303   1.074   4.492   7.540  0.0482 -0.0464 -0.4116
 4557SOL    HW125304   1.003   4.557   7.536 -0.2288 -0.3579 -0.6379
 4557SOL    HW225305   1.154   4.529   7.575 -0.6095 -0.0267  1.0683
 4558SOL     OW25306   3.254   2.897  17.455 -0.0978 -0.0966 -0.3495
 4558SOL    HW125307   3.332   2.884  17.509 -2.3179 -2.2726  2.3670
 4558SOL    HW225308   3.229   2.808  17.428 -1.4843  0.3026 -0.3537
 4559SOL     OW25309   1.951   3.041   5.027  0.1121 -0.3820 -0.5873
 4559SOL    HW125310   1.943   3.135   5.043  2.0764 -0.3158  0.0402
 4559SOL    HW225311   1.876   3.010   5.076 -0.1736  0.4937 -0.4621
 4560SOL     OW25312   4.384   1.445   4.578 -0.2691 -0.0081  0.1279
 4560SOL    HW125313   4.440   1.439   4.501 -0.6445 -2.2346  0.0075
 4560SOL    HW225314   4.299   1.421   4.539  0.9718  0.1029 -2.6271
 4561SOL     OW25315   2.153   3.658   9.434  0.4189  0.0800 -0.0529
 4561SOL    HW125316   2.182   3.633   9.345  0.9489 -1.6360  0.5894
 4561SOL    HW225317   2.208   3.732   9.457 -1.7759  1.1747  1.5312
 4562SOL     OW25318   0.740   4.640   2.653  0.7004 -0.8197  0.6969
 4562SOL    HW125319   0.739   4.597   2.567 -0.4986  2.1148 -0.7859
 4562SOL    HW225320   0.736   4.732   2.624 -1.3460 -0.4092  2.2787
 4563SOL     OW25321   3.339   3.271  12.567  0.3912 -0.1244  0.2035
 4563SOL    HW125322   3.342   3.361  12.536  0.4293 -0.6314 -1.2647
 4563SOL    HW225323   3.251   3.242  12.542  0.2850  0.6396 -0.3171
 4564SOL     OW25324   4.141   3.711  14.145 -0.2204 -0.1288 -0.3615
 4564SOL    HW125325   4.126   3.636  14.087 -0.3336 -1.0231  0.8343
 4564SOL    HW225326   4.063   3.764  14.128  0.5503  0.5024 -2.0161
 4565SOL     OW25327   2.706   3.803  15.323  0.4776  0.4887  0.0828
 4565SOL    HW125328   2.723   3.879  15.379 -0.6970 -0.2921  1.4972
 4565SOL    HW225329   2.637   3.839  15.268  1.0238 -1.1779 -1.7014
 4566SOL     OW25330   1.679   2.848  11.477  0.0409 -0.4071  0.6560
 4566SOL    HW125331   1.735   2.773  11.457  2.4529  1.1035  1.7266
 4566SOL    HW225332   1.734   2.890  11.544 -1.7266  2.6780  0.1793
 4567SOL     OW25333   2.284   0.813   2.085  0.0136  0.0335 -0.6768
 4567SOL    HW125334   2.203   0.806   2.135 -0.7175 -2.3038 -2.2023
 4567SOL    HW225335   2.307   0.720   2.079 -0.5185 -0.3935  3.6352
 4568SOL     OW25336   3.973   4.671   2.888 -0.3944  0.1891 -0.7560
 4568SOL    HW125337   4.006   0.018   2.859 -1.5272  0.5769 -0.9126
 4568SOL    HW225338   3.896   4.705   2.934  0.7744 -1.7836  2.6623
 4569SOL     OW25339   1.031   3.229   4.682 -0.5312  0.8962  0.2256
 4569SOL    HW125340   0.980   3.255   4.759  0.8252 -1.6155  1.9520
 4569SOL    HW225341   1.107   3.193   4.726  1.5939  2.5271 -2.1164
 4570SOL     OW25342   4.578   2.856   8.208 -0.0308  0.2400 -0.0901
 4570SOL    HW125343   4.489   2.887   8.226  0.0021  0.9435 -1.1506
 4570SOL    HW225344   4.623   2.940   8.210  0.9531 -0.3487  1.8205
 4571SOL     OW25345   0.564   4.218   1.621 -0.0764 -0.4319 -0.1631
 4571SOL    HW125346   0.519   4.302   1.625  2.5986  1.0640 -1.3394
 4571SOL    HW225347   0.508   4.164   1.677  0.6502 -1.8041 -0.7678
 4572SOL     OW25348   4.601   1.143   7.199 -0.5028  0.6344 -0.0957
 4572SOL    HW125349   4.696   1.142   7.187 -0.4884  0.8875 -0.0170
 4572SOL    HW225350   4.582   1.132   7.292 -1.8213 -1.6409 -0.6396
 4573SOL     OW25351   3.898   3.235   1.307  0.0284  0.3417 -0.4470
 4573SOL    HW125352   3.957   3.225   1.382 -0.3002 -0.5206 -0.2975
 4573SOL    HW225353   3.923   3.318   1.267 -0.3390  0.5056 -0.3369
 4574SOL     OW25354   4.423   3.273   5.572  0.0337  0.3911  0.0512
 4574SOL    HW125355   4.358   3.282   5.503  0.8695 -0.2986 -0.8223
 4574SOL    HW225356   4.505   3.309   5.539  1.1203 -0.8488  1.3877
 4575SOL     OW25357   0.697   2.975  11.014  0.1053  0.3878 -0.5897
 4575SOL    HW125358   0.603   2.958  11.019 -0.1002  0.9951 -2.3397
 4575SOL    HW225359   0.695   3.065  11.046 -0.3424 -0.1053  0.7704
 4576SOL     OW25360   3.463   1.274   3.112 -0.3511  0.0327 -0.1679
 4576SOL    HW125361   3.493   1.276   3.203 -1.2320 -0.5185  0.1368
 4576SOL    HW225362   3.415   1.355   3.096  1.8036  1.4503  0.7136
 4577SOL     OW25363   0.109   1.518   4.896  0.1350 -0.0522 -0.2446
 4577SOL    HW125364   0.077   1.607   4.908  0.7544  0.0673  0.4790
 4577SOL    HW225365   0.114   1.514   4.800 -0.0783  1.6438 -0.3228
 4578SOL     OW25366   2.688   4.229   8.038 -0.2672  0.5478  0.0350
 4578SOL    HW125367   2.745   4.303   8.058  0.0259  0.0343  1.1182
 4578SOL    HW225368   2.752   4.158   8.033  1.8812  2.3722  1.3206
 4579SOL     OW25369   1.944   2.807   2.073 -0.7716 -0.2906 -0.5738
 4579SOL    HW125370   1.869   2.757   2.106  0.5761 -0.2695  2.4459
 4579SOL    HW225371   1.901   2.889   2.048 -1.6806 -0.8737 -0.9283
 4580SOL     OW25372   1.766   1.459  12.802 -0.2669  0.1072 -0.0085
 4580SOL    HW125373   1.790   1.381  12.851 -3.2759 -1.4316 -0.9824
 4580SOL    HW225374   1.730   1.415  12.724  3.4833  0.9800 -2.2321
 4581SOL     OW25375   0.637   1.516  14.612  0.1335  0.6019  0.2930
 4581SOL    HW125376   0.583   1.441  14.587  0.6072 -0.2931  1.9524
 4581SOL    HW225377   0.619   1.518  14.706  0.2633  0.8473  0.3114
 4582SOL     OW25378   4.452   0.574   4.032 -0.0003 -0.0742 -0.7100
 4582SOL    HW125379   4.445   0.481   4.053 -0.9204  0.2641  0.4815
 4582SOL    HW225380   4.545   0.585   4.009 -0.0322  0.4496 -0.5760
 4583SOL     OW25381   1.347   1.787   7.795 -0.0820  0.3007 -0.2968
 4583SOL    HW125382   1.411   1.726   7.831  2.1773  2.9870  0.2331
 4583SOL    HW225383   1.365   1.865   7.848 -1.6373  0.6377 -0.2578
 4584SOL     OW25384   1.163   1.084   9.805 -0.0928 -0.1507 -0.2129
 4584SOL    HW125385   1.185   0.996   9.773 -1.7173  0.2467 -2.3794
 4584SOL    HW225386   1.244   1.135   9.809  0.0045 -0.3531  0.4925
 4585SOL     OW25387   4.146   1.851   2.486  0.2227 -0.2795  0.2590
 4585SOL    HW125388   4.090   1.779   2.515  0.7192 -1.7853 -2.5142
 4585SOL    HW225389   4.164   1.810   2.401 -0.4123 -1.6355  0.7796
 4586SOL     OW25390   0.134   4.469   8.702 -0.7176 -0.4911 -0.0873
 4586SOL    HW125391   0.071   4.451   8.632 -1.6802 -1.2497  0.9797
 4586SOL    HW225392   0.201   4.413   8.663  0.0523  0.2818  0.1073
 4587SOL     OW25393   3.121   4.484   1.335 -0.2424 -0.1571  0.3045
 4587SOL    HW125394   3.036   4.459   1.298  0.7715  0.7307 -2.6519
 4587SOL    HW225395   3.158   4.529   1.259  1.0812 -0.2539  0.8868
 4588SOL     OW25396   4.005   3.241   6.026 -0.8425  0.4935  0.0293
 4588SOL    HW125397   4.064   3.314   6.006 -0.3666 -0.0279 -0.4514
 4588SOL    HW225398   3.988   3.248   6.119 -1.6930 -0.6965 -0.0406
 4589SOL     OW25399   2.762   1.282   7.619  0.1281  0.2479 -0.5287
 4589SOL    HW125400   2.713   1.199   7.621 -2.2733  1.7189  2.0898
 4589SOL    HW225401   2.795   1.280   7.530 -0.0837  0.4061 -0.6114
 4590SOL     OW25402   2.999   0.184  12.061  0.3502 -0.0338 -0.0950
 4590SOL    HW125403   2.917   0.138  12.079  0.8805 -2.4789 -4.0701
 4590SOL    HW225404   3.000   0.171  11.967  0.2360 -0.4158 -0.0440
 4591SOL     OW25405   1.089   2.644   3.227  0.1364 -0.5062  0.3413
 4591SOL    HW125406   1.159   2.709   3.239 -2.2522  2.2400 -0.4838
 4591SOL    HW225407   1.105   2.627   3.134  0.8132  1.8997  0.0108
 4592SOL     OW25408   1.063   2.980   5.209  0.3302  0.2377 -0.1307
 4592SOL    HW125409   1.029   3.069   5.200 -0.5908 -0.2466 -1.3667
 4592SOL    HW225410   0.983   2.928   5.211  2.4132 -2.9619  1.3583
 4593SOL     OW25411   3.613   2.193   9.115  0.4263  0.5198  0.1023
 4593SOL    HW125412   3.645   2.217   9.028  2.8681 -0.7580  0.6651
 4593SOL    HW225413   3.520   2.200   9.091  0.6444  0.7696 -0.7013
 4594SOL     OW25414   0.320   2.943   9.227  0.0161 -0.7964  0.1500
 4594SOL    HW125415   0.348   2.854   9.248 -0.9081 -0.5881  2.2711
 4594SOL    HW225416   0.226   2.924   9.224 -0.5266  1.2112  4.6570
 4595SOL     OW25417   2.194   3.002   9.001 -0.4919  0.2849  0.2869
 4595SOL    HW125418   2.168   2.936   9.066 -0.3111  0.6304  0.7125
 4595SOL    HW225419   2.240   3.068   9.052 -0.6775  2.2665 -2.1399
 4596SOL     OW25420   2.890   1.473   2.354 -0.6053 -0.3848  0.2108
 4596SOL    HW125421   2.796   1.490   2.355 -0.5264 -0.0833  2.5956
 4596SOL    HW225422   2.908   1.384   2.384  1.7450  0.3723  1.0332
 4597SOL     OW25423   2.912   3.673   6.617  0.1022 -0.4056 -0.1424
 4597SOL    HW125424   2.949   3.650   6.532  1.0259 -1.2704  0.4833
 4597SOL    HW225425   2.879   3.587   6.644 -1.8772  0.7705  1.2339
 4598SOL     OW25426   2.122   3.507   0.123 -0.2250 -0.1719  0.1748
 4598SOL    HW125427   2.113   3.502   0.028 -2.3498  1.6777  0.2500
 4598SOL    HW225428   2.133   3.602   0.129 -1.0020  0.2132 -4.8014
 4599SOL     OW25429   1.581   3.882   8.232 -0.1334 -0.5450  0.3484
 4599SOL    HW125430   1.597   3.879   8.327  1.3508  1.3579  0.1646
 4599SOL    HW225431   1.667   3.864   8.195  0.4681  1.4993  0.7418
 4600SOL     OW25432   1.683   1.425   9.560 -0.0219 -0.2446 -0.3888
 4600SOL    HW125433   1.668   1.333   9.585 -0.5598 -0.1013 -0.1797
 4600SOL    HW225434   1.598   1.447   9.522 -0.5240 -0.6446  0.4874
 4601SOL     OW25435   0.232   1.150  11.280 -0.0979 -0.1091  0.5069
 4601SOL    HW125436   0.323   1.122  11.273 -0.4795 -1.2237 -0.1039
 4601SOL    HW225437   0.232   1.200  11.362 -1.7230 -0.7818  0.9309
 4602SOL     OW25438   4.270   4.445   6.667  0.0131  0.2059 -0.0873
 4602SOL    HW125439   4.313   4.513   6.615  0.4587 -1.4909 -1.9329
 4602SOL    HW225440   4.342   4.419   6.723 -0.3042 -1.8566 -0.6286
 4603SOL     OW25441   2.993   2.030   1.714 -0.4907  0.4636 -0.1375
 4603SOL    HW125442   3.085   2.041   1.735 -0.3072 -0.2269 -0.5701
 4603SOL    HW225443   2.945   2.031   1.797 -0.4134  0.0189 -0.0908
 4604SOL     OW25444   1.195   2.218   5.022 -0.0578 -0.0035  0.3208
 4604SOL    HW125445   1.175   2.131   4.990  1.1923  0.2172 -1.0871
 4604SOL    HW225446   1.171   2.207   5.114 -1.9654 -1.6649 -0.3766
 4605SOL     OW25447   0.835   0.657   8.596  0.2826  0.0887 -0.2778
 4605SOL    HW125448   0.892   0.714   8.649  1.0166  1.4588 -2.5203
 4605SOL    HW225449   0.809   0.721   8.530  1.7441  1.2720  0.2696
 4606SOL     OW25450   1.876   0.117   4.599 -0.4785  0.0227 -0.2287
 4606SOL    HW125451   1.891   0.023   4.609 -1.1593 -0.0846 -0.2335
 4606SOL    HW225452   1.782   0.117   4.618 -0.9527  1.2773 -2.6418
 4607SOL     OW25453   0.835   1.112   1.549 -0.1407  0.2773  0.2129
 4607SOL    HW125454   0.912   1.145   1.597  0.8590  0.7976 -1.7579
 4607SOL    HW225455   0.773   1.156   1.607  0.3522  0.4472  0.6206
 4608SOL     OW25456   3.819   3.515   5.101  0.5080  1.1146  0.1453
 4608SOL    HW125457   3.744   3.530   5.044 -1.4608  1.0858  2.6979
 4608SOL    HW225458   3.801   3.587   5.162 -1.9237  0.0059  0.7352
 4609SOL     OW25459   4.393   2.286  17.718  0.4874 -0.1298  0.4560
 4609SOL    HW125460   4.389   2.312   0.061  0.4488 -0.7987  0.6442
 4609SOL    HW225461   4.469   2.334  17.685  1.1288  0.0068  2.1114
 4610SOL     OW25462   3.477   3.205   6.232 -0.3994 -0.1346 -0.2492
 4610SOL    HW125463   3.508   3.237   6.317 -0.6751 -1.1688  0.2335
 4610SOL    HW225464   3.514   3.117   6.233  1.3857  0.6312  0.4437
 4611SOL     OW25465   0.865   4.170  10.375  0.3853  0.3469 -0.3728
 4611SOL    HW125466   0.787   4.119  10.393  0.0920  1.2268  0.8263
 4611SOL    HW225467   0.897   4.131  10.293 -4.2708 -1.2543 -1.4116
 4612SOL     OW25468   4.372   3.109   2.834  0.5553  0.4943  0.0692
 4612SOL    HW125469   4.339   3.030   2.791  1.6390 -0.2870  0.7021
 4612SOL    HW225470   4.351   3.178   2.771 -1.6661  0.8663  1.2190
 4613SOL     OW25471   3.676   1.199   9.053  0.7862  0.6234 -0.3222
 4613SOL    HW125472   3.626   1.239   9.125 -1.9705  0.8743 -2.3945
 4613SOL    HW225473   3.766   1.210   9.085  0.0139  2.5892  1.1589
 4614SOL     OW25474   3.205   4.520  16.649  0.0630  0.3224  0.3175
 4614SOL    HW125475   3.221   4.596  16.705 -0.5883  0.8356 -0.2017
 4614SOL    HW225476   3.281   4.464  16.665 -0.8129 -0.3826  2.0054
 4615SOL     OW25477   4.219   4.572  14.405 -0.1547 -0.3842 -0.7226
 4615SOL    HW125478   4.260   4.633  14.345  0.1275  0.1127 -0.0319
 4615SOL    HW225479   4.146   4.535  14.355 -2.4321 -0.5756  2.7219
 4616SOL     OW25480   1.027   0.420  14.551 -0.1769 -0.0426  0.1677
 4616SOL    HW125481   0.943   0.415  14.505  0.8013 -0.4715 -1.5334
 4616SOL    HW225482   1.091   0.467  14.498 -0.2694 -0.4878 -0.3473
 4617SOL     OW25483   4.137   3.203   6.715  0.3148  0.6333 -0.1285
 4617SOL    HW125484   4.079   3.245   6.779  0.4086 -0.5180  0.7227
 4617SOL    HW225485   4.192   3.278   6.694  1.5981 -0.6705 -1.3603
 4618SOL     OW25486   2.896   0.512   2.299 -0.0904 -0.3505 -0.2657
 4618SOL    HW125487   2.846   0.592   2.314  1.6004  0.7726 -0.6334
 4618SOL    HW225488   2.824   0.452   2.279  0.8352 -1.2533 -0.9044
 4619SOL     OW25489   3.147   4.474   8.195  0.5484 -0.7149 -0.5414
 4619SOL    HW125490   3.197   4.462   8.115  0.0852 -2.1152 -0.6192
 4619SOL    HW225491   3.120   4.566   8.186  0.9982 -0.5797 -0.4967
 4620SOL     OW25492   1.869   2.109   6.385 -0.4409  0.1345  0.2188
 4620SOL    HW125493   1.778   2.135   6.401 -0.5922  1.0622 -2.1719
 4620SOL    HW225494   1.920   2.159   6.449  0.5792  0.2884 -0.7251
 4621SOL     OW25495   3.066   0.531  16.337 -0.1124  0.2822 -0.3009
 4621SOL    HW125496   3.042   0.486  16.257  0.3843 -0.5430  0.0135
 4621SOL    HW225497   3.144   0.569  16.299 -1.4693  1.6057 -1.7311
 4622SOL     OW25498   0.471   3.652   3.863 -0.1134 -0.1694  0.6891
 4622SOL    HW125499   0.446   3.686   3.949  0.4945 -1.4504  1.3784
 4622SOL    HW225500   0.501   3.731   3.820 -0.9613 -0.1954  0.0460
 4623SOL     OW25501   4.281   4.727   5.810 -0.1106  0.0710  0.5635
 4623SOL    HW125502   4.326   4.727   5.726  3.3804  2.5717  2.4592
 4623SOL    HW225503   4.327   4.659   5.860 -1.4117 -0.7731  0.6034
 4624SOL     OW25504   1.487   2.403  13.092  0.4211 -0.0441 -0.2015
 4624SOL    HW125505   1.561   2.424  13.148 -0.0351 -0.4284  0.5388
 4624SOL    HW225506   1.410   2.439  13.136  2.1460  1.6926  1.3958
 4625SOL     OW25507   3.542   4.667  11.308  0.2712  0.5679 -0.5629
 4625SOL    HW125508   3.491   4.706  11.237 -2.3232  1.3822  1.7656
 4625SOL    HW225509   3.627   4.652  11.267  0.9307  1.4346  0.4837
 4626SOL     OW25510   4.591   3.480   5.855 -0.1670  0.3240 -0.0170
 4626SOL    HW125511   4.508   3.474   5.809  0.3236  0.6133 -0.9404
 4626SOL    HW225512   4.630   3.555   5.811  2.2991 -0.7419  0.3401
 4627SOL     OW25513   1.052   1.222  15.737  1.0652  0.7591  0.0699
 4627SOL    HW125514   1.011   1.136  15.723 -0.8380  1.6706 -0.0356
 4627SOL    HW225515   1.013   1.222  15.825  0.6341 -0.3465 -0.1135
 4628SOL     OW25516   2.303   3.747  10.866  0.3352  0.3817  0.4613
 4628SOL    HW125517   2.321   3.811  10.797  1.1233 -0.8009 -0.4091
 4628SOL    HW225518   2.324   3.806  10.939 -0.7451 -0.0671  1.1353
 4629SOL     OW25519   4.417   2.680   9.621 -0.4314 -0.3883  0.1512
 4629SOL    HW125520   4.376   2.597   9.645 -1.3074  0.6512  2.2371
 4629SOL    HW225521   4.486   2.686   9.687  0.2818 -0.9879 -0.5398
 4630SOL     OW25522   2.493   0.298   6.101  0.2094  0.2555 -0.1137
 4630SOL    HW125523   2.525   0.210   6.079 -1.0956  0.0474 -1.2220
 4630SOL    HW225524   2.564   0.360   6.087  0.5834 -0.3831 -1.0771
 4631SOL     OW25525   1.838   1.860   9.765 -0.0161  0.1375 -0.1200
 4631SOL    HW125526   1.790   1.909   9.832 -1.8772 -0.6906 -0.8309
 4631SOL    HW225527   1.926   1.838   9.794  0.1858  0.6497 -0.3554
 4632SOL     OW25528   4.482   2.265   5.942  0.0016 -0.0779  0.0496
 4632SOL    HW125529   4.475   2.197   5.875  1.1722 -0.0797 -0.0697
 4632SOL    HW225530   4.566   2.302   5.913 -0.2041 -0.1535 -0.6453
 4633SOL     OW25531   3.329   3.352   7.698  0.0956  0.3011 -0.4287
 4633SOL    HW125532   3.253   3.294   7.698 -0.0917  0.5487 -0.9746
 4633SOL    HW225533   3.353   3.342   7.606  1.4595 -4.4523  0.4438
 4634SOL     OW25534   1.417   4.396   5.183 -0.2274  0.2335  0.1077
 4634SOL    HW125535   1.383   4.439   5.104  0.3328 -1.6388 -1.1620
 4634SOL    HW225536   1.401   4.305   5.159 -2.4725  0.0730  2.2417
 4635SOL     OW25537   0.669   3.482   2.686  0.4262 -0.5121  0.4363
 4635SOL    HW125538   0.696   3.411   2.745 -1.8479  0.0443  2.1691
 4635SOL    HW225539   0.755   3.515   2.662  0.8020 -1.0185  1.0829
 4636SOL     OW25540   1.694   1.395   0.382  0.5664  0.3378  0.2959
 4636SOL    HW125541   1.703   1.345   0.301  0.2626 -0.4119  0.7254
 4636SOL    HW225542   1.626   1.459   0.361  0.7453  0.5026  0.2262
 4637SOL     OW25543   3.253   2.897  11.117 -0.7079 -0.0765  0.6769
 4637SOL    HW125544   3.283   2.806  11.116 -0.7207 -0.0910  2.7446
 4637SOL    HW225545   3.315   2.927  11.183  0.1405  0.0760 -0.1894
 4638SOL     OW25546   3.766   1.999  12.308  0.2751  0.4401  0.7020
 4638SOL    HW125547   3.693   2.059  12.291  0.3302  0.2706 -0.1377
 4638SOL    HW225548   3.726   1.953  12.382  0.6841 -0.7666  0.1667
 4639SOL     OW25549   1.407   2.572   6.404 -0.0246  0.1543  0.5503
 4639SOL    HW125550   1.479   2.510   6.397  0.7608  0.9141  1.9194
 4639SOL    HW225551   1.331   2.513   6.406 -0.5236  0.7740 -0.1548
 4640SOL     OW25552   4.045   2.459   2.959 -0.2936  0.7961 -0.6896
 4640SOL    HW125553   3.964   2.460   3.011  0.6519  0.5293  0.7972
 4640SOL    HW225554   4.021   2.399   2.888  0.8147 -1.0046  0.4288
 4641SOL     OW25555   1.665   0.844   0.072 -0.4918 -0.0040 -0.0986
 4641SOL    HW125556   1.661   0.839  17.726 -0.7616  1.0551 -0.1413
 4641SOL    HW225557   1.605   0.774   0.094 -0.6298 -0.0042 -0.4701
 4642SOL     OW25558   4.450   1.505   7.535 -0.3142 -0.1633  0.0312
 4642SOL    HW125559   4.515   1.568   7.566 -0.0497  0.9928 -2.8523
 4642SOL    HW225560   4.497   1.457   7.466  0.1475  0.2246  0.0733
 4643SOL     OW25561   1.743   0.583   4.859  0.4140 -0.1501 -0.3019
 4643SOL    HW125562   1.692   0.502   4.861  0.4435 -0.1807 -0.9354
 4643SOL    HW225563   1.664   0.637   4.849  1.4971  1.3458 -0.6894
 4644SOL     OW25564   1.855   1.604   2.639 -0.0089 -0.9660  0.7751
 4644SOL    HW125565   1.876   1.694   2.660 -0.7953 -1.3552  3.1647
 4644SOL    HW225566   1.865   1.549   2.716  2.5687 -1.4417  0.1065
 4645SOL     OW25567   3.273   2.055   1.775  0.3022  0.0099  0.7925
 4645SOL    HW125568   3.359   2.065   1.734 -0.7243 -1.9039 -1.8597
 4645SOL    HW225569   3.293   1.978   1.828 -1.3359 -1.2518 -0.4134
 4646SOL     OW25570   1.333   2.780   6.586 -0.1313 -0.0639  0.2332
 4646SOL    HW125571   1.407   2.740   6.540 -0.8339 -0.9777 -0.1098
 4646SOL    HW225572   1.273   2.778   6.511  1.0923  1.9748 -0.8137
 4647SOL     OW25573   3.545   2.207   6.218  0.3111 -0.0654 -0.2189
 4647SOL    HW125574   3.573   2.298   6.224  0.7422 -0.2834  1.1751
 4647SOL    HW225575   3.495   2.187   6.297  0.1893 -2.6174 -0.9338
 4648SOL     OW25576   0.258   1.397  12.825  0.7114  0.2579  0.1105
 4648SOL    HW125577   0.218   1.341  12.891 -0.0119  1.4114  0.6572
 4648SOL    HW225578   0.308   1.462  12.874 -0.8679  1.6518 -0.0833
 4649SOL     OW25579   4.474   2.454  16.413 -0.1445  0.1430  0.0408
 4649SOL    HW125580   4.411   2.521  16.440  2.4513  2.3877  0.5331
 4649SOL    HW225581   4.554   2.507  16.406 -0.2408  0.2735 -0.0775
 4650SOL     OW25582   2.186   1.579  10.635  0.2838 -0.1968  0.5219
 4650SOL    HW125583   2.256   1.544  10.690 -2.3215  1.5911  4.9713
 4650SOL    HW225584   2.234   1.646  10.586 -0.6566 -0.6375 -1.0207
 4651SOL     OW25585   3.853   1.053  12.929 -0.5198  0.5300  0.2076
 4651SOL    HW125586   3.850   1.143  12.963  2.8170  1.8834 -3.0519
 4651SOL    HW225587   3.897   0.997  12.994 -0.6557 -1.0727 -1.0941
 4652SOL     OW25588   3.185   4.415   1.798 -0.5870 -0.0762 -0.1694
 4652SOL    HW125589   3.225   4.486   1.746 -0.2655  1.1253  1.7173
 4652SOL    HW225590   3.175   4.346   1.733  1.8018 -0.0493 -0.5608
 4653SOL     OW25591   2.139   2.015   9.935 -0.1797  0.0679  0.0766
 4653SOL    HW125592   2.228   2.019   9.972  0.8008  0.9931 -2.3910
 4653SOL    HW225593   2.094   1.970  10.006 -1.6027 -1.1925 -1.6331
 4654SOL     OW25594   3.871   4.025   2.658 -0.3073 -0.2531  0.1145
 4654SOL    HW125595   3.903   4.048   2.571  1.8099  1.0469  1.2333
 4654SOL    HW225596   3.816   4.099   2.683  0.5142  0.9058 -1.5465
 4655SOL     OW25597   0.548   2.009   2.967  0.6402 -0.1520 -0.1701
 4655SOL    HW125598   0.575   1.967   2.885 -0.4555 -1.1824 -0.0067
 4655SOL    HW225599   0.625   2.005   3.023  0.7300  1.9950 -0.1319
 4656SOL     OW25600   3.241   1.857   6.092  0.6537 -0.4575  0.3270
 4656SOL    HW125601   3.213   1.928   6.150 -1.4462 -1.1588  0.1466
 4656SOL    HW225602   3.334   1.870   6.071  0.4065 -1.2126 -1.2287
 4657SOL     OW25603   1.312   1.307   3.850 -0.5041 -0.1264 -0.9336
 4657SOL    HW125604   1.317   1.215   3.824 -1.1280 -0.1523 -0.9517
 4657SOL    HW225605   1.408   1.315   3.854 -0.4580 -1.0012 -0.4647
 4658SOL     OW25606   3.486   3.828   1.396  0.6579 -0.1221 -0.8722
 4658SOL    HW125607   3.470   3.740   1.362  0.4420  0.5152 -2.4363
 4658SOL    HW225608   3.578   3.835   1.373  1.0179 -0.2065  0.5147
 4659SOL     OW25609   1.485   2.686  12.983 -0.3144 -0.0252 -0.2864
 4659SOL    HW125610   1.505   2.622  13.051  0.7888  1.5696  0.8885
 4659SOL    HW225611   1.395   2.661  12.960 -0.3414  0.0548 -0.2671
 4660SOL     OW25612   4.295   3.576   7.828 -0.0171 -0.8631  0.8272
 4660SOL    HW125613   4.298   3.483   7.853 -3.8466 -0.9606  0.8830
 4660SOL    HW225614   4.363   3.581   7.761 -0.8136  0.5041  0.1283
 4661SOL     OW25615   3.756   1.746   2.080  0.0888 -0.3833  0.5287
 4661SOL    HW125616   3.757   1.719   1.988 -0.6843 -0.0201  0.4119
 4661SOL    HW225617   3.673   1.795   2.077  0.1580 -0.2793  0.2345
 4662SOL     OW25618   1.766   2.422  10.056  0.2713 -0.0683  0.6882
 4662SOL    HW125619   1.796   2.493  10.000  1.3677  1.0217  2.6623
 4662SOL    HW225620   1.781   2.455  10.145  0.6807 -0.6832  0.8468
 4663SOL     OW25621   0.876   2.925  10.579 -0.0200  0.7963 -0.1773
 4663SOL    HW125622   0.909   2.885  10.498 -1.4583 -0.6703 -0.0194
 4663SOL    HW225623   0.942   2.991  10.601  0.5096 -0.1345  1.0230
 4664SOL     OW25624   1.721   1.550   4.773 -0.1212  0.3900 -0.3294
 4664SOL    HW125625   1.708   1.470   4.721 -1.1514 -1.6322  3.1017
 4664SOL    HW225626   1.816   1.556   4.783 -0.1405  2.9163 -1.6914
 4665SOL     OW25627   0.772   2.389   2.342  0.2421 -0.1563  0.0702
 4665SOL    HW125628   0.682   2.400   2.310  0.5202 -1.3940 -1.1263
 4665SOL    HW225629   0.790   2.457   2.407 -1.9849 -0.6183  1.1613
 4666SOL     OW25630   0.397   2.350   8.356 -0.2272 -0.3266  0.8702
 4666SOL    HW125631   0.433   2.278   8.304 -0.8970 -0.8197  1.0889
 4666SOL    HW225632   0.346   2.385   8.283  0.8138  1.1034  0.8237
 4667SOL     OW25633   4.116   4.615  12.305  0.2725 -0.4014 -0.2862
 4667SOL    HW125634   4.171   4.652  12.236  1.3153 -1.3714  0.0212
 4667SOL    HW225635   4.145   4.669  12.379  1.3066 -0.0192 -0.9694
 4668SOL     OW25636   3.656   3.065  16.609  0.7760  0.6475  0.2789
 4668SOL    HW125637   3.634   3.135  16.670 -0.8204  0.9156 -0.6050
 4668SOL    HW225638   3.752   3.065  16.610  0.7990  0.1491 -2.0941
 4669SOL     OW25639   3.280   3.546   7.024 -0.1016  0.6096  0.0182
 4669SOL    HW125640   3.294   3.627   6.975  1.2038  2.3404  3.2444
 4669SOL    HW225641   3.189   3.564   7.047 -0.4397 -0.8026 -0.2273
 4670SOL     OW25642   4.378   0.509   1.019 -0.2491 -0.4608 -0.2865
 4670SOL    HW125643   4.427   0.573   0.967 -0.3184 -0.2547 -0.0994
 4670SOL    HW225644   4.457   0.461   1.044 -0.0921  0.5444  1.1404
 4671SOL     OW25645   1.184   0.858   7.389  0.2358  0.1965  0.1639
 4671SOL    HW125646   1.226   0.773   7.401  1.0284  0.5828  0.1282
 4671SOL    HW225647   1.132   0.863   7.470 -2.1512 -0.8802 -1.2863
 4672SOL     OW25648   1.889   0.160   6.800 -0.1734  0.1254 -0.2603
 4672SOL    HW125649   1.922   0.154   6.890 -0.2754  1.8586 -0.1175
 4672SOL    HW225650   1.817   0.222   6.808  0.4317  0.6850  0.9202
 4673SOL     OW25651   2.263   0.120   7.081 -0.3656 -0.0077 -0.0353
 4673SOL    HW125652   2.220   0.081   7.158 -0.1914  3.0250  1.5987
 4673SOL    HW225653   2.323   0.181   7.124 -0.5945 -0.2505  0.6384
 4674SOL     OW25654   4.045   4.395   3.195  0.4906 -0.0586  0.1663
 4674SOL    HW125655   3.961   4.381   3.240  1.1050 -0.1232  1.2954
 4674SOL    HW225656   4.039   4.326   3.129  2.2834 -1.5859  1.5995
 4675SOL     OW25657   0.698   3.173   4.817  0.1408  0.2420  0.6012
 4675SOL    HW125658   0.656   3.208   4.895  1.3554  0.3778  1.1823
 4675SOL    HW225659   0.758   3.111   4.856  1.0737 -0.4322 -1.9050
 4676SOL     OW25660   2.854   3.481   2.089 -0.1315  0.0547  0.1969
 4676SOL    HW125661   2.918   3.410   2.102 -0.6066 -0.3412  0.3902
 4676SOL    HW225662   2.895   3.550   2.140 -0.4314  0.3947 -0.0249
 4677SOL     OW25663   3.308   0.195   0.237  0.0614 -0.3584  0.1574
 4677SOL    HW125664   3.376   0.256   0.211 -2.2762  1.0225 -2.7317
 4677SOL    HW225665   3.350   0.112   0.213  0.4031 -0.3591  0.7724
 4678SOL     OW25666   1.810   4.523   0.823 -0.0181 -0.3738 -0.1461
 4678SOL    HW125667   1.723   4.513   0.782  0.6775  1.4061 -2.0689
 4678SOL    HW225668   1.802   4.598   0.883  1.0725  0.0060 -0.4792
 4679SOL     OW25669   3.429   2.171   2.945  0.0293 -0.3644 -0.1452
 4679SOL    HW125670   3.346   2.210   2.920  0.8083 -0.1887 -2.4754
 4679SOL    HW225671   3.401   2.084   2.974  0.3562  0.0360  1.3373
 4680SOL     OW25672   1.827   3.051   9.701 -0.2988 -0.2232 -0.2336
 4680SOL    HW125673   1.731   3.053   9.695 -0.2686 -0.7164 -0.8211
 4680SOL    HW225674   1.847   3.140   9.672  2.1086 -0.2532  1.3256
 4681SOL     OW25675   0.151   3.314  14.843 -0.1508  0.1413 -0.0094
 4681SOL    HW125676   0.121   3.402  14.865  0.6212  0.1962  0.8352
 4681SOL    HW225677   0.094   3.296  14.769 -3.1026 -0.7922  2.4800
 4682SOL     OW25678   0.298   0.009   1.672 -0.4649  0.2245 -0.3550
 4682SOL    HW125679   0.314   0.093   1.717  0.0360  0.2304 -0.5457
 4682SOL    HW225680   0.211   0.029   1.636 -0.1638 -0.2593 -1.3429
 4683SOL     OW25681   0.063   2.016  15.697 -0.6202  0.3413  0.1085
 4683SOL    HW125682   0.052   2.008  15.792  0.6786  2.2878  0.4432
 4683SOL    HW225683   4.717   1.982  15.667 -0.5437 -0.0907  0.3946
 4684SOL     OW25684   4.009   3.164  17.608  0.3273 -0.3571  0.2295
 4684SOL    HW125685   3.933   3.165  17.551  0.3248 -0.6792  0.2251
 4684SOL    HW225686   4.026   3.256  17.625  0.7900 -0.1345 -1.4552
 4685SOL     OW25687   0.755   2.361   5.659  0.2749 -0.2134  0.0199
 4685SOL    HW125688   0.673   2.349   5.707  0.3800 -1.7045 -0.1594
 4685SOL    HW225689   0.767   2.268   5.638  2.2231 -0.1507  0.9329
 4686SOL     OW25690   3.070   4.643  16.463 -0.3898 -0.4475  0.2587
 4686SOL    HW125691   2.981   4.645  16.498  0.2009 -1.1702  1.7944
 4686SOL    HW225692   3.107   4.574  16.518  0.4594  0.5845  0.9867
 4687SOL     OW25693   4.121   0.855   3.513 -0.0926 -0.6013 -0.5832
 4687SOL    HW125694   4.142   0.853   3.419 -0.4874 -1.0281 -0.6609
 4687SOL    HW225695   4.205   0.854   3.558  0.1223  0.5092 -0.9364
 4688SOL     OW25696   2.035   4.632   6.547 -0.3278  0.7587  0.2962
 4688SOL    HW125697   2.110   4.573   6.539 -0.2480  0.9365 -0.2558
 4688SOL    HW225698   1.973   4.564   6.577  1.3535 -0.3823  1.1628
 4689SOL     OW25699   2.136   1.918  16.059 -0.0144 -0.8339  0.1719
 4689SOL    HW125700   2.075   1.885  16.125  0.4288 -1.8904  0.0587
 4689SOL    HW225701   2.157   1.837  16.013 -1.3521  0.1394 -2.1608
 4690SOL     OW25702   1.788   1.752  16.483  0.4756  0.4844 -0.0433
 4690SOL    HW125703   1.725   1.690  16.447  1.7295 -1.8897  1.8356
 4690SOL    HW225704   1.739   1.798  16.552  0.9585  1.7512 -0.5374
 4691SOL     OW25705   0.047   3.410   3.560 -0.4580 -0.2412 -0.2179
 4691SOL    HW125706   0.046   3.319   3.589 -0.3073 -0.0746  0.3023
 4691SOL    HW225707   0.113   3.447   3.618  0.2636  0.7995 -1.6962
 4692SOL     OW25708   3.672   2.158   5.466  0.1228 -0.2665 -0.1384
 4692SOL    HW125709   3.633   2.095   5.527 -0.5829  0.1510 -0.1535
 4692SOL    HW225710   3.711   2.092   5.409  1.0948  0.8849 -0.8035
 4693SOL     OW25711   2.467   4.032  13.429 -0.0335 -0.3415 -0.1073
 4693SOL    HW125712   2.399   3.964  13.422  2.0881 -2.7448  2.3181
 4693SOL    HW225713   2.551   3.988  13.442  1.5309  2.4335 -0.9690
 4694SOL     OW25714   3.378   0.022   2.505  0.2280 -0.2834  0.4059
 4694SOL    HW125715   3.295   4.721   2.478  0.2203 -0.4420  0.6592
 4694SOL    HW225716   3.445   4.703   2.467 -0.7342  0.3634 -2.2086
 4695SOL     OW25717   1.492   1.412   2.583 -0.5251  0.4928 -0.2789
 4695SOL    HW125718   1.490   1.463   2.502  0.2048 -0.6940 -1.0415
 4695SOL    HW225719   1.468   1.477   2.649 -3.9084  1.3886 -2.3748
 4696SOL     OW25720   1.877   3.045   1.821 -0.0285 -0.2768  0.2562
 4696SOL    HW125721   1.802   2.990   1.842 -0.9539  0.5140 -0.9167
 4696SOL    HW225722   1.838   3.122   1.780  0.0716  1.1686  2.8739
 4697SOL     OW25723   1.642   2.068   1.535 -0.8209 -0.4696  0.3469
 4697SOL    HW125724   1.720   2.101   1.581 -1.5857  1.5046  0.2075
 4697SOL    HW225725   1.657   1.974   1.546  0.5083 -0.3304 -0.2117
 4698SOL     OW25726   0.313   0.947   4.525  0.4175 -0.7811 -0.2040
 4698SOL    HW125727   0.366   1.018   4.561 -0.5524  0.8584 -2.0044
 4698SOL    HW225728   0.368   0.925   4.450  1.4661  1.7797 -0.2049
 4699SOL     OW25729   0.493   2.877  16.242 -0.4697  0.0381 -0.0059
 4699SOL    HW125730   0.424   2.942  16.239 -0.4476  0.0793  0.3698
 4699SOL    HW225731   0.508   2.843  16.154  3.3624  3.9473 -0.8595
 4700SOL     OW25732   3.289   3.518   1.657  0.0625 -0.5048 -0.6940
 4700SOL    HW125733   3.199   3.494   1.679 -0.0728  0.7029  0.0751
 4700SOL    HW225734   3.297   3.503   1.563  2.1346  3.1078 -1.1181
 4701SOL     OW25735   4.249   1.834  11.135  0.0344  0.1704  0.0231
 4701SOL    HW125736   4.248   1.759  11.195  2.3595  2.0260  2.3879
 4701SOL    HW225737   4.158   1.828  11.109 -0.3600  1.2264  1.1729
 4702SOL     OW25738   3.612   3.669   6.171 -0.1943  0.2443 -0.2484
 4702SOL    HW125739   3.549   3.738   6.152 -1.1783  0.0608  2.3811
 4702SOL    HW225740   3.571   3.589   6.138 -1.0226  0.3192  0.6058
 4703SOL     OW25741   4.327   1.908   4.144  0.0044 -0.0618  0.2633
 4703SOL    HW125742   4.255   1.845   4.147 -2.2495  2.4093 -1.2639
 4703SOL    HW225743   4.321   1.950   4.229 -1.5771  2.0054 -0.8619
 4704SOL     OW25744   0.806   0.008   1.434 -0.1128  0.0317  0.5121
 4704SOL    HW125745   0.722   4.702   1.445 -0.7139  1.3106  0.9906
 4704SOL    HW225746   0.784   0.084   1.379 -1.9873  0.5821  2.0052
 4705SOL     OW25747   1.069   2.705   5.465  0.0549  0.3587  0.5588
 4705SOL    HW125748   1.159   2.679   5.447 -0.7662 -1.2749 -1.2143
 4705SOL    HW225749   1.036   2.636   5.523 -2.1823 -0.5639 -1.7926
 4706SOL     OW25750   2.859   1.881   5.721 -0.2221  0.6652  0.4146
 4706SOL    HW125751   2.926   1.855   5.784 -0.6733 -0.3242  0.4824
 4706SOL    HW225752   2.782   1.859   5.774  0.1963 -0.9059  0.3707
 4707SOL     OW25753   0.009   2.330   5.848 -0.1800  0.0104  0.0903
 4707SOL    HW125754   0.001   2.398   5.780  0.0333  0.3809  0.4395
 4707SOL    HW225755   4.726   2.255   5.792 -1.8246  1.3279 -1.0865
 4708SOL     OW25756   4.281   1.606   3.162 -0.3609 -0.0653  0.3112
 4708SOL    HW125757   4.337   1.535   3.196  1.0014  1.0402  0.3835
 4708SOL    HW225758   4.293   1.678   3.224  0.4639  0.2412 -0.2075
 4709SOL     OW25759   0.629   3.718   7.943 -0.5862  0.1834  0.2231
 4709SOL    HW125760   0.624   3.813   7.951  0.9941  0.3053 -0.2646
 4709SOL    HW225761   0.687   3.705   7.868  0.5579 -0.5410  1.2245
 4710SOL     OW25762   4.506   0.935   6.755  0.1789 -0.5720  0.0673
 4710SOL    HW125763   4.486   0.876   6.828 -1.0888  1.0836  1.0489
 4710SOL    HW225764   4.515   1.019   6.799  1.3401 -0.8828  0.4291
 4711SOL     OW25765   1.755   1.667  13.641 -0.4887 -0.3861 -0.2021
 4711SOL    HW125766   1.695   1.741  13.645 -1.2961 -1.0125 -0.6513
 4711SOL    HW225767   1.708   1.599  13.592 -0.2843  0.7004 -1.8952
 4712SOL     OW25768   1.379   0.720   9.555  0.4409  0.0673 -0.2353
 4712SOL    HW125769   1.322   0.658   9.509 -0.3319  0.5267  0.0991
 4712SOL    HW225770   1.448   0.669   9.597 -0.5453  1.1787  2.7646
 4713SOL     OW25771   4.444   0.130  14.104  0.1883  0.0758  0.0954
 4713SOL    HW125772   4.516   0.174  14.148  0.2435 -1.0100  1.0573
 4713SOL    HW225773   4.408   0.195  14.043  0.3079 -2.0995 -2.2884
 4714SOL     OW25774   3.965   2.731  15.592 -1.0562 -0.2317  0.1855
 4714SOL    HW125775   4.014   2.684  15.660 -0.0809  2.3226  1.2720
 4714SOL    HW225776   3.892   2.774  15.637  0.0247 -0.6604  2.3259
 4715SOL     OW25777   1.633   0.988   6.187  0.2074 -0.4133  0.3030
 4715SOL    HW125778   1.666   1.053   6.250  1.0921  0.0445 -0.6226
 4715SOL    HW225779   1.715   0.961   6.145  0.5742  0.2078  0.6187
 4716SOL     OW25780   0.056   2.076  13.938  0.2455 -0.3191  0.8212
 4716SOL    HW125781   0.144   2.110  13.952  0.3829  0.1758 -1.2424
 4716SOL    HW225782   0.066   2.025  13.857  0.0754  1.2009 -0.1576
 4717SOL     OW25783   0.596   4.019   8.466 -0.3794 -0.2149 -0.2838
 4717SOL    HW125784   0.599   4.094   8.407  1.4556 -1.1335 -1.3525
 4717SOL    HW225785   0.505   4.024   8.497 -0.2593 -1.3066  0.2445
 4718SOL     OW25786   0.562   3.522  15.887  0.2163  0.0441  0.4677
 4718SOL    HW125787   0.628   3.571  15.837  1.0728 -1.3805  0.2196
 4718SOL    HW225788   0.480   3.545  15.843  0.2553  2.6741  1.7511
 4719SOL     OW25789   1.974   1.796   4.773 -0.2612  0.2332  0.1229
 4719SOL    HW125790   1.918   1.739   4.720  0.7939 -0.5035 -0.2103
 4719SOL    HW225791   2.062   1.757   4.773  0.0326  0.8898 -2.5489
 4720SOL     OW25792   0.016   1.289   0.201  0.2250 -0.1249  0.4502
 4720SOL    HW125793   0.028   1.293   0.106 -0.5313  2.2255  0.4537
 4720SOL    HW225794   0.070   1.363   0.229  1.3788 -0.1881 -1.6518
 4721SOL     OW25795   3.298   2.788   2.473  0.4413  0.0070 -0.3734
 4721SOL    HW125796   3.256   2.702   2.464 -0.4831  0.2655  1.5414
 4721SOL    HW225797   3.389   2.764   2.492  0.7182  0.5055 -1.0344
 4722SOL     OW25798   1.731   1.569   9.798  0.5811  0.0127  0.0546
 4722SOL    HW125799   1.711   1.656   9.764  0.9526  0.4100  0.8353
 4722SOL    HW225800   1.710   1.517   9.721  4.0828 -1.2586 -0.0714
 4723SOL     OW25801   2.172   3.172  17.039 -0.0281 -0.5339 -0.1322
 4723SOL    HW125802   2.123   3.109  16.987 -1.1427 -0.5986  0.9865
 4723SOL    HW225803   2.144   3.250  16.992 -0.4256 -0.0815  0.8532
 4724SOL     OW25804   2.551   2.443  16.882 -0.4447 -0.1593 -0.0464
 4724SOL    HW125805   2.630   2.473  16.927  0.2109 -1.1904 -0.5318
 4724SOL    HW225806   2.535   2.514  16.820 -0.1659  0.0203  0.0879
 4725SOL     OW25807   1.856   1.804   5.244 -0.2195  0.1876  0.1460
 4725SOL    HW125808   1.872   1.837   5.156  0.9176  0.4126  0.4455
 4725SOL    HW225809   1.760   1.802   5.235 -0.0709  3.6031 -1.8026
 4726SOL     OW25810   0.023   4.149   3.310 -0.6034  0.0992  0.4809
 4726SOL    HW125811   0.059   4.142   3.221  2.1209  0.3296  1.5669
 4726SOL    HW225812   0.019   4.244   3.319 -1.4070 -0.0511  1.7037
 4727SOL     OW25813   1.478   3.189   1.022  0.4965 -0.0048 -0.1352
 4727SOL    HW125814   1.534   3.168   1.096  0.4456 -0.1792 -0.1463
 4727SOL    HW225815   1.479   3.283   1.038  0.0283  0.0570 -0.4637
 4728SOL     OW25816   2.915   1.180   8.853  0.1793 -0.2717  0.3076
 4728SOL    HW125817   2.856   1.158   8.781 -1.1138  1.8299  0.7039
 4728SOL    HW225818   2.871   1.250   8.901  1.4417 -0.1736  1.3235
 4729SOL     OW25819   3.034   3.798  12.793  0.7857 -0.2265 -0.2148
 4729SOL    HW125820   2.999   3.731  12.852  2.0404  0.6400  1.4856
 4729SOL    HW225821   3.073   3.729  12.739 -0.9961 -2.0173  0.7764
 4730SOL     OW25822   2.173   0.646  11.967 -0.6276  0.3006 -0.1714
 4730SOL    HW125823   2.153   0.701  11.892  2.1229  0.2071 -0.9799
 4730SOL    HW225824   2.170   0.701  12.045  1.8468  0.0030  0.1307
 4731SOL     OW25825   2.600   4.715   7.598 -0.0575 -0.3777  0.6617
 4731SOL    HW125826   2.694   4.730   7.589 -0.2422 -0.0364 -0.5631
 4731SOL    HW225827   2.582   4.721   7.692  0.9139  2.3308  0.6678
 4732SOL     OW25828   1.161   0.272  14.733  0.1547  0.2415  0.2812
 4732SOL    HW125829   1.126   0.301  14.817  2.0327 -2.1920  1.8988
 4732SOL    HW225830   1.114   0.330  14.672  2.6096 -0.6179 -2.4195
 4733SOL     OW25831   4.479   1.408  12.852 -0.5832  0.2133  0.4544
 4733SOL    HW125832   4.451   1.425  12.942 -1.4135 -1.1258  0.4530
 4733SOL    HW225833   4.408   1.348  12.831 -0.6876  1.3417 -2.4323
 4734SOL     OW25834   2.207   1.439   2.800  0.3761  0.0628 -0.0733
 4734SOL    HW125835   2.120   1.407   2.823 -0.3015 -0.3897 -3.1947
 4734SOL    HW225836   2.210   1.439   2.704 -0.5029 -1.5758 -0.0907
 4735SOL     OW25837   1.287   3.882   8.893 -0.0779 -0.4484 -0.4159
 4735SOL    HW125838   1.374   3.849   8.872  0.2028 -0.4527  0.7921
 4735SOL    HW225839   1.261   3.815   8.957 -0.5227 -1.2664 -1.4410
 4736SOL     OW25840   1.269   3.157   3.057  0.1209 -0.4128  0.0156
 4736SOL    HW125841   1.228   3.243   3.058 -1.0524 -0.9548 -1.2757
 4736SOL    HW225842   1.335   3.166   3.126  0.7291  2.6747 -0.9580
 4737SOL     OW25843   2.054   3.649  15.768 -0.4945  0.4207 -0.5909
 4737SOL    HW125844   2.077   3.740  15.747 -0.1773  0.3827 -0.4054
 4737SOL    HW225845   2.059   3.611  15.680  1.2152  0.3329 -0.4571
 4738SOL     OW25846   3.236   4.588   5.168 -0.1103  0.1723  0.5870
 4738SOL    HW125847   3.183   4.647   5.115 -0.2427  0.8005  1.4175
 4738SOL    HW225848   3.226   4.499   5.133  1.5771  0.0761  0.3356
 4739SOL     OW25849   2.226   4.468  10.691 -0.1431 -0.4196 -0.3210
 4739SOL    HW125850   2.277   4.455  10.611  1.8501  0.7935  0.7450
 4739SOL    HW225851   2.290   4.475  10.761 -1.0438  0.9864  0.3558
 4740SOL     OW25852   2.603   2.545   4.053  0.1097  0.0948 -0.1662
 4740SOL    HW125853   2.685   2.577   4.016  0.8925  0.0560  1.5461
 4740SOL    HW225854   2.569   2.496   3.978  2.1047  0.1578 -1.1160
 4741SOL     OW25855   3.165   3.741  17.203 -0.3043  0.2987 -0.0779
 4741SOL    HW125856   3.138   3.819  17.251  1.6643  1.0328 -0.1596
 4741SOL    HW225857   3.090   3.683  17.212  0.4601 -0.1993  3.0908
 4742SOL     OW25858   3.685   2.586   6.747  0.0947 -0.1988 -0.0178
 4742SOL    HW125859   3.616   2.595   6.813 -1.1661  3.0035 -1.7890
 4742SOL    HW225860   3.647   2.516   6.694  2.4020 -1.3971 -0.0914
 4743SOL     OW25861   3.190   2.867  10.351  0.2375  0.1052 -0.1886
 4743SOL    HW125862   3.274   2.909  10.368  0.4922 -0.7610  0.7725
 4743SOL    HW225863   3.173   2.934  10.286  0.5235  1.6818  1.3614
 4744SOL     OW25864   1.504   4.145   5.826  0.5291  0.1510  0.2290
 4744SOL    HW125865   1.545   4.122   5.743 -0.7793  0.3159 -0.4485
 4744SOL    HW225866   1.419   4.104   5.809  1.5672 -1.7780 -0.3294
 4745SOL     OW25867   0.466   2.467  16.889  0.0156 -0.4898 -0.0516
 4745SOL    HW125868   0.524   2.539  16.863  2.1072 -2.4814 -0.8330
 4745SOL    HW225869   0.527   2.401  16.921 -0.9989 -1.2278  0.3191
 4746SOL     OW25870   0.884   1.940   4.036  0.4306  0.4204 -0.0623
 4746SOL    HW125871   0.884   1.977   4.125  1.2670  0.9914 -0.2980
 4746SOL    HW225872   0.815   1.997   4.000  1.1403  1.4066  0.1311
 4747SOL     OW25873   2.768   4.096   0.978 -0.5272  0.3843  0.5681
 4747SOL    HW125874   2.816   4.159   1.032  1.7822  2.1713 -3.6065
 4747SOL    HW225875   2.826   4.082   0.904 -0.2002  0.6842  0.7673
 4748SOL     OW25876   0.782   4.725   5.195  0.0058  0.2155  0.4124
 4748SOL    HW125877   0.704   4.681   5.161  0.4258 -1.7995  2.0783
 4748SOL    HW225878   0.753   0.029   5.276 -1.9248  0.7740 -0.5838
 4749SOL     OW25879   1.777   2.717   6.383 -0.4707 -0.2230 -0.2434
 4749SOL    HW125880   1.855   2.760   6.418  0.2621  0.5255 -2.7710
 4749SOL    HW225881   1.709   2.784   6.377 -0.3639  0.0396  1.6707
 4750SOL     OW25882   0.212   2.655   5.485 -0.1914 -0.6137 -0.0332
 4750SOL    HW125883   0.183   2.711   5.412 -0.4779  1.6943  1.8313
 4750SOL    HW225884   0.227   2.717   5.556  1.6723 -0.9947 -0.0790
 4751SOL     OW25885   0.845   0.893  10.647  0.6065  0.4239  0.0257
 4751SOL    HW125886   0.826   0.949  10.572 -1.7845 -0.9358 -0.3544
 4751SOL    HW225887   0.932   0.857  10.630  0.9778  0.6985  1.3285
 4752SOL     OW25888   4.212   0.055  12.535  0.3838  0.2437  0.6881
 4752SOL    HW125889   4.228   4.725  12.601  1.5317 -0.9324 -0.7960
 4752SOL    HW225890   4.119   0.070  12.550  0.4243  0.9218  0.2669
 4753SOL     OW25891   0.088   1.077  13.990  0.2122 -0.1700  0.5347
 4753SOL    HW125892   0.114   1.168  14.007 -0.9980  0.4026 -0.6439
 4753SOL    HW225893   0.037   1.082  13.909 -0.7897  1.7070  1.2846
 4754SOL     OW25894   3.511   1.257  10.623 -0.1961  0.0208  0.5937
 4754SOL    HW125895   3.523   1.169  10.587 -1.7241  0.8489 -1.9355
 4754SOL    HW225896   3.468   1.242  10.708 -0.0264 -0.6422  0.5639
 4755SOL     OW25897   2.527   1.984  16.106 -0.4279  0.0775  0.3219
 4755SOL    HW125898   2.568   1.959  16.024  1.4783 -0.2042  1.3484
 4755SOL    HW225899   2.500   2.076  16.099  0.3081  0.4248  1.8686
 4756SOL     OW25900   3.233   2.212  10.396  0.4488 -0.4464 -0.8482
 4756SOL    HW125901   3.190   2.137  10.355 -2.5270  0.6957  0.2011
 4756SOL    HW225902   3.195   2.208  10.483 -0.8251  0.2683 -1.3574
 4757SOL     OW25903   4.550   0.749   7.210  0.5680 -0.2947  0.0095
 4757SOL    HW125904   4.627   0.775   7.259 -0.7607  2.6613  0.5517
 4757SOL    HW225905   4.488   0.732   7.281 -1.3213  0.4679 -1.4360
 4758SOL     OW25906   2.445   2.643   8.205  0.4446 -1.1539  0.2779
 4758SOL    HW125907   2.363   2.637   8.253  1.1097 -1.5741  1.3633
 4758SOL    HW225908   2.415   2.592   8.130  0.4411  2.0836 -1.9158
 4759SOL     OW25909   2.702   0.319   8.406  0.5698  0.1577  0.3221
 4759SOL    HW125910   2.711   0.408   8.439  1.3104  0.6921 -1.2998
 4759SOL    HW225911   2.629   0.292   8.461  0.1350  0.2524 -0.2160
 4760SOL     OW25912   1.761   3.543   5.522 -0.2459 -0.3693 -0.7526
 4760SOL    HW125913   1.669   3.518   5.521 -0.6382  1.0712 -1.7906
 4760SOL    HW225914   1.790   3.458   5.490  0.1863  0.4274 -2.5403
 4761SOL     OW25915   3.718   0.291  15.003 -0.1454  0.8083  0.0690
 4761SOL    HW125916   3.672   0.375  15.011 -2.2411 -0.1225 -2.2593
 4761SOL    HW225917   3.697   0.251  15.087  0.6908  1.2109  0.4774
 4762SOL     OW25918   1.564   0.509   8.245 -0.6320  0.4005  0.0290
 4762SOL    HW125919   1.528   0.461   8.320 -0.2809  0.3214  0.1470
 4762SOL    HW225920   1.632   0.568   8.277 -0.1711 -0.5087  0.7137
 4763SOL     OW25921   3.929   3.122   7.106  0.5000 -0.2335 -0.2974
 4763SOL    HW125922   3.905   3.171   7.027 -2.7807 -2.9649 -0.9722
 4763SOL    HW225923   4.002   3.168   7.148 -0.6246  0.1400  1.2107
 4764SOL     OW25924   0.057   4.048  10.712  0.1994  0.4854 -0.2763
 4764SOL    HW125925   0.042   3.954  10.723  1.3865  0.1695 -1.2791
 4764SOL    HW225926   0.063   4.078  10.803 -0.2842  1.0957 -0.4422
 4765SOL     OW25927   4.532   1.162  15.021 -0.0904  0.5908 -0.3562
 4765SOL    HW125928   4.491   1.097  14.964  1.8947  0.4085 -1.5852
 4765SOL    HW225929   4.610   1.185  14.971 -1.1198 -0.8183 -2.5939
 4766SOL     OW25930   1.313   4.137   8.520  0.3028 -0.0581 -0.0355
 4766SOL    HW125931   1.326   4.152   8.614  0.1194 -1.2785  0.1749
 4766SOL    HW225932   1.350   4.211   8.471 -0.1184  0.2565  0.1189
 4767SOL     OW25933   3.051   1.519   6.603 -0.2630 -0.4765  0.3329
 4767SOL    HW125934   3.086   1.484   6.521 -2.0037  0.5770 -0.8760
 4767SOL    HW225935   2.968   1.555   6.571 -1.8229 -1.7799  2.9040
 4768SOL     OW25936   1.310   3.944   0.744  0.7543 -0.8955 -0.2708
 4768SOL    HW125937   1.305   3.897   0.661  2.0042  1.0401 -1.4418
 4768SOL    HW225938   1.364   4.019   0.719 -3.7002  1.7675 -1.8468
 4769SOL     OW25939   3.599   4.604  11.575  0.1349 -0.1386 -0.4789
 4769SOL    HW125940   3.589   4.509  11.562  1.4029 -0.4039  0.4989
 4769SOL    HW225941   3.588   4.634  11.485 -0.0764  0.7321 -0.1637
 4770SOL     OW25942   0.929   1.751   3.696 -0.7389  0.0133 -0.0632
 4770SOL    HW125943   0.958   1.842   3.695  0.8390 -0.4849 -1.7447
 4770SOL    HW225944   0.835   1.762   3.708 -0.9623 -0.7740 -1.0588
 4771SOL     OW25945   0.899   3.467   1.997 -0.3912 -0.0840 -0.2742
 4771SOL    HW125946   0.985   3.442   1.965 -0.7184  2.1096 -2.8451
 4771SOL    HW225947   0.908   3.562   2.003 -0.8873  0.2029 -4.1067
 4772SOL     OW25948   3.604   1.392  16.183 -0.1469 -0.1513 -0.0348
 4772SOL    HW125949   3.677   1.370  16.124  0.2463  0.5535  0.1900
 4772SOL    HW225950   3.543   1.425  16.118 -0.4068 -1.9637 -0.7053
 4773SOL     OW25951   3.298   4.236   0.129  0.3930 -0.1578  0.5076
 4773SOL    HW125952   3.271   4.327   0.144  0.3388 -0.2642  1.0429
 4773SOL    HW225953   3.219   4.194   0.095 -0.7621  2.5907 -0.2061
 4774SOL     OW25954   1.220   3.925   4.582 -0.0987  0.2398  0.3507
 4774SOL    HW125955   1.263   3.912   4.498  0.6533  0.8207  0.6332
 4774SOL    HW225956   1.289   3.962   4.638  0.7871 -0.4806 -0.2688
 4775SOL     OW25957   0.178   1.663   7.664  1.0271  0.0033 -0.4941
 4775SOL    HW125958   0.224   1.738   7.628  2.2846 -1.2350 -1.4705
 4775SOL    HW225959   0.229   1.636   7.741  0.5552  1.0681  0.2012
 4776SOL     OW25960   4.491   1.957   0.359  0.0207 -0.2463  0.3651
 4776SOL    HW125961   4.499   1.967   0.264 -0.2028  0.4211  0.4154
 4776SOL    HW225962   4.529   2.038   0.392  1.8233 -1.6510  1.7312
 4777SOL     OW25963   0.768   3.600  17.115 -0.4848  0.4448  0.2377
 4777SOL    HW125964   0.754   3.541  17.189  1.5438  0.3732  0.5427
 4777SOL    HW225965   0.750   3.686  17.152 -2.9436  0.4672 -0.9918
 4778SOL     OW25966   0.843   2.706   5.017 -0.8620  0.0220  0.0777
 4778SOL    HW125967   0.813   2.779   5.072 -1.1908  1.5188 -2.0812
 4778SOL    HW225968   0.872   2.644   5.084  0.6310  1.4173  0.7019
 4779SOL     OW25969   0.533   3.988  14.798 -0.4332  0.5727 -0.3281
 4779SOL    HW125970   0.621   4.023  14.782 -0.3347  0.6880  0.4571
 4779SOL    HW225971   0.526   4.021  14.888 -0.9226 -1.0345  0.2181
 4780SOL     OW25972   4.246   2.887   6.375 -0.1524  0.2482 -0.0487
 4780SOL    HW125973   4.322   2.930   6.413 -0.8567  1.6450 -0.2289
 4780SOL    HW225974   4.196   2.964   6.349  1.0268  1.0354  0.0239
 4781SOL     OW25975   1.907   2.323  13.171  0.1113 -0.1062 -0.2738
 4781SOL    HW125976   1.932   2.247  13.224 -0.6065 -0.8106 -0.9368
 4781SOL    HW225977   1.853   2.367  13.236  0.8120 -3.0724  2.3127
 4782SOL     OW25978   1.534   2.531   4.272 -0.0873 -0.1953 -0.5594
 4782SOL    HW125979   1.629   2.538   4.283  0.0268  0.2968 -1.7890
 4782SOL    HW225980   1.525   2.627   4.267  0.0777 -0.2981 -2.8402
 4783SOL     OW25981   1.959   3.478   3.147 -0.0895  0.3818 -0.2236
 4783SOL    HW125982   1.872   3.453   3.180 -0.1285 -0.7148 -1.1435
 4783SOL    HW225983   1.930   3.512   3.063 -2.3583 -1.3128 -0.1408
 4784SOL     OW25984   3.736   3.497   7.381 -0.3874  0.3408 -0.4839
 4784SOL    HW125985   3.717   3.541   7.464 -1.7013 -0.2177 -0.4812
 4784SOL    HW225986   3.660   3.439   7.371 -1.7476  1.8134  1.1114
 4785SOL     OW25987   1.378   2.060   8.399  0.5722 -0.1364 -0.3005
 4785SOL    HW125988   1.395   1.985   8.342 -1.7228  0.8378 -2.2651
 4785SOL    HW225989   1.354   2.111   8.321  1.8365 -0.1505 -0.7028
 4786SOL     OW25990   3.162   3.060   4.571 -0.0076 -0.2606 -0.2824
 4786SOL    HW125991   3.081   3.105   4.549  0.2943  0.7201  0.6084
 4786SOL    HW225992   3.159   3.060   4.667  0.6676 -1.5746 -0.2527
 4787SOL     OW25993   2.301   4.156   8.163  0.0803 -1.1296  0.2192
 4787SOL    HW125994   2.331   4.115   8.081 -0.0153 -1.6061  0.4244
 4787SOL    HW225995   2.293   4.089   8.230  0.6759 -0.5622  0.8571
 4788SOL     OW25996   2.197   2.053   6.022  0.1746  0.5153 -0.3050
 4788SOL    HW125997   2.198   2.135   5.973  3.3847  0.0401 -1.0137
 4788SOL    HW225998   2.155   1.991   5.962  2.6798 -0.7099 -0.7818
 4789SOL     OW25999   0.144   1.330   0.529 -0.5592  0.1626 -0.1642
 4789SOL    HW126000   0.065   1.372   0.563 -1.0001 -0.7613 -0.0300
 4789SOL    HW226001   0.197   1.301   0.603 -1.4954 -2.8136 -0.6458
 4790SOL     OW26002   3.819   3.409   5.911 -0.0432  0.0532 -0.4291
 4790SOL    HW126003   3.745   3.386   5.855  0.2085 -0.2013 -0.6549
 4790SOL    HW226004   3.848   3.324   5.943 -0.2910  0.5535  1.1314
 4791SOL     OW26005   2.394   4.175  14.120  0.1550  0.1415 -0.3539
 4791SOL    HW126006   2.351   4.119  14.184  0.4672 -0.0443 -0.3047
 4791SOL    HW226007   2.481   4.139  14.103 -0.2588 -1.0326  0.0130
 4792SOL     OW26008   3.232   4.519   2.250  0.0325 -0.1970 -0.1484
 4792SOL    HW126009   3.149   4.562   2.272  0.7712  0.4502  1.3796
 4792SOL    HW226010   3.195   4.443   2.207  2.5425 -0.4961 -1.8009
 4793SOL     OW26011   3.321   0.490   6.822  0.5104  0.1485 -0.4281
 4793SOL    HW126012   3.359   0.521   6.905 -1.7968 -1.0080  1.0323
 4793SOL    HW226013   3.296   0.403   6.851  0.2825  0.1469 -0.6346
 4794SOL     OW26014   2.723   3.663   3.659 -0.1706  0.1123  0.7079
 4794SOL    HW126015   2.633   3.683   3.636  0.4302 -1.7138 -3.2559
 4794SOL    HW226016   2.757   3.639   3.573  0.5981  3.0115  0.2184
 4795SOL     OW26017   1.029   1.345  17.295 -0.0144  0.0415  0.4011
 4795SOL    HW126018   1.077   1.348  17.212 -0.4486 -1.9693  0.0687
 4795SOL    HW226019   0.986   1.430  17.294  0.6724  0.3693 -0.7721
 4796SOL     OW26020   2.847   0.014   1.832 -0.2287  0.2967 -0.4311
 4796SOL    HW126021   2.882   0.103   1.819 -1.1295  0.8458  0.9610
 4796SOL    HW226022   2.869   0.009   1.925  0.6328  0.2601 -0.6376
 4797SOL     OW26023   3.427   1.075   6.466 -0.1335 -0.3542  0.3649
 4797SOL    HW126024   3.436   1.157   6.513 -1.3352 -0.6223  1.0863
 4797SOL    HW226025   3.410   1.105   6.377 -0.9160  3.0771  1.6623
 4798SOL     OW26026   2.684   3.887  17.465 -0.4250  0.5229  0.8147
 4798SOL    HW126027   2.693   3.939  17.545 -0.8062 -0.9779  1.8170
 4798SOL    HW226028   2.755   3.823  17.461 -1.2288 -0.4021  1.6879
 4799SOL     OW26029   4.415   3.649  15.622 -0.4122 -0.9729 -0.0341
 4799SOL    HW126030   4.350   3.686  15.681 -0.7673 -3.5791  1.2414
 4799SOL    HW226031   4.493   3.676  15.670 -0.1434 -0.6292 -0.6622
 4800SOL     OW26032   3.744   1.264  15.710  0.4522  0.1652 -0.0978
 4800SOL    HW126033   3.689   1.342  15.716 -1.0286 -0.8815  0.1833
 4800SOL    HW226034   3.828   1.307  15.720  0.3048  0.7958 -1.5433
 4801SOL     OW26035   1.248   2.957   2.014  0.1234  0.7707  0.6101
 4801SOL    HW126036   1.171   2.907   1.987 -0.6832  2.4878 -0.2709
 4801SOL    HW226037   1.292   2.959   1.929  0.3364 -3.0414  0.6538
 4802SOL     OW26038   3.486   3.125  13.003 -0.0202  0.1994  0.3363
 4802SOL    HW126039   3.445   3.203  12.966 -0.2603 -0.2014 -0.2497
 4802SOL    HW226040   3.442   3.057  12.951 -1.5933  0.5794  1.1721
 4803SOL     OW26041   1.788   4.715   7.105 -0.5154 -0.0307  0.1906
 4803SOL    HW126042   1.830   0.051   7.148 -0.8850 -0.1400  0.7308
 4803SOL    HW226043   1.858   4.669   7.057  0.3282  1.4826 -0.0245
 4804SOL     OW26044   2.171   2.888   8.338  0.3125 -0.0662  0.0781
 4804SOL    HW126045   2.175   2.793   8.353  0.7237  0.1878  1.5842
 4804SOL    HW226046   2.096   2.905   8.282  1.3613  0.8564 -1.0449
 4805SOL     OW26047   4.289   4.255   0.478  0.7144 -0.3860  0.4854
 4805SOL    HW126048   4.209   4.233   0.431  0.3849  1.9539 -0.0546
 4805SOL    HW226049   4.278   4.199   0.555 -1.2236 -0.3334  0.2369
 4806SOL     OW26050   2.771   1.500   7.987  0.5770  0.1447 -0.3003
 4806SOL    HW126051   2.727   1.557   7.925 -0.8782  1.6949  2.1733
 4806SOL    HW226052   2.852   1.494   7.937  0.9077  0.3401  0.2110
 4807SOL     OW26053   0.997   1.882   7.461 -0.8096 -0.0458  0.0061
 4807SOL    HW126054   1.074   1.826   7.466 -0.3872  0.5693  0.4267
 4807SOL    HW226055   1.039   1.960   7.498 -0.2020  0.9083 -2.6672
 4808SOL     OW26056   4.420   3.412   9.794 -0.2096  0.0540 -0.5505
 4808SOL    HW126057   4.494   3.472   9.798 -0.5538  0.4108  0.3085
 4808SOL    HW226058   4.404   3.401   9.887  0.2539 -1.1296 -0.6175
 4809SOL     OW26059   0.674   2.585   3.420 -0.2439  0.2662 -0.3083
 4809SOL    HW126060   0.687   2.504   3.370 -0.5513 -2.0642  3.3611
 4809SOL    HW226061   0.746   2.642   3.394  0.1638  1.0133  2.5258
 4810SOL     OW26062   0.385   0.094   6.799 -0.5192 -0.0433  0.1375
 4810SOL    HW126063   0.437   0.075   6.722  0.6765  0.5352  0.8043
 4810SOL    HW226064   0.361   0.182   6.769  2.0322 -0.1665 -2.2239
 4811SOL     OW26065   1.650   0.796   7.764 -0.1527  0.6573 -0.2202
 4811SOL    HW126066   1.700   0.751   7.832  0.9845  1.6702 -0.3729
 4811SOL    HW226067   1.628   0.725   7.704  2.3699 -1.6519  1.5723
 4812SOL     OW26068   1.301   3.387  15.963 -0.2226 -0.4507  0.1532
 4812SOL    HW126069   1.394   3.382  15.941 -0.5069 -2.5907 -0.5805
 4812SOL    HW226070   1.296   3.305  16.012 -0.9056  0.6148  1.8651
 4813SOL     OW26071   0.150   4.321  13.224  0.1880 -0.4286  0.4314
 4813SOL    HW126072   0.193   4.237  13.235  1.4036  0.2003  0.5223
 4813SOL    HW226073   0.061   4.308  13.257  0.4209 -1.4984  0.6139
 4814SOL     OW26074   2.732   4.058  15.147 -0.3927  0.3954 -0.1179
 4814SOL    HW126075   2.654   4.014  15.113  0.4532  0.1808 -1.7526
 4814SOL    HW226076   2.729   4.142  15.102 -1.5135  0.0492 -0.6893
 4815SOL     OW26077   1.187   0.266   2.747 -0.1933  0.0222  0.3157
 4815SOL    HW126078   1.224   0.309   2.670  1.4632 -1.4243  0.3222
 4815SOL    HW226079   1.260   0.215   2.782  0.7971  0.6500 -0.8150
 4816SOL     OW26080   4.433   2.435   8.885 -0.2240 -0.1942  0.0249
 4816SOL    HW126081   4.465   2.402   8.969 -1.2930 -1.7820 -0.1820
 4816SOL    HW226082   4.513   2.446   8.834 -1.6429 -0.5776 -2.2937
 4817SOL     OW26083   1.982   2.063   8.251  0.3534  0.2521 -0.1765
 4817SOL    HW126084   1.999   2.022   8.166 -0.7661 -1.8543  0.6232
 4817SOL    HW226085   2.057   2.030   8.301 -1.1262 -2.7264  0.0719
 4818SOL     OW26086   1.576   1.048  11.942  0.6201  0.0740  0.2907
 4818SOL    HW126087   1.596   0.961  11.908 -1.7991 -0.2257 -0.3811
 4818SOL    HW226088   1.617   1.040  12.028 -1.0785  0.4487  1.1340
 4819SOL     OW26089   0.427   1.950   3.993  0.1679 -0.0372  0.0066
 4819SOL    HW126090   0.441   1.921   4.083  1.6923  1.6500  0.3160
 4819SOL    HW226091   0.414   1.864   3.954 -1.1668 -0.5243  1.5118
 4820SOL     OW26092   1.116   2.135  15.587  0.3829  0.6652 -0.1109
 4820SOL    HW126093   1.130   2.162  15.678  0.1425  0.5649 -0.0442
 4820SOL    HW226094   1.023   2.153  15.575  0.3116  1.2792  1.3606
 4821SOL     OW26095   4.414   3.727  14.106  0.5565 -1.0555 -0.5448
 4821SOL    HW126096   4.431   3.676  14.185 -0.4179  0.2109  0.4638
 4821SOL    HW226097   4.319   3.731  14.104  0.6157  0.8439  1.6549
 4822SOL     OW26098   1.297   2.877   3.562 -0.4861  0.3567  0.3166
 4822SOL    HW126099   1.229   2.821   3.599 -2.0069  1.3959 -0.9340
 4822SOL    HW226100   1.361   2.884   3.633  0.5960 -0.5974 -0.5618
 4823SOL     OW26101   4.628   3.935  14.914  0.3851  0.2758 -0.2037
 4823SOL    HW126102   4.632   4.001  14.844 -2.2321  0.1639 -0.4425
 4823SOL    HW226103   4.592   3.861  14.866  0.4142  0.7723 -0.9989
 4824SOL     OW26104   2.716   2.706  15.223  0.2114  0.3246  0.0147
 4824SOL    HW126105   2.662   2.642  15.269 -0.6218 -0.0839 -1.5405
 4824SOL    HW226106   2.744   2.661  15.144 -0.2015 -0.9538  0.5999
 4825SOL     OW26107   0.394   4.457   8.315 -0.6291 -0.2337 -0.2944
 4825SOL    HW126108   0.449   4.535   8.316 -0.9293  0.0285 -2.6147
 4825SOL    HW226109   0.323   4.499   8.266 -1.8769 -0.9392  0.9035
 4826SOL     OW26110   3.699   2.953   4.589  0.1243  0.6548  0.6228
 4826SOL    HW126111   3.629   3.018   4.592 -2.3130 -1.7904 -3.4344
 4826SOL    HW226112   3.744   2.967   4.506  0.1189 -0.3921  0.4509
 4827SOL     OW26113   0.893   3.211   6.976 -0.1365  0.1157 -0.3137
 4827SOL    HW126114   0.837   3.192   6.901  0.0377  0.1522 -0.4543
 4827SOL    HW226115   0.978   3.233   6.938 -0.3394 -1.7801 -1.8307
 4828SOL     OW26116   3.835   4.725  15.406  0.4766  0.3029  0.0541
 4828SOL    HW126117   3.904   0.048  15.381 -0.2412  1.1524  0.1334
 4828SOL    HW226118   3.895   4.676  15.462  1.7015  0.1631 -1.3969
 4829SOL     OW26119   3.026   0.505   9.274  1.1609 -0.2527 -0.0906
 4829SOL    HW126120   3.081   0.555   9.335 -0.0525  0.9545  0.0244
 4829SOL    HW226121   2.972   0.578   9.243  0.2761  0.1917  2.4984
 4830SOL     OW26122   4.696   1.268   9.275  0.1321 -0.1137 -0.3222
 4830SOL    HW126123   0.050   1.293   9.286  0.2997 -1.0677  0.4174
 4830SOL    HW226124   4.649   1.315   9.344  0.8417  1.6179 -1.0032
 4831SOL     OW26125   2.483   0.729  14.590 -0.8452 -0.1694  0.2535
 4831SOL    HW126126   2.426   0.674  14.538 -1.1466  1.4670 -1.1553
 4831SOL    HW226127   2.537   0.664  14.635  1.0976  0.4036 -1.2222
 4832SOL     OW26128   3.432   3.939   5.074 -0.3381  0.0944  0.8112
 4832SOL    HW126129   3.465   3.923   5.162  0.2865  0.7317  0.6891
 4832SOL    HW226130   3.416   4.033   5.072  0.0965  0.1487 -0.0680
 4833SOL     OW26131   3.894   1.104   9.234 -0.3071 -0.3841  0.2558
 4833SOL    HW126132   3.973   1.058   9.207  0.1246 -0.0763  1.0067
 4833SOL    HW226133   3.844   1.033   9.276 -0.1225  0.5145  2.0102
 4834SOL     OW26134   4.702   3.774   6.453  0.2353 -0.2992  0.1089
 4834SOL    HW126135   0.003   3.823   6.380  1.2952 -0.0243  0.8585
 4834SOL    HW226136   4.651   3.705   6.412  0.7066 -0.7997  0.3772
 4835SOL     OW26137   3.223   0.391   3.480 -0.7652  0.1701 -0.0463
 4835SOL    HW126138   3.267   0.330   3.422 -1.1131  0.4937 -0.6470
 4835SOL    HW226139   3.248   0.355   3.566 -0.2691 -2.3018 -1.2445
 4836SOL     OW26140   1.826   3.253   2.582 -0.0823 -0.5809 -0.0730
 4836SOL    HW126141   1.914   3.220   2.565 -0.0898 -1.1272  0.9203
 4836SOL    HW226142   1.831   3.290   2.670  0.2507  2.5272 -1.4166
 4837SOL     OW26143   3.866   4.403   5.325 -0.0362  0.0914 -0.1784
 4837SOL    HW126144   3.954   4.370   5.340  0.1202  1.0927  1.1387
 4837SOL    HW226145   3.875   4.462   5.401  0.8638 -1.2184  0.7273
 4838SOL     OW26146   2.460   4.319   0.834  0.1613  0.3448 -0.6404
 4838SOL    HW126147   2.376   4.357   0.857 -1.2128 -1.8005 -2.1444
 4838SOL    HW226148   2.489   4.362   0.754 -1.7999 -0.0795 -1.5688
 4839SOL     OW26149   0.091   4.062   8.921 -0.0758 -0.3066  0.1503
 4839SOL    HW126150   0.040   4.110   8.856 -1.6989 -1.3818  0.6377
 4839SOL    HW226151   0.177   4.058   8.879 -1.5994 -0.9068 -2.9007
 4840SOL     OW26152   2.686   2.101   2.482 -0.7072 -0.8064 -0.4433
 4840SOL    HW126153   2.629   2.081   2.556  0.1721  0.5415  0.6192
 4840SOL    HW226154   2.690   2.197   2.474 -1.5605 -0.5924  1.5519
 4841SOL     OW26155   4.615   3.262   7.568 -0.7797  0.3406  0.1565
 4841SOL    HW126156   4.628   3.357   7.568  1.1001  0.0796 -2.6361
 4841SOL    HW226157   4.611   3.235   7.660  3.0866 -1.0428 -0.0769
 4842SOL     OW26158   4.726   2.903  17.150 -0.5680  0.5912  0.1079
 4842SOL    HW126159   4.657   2.839  17.136 -0.0048  0.0734 -0.3031
 4842SOL    HW226160   4.686   2.963  17.214 -0.9552 -1.6142  1.9342
 4843SOL     OW26161   2.521   1.786  16.687 -0.0028  0.4143  0.0461
 4843SOL    HW126162   2.470   1.814  16.611  1.0204  1.0431 -0.4064
 4843SOL    HW226163   2.467   1.807  16.763  1.3979 -0.2703  1.2399
 4844SOL     OW26164   0.872   4.196   6.429  0.3452 -0.5545  0.7284
 4844SOL    HW126165   0.860   4.124   6.490 -1.0009  1.0576  2.3798
 4844SOL    HW226166   0.925   4.165   6.356 -0.8210  1.0334 -0.8007
 4845SOL     OW26167   0.800   1.868   2.392 -0.9345 -0.0840  0.4578
 4845SOL    HW126168   0.713   1.897   2.365 -1.2517 -0.2281  1.3267
 4845SOL    HW226169   0.850   1.949   2.384 -0.8209 -0.2551 -0.5246
 4846SOL     OW26170   1.843   2.727  15.700 -0.7703  0.2124  0.2934
 4846SOL    HW126171   1.803   2.775  15.627 -0.8779  1.3487  1.1004
 4846SOL    HW226172   1.905   2.792  15.732 -0.2653 -0.5231  0.7816
 4847SOL     OW26173   2.248   1.714   8.765 -0.1514 -0.1803 -0.0468
 4847SOL    HW126174   2.226   1.751   8.851  2.1441 -1.6385  1.1449
 4847SOL    HW226175   2.203   1.630   8.764  4.1948 -2.4389 -0.8393
 4848SOL     OW26176   1.949   1.256  12.342 -0.4434  0.1589  0.5222
 4848SOL    HW126177   1.944   1.239  12.248 -0.4114 -0.0263  0.5545
 4848SOL    HW226178   1.997   1.339  12.338 -0.5955  0.1658 -1.2374
 4849SOL     OW26179   1.069   2.434  13.384 -0.2885  0.2022  0.2579
 4849SOL    HW126180   1.099   2.513  13.337 -0.2080 -0.5639 -0.9766
 4849SOL    HW226181   1.145   2.424  13.440 -0.1901  1.2218  0.3187
 4850SOL     OW26182   3.944   0.995   7.353  0.0914  0.4651  0.1147
 4850SOL    HW126183   3.976   1.084   7.359  0.1975  0.6265 -2.7498
 4850SOL    HW226184   4.020   0.938   7.338 -0.1113  0.4819 -0.9617
 4851SOL     OW26185   1.804   2.189   2.535 -0.0336 -0.1865  0.1468
 4851SOL    HW126186   1.847   2.264   2.493  1.5216 -0.8064  0.6189
 4851SOL    HW226187   1.845   2.112   2.497 -0.0109  0.4292 -1.0748
 4852SOL     OW26188   1.943   0.741  11.685 -0.3163  0.2196  0.0737
 4852SOL    HW126189   1.870   0.679  11.690  0.5946 -0.6975  1.8881
 4852SOL    HW226190   1.893   0.819  11.710  1.4664  0.8578  1.6036
 4853SOL     OW26191   3.954   0.689  16.395 -0.5053 -0.2725 -0.2490
 4853SOL    HW126192   4.029   0.716  16.449  0.7864 -0.4614 -1.9724
 4853SOL    HW226193   3.918   0.773  16.367 -1.5453 -0.7861 -0.4462
 4854SOL     OW26194   1.266   2.560   0.529 -0.3368  0.0323 -0.2469
 4854SOL    HW126195   1.267   2.651   0.560  0.2335 -0.4902  1.2710
 4854SOL    HW226196   1.173   2.560   0.508 -0.6089  1.6790  0.9951
 4855SOL     OW26197   0.300   3.501   8.477  0.2990 -0.3062  0.0017
 4855SOL    HW126198   0.378   3.555   8.490 -0.1987  0.3096  0.3976
 4855SOL    HW226199   0.336   3.432   8.422 -3.6878 -1.4980 -1.1046
 4856SOL     OW26200   0.991   0.635  11.389 -0.4303 -0.1931  0.2673
 4856SOL    HW126201   1.071   0.594  11.356 -0.4443 -0.5974  0.7359
 4856SOL    HW226202   0.924   0.585  11.343  2.1992 -2.6240 -0.8861
 4857SOL     OW26203   3.464   3.493  10.281  0.4001 -0.2750 -0.2253
 4857SOL    HW126204   3.548   3.463  10.317  0.5984  2.2467  1.4008
 4857SOL    HW226205   3.427   3.412  10.247  0.8921 -1.3737  1.8017
 4858SOL     OW26206   0.925   0.525  17.496  0.7183 -0.3976  0.3658
 4858SOL    HW126207   0.886   0.582  17.430 -0.0751 -1.8532 -0.4374
 4858SOL    HW226208   1.013   0.550  17.469  0.9699 -1.0013  0.6182
 4859SOL     OW26209   4.489   0.551   3.631 -0.1501 -0.0457 -0.2113
 4859SOL    HW126210   4.413   0.544   3.573 -1.2530 -0.1747  1.2613
 4859SOL    HW226211   4.542   0.624   3.599  0.2033  0.5754  1.7981
 4860SOL     OW26212   2.749   1.664   4.365  0.6137  0.3167  0.3013
 4860SOL    HW126213   2.811   1.591   4.368 -1.1846 -1.1624  1.5385
 4860SOL    HW226214   2.681   1.633   4.424  0.0056 -1.4453 -1.3414
 4861SOL     OW26215   2.860   2.460   4.931 -0.7433  0.1262  0.1116
 4861SOL    HW126216   2.929   2.443   4.867 -1.1304  2.3666 -0.8891
 4861SOL    HW226217   2.812   2.518   4.872  0.4212 -0.3053 -1.2775
 4862SOL     OW26218   1.178   3.134   3.528  0.2722 -0.3155 -0.3220
 4862SOL    HW126219   1.140   3.141   3.616  1.6708  0.1486  0.2480
 4862SOL    HW226220   1.205   3.043   3.541  1.2635 -0.0155 -0.2354
 4863SOL     OW26221   3.485   1.590   4.610 -0.3661  0.2879 -0.0809
 4863SOL    HW126222   3.454   1.649   4.541  0.3671 -0.1979 -0.8246
 4863SOL    HW226223   3.492   1.648   4.686 -0.4997 -0.9342  0.8708
 4864SOL     OW26224   3.735   4.380   2.107  0.1116 -0.2535  0.2102
 4864SOL    HW126225   3.791   4.341   2.040  0.0033 -0.1380  0.0491
 4864SOL    HW226226   3.661   4.319   2.109  0.2785 -0.4327  0.9145
 4865SOL     OW26227   1.884   1.563  10.042  0.3329  0.4334  0.1569
 4865SOL    HW126228   1.837   1.573   9.960 -0.4583 -2.2228  0.2704
 4865SOL    HW226229   1.893   1.656  10.063 -1.5451  0.9990 -1.5216
 4866SOL     OW26230   4.607   2.860  12.864  0.4134 -0.4751  0.1621
 4866SOL    HW126231   4.632   2.842  12.954  1.0564  0.4150  0.1623
 4866SOL    HW226232   4.545   2.790  12.844  1.5698 -1.5820  0.4807
 4867SOL     OW26233   3.334   0.358   5.586 -0.5399  0.3392 -0.0122
 4867SOL    HW126234   3.394   0.427   5.556  1.0225 -0.1853  1.9133
 4867SOL    HW226235   3.306   0.324   5.501  1.6705 -0.2725 -0.4923
 4868SOL     OW26236   2.712   1.952   6.431  0.1465 -0.0486 -0.1473
 4868SOL    HW126237   2.720   2.047   6.426 -0.6832  0.0391  0.2097
 4868SOL    HW226238   2.798   1.919   6.403  0.2644 -1.1389  1.4978
 4869SOL     OW26239   3.753   0.112   6.566  0.4061  0.2046  0.3959
 4869SOL    HW126240   3.797   0.040   6.610 -2.0721 -2.0353 -0.7820
 4869SOL    HW226241   3.787   0.101   6.477  0.8929  1.6577  0.3984
 4870SOL     OW26242   1.847   4.279   7.808  0.3277 -0.0392 -0.0339
 4870SOL    HW126243   1.921   4.302   7.752  0.0555 -0.3939 -0.5402
 4870SOL    HW226244   1.772   4.292   7.750  0.2915  0.4909  0.1335
 4871SOL     OW26245   0.908   3.815  12.827  0.0184 -0.6366  0.1106
 4871SOL    HW126246   0.832   3.871  12.841 -0.6580 -1.2244 -1.2528
 4871SOL    HW226247   0.870   3.737  12.787  0.8732 -1.5321  1.0471
 4872SOL     OW26248   1.029   1.114   5.562 -0.2246 -0.8524 -0.0005
 4872SOL    HW126249   0.943   1.117   5.604 -0.4443  0.6739 -0.5609
 4872SOL    HW226250   1.048   1.028   5.525 -0.0238 -0.2431 -1.3157
 4873SOL     OW26251   2.930   1.308   5.093  0.5898  0.1013 -0.3461
 4873SOL    HW126252   2.894   1.294   5.181  1.3435 -0.9404 -0.1977
 4873SOL    HW226253   2.879   1.249   5.037 -0.1649  0.1739  0.2610
 4874SOL     OW26254   4.675   4.029  13.742  0.4507 -0.0992  0.1621
 4874SOL    HW126255   4.714   4.099  13.794  0.8973 -1.5786  1.8250
 4874SOL    HW226256   4.635   3.968  13.804  0.4643 -1.6358 -1.3522
 4875SOL     OW26257   4.277   1.817   5.950 -0.8101 -0.0734 -0.1367
 4875SOL    HW126258   4.223   1.887   5.985  0.2927  0.8306 -0.2374
 4875SOL    HW226259   4.273   1.755   6.023 -0.5993  0.2212  0.1254
 4876SOL     OW26260   0.094   0.113   7.853 -0.3506 -0.1237  0.1075
 4876SOL    HW126261   0.094   0.092   7.760  0.5816 -0.9401  0.2838
 4876SOL    HW226262   0.158   0.184   7.859  1.0520 -1.4916  1.7496
 4877SOL     OW26263   3.215   0.279   5.303  0.2668 -0.1455 -0.6323
 4877SOL    HW126264   3.121   0.265   5.303  0.3174 -0.4736 -0.6085
 4877SOL    HW226265   3.229   0.343   5.233 -0.5196 -0.5352 -1.1430
 4878SOL     OW26266   1.212   2.642   8.427 -0.2141  0.3544  0.0932
 4878SOL    HW126267   1.118   2.629   8.432 -0.1642 -0.1741 -0.4079
 4878SOL    HW226268   1.248   2.553   8.423 -1.0608 -0.0524  1.6869
 4879SOL     OW26269   1.867   0.990   5.533  0.4159  0.3156 -0.0490
 4879SOL    HW126270   1.796   0.994   5.469  0.6293  0.0835 -0.2998
 4879SOL    HW226271   1.936   0.948   5.482  0.6074  1.0467 -0.3797
 4880SOL     OW26272   3.538   1.881   2.047  0.5212  0.1322  0.2311
 4880SOL    HW126273   3.449   1.846   2.048  1.1629 -1.4556  1.9887
 4880SOL    HW226274   3.521   1.965   2.004 -1.0988 -1.0848 -1.4824
 4881SOL     OW26275   0.378   2.981   5.028 -0.5457 -0.1045  0.2626
 4881SOL    HW126276   0.431   2.950   4.955 -0.5932  0.5941 -0.0726
 4881SOL    HW226277   0.302   3.008   4.977  0.4567  1.0632 -0.6055
 4882SOL     OW26278   2.263   0.475  11.109 -0.0957  0.3821  0.1816
 4882SOL    HW126279   2.173   0.506  11.107 -0.0957  0.2565 -1.7924
 4882SOL    HW226280   2.280   0.480  11.015  1.4665 -1.1550  0.3682
 4883SOL     OW26281   2.985   2.005   6.000 -0.0074  0.1216 -0.0524
 4883SOL    HW126282   2.942   2.087   6.024  0.7868 -0.0729  2.0707
 4883SOL    HW226283   3.078   2.026   6.006 -0.2320  1.8112 -2.7878
 4884SOL     OW26284   3.075   4.735   2.898 -0.2191  0.2241 -0.8243
 4884SOL    HW126285   3.131   4.658   2.903 -1.1902 -0.3805  0.6005
 4884SOL    HW226286   3.135   0.067   2.925  0.5302 -0.1495 -1.5158
 4885SOL     OW26287   1.940   2.392   9.435  0.2944  0.2847 -0.5295
 4885SOL    HW126288   1.980   2.424   9.516 -0.2808 -0.1479 -0.0779
 4885SOL    HW226289   1.852   2.430   9.440 -0.6047 -1.8622  0.1957
 4886SOL     OW26290   2.948   3.165   2.827  0.1500  0.0610  0.1923
 4886SOL    HW126291   2.995   3.090   2.792  1.3782  0.5724  0.7348
 4886SOL    HW226292   2.989   3.221   2.761  1.3184  0.2913  1.1005
 4887SOL     OW26293   1.561   1.874   9.507  0.3886  0.6585 -0.2824
 4887SOL    HW126294   1.486   1.815   9.518  0.5637 -0.1236 -3.2917
 4887SOL    HW226295   1.615   1.858   9.584  1.0301  2.8531 -0.2602
 4888SOL     OW26296   4.413   0.258   5.135 -0.3214  0.0322  0.1894
 4888SOL    HW126297   4.409   0.325   5.067  2.3763 -1.4343 -1.4393
 4888SOL    HW226298   4.491   0.207   5.114  0.5290  0.7939  1.5334
 4889SOL     OW26299   4.610   1.752   2.735  0.4848  0.4894  0.1430
 4889SOL    HW126300   4.684   1.797   2.776 -1.5029  1.7636  2.3162
 4889SOL    HW226301   4.574   1.708   2.811 -1.9788  1.2984 -0.5727
 4890SOL     OW26302   3.000   0.912  16.913 -0.0351 -0.1303 -0.2849
 4890SOL    HW126303   2.991   0.933  17.006  0.6462  1.2483 -0.5228
 4890SOL    HW226304   2.912   0.929  16.880 -0.6783  1.9667  2.4971
 4891SOL     OW26305   1.286   3.345   0.269 -0.5392 -0.3633  0.3406
 4891SOL    HW126306   1.275   3.307   0.356 -0.9442 -0.0424  0.4288
 4891SOL    HW226307   1.265   3.273   0.209 -1.4469  1.4415 -1.5040
 4892SOL     OW26308   1.051   1.773  11.900  0.4408 -0.0043  0.6833
 4892SOL    HW126309   0.971   1.820  11.875  1.0347  0.4338 -0.3985
 4892SOL    HW226310   1.050   1.712  11.826  0.9781  1.6360 -0.6808
 4893SOL     OW26311   1.601   0.354   2.922 -0.6988  0.2292  0.4954
 4893SOL    HW126312   1.693   0.344   2.944 -0.9426 -2.4846  0.2327
 4893SOL    HW226313   1.608   0.374   2.828  0.1784 -3.1191 -0.1189
 4894SOL     OW26314   1.558   2.727   1.394  0.1909 -0.0736  0.3504
 4894SOL    HW126315   1.653   2.721   1.403 -0.1427 -2.5187  2.1597
 4894SOL    HW226316   1.550   2.784   1.317 -0.4212 -2.3386 -1.2610
 4895SOL     OW26317   2.277   4.048   4.788 -0.4524 -0.3582 -0.1696
 4895SOL    HW126318   2.218   3.983   4.826 -0.9625  0.5578  0.6105
 4895SOL    HW226319   2.240   4.041   4.700  1.8458  1.7157 -1.3132
 4896SOL     OW26320   3.189   3.664   6.526  0.5223 -0.8071 -0.0049
 4896SOL    HW126321   3.263   3.692   6.470  1.9371 -0.8025  1.8686
 4896SOL    HW226322   3.237   3.605   6.583  0.9260 -1.5370 -1.0907
 4897SOL     OW26323   0.590   2.212   5.850 -0.3077 -0.0828 -0.0763
 4897SOL    HW126324   0.603   2.167   5.767 -1.4120 -0.0879 -0.2487
 4897SOL    HW226325   0.598   2.136   5.907 -1.0648 -0.3424 -0.3073
 4898SOL     OW26326   4.356   3.738   5.710 -0.5990 -0.4194  0.4940
 4898SOL    HW126327   4.391   3.728   5.621 -0.9399 -0.3991  0.3577
 4898SOL    HW226328   4.371   3.653   5.751  1.7954  0.8467  2.2489
 4899SOL     OW26329   1.188   1.824   2.460 -0.1773 -0.0197  0.1639
 4899SOL    HW126330   1.214   1.872   2.381 -0.5917  0.2451  0.1876
 4899SOL    HW226331   1.151   1.899   2.507 -2.4269 -2.1610  1.8447
 4900SOL     OW26332   2.603   4.229  11.113  0.3010 -0.6629  0.6406
 4900SOL    HW126333   2.518   4.259  11.148  0.0054 -0.1212 -0.5580
 4900SOL    HW226334   2.659   4.302  11.140 -0.5551  0.0403  0.5402
 4901SOL     OW26335   4.482   3.495   1.828 -0.4086  0.5471  0.0446
 4901SOL    HW126336   4.522   3.443   1.898  0.0096  1.5474  0.5512
 4901SOL    HW226337   4.510   3.445   1.751  0.7089 -1.3889  1.7000
 4902SOL     OW26338   0.138   1.593   8.049  0.3348 -0.1871 -0.4129
 4902SOL    HW126339   0.059   1.574   7.999 -1.2460  1.9060  1.2841
 4902SOL    HW226340   0.183   1.658   7.996 -1.5384  0.1359 -1.6104
 4903SOL     OW26341   2.809   0.013  13.797 -0.4753 -0.3366  0.5550
 4903SOL    HW126342   2.890   4.731  13.749 -0.9262  0.5167 -0.5604
 4903SOL    HW226343   2.760   0.060  13.730  0.5186 -0.4043 -0.2214
 4904SOL     OW26344   1.137   3.919   7.779 -0.1146 -0.2978 -0.1239
 4904SOL    HW126345   1.170   4.009   7.781 -1.8790  0.3341  0.5845
 4904SOL    HW226346   1.214   3.863   7.784  1.0100  1.0936 -1.9797
 4905SOL     OW26347   3.972   2.929  11.205  0.2187 -0.7297  0.1253
 4905SOL    HW126348   3.978   2.884  11.121 -0.2223  0.2823 -0.4447
 4905SOL    HW226349   4.034   2.879  11.257  0.2033  1.8605  2.6362
 4906SOL     OW26350   4.307   2.960   6.996 -0.1046 -0.7979  0.5514
 4906SOL    HW126351   4.310   3.053   7.016  1.3762 -1.3944  3.0793
 4906SOL    HW226352   4.397   2.955   6.964  0.5595  1.2520  2.0763
 4907SOL     OW26353   3.074   1.736   4.183  0.7631 -0.0326  0.0743
 4907SOL    HW126354   2.982   1.737   4.157  0.7396 -0.7317  0.1211
 4907SOL    HW226355   3.116   1.672   4.125  0.4630 -0.3115  0.1645
 4908SOL     OW26356   0.153   0.890   9.115 -0.2984 -0.2338  0.7984
 4908SOL    HW126357   0.102   0.907   9.036 -1.3613 -1.8353  1.1551
 4908SOL    HW226358   0.081   0.902   9.177  1.3810  0.8180  2.5467
 4909SOL     OW26359   2.865   2.286   8.871 -0.7023  0.5992  0.1052
 4909SOL    HW126360   2.889   2.363   8.923 -0.9398 -0.5117  1.8711
 4909SOL    HW226361   2.771   2.304   8.865 -1.3013 -1.4171  3.1754
 4910SOL     OW26362   3.505   3.654  12.253  0.3572 -0.0100 -0.0323
 4910SOL    HW126363   3.560   3.683  12.326  0.3555 -1.3272  0.5029
 4910SOL    HW226364   3.430   3.711  12.263  0.7207  0.4573  0.0131
 4911SOL     OW26365   1.723   4.097   5.130 -0.0246 -0.3611 -0.8792
 4911SOL    HW126366   1.788   4.079   5.062  0.2026 -2.5472 -0.0666
 4911SOL    HW226367   1.723   4.015   5.179  0.6796  0.0852 -0.1527
 4912SOL     OW26368   4.652   2.349   9.414  0.4080  0.0289 -0.0705
 4912SOL    HW126369   4.558   2.368   9.413  0.3662 -0.1781 -0.1192
 4912SOL    HW226370   4.683   2.373   9.327 -0.3691  0.9543 -0.0838
 4913SOL     OW26371   4.290   3.751   0.087 -1.3362  0.3518  0.0765
 4913SOL    HW126372   4.262   3.724  17.749  0.0511 -0.0150 -0.2522
 4913SOL    HW226373   4.207   3.741   0.133 -2.1350  1.2186 -1.1711
 4914SOL     OW26374   1.593   4.465   5.667  0.5391  0.3609  0.1482
 4914SOL    HW126375   1.612   4.439   5.577 -1.7410  0.1704 -0.2696
 4914SOL    HW226376   1.502   4.492   5.675  0.2225 -0.6889  0.1678
 4915SOL     OW26377   2.936   0.451   7.398  0.3249  0.0513  0.0434
 4915SOL    HW126378   2.902   0.383   7.456 -1.4907 -2.3618 -3.8767
 4915SOL    HW226379   2.880   0.427   7.325 -2.4769 -0.4679  2.3566
 4916SOL     OW26380   1.627   4.172   8.716  0.7363 -0.0761 -0.2136
 4916SOL    HW126381   1.675   4.093   8.692  0.8464 -0.4603  1.2612
 4916SOL    HW226382   1.539   4.144   8.740  1.9582 -3.1000  0.8139
 4917SOL     OW26383   2.163   0.201   2.924 -0.4338  0.3826 -0.4341
 4917SOL    HW126384   2.127   0.243   2.846  1.7861 -0.4576 -1.9362
 4917SOL    HW226385   2.254   0.226   2.905 -0.3082 -1.4956 -2.3640
 4918SOL     OW26386   2.750   0.241   7.494 -0.0732 -0.1351 -0.1504
 4918SOL    HW126387   2.699   0.198   7.425  0.2323  0.9769 -1.0776
 4918SOL    HW226388   2.701   0.222   7.574 -1.2689  1.4921 -0.5123
 4919SOL     OW26389   0.682   0.403   5.939 -0.5543  0.4176  0.1749
 4919SOL    HW126390   0.746   0.337   5.912 -1.7580 -0.4818 -0.5003
 4919SOL    HW226391   0.733   0.457   5.999 -1.4946  2.0791 -0.5416
 4920SOL     OW26392   2.028   3.497   4.169  0.7265 -0.0284 -0.0257
 4920SOL    HW126393   2.058   3.501   4.260  2.0420  0.8687 -0.5141
 4920SOL    HW226394   2.100   3.536   4.119  1.3519  2.0818  2.4933
 4921SOL     OW26395   2.580   4.671   3.541 -0.0277  0.0287  0.4577
 4921SOL    HW126396   2.595   4.627   3.458  3.8679 -0.0668  1.2007
 4921SOL    HW226397   2.600   0.019   3.502 -1.2843 -0.7121 -1.8225
 4922SOL     OW26398   4.146   0.491   7.370  0.1790  0.1947  0.3365
 4922SOL    HW126399   4.178   0.510   7.282  2.7334  1.9250  1.6517
 4922SOL    HW226400   4.109   0.577   7.390  2.4110  1.1790  0.2459
 4923SOL     OW26401   4.123   4.258   6.508 -0.1542 -0.5661 -0.1452
 4923SOL    HW126402   4.163   4.285   6.425  0.3356 -1.5757 -0.2278
 4923SOL    HW226403   4.196   4.256   6.569 -0.3704 -0.0935  0.1304
 4924SOL     OW26404   4.255   4.610  10.662  0.1629  0.5383 -0.6079
 4924SOL    HW126405   4.239   4.526  10.621 -1.4735  0.3953  0.3253
 4924SOL    HW226406   4.233   4.670  10.591  1.5130  0.6287 -0.9512
 4925SOL     OW26407   4.146   3.884   5.685 -0.8186 -0.6162  0.6273
 4925SOL    HW126408   4.224   3.828   5.691 -0.4049 -0.1045 -0.0195
 4925SOL    HW226409   4.127   3.883   5.779 -1.2985  1.4141  0.5620
 4926SOL     OW26410   1.962   2.198  12.130 -0.0055  0.2549  0.2596
 4926SOL    HW126411   1.899   2.215  12.199  0.4272  0.3713  0.6300
 4926SOL    HW226412   2.043   2.238  12.164 -0.4502 -0.1004  1.7477
 4927SOL     OW26413   3.736   1.351   4.783 -0.5797  0.9003 -0.0843
 4927SOL    HW126414   3.766   1.384   4.868 -1.4462  1.0628  0.1702
 4927SOL    HW226415   3.770   1.262   4.790 -2.7411 -0.0559 -1.7792
 4928SOL     OW26416   4.604   1.628   3.711 -0.0811  0.4203  0.3773
 4928SOL    HW126417   4.592   1.535   3.729 -1.6844  1.1846  3.4854
 4928SOL    HW226418   4.511   1.649   3.717 -0.0065  1.2580 -1.6228
 4929SOL     OW26419   2.696   3.592   0.590  0.0440  0.2382 -0.3571
 4929SOL    HW126420   2.720   3.504   0.621 -0.4641  1.3398  3.1419
 4929SOL    HW226421   2.768   3.642   0.630 -0.0907  0.3305 -0.2312
 4930SOL     OW26422   1.204   2.006  16.472  0.5955  0.5952 -0.1141
 4930SOL    HW126423   1.165   2.093  16.470 -0.1633  0.2838  1.0278
 4930SOL    HW226424   1.279   2.019  16.415  1.8000 -0.8265  1.1430
 4931SOL     OW26425   3.243   3.528  17.021  0.2828 -0.0166 -0.0555
 4931SOL    HW126426   3.233   3.439  17.054 -3.2910 -0.1340 -1.4727
 4931SOL    HW226427   3.241   3.586  17.097 -0.1227  0.9169 -0.7750
 4932SOL     OW26428   0.474   2.291   3.982  0.5480 -0.2454 -0.3132
 4932SOL    HW126429   0.460   2.199   3.962  0.7876 -0.0717 -1.2686
 4932SOL    HW226430   0.418   2.336   3.919 -0.1354 -1.2498 -0.4155
 4933SOL     OW26431   3.420   0.805   3.218  0.7106  0.0951  0.4709
 4933SOL    HW126432   3.437   0.794   3.311  0.7789  0.1084  0.4600
 4933SOL    HW226433   3.377   0.721   3.201 -0.2106  0.4323  1.1625
 4934SOL     OW26434   3.236   0.828   4.386  0.3001  0.5135 -0.0082
 4934SOL    HW126435   3.200   0.746   4.350  0.5209  0.7880 -0.8433
 4934SOL    HW226436   3.285   0.861   4.311  1.6712  0.5224  0.8809
 4935SOL     OW26437   4.539   1.757   9.194  0.1080 -0.3257  0.4291
 4935SOL    HW126438   4.454   1.717   9.176 -1.3882  2.4900  1.3770
 4935SOL    HW226439   4.546   1.754   9.289  1.5915  2.4885  0.3941
 4936SOL     OW26440   0.815   3.804   0.700  0.1696  0.3097  0.0074
 4936SOL    HW126441   0.758   3.871   0.664  0.4252  0.6368  0.2191
 4936SOL    HW226442   0.875   3.861   0.747  0.1090  0.3972 -0.0227
 4937SOL     OW26443   0.017   3.007   9.290  0.4623 -0.2028 -0.1002
 4937SOL    HW126444   4.679   3.064   9.279  0.8426  0.2117 -0.5216
 4937SOL    HW226445   4.736   2.933   9.348 -2.9452 -0.7848 -1.9112
 4938SOL     OW26446   4.480   2.741  10.791  0.3243  0.6138 -0.1076
 4938SOL    HW126447   4.487   2.645  10.793  1.1646  0.6190 -2.3150
 4938SOL    HW226448   4.561   2.773  10.752  0.3128  1.2550  0.4141
 4939SOL     OW26449   1.203   0.544   6.402  0.5659 -0.3045  0.3679
 4939SOL    HW126450   1.127   0.486   6.402 -0.5916  1.2135 -0.2353
 4939SOL    HW226451   1.264   0.495   6.346  1.0839 -0.8319  1.3955
 4940SOL     OW26452   4.556   1.104   6.419  0.0240  0.0810 -0.8000
 4940SOL    HW126453   4.651   1.099   6.402  0.1552 -1.2554  0.3521
 4940SOL    HW226454   4.543   1.171   6.486 -0.8146 -0.5861 -0.2946
 4941SOL     OW26455   1.568   1.330   3.887 -0.3782 -0.5856 -0.3098
 4941SOL    HW126456   1.658   1.352   3.862 -0.8979  1.1489 -0.6202
 4941SOL    HW226457   1.586   1.314   3.979  1.0497  1.3873 -0.2509
 4942SOL     OW26458   2.345   4.549   2.864  0.1697  1.0783 -0.1971
 4942SOL    HW126459   2.255   4.549   2.896 -0.1024 -0.6697 -0.9879
 4942SOL    HW226460   2.323   4.536   2.772  1.0756  0.7130 -0.3618
 4943SOL     OW26461   1.652   4.425   5.966  0.4271 -0.5884  0.1429
 4943SOL    HW126462   1.558   4.420   5.983  0.2773 -1.2110 -0.9083
 4943SOL    HW226463   1.653   4.416   5.870  1.5499 -0.5718  0.1503
 4944SOL     OW26464   4.034   1.921   5.734  0.8251  0.4595  0.4491
 4944SOL    HW126465   3.949   1.961   5.753  0.3377  0.6611 -2.1755
 4944SOL    HW226466   4.078   1.926   5.818 -1.4719 -0.6704  1.7221
 4945SOL     OW26467   1.588   3.012   6.698  0.0862  0.5950  0.2255
 4945SOL    HW126468   1.566   2.959   6.621  0.1293 -0.7268  1.1268
 4945SOL    HW226469   1.633   2.951   6.757 -1.0154 -0.3097  0.1097
 4946SOL     OW26470   3.969   3.745   1.850 -0.4862 -0.2297 -1.0148
 4946SOL    HW126471   3.902   3.715   1.788 -1.6920  0.7496 -0.1831
 4946SOL    HW226472   4.046   3.698   1.819 -0.2646  0.3557 -1.3643
 4947SOL     OW26473   2.742   1.385   5.585  0.1559  0.1075  0.0892
 4947SOL    HW126474   2.693   1.449   5.637 -1.6010 -0.2578 -1.0921
 4947SOL    HW226475   2.669   1.325   5.568  0.6135  0.0843 -1.8921
 4948SOL     OW26476   2.197   3.069   7.328 -0.4515  0.6170 -0.2157
 4948SOL    HW126477   2.143   3.032   7.399  0.3896 -1.0828 -0.4725
 4948SOL    HW226478   2.267   3.114   7.375  0.1835 -0.3428 -0.2324
 4949SOL     OW26479   3.330   1.915   7.734  0.4424  0.2509 -0.6705
 4949SOL    HW126480   3.398   1.851   7.754  1.7184  1.2172 -1.9222
 4949SOL    HW226481   3.365   1.997   7.768 -1.0312  0.1858  1.0411
 4950SOL     OW26482   4.220   1.478   5.778 -0.1111 -0.2500  0.1774
 4950SOL    HW126483   4.193   1.564   5.748  1.5664 -0.4670 -1.9312
 4950SOL    HW226484   4.314   1.495   5.769  0.2151 -0.9996  2.1190
 4951SOL     OW26485   2.093   3.470  14.579 -0.1377 -0.2781 -0.3713
 4951SOL    HW126486   2.009   3.465  14.533  0.7081 -2.9827 -1.6318
 4951SOL    HW226487   2.132   3.388  14.548  1.4089  0.1433  0.4501
 4952SOL     OW26488   2.756   3.816   2.389 -0.3762  0.2925 -0.0993
 4952SOL    HW126489   2.680   3.772   2.350 -1.3933  0.6125  1.5113
 4952SOL    HW226490   2.749   3.780   2.478 -3.0621  0.4871 -0.2357
 4953SOL     OW26491   3.132   4.379   0.987 -0.5359 -0.1633 -0.2543
 4953SOL    HW126492   3.137   4.328   0.907 -2.7176 -0.6481 -0.0868
 4953SOL    HW226493   3.147   4.471   0.963 -0.6780  0.3045  1.4250
 4954SOL     OW26494   0.170   3.978   4.882  0.3131 -0.2194 -0.1262
 4954SOL    HW126495   0.262   3.999   4.868 -0.5425  2.2283 -2.0118
 4954SOL    HW226496   0.182   3.890   4.919  0.9493  1.1897  3.0690
 4955SOL     OW26497   1.305   3.499  11.290  0.0243  0.0014 -0.0973
 4955SOL    HW126498   1.263   3.577  11.324 -2.0059 -1.3742  0.5190
 4955SOL    HW226499   1.231   3.448  11.257 -0.0535  0.3696 -0.4903
 4956SOL     OW26500   4.389   2.222   5.489 -0.4152  0.6600 -0.8464
 4956SOL    HW126501   4.330   2.210   5.415 -0.9082 -1.7616 -0.0614
 4956SOL    HW226502   4.471   2.214   5.439 -0.3262 -1.6611 -0.2954
 4957SOL     OW26503   0.811   1.692  17.067 -0.5958 -0.1778 -0.2606
 4957SOL    HW126504   0.895   1.691  17.023 -0.7596 -0.7804 -0.5569
 4957SOL    HW226505   0.761   1.657  16.993 -1.1426 -0.6662  0.3259
 4958SOL     OW26506   4.144   3.672   8.620 -0.0264 -0.3095 -0.8122
 4958SOL    HW126507   4.231   3.652   8.586  0.0826 -0.5772 -0.3813
 4958SOL    HW226508   4.087   3.612   8.572  1.0846 -1.6109 -0.4826
 4959SOL     OW26509   0.011   3.398   7.944  0.0392  0.2860  0.2823
 4959SOL    HW126510   0.032   3.485   7.911 -0.2446 -0.8516 -2.8238
 4959SOL    HW226511   4.679   3.362   7.890 -0.4418 -0.2990  1.2865
 4960SOL     OW26512   4.002   0.559  13.945 -0.0489 -0.4646  0.4834
 4960SOL    HW126513   3.915   0.588  13.972 -0.9962 -0.7545 -2.2956
 4960SOL    HW226514   4.009   0.476  13.992 -0.0633 -0.7229  0.0269
 4961SOL     OW26515   2.374   4.521   2.190 -0.4641  0.2731  0.0074
 4961SOL    HW126516   2.385   4.483   2.277  0.1834 -0.4194 -0.3829
 4961SOL    HW226517   2.419   4.456   2.136 -0.7108 -0.0715  0.2145
 4962SOL     OW26518   4.125   0.840   6.146 -0.3530 -0.1540 -0.2752
 4962SOL    HW126519   4.162   0.919   6.184 -0.9160 -0.5440  1.1127
 4962SOL    HW226520   4.110   0.782   6.221 -1.4242  3.9223  2.6615
 4963SOL     OW26521   2.317   1.763   3.229 -0.5211  0.2276 -0.1163
 4963SOL    HW126522   2.411   1.756   3.216 -0.5666  1.3643 -0.9924
 4963SOL    HW226523   2.288   1.745   3.139 -0.7503  0.6986 -0.1366
 4964SOL     OW26524   3.615   2.491   8.453  0.3447  0.1596  0.1730
 4964SOL    HW126525   3.560   2.475   8.376  1.3915  0.2623 -0.6006
 4964SOL    HW226526   3.559   2.468   8.527  2.0293 -2.4663  0.6397
 4965SOL     OW26527   3.263   3.434   0.730  0.3183  0.0421  0.3359
 4965SOL    HW126528   3.341   3.488   0.742 -0.5718  1.7589 -1.6334
 4965SOL    HW226529   3.265   3.431   0.634  0.7633  0.4373  0.3331
 4966SOL     OW26530   3.368   3.486   1.406 -0.8136  0.7278 -0.1486
 4966SOL    HW126531   3.459   3.456   1.409 -0.5379  1.3510 -1.8337
 4966SOL    HW226532   3.361   3.522   1.318 -0.0542  0.5244 -0.2981
 4967SOL     OW26533   3.478   2.048  14.832 -0.5593  0.3212  0.0895
 4967SOL    HW126534   3.484   1.962  14.874 -0.9003  1.4235  2.4242
 4967SOL    HW226535   3.416   2.037  14.760  1.5655 -2.6242 -1.2603
 4968SOL     OW26536   0.689   1.092  16.077 -0.4009  0.1768 -0.4808
 4968SOL    HW126537   0.702   1.179  16.040  1.1197 -0.4380 -1.4071
 4968SOL    HW226538   0.656   1.049  15.998  0.5124  0.8197 -1.2116
 4969SOL     OW26539   3.368   2.067   3.384 -0.8123 -0.0478 -0.3358
 4969SOL    HW126540   3.312   2.145   3.376 -0.3696  0.3260  0.1666
 4969SOL    HW226541   3.338   2.009   3.314  0.0631 -0.1434 -0.6357
 4970SOL     OW26542   4.109   2.901   4.957  0.1392 -0.2870 -0.0782
 4970SOL    HW126543   4.057   2.917   4.879  0.0830  0.8035  0.1783
 4970SOL    HW226544   4.099   2.807   4.969 -0.5912 -0.0925  0.8754
 4971SOL     OW26545   2.154   0.936   7.024 -0.1365  0.2145 -0.0040
 4971SOL    HW126546   2.066   0.975   7.026 -0.5639 -0.8181  2.0840
 4971SOL    HW226547   2.126   0.846   7.007  2.9422 -0.1995 -2.7905
 4972SOL     OW26548   3.256   4.338   1.492  0.3142  0.1950  0.4351
 4972SOL    HW126549   3.202   4.395   1.438 -0.8405 -0.2067  1.1736
 4972SOL    HW226550   3.328   4.301   1.441 -0.2270 -0.3910  0.0951
 4973SOL     OW26551   0.197   4.074  13.588  0.4271  0.4233  0.2328
 4973SOL    HW126552   0.195   4.085  13.683 -0.5500 -1.9332  0.4919
 4973SOL    HW226553   0.227   4.159  13.557  1.5138 -0.7736 -2.0266
 4974SOL     OW26554   3.910   0.443   7.986  0.5195  0.6880  0.9135
 4974SOL    HW126555   3.837   0.401   8.031  0.5373  1.2446  1.4538
 4974SOL    HW226556   3.976   0.414   8.049  0.6612  2.9050  1.7594
 4975SOL     OW26557   2.517   1.936   3.624  0.3138 -0.4552 -0.1828
 4975SOL    HW126558   2.553   1.867   3.568  0.7486 -1.7106  1.6207
 4975SOL    HW226559   2.431   1.896   3.633  1.6100 -3.2172 -0.0732
 4976SOL     OW26560   1.107   0.338   9.479 -0.0532 -0.5711  0.1414
 4976SOL    HW126561   1.186   0.290   9.457  0.8040  1.0958 -0.4133
 4976SOL    HW226562   1.085   0.287   9.557 -0.7411 -3.4417 -1.9261
 4977SOL     OW26563   3.627   0.639   8.774  0.0363 -0.0123  0.4741
 4977SOL    HW126564   3.667   0.725   8.787  2.6147 -0.6222 -3.1887
 4977SOL    HW226565   3.702   0.596   8.733 -1.2666 -2.1672  0.3150
 4978SOL     OW26566   4.378   0.771   4.960 -0.1771  0.0716 -0.4569
 4978SOL    HW126567   4.290   0.792   4.928  0.1252  0.2232 -1.1848
 4978SOL    HW226568   4.353   0.710   5.029 -1.4109 -0.4805 -1.3978
 4979SOL     OW26569   0.174   0.576   8.957  0.5556 -1.2102 -0.0179
 4979SOL    HW126570   0.153   0.631   9.032  1.2015 -0.7106 -0.2051
 4979SOL    HW226571   0.174   0.488   8.995  1.4800 -1.0169  0.4342
 4980SOL     OW26572   4.150   4.221   6.974 -0.3173  0.8377 -0.1092
 4980SOL    HW126573   4.160   4.160   6.901  2.1559 -2.2875  2.8433
 4980SOL    HW226574   4.099   4.167   7.035  1.2935 -0.0140  0.4926
 4981SOL     OW26575   1.794   1.455   7.955 -0.5418  0.2162 -0.0596
 4981SOL    HW126576   1.730   1.525   7.966  0.8720  1.2722  1.5311
 4981SOL    HW226577   1.754   1.376   7.991 -1.3008  0.8385  0.4572
 4982SOL     OW26578   1.687   1.608   6.954 -0.2629  0.5541  0.0131
 4982SOL    HW126579   1.625   1.594   7.025 -0.1330 -1.3496 -0.2379
 4982SOL    HW226580   1.771   1.625   6.996 -0.0775 -1.4569  0.4727
 4983SOL     OW26581   3.887   0.990   2.455 -0.2474 -0.8769 -0.4079
 4983SOL    HW126582   3.982   0.986   2.468 -0.0885  0.4909 -1.2329
 4983SOL    HW226583   3.875   0.896   2.438 -1.7049 -0.4717 -1.5671
 4984SOL     OW26584   3.025   3.106   2.332 -0.0036  0.3879  0.3214
 4984SOL    HW126585   3.109   3.087   2.290  0.0253  3.5533 -1.0321
 4984SOL    HW226586   3.004   3.187   2.286 -0.0927  0.9530  1.3682
 4985SOL     OW26587   0.070   2.264  13.147 -0.2845  0.0545 -0.2615
 4985SOL    HW126588   0.143   2.319  13.119  0.5799 -1.6173 -1.2603
 4985SOL    HW226589   0.015   2.263  13.069 -0.2192  0.8072 -0.3186
 4986SOL     OW26590   0.489   1.051   2.558 -0.1543  0.2396 -0.0370
 4986SOL    HW126591   0.507   1.135   2.599 -0.1356  0.2677 -0.1036
 4986SOL    HW226592   0.406   1.071   2.513  0.0336 -0.3875 -0.6680
 4987SOL     OW26593   1.288   3.673   7.708  0.4712  0.0562  0.0227
 4987SOL    HW126594   1.339   3.692   7.786 -0.9400 -0.0050  0.9619
 4987SOL    HW226595   1.266   3.582   7.728  0.3653 -0.3348 -1.8407
 4988SOL     OW26596   2.322   3.567   1.714 -0.6193  0.6061 -0.2915
 4988SOL    HW126597   2.410   3.547   1.745 -1.3009  0.6024  1.6821
 4988SOL    HW226598   2.316   3.662   1.730  0.0412  0.7331 -0.8177
 4989SOL     OW26599   1.114   1.174   8.577  0.2085 -0.0650  0.0589
 4989SOL    HW126600   1.207   1.196   8.572  0.5706 -1.4851  0.4097
 4989SOL    HW226601   1.089   1.181   8.485 -0.7832  0.8279  0.4012
 4990SOL     OW26602   0.039   0.488   5.346 -0.2091  0.1518  0.8812
 4990SOL    HW126603   0.015   0.568   5.392  0.3122  1.4318 -1.0595
 4990SOL    HW226604   4.696   0.441   5.365 -0.1807 -1.2582 -2.5386
 4991SOL     OW26605   2.562   2.371  15.539  0.4663  0.4467  0.6811
 4991SOL    HW126606   2.594   2.283  15.560  0.0414  0.3602  0.9561
 4991SOL    HW226607   2.553   2.421  15.619 -0.3704 -0.2926  1.0490
 4992SOL     OW26608   0.748   0.463   9.656  0.4806 -0.3050  0.0916
 4992SOL    HW126609   0.798   0.460   9.574  0.9168 -1.4225  0.3905
 4992SOL    HW226610   0.729   0.557   9.652 -0.6765 -0.3778  4.2681
 4993SOL     OW26611   1.108   0.012  15.976 -0.1896  0.0847 -0.8030
 4993SOL    HW126612   1.201   4.736  15.958  0.2295 -0.4446  1.7023
 4993SOL    HW226613   1.084   0.059  15.896  0.4255 -0.5257 -1.3480
 4994SOL     OW26614   4.315   3.622   9.074  0.6383 -0.0308 -0.0561
 4994SOL    HW126615   4.273   3.627   8.989  0.5147 -2.0899 -0.1152
 4994SOL    HW226616   4.239   3.643   9.129  1.8790 -0.2795  1.7438
 4995SOL     OW26617   3.596   1.852   3.090 -0.4233  0.1750  0.3847
 4995SOL    HW126618   3.518   1.904   3.075  0.9247  1.6544 -1.5112
 4995SOL    HW226619   3.656   1.889   3.025  2.9460 -1.0445  2.7559
 4996SOL     OW26620   3.852   0.010   2.467 -0.0151 -0.1722  0.0506
 4996SOL    HW126621   3.869   0.061   2.389 -0.0172 -1.6439 -0.9124
 4996SOL    HW226622   3.852   4.662   2.424  2.6225  0.0430 -0.3706
 4997SOL     OW26623   1.300   2.064  16.853 -0.0997 -0.4404 -0.0061
 4997SOL    HW126624   1.295   2.094  16.944 -1.0386 -0.3934 -0.0780
 4997SOL    HW226625   1.217   2.101  16.825  0.2363  0.6303  0.4384
 4998SOL     OW26626   1.096   3.288   8.332  0.2019 -0.1814  0.2645
 4998SOL    HW126627   1.158   3.318   8.399 -1.8143  3.2247  0.6127
 4998SOL    HW226628   1.055   3.214   8.376 -0.8126 -0.6775 -1.5209
 4999SOL     OW26629   2.904   1.463  17.052 -0.0320  0.5776 -0.0570
 4999SOL    HW126630   2.869   1.542  17.011 -0.5852  0.2107 -0.2863
 4999SOL    HW226631   2.978   1.440  16.995 -1.3441  0.0399 -1.5320
 5000SOL     OW26632   2.488   3.359   2.947  0.4445 -0.2826 -0.0005
 5000SOL    HW126633   2.456   3.282   2.993 -2.2628 -0.4337 -2.1506
 5000SOL    HW226634   2.516   3.418   3.018 -1.7793  1.1621 -0.3248
 5001SOL     OW26635   2.595   1.667  15.767 -0.6790 -0.2322  0.3218
 5001SOL    HW126636   2.509   1.652  15.806 -0.2387  0.2915  1.4660
 5001SOL    HW226637   2.626   1.732  15.830  1.0276 -1.1422  0.4230
 5002SOL     OW26638   1.549   4.516   1.792 -0.2270  0.1039 -0.2154
 5002SOL    HW126639   1.600   4.520   1.711  0.3516 -0.8183  0.1094
 5002SOL    HW226640   1.523   4.607   1.807  1.9827  0.4851  1.4317
 5003SOL     OW26641   4.050   4.091   8.222 -0.7839  0.1611 -0.0874
 5003SOL    HW126642   4.034   4.156   8.154 -0.2686 -0.0384 -0.3983
 5003SOL    HW226643   4.028   4.006   8.183 -0.0523 -0.1490  0.1825
 5004SOL     OW26644   1.919   2.962  14.627 -0.7788  0.7798 -0.3712
 5004SOL    HW126645   2.010   2.939  14.645 -1.0601  0.3560  0.5156
 5004SOL    HW226646   1.904   2.922  14.542 -1.4733 -0.1575  0.1857
 5005SOL     OW26647   2.466   0.826   4.032  0.2978  0.0933  0.2159
 5005SOL    HW126648   2.553   0.787   4.035 -0.6775 -2.4546 -3.8138
 5005SOL    HW226649   2.450   0.822   4.126 -0.9037 -0.2152 -0.0005
 5006SOL     OW26650   2.473   3.851  16.509 -0.0999 -0.3975  0.3926
 5006SOL    HW126651   2.523   3.769  16.512 -1.2862 -1.1427 -0.0290
 5006SOL    HW226652   2.475   3.863  16.415 -2.0062 -1.3737  0.2119
 5007SOL     OW26653   0.958   1.392   2.446 -0.7722  0.0834  0.1469
 5007SOL    HW126654   0.950   1.455   2.374 -0.6455  2.1287  1.9540
 5007SOL    HW226655   1.003   1.442   2.514  1.6934  0.1483 -1.5271
 5008SOL     OW26656   2.794   0.289   8.143 -0.4003 -0.0830 -0.3117
 5008SOL    HW126657   2.702   0.293   8.116 -0.0735 -0.6467 -1.4893
 5008SOL    HW226658   2.787   0.308   8.237  0.2786 -0.5652 -0.1599
 5009SOL     OW26659   4.701   4.397   8.504  0.6078 -0.0199 -0.5078
 5009SOL    HW126660   4.628   4.455   8.482  0.0593 -0.3193  0.5193
 5009SOL    HW226661   4.731   4.401   8.413 -0.2975 -0.5750 -0.8320
 5010SOL     OW26662   4.583   3.133   8.634 -0.5852 -0.2964  0.4154
 5010SOL    HW126663   4.675   3.133   8.608 -1.5792  1.2039 -3.0854
 5010SOL    HW226664   4.552   3.216   8.599 -0.8190 -0.8828 -0.7856
 5011SOL     OW26665   0.715   0.943   2.674 -0.6772  0.4265 -0.1244
 5011SOL    HW126666   0.622   0.958   2.657 -1.0628 -0.9123  0.7782
 5011SOL    HW226667   0.746   1.029   2.644 -1.1912  1.4730  2.3944
 5012SOL     OW26668   2.937   0.273   5.328  0.1037  0.3921 -0.1027
 5012SOL    HW126669   2.887   0.338   5.278  0.0518 -0.6286 -1.3557
 5012SOL    HW226670   2.903   0.295   5.415 -0.1836  0.1985 -0.1664
 5013SOL     OW26671   3.646   1.888  12.546 -0.4129  0.1810  0.4043
 5013SOL    HW126672   3.669   1.795  12.558 -1.5852 -0.2223 -0.4280
 5013SOL    HW226673   3.560   1.882  12.505 -0.3542 -3.1152  0.7323
 5014SOL     OW26674   2.297   2.222  13.203 -0.3305 -0.5576  0.2172
 5014SOL    HW126675   2.353   2.156  13.162 -2.1798 -2.6758  1.1577
 5014SOL    HW226676   2.313   2.302  13.152  1.5382 -0.9884  0.1076
 5015SOL     OW26677   0.929   0.581   2.895  0.3394  0.1816 -0.1012
 5015SOL    HW126678   0.900   0.646   2.959 -2.1944 -0.7293 -0.2944
 5015SOL    HW226679   1.021   0.596   2.877  0.3355 -0.2313 -0.4608
 5016SOL     OW26680   1.176   2.960  12.615 -0.2446 -0.7902 -0.5998
 5016SOL    HW126681   1.211   3.049  12.605 -3.3310  0.6079  1.0245
 5016SOL    HW226682   1.118   2.970  12.690 -0.2273 -0.9379 -0.5676
 5017SOL     OW26683   0.305   1.145   0.972 -0.0998  0.4355  0.0865
 5017SOL    HW126684   0.333   1.155   1.063 -0.0936  0.1828  0.1133
 5017SOL    HW226685   0.305   1.049   0.972  0.9839  0.4404 -0.8110
 5018SOL     OW26686   1.285   4.268   4.487  0.6828 -0.0425  0.1191
 5018SOL    HW126687   1.196   4.293   4.513  0.0745 -2.1697  0.0856
 5018SOL    HW226688   1.289   4.267   4.392  0.6021  0.3387  0.1124
 5019SOL     OW26689   1.396   1.758  10.096 -0.5812  0.7559  0.0289
 5019SOL    HW126690   1.328   1.694  10.076  0.3394 -0.8874  2.2155
 5019SOL    HW226691   1.438   1.710  10.166  1.7126  3.2644  0.3738
 5020SOL     OW26692   3.554   1.323   5.184 -0.1368 -0.1296 -0.6676
 5020SOL    HW126693   3.624   1.362   5.132 -0.8617  1.4444 -0.4661
 5020SOL    HW226694   3.599   1.254   5.232 -1.2119 -1.5613 -1.6998
 5021SOL     OW26695   1.661   1.901   3.177 -0.4814 -0.2183  0.1454
 5021SOL    HW126696   1.589   1.861   3.127  1.3289  1.4624 -3.8298
 5021SOL    HW226697   1.743   1.866   3.141 -0.8255  0.2396 -1.0860
 5022SOL     OW26698   2.748   2.002   8.372  0.6548  0.2701 -0.0262
 5022SOL    HW126699   2.769   1.921   8.419  0.1015  1.0230  1.5353
 5022SOL    HW226700   2.654   1.986   8.364  0.8400 -0.6473 -0.4347
 5023SOL     OW26701   1.634   2.944   4.631  0.2746 -0.0491 -0.6088
 5023SOL    HW126702   1.636   3.032   4.595 -2.7958 -0.0574 -0.7779
 5023SOL    HW226703   1.551   2.904   4.607  0.6420 -1.7680  0.9193
 5024SOL     OW26704   0.510   4.697  12.546  0.4442  1.4612  1.5976
 5024SOL    HW126705   0.429   4.732  12.582 -1.9971  0.3300 -2.7406
 5024SOL    HW226706   0.488   4.620  12.494  0.1963  2.1730  0.6584
 5025SOL     OW26707   2.954   2.490   1.816  0.3858  0.8575 -0.0981
 5025SOL    HW126708   2.990   2.540   1.742  0.4593  1.5959  0.4330
 5025SOL    HW226709   3.029   2.495   1.875 -0.3820  1.2159  0.8474
 5026SOL     OW26710   0.061   0.254   7.597  0.0036 -0.0953 -0.6712
 5026SOL    HW126711   0.027   0.190   7.535  1.6680 -2.2326  0.6530
 5026SOL    HW226712   0.150   0.275   7.568 -0.4117  2.3142 -0.1973
 5027SOL     OW26713   3.842   0.102   8.263  0.1782 -0.0700  0.5310
 5027SOL    HW126714   3.770   0.088   8.325  0.4485  0.6718  1.0129
 5027SOL    HW226715   3.923   0.102   8.314  0.6072 -0.5370 -0.1580
 5028SOL     OW26716   1.128   4.500   8.312 -0.1663 -0.3084  0.7555
 5028SOL    HW126717   1.132   4.415   8.269 -0.0068  0.6734 -1.1862
 5028SOL    HW226718   1.205   4.499   8.370  0.9941 -0.5703 -0.7898
 5029SOL     OW26719   4.734   3.250   1.824  0.1548 -0.0541  0.5653
 5029SOL    HW126720   0.020   3.269   1.914  2.6331 -0.1798 -0.0577
 5029SOL    HW226721   0.079   3.245   1.776  0.6976 -1.7957  1.6803
 5030SOL     OW26722   2.527   2.651  16.688 -0.7218  0.7061  0.1918
 5030SOL    HW126723   2.539   2.716  16.619 -0.7471  0.0298 -0.4445
 5030SOL    HW226724   2.506   2.706  16.764 -0.9573 -0.2461  0.8189
 5031SOL     OW26725   2.014   3.068   8.802 -0.4227  0.3467  0.3725
 5031SOL    HW126726   2.056   3.059   8.887 -0.8558 -1.2950  0.4117
 5031SOL    HW226727   2.084   3.042   8.742  1.8818 -0.1139  3.2532
 5032SOL     OW26728   1.543   3.246   4.560 -0.5807  0.0087 -0.4196
 5032SOL    HW126729   1.478   3.269   4.627  1.4047 -2.0606  2.1762
 5032SOL    HW226730   1.481   3.224   4.490 -1.0104 -2.6965  0.8286
 5033SOL     OW26731   3.240   3.111   6.824 -0.3243  0.4939 -0.1195
 5033SOL    HW126732   3.239   3.035   6.881  2.5879 -0.1489 -0.8949
 5033SOL    HW226733   3.262   3.175   6.892  1.3828 -0.2781  0.0598
 5034SOL     OW26734   3.453   1.577   1.347 -0.1860 -0.2065  0.2739
 5034SOL    HW126735   3.484   1.590   1.437  0.7254 -0.2399 -0.0276
 5034SOL    HW226736   3.454   1.482   1.356  1.0297 -0.0944  1.4507
 5035SOL     OW26737   2.862   2.332   1.268 -0.3865  0.5470  0.8608
 5035SOL    HW126738   2.829   2.387   1.339  0.5516  1.8465  0.2902
 5035SOL    HW226739   2.925   2.280   1.319  1.0830 -0.3566 -1.8300
 5036SOL     OW26740   0.596   4.545  12.127  0.5157  0.1753  0.4255
 5036SOL    HW126741   0.598   4.462  12.079 -2.3019 -0.6783  1.7574
 5036SOL    HW226742   0.650   4.600  12.070 -0.7337 -0.2919 -1.2011
 5037SOL     OW26743   3.422   3.727   5.899  0.5818 -0.2923  0.1716
 5037SOL    HW126744   3.400   3.646   5.854  0.1727 -0.1101  0.0369
 5037SOL    HW226745   3.342   3.779   5.885  2.0187  1.7393 -0.5245
 5038SOL     OW26746   0.083   1.532   2.879 -0.6219  0.2469  0.1826
 5038SOL    HW126747   0.098   1.604   2.941 -0.8793  1.9048 -1.6718
 5038SOL    HW226748   0.053   1.468   2.943  0.2567 -0.9048 -0.5568
 5039SOL     OW26749   2.859   2.983   4.551 -0.4673  0.1123 -0.0929
 5039SOL    HW126750   2.866   3.077   4.537  1.1334  0.0153  0.0390
 5039SOL    HW226751   2.928   2.952   4.492 -0.4674 -2.5680  1.2740
 5040SOL     OW26752   2.981   1.001   8.476  0.1784  0.4567  0.2016
 5040SOL    HW126753   2.974   0.992   8.571  0.2536  4.0840  0.5350
 5040SOL    HW226754   3.047   0.932   8.468 -0.0907  0.0959  1.0263
 5041SOL     OW26755   1.782   0.727  12.145 -0.6738 -0.6689 -0.2038
 5041SOL    HW126756   1.732   0.759  12.069 -1.0287 -1.4198 -0.2901
 5041SOL    HW226757   1.735   0.756  12.223 -2.2607 -1.3437 -0.8950
 5042SOL     OW26758   3.927   0.823   2.092 -0.2714  0.3152 -0.2822
 5042SOL    HW126759   3.919   0.885   2.019  1.2923 -0.1847 -0.8875
 5042SOL    HW226760   3.839   0.797   2.118 -0.3583  0.0539 -0.8306
 5043SOL     OW26761   1.586   1.719   4.581  0.2540 -0.0151  0.2567
 5043SOL    HW126762   1.616   1.654   4.644  1.1726 -1.1640 -1.3560
 5043SOL    HW226763   1.607   1.673   4.499 -0.7560 -0.3375  0.1729
 5044SOL     OW26764   3.347   2.664  10.993 -0.5297  0.0843  0.5383
 5044SOL    HW126765   3.278   2.606  11.025 -3.1386  1.2690 -2.8867
 5044SOL    HW226766   3.318   2.684  10.904 -1.1583  0.7811  0.9100
 5045SOL     OW26767   3.018   3.226   8.756 -0.6157  0.1208  0.3936
 5045SOL    HW126768   2.981   3.165   8.693 -1.7338 -0.9338  2.0633
 5045SOL    HW226769   3.063   3.293   8.705  1.4691 -2.2503 -0.8145
 5046SOL     OW26770   3.183   2.146   5.388  0.7299 -0.0481  0.3457
 5046SOL    HW126771   3.111   2.112   5.441  1.1122  1.5541  1.8973
 5046SOL    HW226772   3.227   2.205   5.449  2.9571  0.3487 -1.6079
 5047SOL     OW26773   2.821   4.587   1.564 -0.5162  0.1293 -0.4401
 5047SOL    HW126774   2.751   4.590   1.629  2.0662 -1.3542  2.3943
 5047SOL    HW226775   2.838   4.682   1.563 -3.2593  0.6446  0.6025
 5048SOL     OW26776   2.950   3.151   4.209 -0.4251  0.1103  0.0592
 5048SOL    HW126777   2.856   3.132   4.205 -0.4346  0.0185  0.8585
 5048SOL    HW226778   2.947   3.245   4.192 -0.6819  0.0012 -0.5072
 5049SOL     OW26779   0.220   1.800  13.456  0.3196 -0.1564 -0.4231
 5049SOL    HW126780   0.144   1.830  13.505  1.8128  0.2030  1.6247
 5049SOL    HW226781   0.200   1.708  13.437 -2.7189 -0.0544  2.4044
 5050SOL     OW26782   1.180   0.810   9.726 -0.0768  0.0355  0.3662
 5050SOL    HW126783   1.180   0.715   9.737 -0.1885 -0.0095 -0.0060
 5050SOL    HW226784   1.236   0.815   9.648 -0.6708  2.9058  0.1298
 5051SOL     OW26785   3.047   3.017   0.625 -0.3678  1.0476  0.4328
 5051SOL    HW126786   3.067   3.048   0.536 -1.6944 -0.7469 -0.5098
 5051SOL    HW226787   3.114   2.955   0.653  0.0074  0.1716 -2.3633
 5052SOL     OW26788   2.445   3.865  13.904  0.5029 -0.3086 -0.4306
 5052SOL    HW126789   2.440   3.775  13.872  0.7580  0.2618 -2.1016
 5052SOL    HW226790   2.402   3.918  13.837 -1.3160 -1.1280  0.0820
 5053SOL     OW26791   1.475   2.078  16.399 -0.0129 -0.0676 -0.2526
 5053SOL    HW126792   1.556   2.129  16.404  0.0942 -0.2696  0.1274
 5053SOL    HW226793   1.440   2.115  16.319  2.0711  1.1894 -0.5718
 5054SOL     OW26794   1.488   1.123   3.055  0.4096 -0.3067 -0.1992
 5054SOL    HW126795   1.570   1.138   3.102  0.6249 -2.3774  0.1117
 5054SOL    HW226796   1.479   1.030   3.075  1.2990 -0.7390 -1.7922
 5055SOL     OW26797   1.161   1.398   4.052 -0.1515  0.1827  0.2946
 5055SOL    HW126798   1.146   1.482   4.008  0.5601  0.1142 -0.0724
 5055SOL    HW226799   1.213   1.350   3.988 -0.6070  0.8314 -0.5659
 5056SOL     OW26800   2.683   2.687   8.090 -0.1380  0.3436 -0.2506
 5056SOL    HW126801   2.655   2.596   8.078 -2.7596  1.1824 -0.6401
 5056SOL    HW226802   2.632   2.724   8.162  1.3766 -0.9719  1.4728
 5057SOL     OW26803   0.753   2.501   4.197  0.2815 -0.3864 -0.1043
 5057SOL    HW126804   0.703   2.527   4.274  0.3969 -0.1268 -0.1169
 5057SOL    HW226805   0.685   2.537   4.139  1.1186  1.9644  0.3785
 5058SOL     OW26806   4.414   3.987   8.195  0.3518  0.2765  0.1920
 5058SOL    HW126807   4.403   4.020   8.106 -3.4363 -1.4198  0.0044
 5058SOL    HW226808   4.361   4.053   8.239 -1.6740 -2.0966  1.3200
 5059SOL     OW26809   3.412   1.762   5.611  0.2906 -0.5728  0.1257
 5059SOL    HW126810   3.317   1.759   5.598  0.2503  2.2614 -0.3604
 5059SOL    HW226811   3.407   1.749   5.706 -0.8990 -0.4364  0.0887
 5060SOL     OW26812   2.016   0.740  17.318  0.0606 -0.5719  0.4278
 5060SOL    HW126813   2.102   0.769  17.350  0.6529 -1.2371 -0.5542
 5060SOL    HW226814   1.980   0.709  17.401  2.2855 -0.7625  1.3273
 5061SOL     OW26815   4.308   3.068  17.530 -0.4725  0.1915  0.1844
 5061SOL    HW126816   4.265   2.999  17.581  2.3143 -1.4535  0.2735
 5061SOL    HW226817   4.291   3.147  17.582 -1.8782  0.4908 -0.6947
 5062SOL     OW26818   4.047   3.483   8.049  0.8294  0.5440 -0.0535
 5062SOL    HW126819   4.071   3.390   8.047  1.2330  0.5718  4.1088
 5062SOL    HW226820   4.113   3.521   8.106  1.4148 -1.1205  0.3767
 5063SOL     OW26821   3.849   4.565   7.286 -0.6920 -0.4355  0.1144
 5063SOL    HW126822   3.781   4.531   7.345 -2.7873  1.0751 -1.4477
 5063SOL    HW226823   3.846   4.497   7.219  0.2539 -0.5374  0.1704
 5064SOL     OW26824   0.794   4.558  16.200 -0.0737 -0.3877 -0.1610
 5064SOL    HW126825   0.784   4.482  16.142 -1.4422 -1.7770  1.8746
 5064SOL    HW226826   0.889   4.567  16.209  0.1803 -1.7694 -1.4759
 5065SOL     OW26827   1.186   3.495  15.753  0.3642  0.4494  0.0340
 5065SOL    HW126828   1.225   3.463  15.834 -0.0944  2.3547  1.0051
 5065SOL    HW226829   1.114   3.434  15.737  3.1133 -2.1479 -2.4861
 5066SOL     OW26830   0.436   0.467   6.069  0.3406  0.3342 -0.1784
 5066SOL    HW126831   0.525   0.440   6.048  1.0584 -0.3722  3.6553
 5066SOL    HW226832   0.430   0.548   6.019 -0.5920  1.7335  2.1869
 5067SOL     OW26833   2.470   4.693   9.530  0.3270  0.4124  0.2950
 5067SOL    HW126834   2.535   4.700   9.600 -0.1838  0.5686  0.7541
 5067SOL    HW226835   2.513   0.006   9.461 -0.7024 -1.9226 -2.0754
 5068SOL     OW26836   3.746   3.582   1.733  0.4913  0.5745  0.1875
 5068SOL    HW126837   3.743   3.508   1.794 -0.6142  0.8188  0.4387
 5068SOL    HW226838   3.654   3.583   1.707  0.8986  1.4819 -1.2556
 5069SOL     OW26839   0.402   0.243   0.717 -0.1681  0.5047  0.4286
 5069SOL    HW126840   0.405   0.246   0.813  0.1602 -0.9769  0.4719
 5069SOL    HW226841   0.323   0.193   0.696 -0.6066  0.9233  1.0661
 5070SOL     OW26842   0.427   4.704  15.339  0.0218 -0.1329 -0.0138
 5070SOL    HW126843   0.365   4.632  15.329  0.7362 -0.6490 -0.6917
 5070SOL    HW226844   0.442   4.699  15.434  2.1329  0.4061 -0.3204
 5071SOL     OW26845   4.301   2.271   8.034  0.3271  0.5959  0.5754
 5071SOL    HW126846   4.281   2.316   7.952 -1.0874  0.4472  0.8369
 5071SOL    HW226847   4.229   2.208   8.040  1.7218 -1.0189  0.3319
 5072SOL     OW26848   1.418   1.398   6.983 -0.1724 -0.2704  0.1437
 5072SOL    HW126849   1.361   1.323   6.997  1.1380 -1.2872 -0.0040
 5072SOL    HW226850   1.480   1.384   7.054  0.4378  1.5817 -0.0261
 5073SOL     OW26851   2.145   4.434   5.836  0.6402 -0.2553 -0.0780
 5073SOL    HW126852   2.192   4.415   5.917 -0.7184  0.0144  0.7758
 5073SOL    HW226853   2.117   4.524   5.851  1.8426 -0.1762  1.6251
 5074SOL     OW26854   1.324   4.149   9.506  0.0354  0.5725  0.6780
 5074SOL    HW126855   1.289   4.201   9.434  1.9875  0.3356 -0.4253
 5074SOL    HW226856   1.256   4.153   9.574  0.9453  1.2731  1.5459
 5075SOL     OW26857   0.923   1.542   4.860  0.7200 -0.0611  1.1972
 5075SOL    HW126858   0.890   1.454   4.881  0.0025  0.2107  1.1956
 5075SOL    HW226859   0.846   1.569   4.810  1.9543  1.5252  0.1769
 5076SOL     OW26860   2.696   1.823   4.849  0.2112  0.0002  0.4795
 5076SOL    HW126861   2.731   1.909   4.824  1.1370  0.1064  2.1438
 5076SOL    HW226862   2.710   1.834   4.943 -3.6771 -0.5898  1.1199
 5077SOL     OW26863   3.775   2.494  15.770  0.1949  0.6476 -0.1019
 5077SOL    HW126864   3.777   2.448  15.854  0.3489 -1.5668 -1.3304
 5077SOL    HW226865   3.742   2.580  15.796  1.0940  0.9810 -0.0648
 5078SOL     OW26866   3.959   2.719   6.238 -0.2199  0.3281  0.1270
 5078SOL    HW126867   3.917   2.799   6.206 -2.3805 -0.8672  0.0373
 5078SOL    HW226868   4.041   2.727   6.189 -0.2459 -1.8725 -0.2535
 5079SOL     OW26869   2.538   4.465   3.753  0.6367  0.3277 -0.1006
 5079SOL    HW126870   2.468   4.475   3.689 -0.3079 -1.9433  0.5540
 5079SOL    HW226871   2.618   4.482   3.703  2.9150 -2.4648  2.5023
 5080SOL     OW26872   2.703   3.963   7.935 -0.2923  0.2139  0.0172
 5080SOL    HW126873   2.744   3.884   7.901  1.0799  0.0153  2.1083
 5080SOL    HW226874   2.679   3.942   8.025  2.7459  1.6801  1.1533
 5081SOL     OW26875   3.370   2.069   4.961 -0.4809  0.3647 -0.1962
 5081SOL    HW126876   3.287   2.118   4.962 -0.5011  0.2612  2.2150
 5081SOL    HW226877   3.368   2.031   4.873  0.0705  1.9847 -0.9272
 5082SOL     OW26878   1.264   2.153   6.249  0.4443  0.0238  0.2676
 5082SOL    HW126879   1.182   2.104   6.241  1.3879 -1.4083 -0.6297
 5082SOL    HW226880   1.240   2.234   6.294 -0.5258  0.4004 -0.9278
 5083SOL     OW26881   0.774   2.240   6.552  0.2616  0.3468  0.0729
 5083SOL    HW126882   0.852   2.285   6.586  1.2228 -1.9220  0.8583
 5083SOL    HW226883   0.802   2.231   6.460  0.3226  0.3722  0.0887
 5084SOL     OW26884   3.534   2.681   4.581  0.7257 -0.4242  0.7948
 5084SOL    HW126885   3.583   2.758   4.613  1.8386 -1.3922  1.4208
 5084SOL    HW226886   3.481   2.717   4.510  2.1590 -0.3459 -0.2424
 5085SOL     OW26887   3.154   4.119   8.675 -0.3160 -0.4450 -0.0696
 5085SOL    HW126888   3.098   4.137   8.751 -0.2971 -0.5739 -0.0260
 5085SOL    HW226889   3.098   4.079   8.608 -0.9007  0.2535 -0.0016
 5086SOL     OW26890   2.026   0.763   0.824 -0.0474 -0.6725 -0.0212
 5086SOL    HW126891   1.977   0.801   0.897  0.7856  1.0732 -0.3734
 5086SOL    HW226892   2.106   0.732   0.866 -0.1812  1.7755  2.0316
 5087SOL     OW26893   1.677   3.348  11.841  0.2199  0.4392  0.0618
 5087SOL    HW126894   1.641   3.396  11.915  1.8886  3.2965 -0.9605
 5087SOL    HW226895   1.763   3.323  11.874 -0.5756 -1.2310  0.8635
 5088SOL     OW26896   1.208   0.870   4.007 -0.7200 -0.4339 -0.1750
 5088SOL    HW126897   1.174   0.872   4.096  1.8652 -2.1439  0.8374
 5088SOL    HW226898   1.259   0.791   4.025  1.8150  1.4787  0.9111
 5089SOL     OW26899   2.027   3.794   6.307  0.1415 -0.6809 -0.6154
 5089SOL    HW126900   2.010   3.790   6.402  1.2327 -0.5498 -0.4142
 5089SOL    HW226901   1.994   3.714   6.268  1.3537 -0.7827 -1.3976
 5090SOL     OW26902   0.688   4.119   2.122  0.3887  0.0891  0.1806
 5090SOL    HW126903   0.753   4.167   2.173  1.9111  0.5667 -2.2277
 5090SOL    HW226904   0.743   4.125   2.045 -1.2870  2.3807 -0.8288
 5091SOL     OW26905   0.480   2.811   2.472 -0.4759 -0.5995  0.0299
 5091SOL    HW126906   0.563   2.779   2.435  0.5845  2.1511  0.0032
 5091SOL    HW226907   0.456   2.727   2.509  4.6580 -2.0114  0.2117
 5092SOL     OW26908   3.156   3.168   7.110  0.1378 -0.2123  0.4008
 5092SOL    HW126909   3.078   3.128   7.071 -0.1357  1.0440 -0.3080
 5092SOL    HW226910   3.126   3.258   7.124  1.1062  0.2266 -0.4051
 5093SOL     OW26911   0.218   4.360  17.598  0.6387  0.6863 -0.4220
 5093SOL    HW126912   0.270   4.286  17.566  1.3675  0.0323  2.1866
 5093SOL    HW226913   0.138   4.308  17.605 -0.9478  3.3000  0.9443
 5094SOL     OW26914   4.467   1.275  16.626  0.2138 -0.1890 -0.2247
 5094SOL    HW126915   4.446   1.366  16.602  2.2226 -0.1158 -1.7055
 5094SOL    HW226916   4.519   1.287  16.706  0.5497 -0.1259 -0.4506
 5095SOL     OW26917   0.259   1.523   5.800  0.4878 -0.1536  0.3191
 5095SOL    HW126918   0.218   1.471   5.731  0.7936 -2.1687  1.6522
 5095SOL    HW226919   0.193   1.510   5.869  1.3900 -0.5974  1.0922
 5096SOL     OW26920   2.958   0.001   5.279  0.0865 -0.5310 -0.4069
 5096SOL    HW126921   2.932   0.091   5.299  0.0760 -0.0655 -2.5790
 5096SOL    HW226922   2.970   4.713   5.371  1.1211  0.5978 -0.2261
 5097SOL     OW26923   2.998   0.343   4.677  0.0096  0.0192  0.1491
 5097SOL    HW126924   3.013   0.278   4.609 -0.9268  4.1112 -4.0252
 5097SOL    HW226925   3.036   0.425   4.644  1.3862 -0.6105  0.1876
 5098SOL     OW26926   1.836   2.972  16.702  0.3908 -0.3507 -0.5520
 5098SOL    HW126927   1.800   2.985  16.614 -0.6266  0.4905  0.0047
 5098SOL    HW226928   1.790   3.036  16.755  0.5271 -0.9282  0.2502
 5099SOL     OW26929   4.708   0.672   3.287 -0.3334 -0.0646  0.0415
 5099SOL    HW126930   0.057   0.703   3.314 -1.0320  1.3474  0.6822
 5099SOL    HW226931   4.649   0.724   3.341 -0.1767 -1.0606  1.1688
 5100SOL     OW26932   3.771   0.106   7.156 -0.3551  0.4446  0.2748
 5100SOL    HW126933   3.726   0.137   7.235  0.5718 -0.5595  1.2021
 5100SOL    HW226934   3.840   0.172   7.166 -0.6621  1.2147 -2.6375
 5101SOL     OW26935   3.134   3.024   3.653  0.0519 -0.1617 -0.0970
 5101SOL    HW126936   3.076   3.093   3.618 -1.3151 -0.2815  1.9358
 5101SOL    HW226937   3.176   2.997   3.571  1.2387 -0.9019  0.7695
 5102SOL     OW26938   2.725   0.278   2.756  0.5502  0.0389  0.0239
 5102SOL    HW126939   2.779   0.355   2.772 -0.5285  0.4300  1.7667
 5102SOL    HW226940   2.672   0.301   2.680 -2.2408  1.4759  2.3929
 5103SOL     OW26941   1.570   2.344  16.982 -0.2133  0.5171 -0.4053
 5103SOL    HW126942   1.535   2.337  16.894 -2.6993  1.2292  0.5310
 5103SOL    HW226943   1.509   2.289  17.031 -0.2763  1.5627  0.6733
 5104SOL     OW26944   3.087   2.219  12.974  0.5170  0.2474 -0.3804
 5104SOL    HW126945   3.000   2.246  13.002 -0.1293  0.5178 -2.6564
 5104SOL    HW226946   3.138   2.284  13.022 -1.1761  0.0634  1.6547
 5105SOL     OW26947   1.779   4.003  11.625  0.0874 -0.5857 -0.0418
 5105SOL    HW126948   1.836   4.079  11.612 -0.4862 -0.0942  0.3338
 5105SOL    HW226949   1.841   3.932  11.609  1.9759  1.1781 -0.5463
 5106SOL     OW26950   2.880   3.326   8.050 -0.2778  0.2177 -0.0553
 5106SOL    HW126951   2.952   3.263   8.041 -0.3522  0.1826 -0.4017
 5106SOL    HW226952   2.923   3.398   8.097  1.3616 -1.3364  0.8345
 5107SOL     OW26953   0.694   4.734  12.328 -0.0883 -0.0863  0.3488
 5107SOL    HW126954   0.629   0.001  12.398 -0.9719 -1.7030 -0.3810
 5107SOL    HW226955   0.669   4.649  12.292  1.0301  0.2916 -1.3210
 5108SOL     OW26956   2.362   3.629   3.351 -0.2571 -0.1609 -0.0727
 5108SOL    HW126957   2.395   3.652   3.265 -1.1132 -0.4401 -0.4785
 5108SOL    HW226958   2.290   3.567   3.337 -0.9949 -0.1059  3.3416
 5109SOL     OW26959   0.273   1.888   7.575 -0.1821  0.7247 -0.3723
 5109SOL    HW126960   0.205   1.953   7.595 -0.4541  1.0446 -2.4055
 5109SOL    HW226961   0.334   1.925   7.639  0.4542 -0.7409 -0.1301
 5110SOL     OW26962   3.682   3.802   3.995  0.6430  0.6594  0.1846
 5110SOL    HW126963   3.725   3.844   3.920  1.3968  2.7828  1.8263
 5110SOL    HW226964   3.706   3.862   4.065 -0.0787  0.1876  0.8345
 5111SOL     OW26965   1.443   3.555   1.651 -0.3432  0.0189 -0.8225
 5111SOL    HW126966   1.352   3.578   1.670  0.1560 -0.0092  1.6597
 5111SOL    HW226967   1.422   3.465   1.625 -0.5961  0.4397 -2.0413
 5112SOL     OW26968   3.779   1.162   3.870 -0.4306  0.3146  0.4315
 5112SOL    HW126969   3.690   1.168   3.906  0.0299  1.6815  1.3210
 5112SOL    HW226970   3.809   1.106   3.941 -1.0462 -2.0493 -1.1668
 5113SOL     OW26971   3.773   2.209   5.104 -0.1785 -0.6422 -0.2226
 5113SOL    HW126972   3.823   2.290   5.115  2.0525 -1.9332 -0.8484
 5113SOL    HW226973   3.683   2.242   5.103  0.5311  1.2449 -1.8491
 5114SOL     OW26974   2.316   4.282   8.693 -0.0518  0.1092 -0.2006
 5114SOL    HW126975   2.239   4.264   8.639  0.7265  0.6084 -1.4705
 5114SOL    HW226976   2.277   4.276   8.781  2.0367  0.8267  0.7704
 5115SOL     OW26977   4.070   3.600   4.091  0.0582 -0.2677 -0.0835
 5115SOL    HW126978   3.983   3.573   4.060 -0.9364  2.2137  0.6070
 5115SOL    HW226979   4.127   3.550   4.032 -2.1576 -0.4207 -2.0928
 5116SOL     OW26980   3.936   2.289   7.812  0.1422 -0.6255 -0.1216
 5116SOL    HW126981   3.931   2.262   7.904  1.5747 -1.0220 -0.1544
 5116SOL    HW226982   3.852   2.267   7.772 -0.2997 -0.2284  0.6008
 5117SOL     OW26983   0.610   3.069   1.974 -0.4938 -0.0824 -0.1763
 5117SOL    HW126984   0.610   3.029   2.060 -1.0727  2.7658  1.1463
 5117SOL    HW226985   0.645   2.993   1.927 -0.9233 -0.2203 -0.2789
 5118SOL     OW26986   3.986   3.960  11.248 -0.1644  0.0911  0.2361
 5118SOL    HW126987   3.922   3.931  11.184 -0.0924 -2.1347  1.1809
 5118SOL    HW226988   4.066   3.943  11.198  0.4532  0.9749  0.9164
 5119SOL     OW26989   0.006   0.752   2.932  0.0352  0.1481  0.3090
 5119SOL    HW126990   4.705   0.675   2.975 -1.3977  0.7396  0.0582
 5119SOL    HW226991   0.096   0.722   2.920 -0.1790  0.8600 -3.0843
 5120SOL     OW26992   1.122   0.223  15.758 -0.3625 -0.3187  0.2205
 5120SOL    HW126993   1.109   0.182  15.673  1.3151 -2.1423  0.8524
 5120SOL    HW226994   1.100   0.315  15.744 -0.5187 -0.6847 -1.9100
 5121SOL     OW26995   1.760   0.244  14.270  0.5407  0.3003 -0.1261
 5121SOL    HW126996   1.700   0.201  14.331  0.0551  1.0133 -0.1033
 5121SOL    HW226997   1.805   0.309  14.325 -0.9361  0.2629  1.1413
 5122SOL     OW26998   2.886   2.591   6.312  0.1099 -0.2837  0.1875
 5122SOL    HW126999   2.925   2.572   6.397  2.2702  1.8216 -0.3456
 5122SOL    HW227000   2.804   2.632   6.340  0.7409  1.4730 -0.5436
 5123SOL     OW27001   1.713   3.061  11.678  0.3874 -0.2341  0.3734
 5123SOL    HW127002   1.711   3.001  11.753 -1.3752 -1.8260 -0.9258
 5123SOL    HW227003   1.618   3.072  11.670  0.2279 -0.1942  2.2935
 5124SOL     OW27004   1.326   0.071   0.133  0.0931  0.3434 -0.6717
 5124SOL    HW127005   1.353   4.722   0.163 -0.0994  0.0996 -1.2119
 5124SOL    HW227006   1.237   0.056   0.100 -0.8656  3.2869  0.5291
 5125SOL     OW27007   0.261   3.306  16.618 -0.4556  0.7507  0.5097
 5125SOL    HW127008   0.304   3.236  16.568 -0.9675  0.4275  0.5311
 5125SOL    HW227009   0.314   3.385  16.603 -0.6608  0.7340 -0.3148
 5126SOL     OW27010   1.556   3.087   4.954  0.0450 -0.3217 -0.0080
 5126SOL    HW127011   1.605   3.035   4.891 -1.1595 -0.4365 -0.8419
 5126SOL    HW227012   1.511   3.014   4.997 -0.5795  0.0105 -0.0960
 5127SOL     OW27013   1.390   2.749   5.921  0.3934  0.0704 -0.3601
 5127SOL    HW127014   1.482   2.767   5.940  0.7453  1.1625 -3.0061
 5127SOL    HW227015   1.382   2.786   5.833  1.2687 -0.1546 -0.5350
 5128SOL     OW27016   3.977   1.454   8.031  0.0111  0.2062  0.0663
 5128SOL    HW127017   3.993   1.414   7.946 -0.9806  1.1944 -0.5782
 5128SOL    HW227018   4.063   1.497   8.035  1.0746 -2.1871  3.1993
 5129SOL     OW27019   4.381   0.415  12.765  0.4427  0.0102  0.5028
 5129SOL    HW127020   4.325   0.493  12.774  0.3359 -0.3675  3.2979
 5129SOL    HW227021   4.324   0.347  12.799  2.6439 -1.7412  0.7045
 5130SOL     OW27022   0.894   0.906  16.412 -0.2023 -0.5467  0.2731
 5130SOL    HW127023   0.897   0.848  16.337  0.7100 -0.8127  0.5069
 5130SOL    HW227024   0.800   0.919  16.411 -0.0114  1.0103  1.9424
 5131SOL     OW27025   4.317   1.247   4.782  0.1685 -0.2178  0.1608
 5131SOL    HW127026   4.370   1.326   4.788  0.5022 -0.3484 -1.2648
 5131SOL    HW227027   4.247   1.264   4.719 -0.2496  0.4732  0.8098
 5132SOL     OW27028   4.503   3.862   5.069  0.1189  0.5148 -0.2892
 5132SOL    HW127029   4.559   3.801   5.021 -0.7075  0.8972 -1.7396
 5132SOL    HW227030   4.425   3.816   5.100 -0.2181  0.0660 -1.8043
 5133SOL     OW27031   0.714   2.448   6.943  0.5959  0.2144  0.4810
 5133SOL    HW127032   0.707   2.420   7.034  1.2723 -1.0820  0.1237
 5133SOL    HW227033   0.795   2.411   6.909 -0.4142 -0.3466 -1.3430
 5134SOL     OW27034   1.244   2.598  13.203 -0.2870 -0.5220  0.5357
 5134SOL    HW127035   1.283   2.656  13.269  0.4069  0.8936 -1.1159
 5134SOL    HW227036   1.161   2.627  13.164  0.7425 -0.2924 -1.5071
 5135SOL     OW27037   0.332   2.025   7.318  0.1617  0.1350 -0.3890
 5135SOL    HW127038   0.305   1.961   7.385 -0.2818 -0.8089 -1.4743
 5135SOL    HW227039   0.248   2.027   7.273 -0.0626 -2.7883 -0.1129
 5136SOL     OW27040   2.624   4.641   2.693 -0.6114  0.6367  0.6016
 5136SOL    HW127041   2.584   4.677   2.772 -1.1906  1.1217  0.0874
 5136SOL    HW227042   2.712   4.678   2.699 -0.1667 -0.4729  1.0543
 5137SOL     OW27043   4.456   1.290   8.059 -0.8853 -0.5899  0.0142
 5137SOL    HW127044   4.398   1.228   8.102 -0.3720 -0.5797  0.7276
 5137SOL    HW227045   4.507   1.241   7.995 -0.9875 -0.2631 -0.3169
 5138SOL     OW27046   1.964   2.697   2.685  0.1661  0.2568 -0.1563
 5138SOL    HW127047   1.910   2.745   2.749  0.5949  2.1718 -1.2182
 5138SOL    HW227048   1.898   2.682   2.617 -0.6865  0.1213  0.7046
 5139SOL     OW27049   0.023   3.497   7.653 -0.0825  0.0766  0.5558
 5139SOL    HW127050   0.076   3.553   7.710 -0.8348  1.3225  0.0397
 5139SOL    HW227051   0.078   3.482   7.575  0.2860 -0.7768  0.9801
 5140SOL     OW27052   0.369   4.470   2.743  0.0292 -0.4831 -0.3883
 5140SOL    HW127053   0.428   4.542   2.721  1.1186 -1.5984 -1.1534
 5140SOL    HW227054   0.316   4.468   2.663 -0.9391 -1.6140  0.2824
 5141SOL     OW27055   2.176   4.559   7.810  0.1147  0.1523  0.1537
 5141SOL    HW127056   2.261   4.545   7.852  0.3733  1.2196 -0.0143
 5141SOL    HW227057   2.132   4.620   7.869  0.9245 -0.0921  1.0100
 5142SOL     OW27058   1.737   3.433   4.178 -0.2622  0.0015  0.8950
 5142SOL    HW127059   1.699   3.509   4.225 -1.7356 -0.5668  0.6343
 5142SOL    HW227060   1.830   3.451   4.185 -0.4986  1.7739 -0.3457
 5143SOL     OW27061   0.341   1.940   8.781 -0.2086  0.3588  0.1128
 5143SOL    HW127062   0.320   1.945   8.688 -2.3776 -0.8252  0.5349
 5143SOL    HW227063   0.346   1.845   8.793  1.5033  0.5013  0.5907
 5144SOL     OW27064   4.496   2.824   3.620 -0.2224  0.3621 -0.3275
 5144SOL    HW127065   4.586   2.803   3.642 -0.2916 -1.8250 -2.0493
 5144SOL    HW227066   4.449   2.798   3.699  0.7066  1.8321  0.6936
 5145SOL     OW27067   1.459   2.827   1.621  0.0948 -0.0988 -0.5143
 5145SOL    HW127068   1.488   2.806   1.533 -1.5114 -0.1189 -1.0337
 5145SOL    HW227069   1.492   2.756   1.676  0.5371  2.5470  2.6622
 5146SOL     OW27070   2.679   0.742   5.443  0.2871  0.6798 -0.5153
 5146SOL    HW127071   2.611   0.751   5.376 -0.0675 -0.7640 -0.3418
 5146SOL    HW227072   2.641   0.670   5.494  2.1983 -0.7612 -1.1456
 5147SOL     OW27073   1.862   2.692   8.075  0.2418 -0.1676  0.5976
 5147SOL    HW127074   1.927   2.756   8.104 -0.3158  1.4021 -1.5899
 5147SOL    HW227075   1.819   2.668   8.157 -1.7443 -0.3506 -0.4807
 5148SOL     OW27076   0.293   4.229  11.877  0.2121  0.3344  0.3556
 5148SOL    HW127077   0.382   4.195  11.869 -0.1793 -1.0192  1.8592
 5148SOL    HW227078   0.254   4.143  11.861  3.0383 -0.6206 -1.4323
 5149SOL     OW27079   2.796   1.810   7.897 -0.5745 -0.0833  0.0684
 5149SOL    HW127080   2.706   1.787   7.877 -0.2762 -2.5324  1.6428
 5149SOL    HW227081   2.786   1.894   7.943  0.5259  0.1014 -0.0248
 5150SOL     OW27082   1.340   0.266   4.447 -0.5075 -0.4498  0.2646
 5150SOL    HW127083   1.279   0.317   4.392  0.2294  0.2561  0.1015
 5150SOL    HW227084   1.312   0.304   4.530 -0.6880 -1.4467  0.6550
 5151SOL     OW27085   1.855   1.459   1.713 -0.2652 -0.2770 -0.0136
 5151SOL    HW127086   1.941   1.481   1.750 -0.3626  1.2816 -0.7552
 5151SOL    HW227087   1.848   1.520   1.640 -4.4626 -0.9641 -0.1832
 5152SOL     OW27088   1.766   1.829   4.951  0.0353 -0.5412  0.0957
 5152SOL    HW127089   1.710   1.905   4.936  0.2990 -0.3902 -0.1177
 5152SOL    HW227090   1.826   1.837   4.877  0.4696  0.1900  0.5220
 5153SOL     OW27091   1.614   0.238   6.838 -0.8451 -0.1302 -0.0114
 5153SOL    HW127092   1.560   0.315   6.820  0.7326  1.1194  0.6152
 5153SOL    HW227093   1.635   0.253   6.930 -0.7453 -0.9608  0.1003
 5154SOL     OW27094   0.167   1.092   6.022 -0.3688  0.0610  0.2825
 5154SOL    HW127095   0.120   1.059   6.099  3.6450 -2.3330  1.7058
 5154SOL    HW227096   0.240   1.138   6.063  0.2729 -1.9860  1.4765
 5155SOL     OW27097   3.553   0.065  12.185  0.7946 -0.7662  0.1828
 5155SOL    HW127098   3.517   0.118  12.114 -2.8591 -1.5392  1.4460
 5155SOL    HW227099   3.602   0.001  12.134  3.0356  0.8664  0.3240
 5156SOL     OW27100   2.469   3.810   9.799 -0.2205  0.1970 -0.0978
 5156SOL    HW127101   2.450   3.888   9.851  0.8426  0.9292 -0.8142
 5156SOL    HW227102   2.386   3.783   9.759 -0.3120 -1.4338  1.1559
 5157SOL     OW27103   3.279   0.126   5.001 -0.3137 -0.0428 -0.1050
 5157SOL    HW127104   3.256   0.218   5.013  0.5511  0.4538 -2.2833
 5157SOL    HW227105   3.194   0.083   4.995 -0.3455  0.1764 -1.2095
 5158SOL     OW27106   2.657   4.175  14.121  0.1519  0.0715 -0.4106
 5158SOL    HW127107   2.746   4.195  14.150  1.3117 -2.4497 -2.2234
 5158SOL    HW227108   2.673   4.117  14.046  2.2580  0.1012  0.0033
 5159SOL     OW27109   0.982   4.251   2.756  0.5528  0.1951 -0.3249
 5159SOL    HW127110   1.060   4.195   2.749  1.5330  1.7520 -1.9840
 5159SOL    HW227111   1.019   4.324   2.806  1.6856 -0.2667 -0.4909
 5160SOL     OW27112   2.310   3.307   5.065  0.3828  0.2265 -0.2690
 5160SOL    HW127113   2.362   3.363   5.007  0.7927  0.5200  0.3791
 5160SOL    HW227114   2.232   3.310   5.010  0.4138  1.6988 -0.2399
 5161SOL     OW27115   2.211   2.802   1.458 -0.0855 -0.3218 -0.1234
 5161SOL    HW127116   2.219   2.775   1.367 -0.3455  1.5538 -0.6966
 5161SOL    HW227117   2.118   2.810   1.476 -0.1160 -1.7003  0.3355
 5162SOL     OW27118   1.232   2.393   3.350 -0.4708  0.4436  0.0723
 5162SOL    HW127119   1.249   2.480   3.315 -1.2483  1.3324  1.8988
 5162SOL    HW227120   1.144   2.375   3.318 -0.8022 -0.0863  1.2706
 5163SOL     OW27121   1.302   3.019   6.735 -0.8878  0.1702 -0.1020
 5163SOL    HW127122   1.395   2.996   6.735 -1.0700 -0.5671  0.8500
 5163SOL    HW227123   1.267   2.954   6.673  0.4239 -1.9484  1.3926
 5164SOL     OW27124   0.226   3.666  13.631 -0.5029 -0.2084  0.4803
 5164SOL    HW127125   0.255   3.687  13.720 -1.1973 -0.5743  0.7927
 5164SOL    HW227126   0.135   3.696  13.632 -0.6909 -0.7843  0.4650
 5165SOL     OW27127   2.071   3.291   8.127 -0.0279  0.0205 -0.3049
 5165SOL    HW127128   2.120   3.240   8.062 -0.5097  1.5317 -1.8710
 5165SOL    HW227129   1.994   3.234   8.134  0.5387 -1.2159 -3.7357
 5166SOL     OW27130   4.603   4.316  17.516 -0.2886  0.1488  0.1397
 5166SOL    HW127131   4.529   4.370  17.542 -0.9763 -0.3863 -0.7139
 5166SOL    HW227132   4.621   4.267  17.596  1.3917 -1.6942 -1.3598
 5167SOL     OW27133   4.736   3.530   4.129  0.6755  0.0565 -0.1975
 5167SOL    HW127134   0.034   3.482   4.203  2.7662  0.1646 -1.1152
 5167SOL    HW227135   4.704   3.612   4.166 -2.0548  0.1406 -2.7234
 5168SOL     OW27136   2.476   0.249   7.187  0.4094  0.5143 -0.2271
 5168SOL    HW127137   2.551   0.189   7.190  0.1600  0.2761  1.4803
 5168SOL    HW227138   2.524   0.328   7.213 -1.9743  1.8588  0.0862
 5169SOL     OW27139   2.495   1.125   8.913  0.1835 -0.1353 -0.4852
 5169SOL    HW127140   2.487   1.202   8.969 -1.2448 -1.4175  1.0590
 5169SOL    HW227141   2.557   1.155   8.846  1.7344  1.0352  1.4504
 5170SOL     OW27142   4.108   2.717   2.888 -0.2229  0.4605  0.2488
 5170SOL    HW127143   4.091   2.626   2.912  0.2521  0.0777 -0.8750
 5170SOL    HW227144   4.192   2.730   2.932 -0.7929  0.9585  1.1906
 5171SOL     OW27145   0.215   2.836   2.278  0.4118  0.1828 -0.3464
 5171SOL    HW127146   0.283   2.890   2.318  0.8489  0.7783 -1.8687
 5171SOL    HW227147   0.229   2.857   2.185 -0.1949 -0.2992 -0.5465
 5172SOL     OW27148   1.617   0.079   4.675  0.0662  0.5456 -0.2534
 5172SOL    HW127149   1.643   4.738   4.628 -0.4931 -0.4705  1.1285
 5172SOL    HW227150   1.524   0.056   4.682  0.1226  0.0111 -1.2157
 5173SOL     OW27151   4.461   0.788  10.160 -0.1122  0.4191 -0.9217
 5173SOL    HW127152   4.482   0.769  10.251 -2.6376  0.2524 -0.3633
 5173SOL    HW227153   4.368   0.766  10.153  0.1881 -0.7380 -1.2717
 5174SOL     OW27154   3.615   1.694   4.160  0.2394 -0.6084 -0.3577
 5174SOL    HW127155   3.563   1.775   4.162  3.2723  1.3593 -0.2925
 5174SOL    HW227156   3.674   1.722   4.230  0.0507 -2.1990  0.4257
 5175SOL     OW27157   2.799   4.601  16.542 -0.9338 -0.1218 -0.6257
 5175SOL    HW127158   2.753   4.548  16.608  0.4031 -0.8874 -0.3164
 5175SOL    HW227159   2.756   4.684  16.559 -1.2656  0.3300 -3.5628
 5176SOL     OW27160   0.564   3.092  11.331  0.7720 -0.8253 -0.2475
 5176SOL    HW127161   0.605   3.005  11.336  0.3260 -1.0396 -0.3048
 5176SOL    HW227162   0.635   3.153  11.314  0.3696 -0.0363  0.9208
 5177SOL     OW27163   0.131   2.450   4.880  0.3013 -0.2826 -0.0424
 5177SOL    HW127164   0.072   2.381   4.849 -2.7951  1.2345  2.6368
 5177SOL    HW227165   0.065   2.519   4.879  0.8633  0.2387 -1.3896
 5178SOL     OW27166   4.504   2.893   4.709 -0.2992 -0.0719 -0.0341
 5178SOL    HW127167   4.569   2.828   4.734  0.1328 -0.2307 -1.5550
 5178SOL    HW227168   4.420   2.847   4.711  0.0531 -0.5503  2.8214
 5179SOL     OW27169   3.165   4.621   5.780  0.2763  0.0160 -0.2008
 5179SOL    HW127170   3.198   4.711   5.786 -1.1921  0.5996 -0.7936
 5179SOL    HW227171   3.244   4.590   5.735 -2.0413 -1.6825 -3.0779
 5180SOL     OW27172   3.970   0.442  12.864  0.6917 -0.3162  0.0131
 5180SOL    HW127173   3.901   0.403  12.917  1.7085 -0.4406  1.2544
 5180SOL    HW227174   3.927   0.499  12.800  0.6265  1.3300  1.5199
 5181SOL     OW27175   1.822   3.483   2.894 -0.1573 -0.0281  0.3958
 5181SOL    HW127176   1.759   3.416   2.917  1.4509 -1.8275 -0.4504
 5181SOL    HW227177   1.785   3.562   2.934  0.3949  0.8724 -0.8627
 5182SOL     OW27178   1.527   2.602  12.579 -0.4770  0.1668  0.0671
 5182SOL    HW127179   1.519   2.537  12.509 -0.5047  0.4972 -0.2343
 5182SOL    HW227180   1.460   2.665  12.555 -0.2091  0.7315  0.7832
 5183SOL     OW27181   1.987   2.024  13.554 -0.0742  0.3611  0.0875
 5183SOL    HW127182   1.995   2.016  13.649  2.1183 -0.2399 -0.1440
 5183SOL    HW227183   2.018   1.936  13.533 -1.7518 -0.3207  0.4950
 5184SOL     OW27184   1.191   3.941   9.290  0.0627  0.1421  0.2196
 5184SOL    HW127185   1.146   3.880   9.349 -4.1763  1.4042 -1.7234
 5184SOL    HW227186   1.281   3.943   9.322  0.5700  1.1105 -1.2229
 5185SOL     OW27187   1.926   0.852   1.056  0.4385 -0.0923 -0.1652
 5185SOL    HW127188   1.883   0.788   1.113  1.1139  0.7206  1.2563
 5185SOL    HW227189   1.849   0.905   1.035  0.3774  0.3487  1.2127
 5186SOL     OW27190   2.356   3.871  12.234 -0.0950  0.5805 -0.2991
 5186SOL    HW127191   2.352   3.959  12.273 -0.2292 -0.5912  2.3601
 5186SOL    HW227192   2.285   3.871  12.171  0.2604 -1.2588 -0.6841
 5187SOL     OW27193   2.869   2.189   5.753  0.1007  0.0221  0.3695
 5187SOL    HW127194   2.853   2.101   5.720 -2.0486  0.3843  0.3990
 5187SOL    HW227195   2.845   2.174   5.844 -2.4019  1.9865  0.0340
 5188SOL     OW27196   3.710   2.954   7.040 -0.0641  0.7359 -0.1161
 5188SOL    HW127197   3.646   3.009   7.086  0.6038  1.5711 -0.1946
 5188SOL    HW227198   3.790   3.000   7.067 -0.7717  1.1117  1.3528
 5189SOL     OW27199   1.294   2.205   5.590 -0.1798 -0.4880  0.0760
 5189SOL    HW127200   1.311   2.175   5.679  0.5760  0.7695  0.3466
 5189SOL    HW227201   1.365   2.168   5.538 -0.9653  0.7559 -1.8968
 5190SOL     OW27202   1.734   2.026   6.069 -0.3813 -0.5251  0.0822
 5190SOL    HW127203   1.735   2.122   6.064 -1.9765 -0.5075  0.1964
 5190SOL    HW227204   1.642   2.014   6.091 -0.2919  0.2683  0.8629
 5191SOL     OW27205   0.808   4.480   6.595 -0.8564 -0.2134  0.1295
 5191SOL    HW127206   0.850   4.554   6.550 -1.8582  0.1964 -0.1350
 5191SOL    HW227207   0.881   4.422   6.617 -0.0890 -0.0075 -1.8787
 5192SOL     OW27208   0.229   4.011   5.784 -0.5643  0.3599 -0.5849
 5192SOL    HW127209   0.228   3.942   5.851  0.7963 -0.2994 -1.2490
 5192SOL    HW227210   0.136   4.001   5.762 -0.7157 -2.7533  1.5591
 5193SOL     OW27211   4.735   2.522  13.642 -0.2287  0.1264  0.5638
 5193SOL    HW127212   0.026   2.432  13.625 -0.5433  0.1300  0.0262
 5193SOL    HW227213   0.058   2.579  13.595 -1.1077  1.7059  1.3686
 5194SOL     OW27214   2.016   2.529   3.910 -0.4302  0.2008 -0.2702
 5194SOL    HW127215   2.066   2.571   3.981 -2.9189  1.5686  0.6891
 5194SOL    HW227216   1.928   2.528   3.948 -0.7705  3.1736 -0.9751
 5195SOL     OW27217   2.523   1.520   1.858 -0.2020  0.0813 -0.3072
 5195SOL    HW127218   2.455   1.524   1.926 -0.4246  2.1719 -0.6376
 5195SOL    HW227219   2.521   1.428   1.834  0.4492  0.1615 -0.6629
 5196SOL     OW27220   2.149   3.444   1.439  0.4268 -0.8968 -0.4219
 5196SOL    HW127221   2.157   3.524   1.387  1.1704  0.0458  1.1522
 5196SOL    HW227222   2.237   3.417   1.463  0.4829  1.0125  1.5177
 5197SOL     OW27223   0.626   3.738   8.728  0.0643  0.2894 -0.4413
 5197SOL    HW127224   0.624   3.815   8.785 -1.2791  0.2877 -0.4917
 5197SOL    HW227225   0.702   3.758   8.673 -0.0011 -0.3609 -0.7626
 5198SOL     OW27226   1.240   4.154   2.782 -0.1332  0.2967 -0.1645
 5198SOL    HW127227   1.270   4.065   2.763  0.5199  0.5936 -0.5589
 5198SOL    HW227228   1.285   4.202   2.712  1.8467  2.4461  2.5771
 5199SOL     OW27229   3.748   2.886   3.830 -0.7791  0.4724  0.4991
 5199SOL    HW127230   3.826   2.937   3.851 -0.0277 -0.1389 -0.8653
 5199SOL    HW227231   3.678   2.942   3.864 -2.9574 -0.1142 -3.0453
 5200SOL     OW27232   1.702   3.709   0.953 -0.6100  0.2623 -0.2155
 5200SOL    HW127233   1.708   3.637   0.890 -1.4462  0.4613 -0.5155
 5200SOL    HW227234   1.610   3.733   0.945 -1.0142 -1.6311 -1.2702
 5201SOL     OW27235   4.567   4.614   9.107 -0.3169  0.2096 -0.0633
 5201SOL    HW127236   4.611   4.669   9.042  1.1929 -1.3930 -0.4062
 5201SOL    HW227237   4.476   4.642   9.110 -0.1255  0.8320 -0.1468
 5202SOL     OW27238   3.312   4.671  17.599 -0.1821  0.2896  0.1539
 5202SOL    HW127239   3.343   4.719  17.522  3.0424  0.1274  1.3596
 5202SOL    HW227240   3.218   4.685  17.583 -0.0312 -0.6010 -1.5069
 5203SOL     OW27241   2.386   2.622   9.276  0.3665 -0.0004  0.0114
 5203SOL    HW127242   2.390   2.667   9.192  1.8829 -0.2579 -0.0496
 5203SOL    HW227243   2.373   2.697   9.335 -0.9517  0.6739 -1.1141
 5204SOL     OW27244   0.496   3.474   0.216  0.0240 -0.3792  0.1742
 5204SOL    HW127245   0.530   3.456   0.304 -5.9446 -1.9850  2.1832
 5204SOL    HW227246   0.404   3.499   0.222 -0.2706 -1.9602  2.3936
 5205SOL     OW27247   2.399   3.784   9.329  0.0854 -0.1747 -0.0664
 5205SOL    HW127248   2.357   3.869   9.318  2.2406  1.1841  2.2343
 5205SOL    HW227249   2.457   3.762   9.256  1.1475  0.2614  0.6406
 5206SOL     OW27250   0.481   4.578   4.088  0.0448 -0.4179 -0.6658
 5206SOL    HW127251   0.450   4.495   4.054 -0.8582  0.1142 -1.1339
 5206SOL    HW227252   0.439   4.639   4.028 -1.0088  0.4347  0.9363
 5207SOL     OW27253   0.124   2.847   6.477  0.2789  0.2445 -0.8560
 5207SOL    HW127254   0.035   2.815   6.489  0.5123  0.4612  1.4661
 5207SOL    HW227255   0.124   2.885   6.389 -1.0922  2.2231 -0.0075
 5208SOL     OW27256   1.968   3.353   8.809 -0.0469 -0.3776 -0.3362
 5208SOL    HW127257   1.974   3.258   8.819 -2.5405 -0.2715  1.9864
 5208SOL    HW227258   1.872   3.355   8.815  0.0435  1.4420  0.5779
 5209SOL     OW27259   4.407   1.718  11.979 -0.6992  0.8183 -0.0778
 5209SOL    HW127260   4.344   1.782  11.948 -0.5227  0.9236 -0.2175
 5209SOL    HW227261   4.460   1.763  12.045 -0.7960  0.7361  0.0557
 5210SOL     OW27262   4.198   1.833  15.526  0.4816  0.4965  0.3780
 5210SOL    HW127263   4.230   1.837  15.435  0.8920  1.0307  0.5445
 5210SOL    HW227264   4.115   1.880  15.521  0.4180  0.4852  1.3569
 5211SOL     OW27265   3.352   1.983   4.674  0.2736 -0.1649  0.2616
 5211SOL    HW127266   3.284   1.917   4.684 -0.9594  1.1661  0.6470
 5211SOL    HW227267   3.296   2.054   4.642 -0.6137 -1.5351 -1.2417
 5212SOL     OW27268   4.564   2.615   2.112  0.3312  0.4680  0.0363
 5212SOL    HW127269   4.476   2.652   2.107  1.4347  3.3711  1.8370
 5212SOL    HW227270   4.606   2.691   2.152  1.1716 -0.3304  0.6630
 5213SOL     OW27271   1.654   2.080   4.860  0.0380  0.4436  0.3174
 5213SOL    HW127272   1.654   2.058   4.767 -0.6484 -0.9791  0.6676
 5213SOL    HW227273   1.580   2.138   4.877  1.7082  2.9036 -0.7090
 5214SOL     OW27274   0.710   4.609   1.721 -0.2594 -0.2296  0.1702
 5214SOL    HW127275   0.734   4.537   1.779  1.8032  1.2219  1.1445
 5214SOL    HW227276   0.640   4.566   1.673 -1.4953  0.6709  1.1482
 5215SOL     OW27277   3.535   2.449   6.574  0.0865 -0.2052 -0.4469
 5215SOL    HW127278   3.456   2.488   6.611  1.6841  1.3620  1.2578
 5215SOL    HW227279   3.522   2.358   6.600 -0.7685 -0.1333 -0.5970
 5216SOL     OW27280   1.558   4.442   0.719 -0.4429  0.0042 -1.0964
 5216SOL    HW127281   1.489   4.390   0.678  0.1301  0.1291 -2.2337
 5216SOL    HW227282   1.561   4.396   0.803  3.0285  0.7600 -0.8128
 5217SOL     OW27283   1.880   1.413   9.006  0.0279 -0.1870  0.1369
 5217SOL    HW127284   1.923   1.425   8.921 -1.4124  1.0933 -0.4175
 5217SOL    HW227285   1.792   1.381   8.986  0.0469 -1.4444  2.0503
 5218SOL     OW27286   1.651   2.035   8.213  0.4337  0.7100  0.4050
 5218SOL    HW127287   1.701   1.987   8.280 -0.9219 -0.4890  0.5506
 5218SOL    HW227288   1.582   1.970   8.203  1.2994 -0.1988  0.3068
 5219SOL     OW27289   2.099   0.685   3.560 -0.2818  0.8319  0.5548
 5219SOL    HW127290   2.116   0.675   3.653 -2.6700  1.2380  1.0349
 5219SOL    HW227291   2.125   0.776   3.545 -0.9272  0.9413  0.0452
 5220SOL     OW27292   3.614   2.388   7.369  0.1494 -0.2781 -0.0804
 5220SOL    HW127293   3.572   2.348   7.445 -1.1066 -0.9665 -1.1450
 5220SOL    HW227294   3.588   2.480   7.376  2.8782  0.5697 -0.7435
 5221SOL     OW27295   3.314   0.903   5.757 -0.1314 -0.0389  0.1137
 5221SOL    HW127296   3.315   0.878   5.664  0.9307 -1.8788  0.6248
 5221SOL    HW227297   3.231   0.864   5.785  0.4474 -2.2401 -1.1927
 5222SOL     OW27298   1.647   3.748   4.798 -0.0320  0.4320 -0.0931
 5222SOL    HW127299   1.682   3.837   4.786 -1.0054  0.5801 -1.8232
 5222SOL    HW227300   1.667   3.734   4.890  1.6193 -1.1669 -0.6939
 5223SOL     OW27301   2.812   4.578   0.770  0.1442 -0.0521 -0.0790
 5223SOL    HW127302   2.858   4.636   0.831  0.4014 -1.8867  1.4712
 5223SOL    HW227303   2.866   4.572   0.691  1.4591  1.1575  0.7351
 5224SOL     OW27304   2.190   1.890   4.391 -0.4266  1.0260  0.0691
 5224SOL    HW127305   2.238   1.821   4.345 -0.3022 -0.0010  1.7020
 5224SOL    HW227306   2.236   1.888   4.476  0.8745  0.5029 -0.6453
 5225SOL     OW27307   0.676   0.104  17.665  0.0463  0.7251  0.7252
 5225SOL    HW127308   0.723   0.164  17.608 -2.4419  1.6666 -0.3442
 5225SOL    HW227309   0.701   0.134   0.003  0.2860 -0.0528  0.9271
 5226SOL     OW27310   3.927   2.063   5.277 -0.5723  0.0773 -0.5247
 5226SOL    HW127311   3.855   2.097   5.224 -1.3602 -0.0479  0.4664
 5226SOL    HW227312   3.924   1.971   5.250  0.8119  0.3017 -1.4569
 5227SOL     OW27313   1.533   3.177   0.277 -0.5446  0.4469  0.3609
 5227SOL    HW127314   1.592   3.180   0.201  0.2149 -0.8241  0.8968
 5227SOL    HW227315   1.491   3.263   0.275  1.1997  1.3548  2.0984
 5228SOL     OW27316   1.891   0.683  17.019  0.1656  0.0874 -0.1530
 5228SOL    HW127317   1.798   0.692  16.998  0.0777  0.8654  0.5578
 5228SOL    HW227318   1.914   0.769  17.054  1.0663  0.2621 -1.1754
 5229SOL     OW27319   3.687   2.629   3.802  0.2213 -0.4007  0.3735
 5229SOL    HW127320   3.716   2.621   3.711  0.1299 -1.5315  0.4423
 5229SOL    HW227321   3.719   2.718   3.816  2.4834 -1.0769 -0.4087
 5230SOL     OW27322   2.058   1.609   4.206 -0.2475  0.3692 -0.4517
 5230SOL    HW127323   2.145   1.623   4.242 -0.4922  0.4833  0.1057
 5230SOL    HW227324   2.066   1.546   4.135 -1.4430 -1.8270  1.3829
 5231SOL     OW27325   2.918   3.037   6.209 -0.1650  0.1070 -0.0586
 5231SOL    HW127326   3.007   3.028   6.176 -0.3969 -0.0171 -0.6479
 5231SOL    HW227327   2.922   3.010   6.301 -0.1519  0.7998  0.1498
 5232SOL     OW27328   3.113   4.413   4.528  0.6332  0.1932 -0.7614
 5232SOL    HW127329   3.134   4.321   4.543  0.3757  0.3450  0.4915
 5232SOL    HW227330   3.018   4.412   4.540  0.4541 -1.3123 -2.2268
 5233SOL     OW27331   3.144   0.765   9.406  0.0749 -0.1064 -0.6926
 5233SOL    HW127332   3.234   0.734   9.393  0.1207  0.8837 -2.6645
 5233SOL    HW227333   3.150   0.810   9.490 -1.4510  0.9469 -1.1597
 5234SOL     OW27334   4.242   1.512   8.098 -0.1334 -0.3805 -0.7184
 5234SOL    HW127335   4.289   1.534   8.018 -0.9472  5.0314  0.2853
 5234SOL    HW227336   4.316   1.489   8.154 -0.1459 -0.8353 -0.8926
 5235SOL     OW27337   3.031   4.675  13.282  0.0348 -0.2208  0.3914
 5235SOL    HW127338   3.020   4.592  13.235 -1.8708  1.2736 -1.7840
 5235SOL    HW227339   2.964   4.664  13.350 -1.5501  0.6883 -1.0179
 5236SOL     OW27340   0.387   3.919  12.995  0.0457 -0.0111  0.2041
 5236SOL    HW127341   0.335   3.850  12.954  1.9142 -1.0249 -0.4920
 5236SOL    HW227342   0.464   3.920  12.938 -1.7775 -3.1229 -2.2916
 5237SOL     OW27343   0.924   2.935   6.803 -0.4506 -0.0668 -0.1975
 5237SOL    HW127344   0.914   2.983   6.720  1.2029 -0.4482 -0.6085
 5237SOL    HW227345   0.873   2.857   6.780 -1.7700  0.4421  0.9509
 5238SOL     OW27346   0.469   1.676   9.930  0.0031 -0.2451 -0.1250
 5238SOL    HW127347   0.385   1.639   9.902  0.3022 -0.0827 -1.2297
 5238SOL    HW227348   0.481   1.620  10.007  0.5300  0.3710  0.2455
 5239SOL     OW27349   0.563   0.843   1.167 -0.0376  0.5141  0.2166
 5239SOL    HW127350   0.479   0.877   1.199  0.3297  0.7914  0.8841
 5239SOL    HW227351   0.618   0.920   1.181  1.0439 -0.7555  2.8057
 5240SOL     OW27352   4.172   2.989  13.792 -0.1254  0.5120 -0.0189
 5240SOL    HW127353   4.190   2.933  13.716  1.8092  0.0738  0.7703
 5240SOL    HW227354   4.126   3.064  13.753 -1.0255 -0.7920 -1.4738
 5241SOL     OW27355   4.435   2.495   0.239  0.2491 -0.1566 -0.2610
 5241SOL    HW127356   4.423   2.545   0.158 -0.9282 -0.7165 -0.4383
 5241SOL    HW227357   4.422   2.564   0.305  0.9520  0.6562 -0.9731
 5242SOL     OW27358   4.402   1.922   9.701 -0.7854 -0.9672  0.2441
 5242SOL    HW127359   4.393   1.851   9.766 -0.2927 -0.6768  0.6323
 5242SOL    HW227360   4.415   1.998   9.759  1.2593 -1.7217  0.7992
 5243SOL     OW27361   3.700   4.229   2.710  0.0424 -0.1513 -0.1774
 5243SOL    HW127362   3.757   4.299   2.743  1.3246 -1.3443  0.1568
 5243SOL    HW227363   3.611   4.264   2.717 -1.0624 -2.7177 -1.6385
 5244SOL     OW27364   1.999   2.939   1.552  0.1287 -0.0282 -0.0745
 5244SOL    HW127365   2.047   3.021   1.541 -0.4835  0.1138 -1.6490
 5244SOL    HW227366   1.915   2.962   1.592  0.1875  2.2650 -1.2469
 5245SOL     OW27367   1.946   3.389   0.554  0.1221 -0.3757 -0.0244
 5245SOL    HW127368   1.950   3.298   0.581  1.9618  0.0650  1.1822
 5245SOL    HW227369   1.937   3.392   0.458  0.8417 -1.4364 -0.1116
 5246SOL     OW27370   0.906   1.092  12.114  0.4262  0.1221  0.6286
 5246SOL    HW127371   0.946   1.026  12.058  1.0918 -1.7415  3.2744
 5246SOL    HW227372   0.864   1.032  12.176  0.1347 -0.8176 -0.4723
 5247SOL     OW27373   3.794   1.500   1.558  0.7257  0.2687 -0.0246
 5247SOL    HW127374   3.703   1.513   1.585  0.0267 -0.0074 -2.2762
 5247SOL    HW227375   3.802   1.558   1.482 -0.4865  1.1189  0.4832
 5248SOL     OW27376   4.029   2.624   4.741  0.3053  0.6594  0.1577
 5248SOL    HW127377   3.971   2.550   4.726  0.5108  0.0655  2.3876
 5248SOL    HW227378   4.048   2.653   4.651  2.3058 -2.7669 -0.5101
 5249SOL     OW27379   4.290   2.093   1.473  0.1022  0.3261  0.0161
 5249SOL    HW127380   4.233   2.027   1.511  1.6780  0.8701  3.2839
 5249SOL    HW227381   4.256   2.107   1.384 -0.0032  1.8027  0.2859
 5250SOL     OW27382   3.027   3.789   8.220 -0.2964 -0.0998  0.4836
 5250SOL    HW127383   3.017   3.845   8.143  0.8152  0.0125  0.4269
 5250SOL    HW227384   3.105   3.827   8.261  0.5460 -2.0337  0.6482
 5251SOL     OW27385   4.456   4.599  10.844 -0.6311 -0.3175 -0.0614
 5251SOL    HW127386   4.372   4.595  10.797 -0.9968  0.9479  0.4621
 5251SOL    HW227387   4.517   4.590  10.771  1.4740  1.6717  1.4553
 5252SOL     OW27388   1.616   0.945   3.893 -0.0925 -0.0144 -0.2704
 5252SOL    HW127389   1.681   0.953   3.962 -0.2962 -1.7993  0.1274
 5252SOL    HW227390   1.613   0.850   3.887 -0.5585 -0.0330  0.1855
 5253SOL     OW27391   2.334   2.779   0.330  0.0023  0.3330  0.5638
 5253SOL    HW127392   2.379   2.771   0.414 -1.6627 -0.4228  1.3846
 5253SOL    HW227393   2.359   2.868   0.304 -0.5633  0.8127  1.6110
 5254SOL     OW27394   0.947   2.009   4.740 -0.5240  0.9169 -0.0265
 5254SOL    HW127395   0.881   1.943   4.762  0.0124  0.1834 -0.5901
 5254SOL    HW227396   0.915   2.089   4.781 -2.4118 -0.4611  1.1678
 5255SOL     OW27397   3.092   2.863  10.079 -0.4095  0.0658 -0.5268
 5255SOL    HW127398   3.023   2.882  10.142  0.3186 -0.9819  0.5727
 5255SOL    HW227399   3.063   2.788  10.027  1.1618  0.6988 -2.3477
 5256SOL     OW27400   1.034   3.214   7.780 -0.1379 -0.1124  0.7693
 5256SOL    HW127401   0.989   3.233   7.698  1.4351  0.2018 -0.0185
 5256SOL    HW227402   0.989   3.139   7.818 -1.0198 -0.1892 -0.4357
 5257SOL     OW27403   2.843   4.067   7.017  0.5951  0.0919  0.6560
 5257SOL    HW127404   2.813   4.023   6.938  1.6643  2.1425 -0.9088
 5257SOL    HW227405   2.930   4.033   7.038 -0.2683 -1.8335  1.0948
 5258SOL     OW27406   3.423   4.260   5.359 -0.2139 -0.2968  0.1198
 5258SOL    HW127407   3.501   4.213   5.390 -0.0838 -0.8932 -1.1414
 5258SOL    HW227408   3.439   4.277   5.267 -2.6367  2.0162  0.1400
 5259SOL     OW27409   1.654   4.209   0.269 -0.1908 -0.5096  0.4268
 5259SOL    HW127410   1.708   4.268   0.216  1.3376 -2.2544  0.0433
 5259SOL    HW227411   1.711   4.190   0.342 -1.0414  0.4205  1.3356
 5260SOL     OW27412   3.731   3.023  14.488  0.6208 -0.5260  0.0499
 5260SOL    HW127413   3.664   3.073  14.442  0.3271 -0.4280  0.5964
 5260SOL    HW227414   3.782   2.996  14.411  0.2164 -1.2847  0.0524
 5261SOL     OW27415   2.361   2.498  10.890  0.4113  0.1489 -0.4973
 5261SOL    HW127416   2.421   2.464  10.956 -0.2754  1.0307  0.5830
 5261SOL    HW227417   2.365   2.592  10.906  0.0261  0.2794 -1.1373
 5262SOL     OW27418   2.722   0.833   2.885 -0.4505  0.0724 -0.5545
 5262SOL    HW127419   2.765   0.797   2.807  1.0138  0.8336 -0.0908
 5262SOL    HW227420   2.712   0.758   2.943 -1.6353 -0.5477 -1.5522
 5263SOL     OW27421   0.975   2.219   8.108 -0.3234  0.4539  0.6162
 5263SOL    HW127422   0.994   2.308   8.079 -0.2419  0.0039 -0.7080
 5263SOL    HW227423   0.892   2.204   8.062  0.7226 -1.7831 -0.5120
 5264SOL     OW27424   2.181   4.187  12.887  0.4336  0.7490  0.0992
 5264SOL    HW127425   2.185   4.228  12.973 -1.5277  0.0805  0.5045
 5264SOL    HW227426   2.090   4.158  12.892  0.6202 -0.2648 -2.3133
 5265SOL     OW27427   0.906   1.002   2.927 -0.1445 -0.5223 -0.1660
 5265SOL    HW127428   0.869   1.090   2.934  0.9379 -0.0816 -0.0271
 5265SOL    HW227429   0.830   0.948   2.948  0.5730 -2.2711 -2.0330
 5266SOL     OW27430   3.012   2.643  10.962  0.5638  0.2962 -0.3192
 5266SOL    HW127431   2.956   2.658  11.038  0.1497 -0.2158 -0.5239
 5266SOL    HW227432   2.974   2.705  10.901 -2.7234 -2.4340 -1.0423
 5267SOL     OW27433   4.366   0.208  12.360 -0.1900  0.4402  0.2448
 5267SOL    HW127434   4.294   0.217  12.297  0.9177  1.4466 -0.8813
 5267SOL    HW227435   4.320   0.151  12.422  0.0818  2.0537  1.9301
 5268SOL     OW27436   2.455   3.116   4.216  0.5870  0.2492  0.3784
 5268SOL    HW127437   2.521   3.141   4.152  0.4362  1.5955  0.7492
 5268SOL    HW227438   2.390   3.078   4.156  0.7151  3.0975 -1.5359
 5269SOL     OW27439   2.149   2.496  13.507 -0.0692  0.1356  0.0622
 5269SOL    HW127440   2.107   2.534  13.584  2.1987  2.2483  0.2444
 5269SOL    HW227441   2.071   2.461  13.462 -1.0872  0.1609  1.8149
 5270SOL     OW27442   3.620   3.718   7.152 -0.0713 -0.3063 -0.0357
 5270SOL    HW127443   3.543   3.760   7.190  1.0510  3.0733 -1.5329
 5270SOL    HW227444   3.626   3.647   7.216 -0.3616 -0.7776 -0.5236
 5271SOL     OW27445   4.158   1.318  13.134 -0.0557 -0.7711  0.0152
 5271SOL    HW127446   4.245   1.356  13.141 -1.3373  1.8742  1.7840
 5271SOL    HW227447   4.111   1.381  13.189  2.7674  3.2628 -2.1701
 5272SOL     OW27448   2.031   3.659   8.264 -0.5153  0.3788 -0.1678
 5272SOL    HW127449   2.086   3.628   8.336  2.2312  2.0322 -1.5305
 5272SOL    HW227450   1.955   3.688   8.314 -2.2465 -3.6322 -0.4840
 5273SOL     OW27451   1.591   1.777   7.528 -0.1371 -0.1875 -0.1031
 5273SOL    HW127452   1.565   1.865   7.500 -0.4606 -0.1459  0.3110
 5273SOL    HW227453   1.633   1.811   7.607 -1.1506  0.4685  0.1654
 5274SOL     OW27454   3.577   0.856   2.709  0.1879 -0.1941  0.7272
 5274SOL    HW127455   3.650   0.800   2.735  0.8602  0.5235  0.4030
 5274SOL    HW227456   3.530   0.785   2.667  2.1480 -1.0500 -0.0089
 5275SOL     OW27457   1.574   2.220   2.143 -0.0482  0.0610  0.5213
 5275SOL    HW127458   1.594   2.127   2.152  2.0582  0.5345  0.7032
 5275SOL    HW227459   1.488   2.223   2.185  0.8700  2.8866  2.1856
 5276SOL     OW27460   2.490   0.247   8.035  0.4878  1.0143  0.1053
 5276SOL    HW127461   2.451   0.199   8.108  1.4189  0.5619  0.3071
 5276SOL    HW227462   2.429   0.320   8.026  1.1171  1.3443 -1.5324
 5277SOL     OW27463   4.429   1.689   1.436  0.1639  0.1396  0.5703
 5277SOL    HW127464   4.366   1.687   1.508 -0.4592  0.7326  0.0387
 5277SOL    HW227465   4.491   1.621   1.463  2.1063  1.1695 -1.3453
 5278SOL     OW27466   3.410   1.394   1.656 -0.5100 -0.0280 -0.6057
 5278SOL    HW127467   3.410   1.395   1.752  2.9409 -1.0306 -0.5996
 5278SOL    HW227468   3.432   1.304   1.634 -3.1690 -0.4187 -1.6902
 5279SOL     OW27469   4.737   1.306   4.408  0.0696  0.0196  0.1339
 5279SOL    HW127470   4.728   1.400   4.424 -0.6788  0.2950 -1.9208
 5279SOL    HW227471   4.724   1.259   4.491 -0.9560  0.5261  0.2648
 5280SOL     OW27472   4.168   0.219   3.886  0.8952 -0.0602  0.5583
 5280SOL    HW127473   4.225   0.145   3.904  1.2102  0.0725  0.1129
 5280SOL    HW227474   4.085   0.173   3.869  2.1055 -1.7017 -0.9068
 5281SOL     OW27475   0.826   4.660  15.850 -0.0450  0.0133  0.1404
 5281SOL    HW127476   0.812   4.565  15.849  0.5925 -0.0966  1.1816
 5281SOL    HW227477   0.901   4.674  15.908 -1.9724  1.5233  2.2902
 5282SOL     OW27478   2.960   1.723   2.203 -0.4400  0.7041  0.0493
 5282SOL    HW127479   2.897   1.741   2.272  0.6104 -0.9280  1.4457
 5282SOL    HW227480   2.911   1.652   2.163  2.7351 -2.8062  2.3492
 5283SOL     OW27481   0.552   2.631   4.074  0.2703 -0.6447  0.3553
 5283SOL    HW127482   0.514   2.576   4.005  0.6272  1.7113 -1.6978
 5283SOL    HW227483   0.480   2.686   4.103  0.6280  0.8243 -1.5297
 5284SOL     OW27484   3.212   3.545   6.186 -0.2760 -0.0647 -0.4255
 5284SOL    HW127485   3.282   3.579   6.241  0.3712 -0.5028 -0.9750
 5284SOL    HW227486   3.256   3.482   6.128  0.5036 -0.1103  0.2233
 5285SOL     OW27487   1.906   2.551   7.387  0.3047  0.4073 -0.2628
 5285SOL    HW127488   1.945   2.579   7.470  0.1847  2.5371 -0.9260
 5285SOL    HW227489   1.835   2.616   7.389 -0.1815 -0.0636 -1.9264
 5286SOL     OW27490   4.093   3.207   7.973  0.1421 -0.3167 -0.2290
 5286SOL    HW127491   4.122   3.148   8.043 -2.7320  0.1908  1.3753
 5286SOL    HW227492   4.029   3.160   7.919 -0.1986 -0.5787  0.4052
 5287SOL     OW27493   0.903   2.795   4.755  0.2839  0.0770 -0.2734
 5287SOL    HW127494   0.937   2.726   4.697 -1.1430  0.3491 -1.4481
 5287SOL    HW227495   0.889   2.746   4.836  1.1131  1.1853  0.5398
 5288SOL     OW27496   0.793   2.256   9.089  0.4537  0.3879 -0.4205
 5288SOL    HW127497   0.825   2.182   9.140 -2.0036 -0.1528  0.3159
 5288SOL    HW227498   0.705   2.226   9.068  0.1088  0.3600  1.1283
 5289SOL     OW27499   3.098   2.824   0.088  0.3890  0.1200  0.2579
 5289SOL    HW127500   3.049   2.782   0.159 -0.5390 -2.2959 -1.8221
 5289SOL    HW227501   3.028   2.878   0.052 -2.2742 -1.8187  2.4984
 5290SOL     OW27502   3.714   2.023   9.340  0.1551 -0.0747 -0.1356
 5290SOL    HW127503   3.639   2.001   9.396  1.8840 -2.1302  1.3580
 5290SOL    HW227504   3.680   2.066   9.262  1.2975  0.3364 -0.4045
 5291SOL     OW27505   0.567   2.481   9.585 -0.2845 -0.0864 -0.3889
 5291SOL    HW127506   0.565   2.454   9.676  0.1683  0.1227 -0.3217
 5291SOL    HW227507   0.561   2.575   9.600  2.2636  0.1366 -0.8863
 5292SOL     OW27508   4.343   0.910  12.351  0.6536 -0.0556  0.3871
 5292SOL    HW127509   4.410   0.966  12.313  0.7364  0.0927  0.7489
 5292SOL    HW227510   4.389   0.839  12.396  1.9870  1.0554  0.7512
 5293SOL     OW27511   4.182   0.965   4.247  0.4476 -0.2624  0.7387
 5293SOL    HW127512   4.206   1.041   4.195  2.5575 -0.6663  1.1264
 5293SOL    HW227513   4.211   0.889   4.196 -0.0850  0.2828 -0.3710
 5294SOL     OW27514   2.488   4.318   5.157 -0.0494  0.0538  0.1082
 5294SOL    HW127515   2.448   4.398   5.124 -1.2456 -1.2848 -1.6517
 5294SOL    HW227516   2.477   4.251   5.090 -0.3160  0.2879 -0.0786
 5295SOL     OW27517   0.610   0.273   2.035  0.6873 -0.0881 -0.7279
 5295SOL    HW127518   0.640   0.187   2.005 -1.6114 -0.3814 -2.2085
 5295SOL    HW227519   0.523   0.251   2.068 -1.1046  3.3690 -3.1092
 5296SOL     OW27520   3.482   4.441  17.573  0.1333  0.0135  0.3897
 5296SOL    HW127521   3.555   4.504  17.577 -1.7482  2.2861 -1.0064
 5296SOL    HW227522   3.413   4.507  17.579  0.7535  0.6116  0.9598
 5297SOL     OW27523   2.408   2.329   8.578  0.4615 -0.1977 -0.5119
 5297SOL    HW127524   2.334   2.389   8.564 -0.8887 -1.7250  0.0674
 5297SOL    HW227525   2.376   2.275   8.650  1.5465  1.9922  1.6315
 5298SOL     OW27526   3.949   4.588  14.243 -0.3424  0.4105  0.4748
 5298SOL    HW127527   3.857   4.572  14.221  0.6738 -2.6289 -1.4876
 5298SOL    HW227528   3.999   4.521  14.197  0.1585  1.0988  0.0363
 5299SOL     OW27529   0.231   1.840   6.034  0.1983 -0.1406 -0.2079
 5299SOL    HW127530   0.212   1.767   6.092 -1.5529 -0.5846 -1.3470
 5299SOL    HW227531   0.141   1.863   6.010 -0.1607  0.1108  1.3690
 5300SOL     OW27532   0.870   0.863   8.786  0.0883  0.3982  0.3998
 5300SOL    HW127533   0.789   0.910   8.806  0.4467  1.9986 -1.9315
 5300SOL    HW227534   0.881   0.801   8.858 -0.1545 -1.3920 -1.0973
 5301SOL     OW27535   1.298   2.921   7.505  0.5900 -0.3131  0.2781
 5301SOL    HW127536   1.295   2.990   7.439  1.7141 -1.0768 -0.5821
 5301SOL    HW227537   1.361   2.957   7.568 -0.9266  3.2407 -0.2279
 5302SOL     OW27538   3.562   2.739   4.879  0.0462  0.1762  0.3984
 5302SOL    HW127539   3.527   2.809   4.824  0.3801 -0.6068 -0.8111
 5302SOL    HW227540   3.489   2.740   4.942  0.8518 -0.2469  1.3284
 5303SOL     OW27541   4.312   3.259   0.185  0.1987  0.1489  0.1678
 5303SOL    HW127542   4.392   3.232   0.230  1.0017  1.4235 -0.4903
 5303SOL    HW227543   4.254   3.282   0.258  1.0942  1.8541  0.3608
 5304SOL     OW27544   1.345   4.387   5.887 -0.8704 -0.7058 -0.3879
 5304SOL    HW127545   1.309   4.357   5.803  0.5390 -2.1993 -0.4701
 5304SOL    HW227546   1.390   4.307   5.914 -1.9268 -1.4334 -0.7766
 5305SOL     OW27547   0.301   2.830  11.111  0.0316  0.5211  0.1966
 5305SOL    HW127548   0.209   2.840  11.088 -0.2457 -0.2827  0.9418
 5305SOL    HW227549   0.334   2.847  11.022 -0.5477 -1.2240 -0.3460
 5306SOL     OW27550   1.591   0.191   8.774 -0.1549  0.3176  0.7246
 5306SOL    HW127551   1.507   0.218   8.811 -0.2674  2.3369 -1.0252
 5306SOL    HW227552   1.640   0.163   8.852 -0.5817 -0.2072  0.8035
 5307SOL     OW27553   0.194   3.569   1.522  0.7782  0.3162 -0.0962
 5307SOL    HW127554   0.171   3.481   1.494  0.1793  0.3548  0.2832
 5307SOL    HW227555   0.111   3.616   1.526  1.0565  0.7595  0.4955
 5308SOL     OW27556   3.393   2.191   6.623  0.3034  0.4696 -0.2292
 5308SOL    HW127557   3.432   2.115   6.581  0.1071  0.4750 -0.4252
 5308SOL    HW227558   3.399   2.159   6.713  1.1053 -0.6782 -0.6970
 5309SOL     OW27559   0.821   0.209   5.831 -0.6361 -0.4405  1.0351
 5309SOL    HW127560   0.809   0.117   5.855 -0.4325  0.2231  3.6650
 5309SOL    HW227561   0.876   0.192   5.754 -1.2421  0.4272  0.4058
 5310SOL     OW27562   1.586   0.552   4.377 -0.4843 -0.1241 -0.0081
 5310SOL    HW127563   1.508   0.537   4.324 -0.0452 -1.3431 -0.2901
 5310SOL    HW227564   1.588   0.468   4.423 -0.3889 -0.6743 -1.0336
 5311SOL     OW27565   4.103   2.488   2.471 -0.1406  0.2320  0.0719
 5311SOL    HW127566   4.147   2.563   2.512 -1.7092  0.7528  0.7946
 5311SOL    HW227567   4.019   2.527   2.449  0.3650 -0.5909 -3.3417
 5312SOL     OW27568   3.474   0.748   7.678 -0.2899  0.1570 -0.3196
 5312SOL    HW127569   3.415   0.676   7.705 -1.2001  0.4905 -1.4345
 5312SOL    HW227570   3.563   0.719   7.698 -1.0537 -1.1722  1.1926
 5313SOL     OW27571   1.506   3.437   3.567 -0.2564 -0.3635 -0.2719
 5313SOL    HW127572   1.561   3.438   3.646  1.2855  1.2936 -1.3564
 5313SOL    HW227573   1.555   3.498   3.511 -0.0111 -0.6977 -0.4175
 5314SOL     OW27574   4.532   1.946   8.422  0.2922 -0.0027  0.3325
 5314SOL    HW127575   4.594   1.877   8.398 -0.0289 -1.5740  4.0445
 5314SOL    HW227576   4.519   1.939   8.517 -0.7422 -0.4198  0.1552
 5315SOL     OW27577   4.586   3.263   6.323  0.2022 -0.1690 -0.0309
 5315SOL    HW127578   4.674   3.243   6.355 -0.3257 -0.5265  1.2065
 5315SOL    HW227579   4.603   3.309   6.241  1.5124  0.2914  0.4827
 5316SOL     OW27580   1.253   4.120   3.602 -0.6803 -0.9548  0.3457
 5316SOL    HW127581   1.288   4.193   3.551  1.2723 -1.9177  0.3441
 5316SOL    HW227582   1.232   4.157   3.688  0.8458 -0.7223  0.6078
 5317SOL     OW27583   2.986   4.708  11.168  0.2774  0.3521  0.2525
 5317SOL    HW127584   2.914   4.647  11.180  0.4654  0.3615  1.3654
 5317SOL    HW227585   3.032   4.667  11.095  0.6640  1.6351 -0.2320
 5318SOL     OW27586   0.010   3.535   9.142  0.1007 -0.1676 -0.9326
 5318SOL    HW127587   0.073   3.602   9.112 -0.4747  1.0094  0.5207
 5318SOL    HW227588   0.064   3.456   9.137  0.7168  0.1288  1.0513
 5319SOL     OW27589   3.511   4.401   0.629  0.0165 -0.2138 -0.1930
 5319SOL    HW127590   3.573   4.346   0.582 -1.8099 -2.2221 -0.2796
 5319SOL    HW227591   3.579   4.426   0.692 -0.4330  0.0565  0.1860
 5320SOL     OW27592   1.983   1.862  10.087 -0.1320 -0.0521 -0.6103
 5320SOL    HW127593   1.981   1.802  10.162 -0.5058  1.2753  0.4360
 5320SOL    HW227594   1.889   1.865  10.070  0.4327  0.1597 -3.7544
 5321SOL     OW27595   3.735   3.983   5.038 -0.2463  0.1889 -0.2272
 5321SOL    HW127596   3.701   4.065   5.075  0.6672  0.6972 -0.5323
 5321SOL    HW227597   3.765   3.953   5.124 -0.1722  0.3195 -0.2068
 5322SOL     OW27598   4.231   2.460  12.043  0.4803 -0.5743  0.2695
 5322SOL    HW127599   4.200   2.442  12.132  0.0363  0.4085  0.3084
 5322SOL    HW227600   4.255   2.552  12.042  0.7476 -0.6997 -3.8467
 5323SOL     OW27601   0.598   2.832   3.635 -0.3844  0.5838  0.3005
 5323SOL    HW127602   0.657   2.907   3.631  1.4684 -0.9112 -0.5112
 5323SOL    HW227603   0.554   2.851   3.552 -0.4491 -1.9075 -0.2260
 5324SOL     OW27604   3.658   3.025  17.502 -0.2681  0.1559 -0.3164
 5324SOL    HW127605   3.721   2.976  17.555  0.4042  1.6425  0.2551
 5324SOL    HW227606   3.613   2.958  17.452 -0.9975  0.6420 -0.3108
 5325SOL     OW27607   3.975   0.368  16.703 -0.9680  0.3671 -0.3155
 5325SOL    HW127608   3.938   0.366  16.615 -2.0624 -0.0031  0.1516
 5325SOL    HW227609   4.062   0.391  16.671 -0.8456  0.7292  0.2808
 5326SOL     OW27610   4.226   2.892   7.643  0.6695 -0.1362  0.0880
 5326SOL    HW127611   4.245   2.855   7.557 -0.5747 -1.6974  0.4835
 5326SOL    HW227612   4.314   2.920   7.666  0.3929  0.9043 -0.1058
 5327SOL     OW27613   2.738   3.564   2.651 -0.3465 -0.1609  0.4634
 5327SOL    HW127614   2.653   3.605   2.666 -1.0829 -2.2482  1.9761
 5327SOL    HW227615   2.718   3.482   2.605 -0.0596 -0.4595  0.8735
 5328SOL     OW27616   1.467   3.194  11.646 -0.1765  0.2364  0.0450
 5328SOL    HW127617   1.522   3.252  11.700  1.5682 -0.3780 -1.0679
 5328SOL    HW227618   1.446   3.127  11.711 -0.2635  1.3667  1.1904
 5329SOL     OW27619   2.230   0.560   9.821  0.1342  0.5984 -0.2621
 5329SOL    HW127620   2.160   0.528   9.878 -1.6137 -0.7859 -3.1449
 5329SOL    HW227621   2.256   0.476   9.782  0.4985  0.9830 -0.8527
 5330SOL     OW27622   4.139   3.138   6.360 -0.1368 -0.2633  0.1943
 5330SOL    HW127623   4.048   3.168   6.359  0.0727  0.3018 -1.9079
 5330SOL    HW227624   4.181   3.172   6.439  2.1969  1.6281 -1.8620
 5331SOL     OW27625   3.754   2.896   2.091  0.5206 -0.4133 -1.1050
 5331SOL    HW127626   3.786   2.946   2.166  0.3430 -0.3106 -1.0978
 5331SOL    HW227627   3.819   2.828   2.077 -0.9386 -2.2550  1.1066
 5332SOL     OW27628   3.149   0.960  13.006 -0.5181 -0.3432 -0.0835
 5332SOL    HW127629   3.153   1.026  12.937  1.1893 -0.4928 -0.1261
 5332SOL    HW227630   3.237   0.930  13.028  0.2508  2.0592  0.1929
 5333SOL     OW27631   4.298   3.208   5.887  0.2402 -0.1277 -0.4594
 5333SOL    HW127632   4.338   3.295   5.882 -0.3430  0.0155 -2.5558
 5333SOL    HW227633   4.267   3.204   5.978  0.0145 -1.3524 -0.5919
 5334SOL     OW27634   2.591   1.725   6.144 -0.7371 -0.5203  0.0797
 5334SOL    HW127635   2.613   1.698   6.233  0.8212  0.2518 -0.0847
 5334SOL    HW227636   2.499   1.699   6.132 -0.5097 -1.5358  0.5470
 5335SOL     OW27637   3.228   3.295   4.152 -0.0122 -0.3640 -0.4420
 5335SOL    HW127638   3.197   3.325   4.067  1.9316 -0.1079 -1.0469
 5335SOL    HW227639   3.241   3.202   4.136 -1.6037 -0.8444  1.0260
 5336SOL     OW27640   1.218   2.662   1.581 -0.7168 -0.0571  0.7480
 5336SOL    HW127641   1.294   2.720   1.580 -1.4115  0.8574  0.7815
 5336SOL    HW227642   1.260   2.581   1.551  1.5066  0.4003  2.6372
 5337SOL     OW27643   4.075   1.538   5.412  0.5777  0.1660  0.2729
 5337SOL    HW127644   4.076   1.590   5.492 -1.2387 -0.1975  0.5464
 5337SOL    HW227645   4.124   1.464   5.446 -1.2839 -1.1051  0.1953
 5338SOL     OW27646   0.163   2.458   2.781 -0.7417 -0.5115 -0.6302
 5338SOL    HW127647   0.166   2.526   2.848 -0.7298 -2.5977  1.5186
 5338SOL    HW227648   0.068   2.456   2.772 -0.5164 -0.2351 -2.8968
 5339SOL     OW27649   3.979   2.905   7.309 -0.5401 -0.0379 -0.4134
 5339SOL    HW127650   3.914   2.958   7.263  0.6134  0.0214 -1.9545
 5339SOL    HW227651   4.049   2.968   7.326  0.4223 -0.5769 -2.3944
 5340SOL     OW27652   1.397   0.064  10.733 -0.3661 -0.2025 -0.5112
 5340SOL    HW127653   1.403   0.021  10.648 -3.8309 -2.0901  0.2178
 5340SOL    HW227654   1.476   0.118  10.741 -0.4728 -0.0320 -0.6019
 5341SOL     OW27655   2.302   4.117   2.290 -0.6881  0.5094 -0.0403
 5341SOL    HW127656   2.295   4.198   2.240 -2.1595 -1.4162 -2.9212
 5341SOL    HW227657   2.225   4.078   2.250  0.0849  0.6171 -1.6244
 5342SOL     OW27658   2.686   4.733  15.332  0.1708  0.1707  0.2762
 5342SOL    HW127659   2.649   4.649  15.362 -0.7649  0.7517  0.7591
 5342SOL    HW227660   2.676   4.729  15.237  0.4984 -2.0464  0.3246
 5343SOL     OW27661   2.307   2.113  10.477 -0.1598  0.3680  0.0134
 5343SOL    HW127662   2.352   2.191  10.443 -2.5668  0.9476 -1.8201
 5343SOL    HW227663   2.359   2.102  10.556 -0.8383 -1.5480  0.1756
 5344SOL     OW27664   0.590   4.631   8.273 -0.1481 -0.4089  0.0737
 5344SOL    HW127665   0.656   4.575   8.314 -0.0466 -0.5045 -0.2205
 5344SOL    HW227666   0.634   4.658   8.193 -3.1683 -0.3851 -1.5968
 5345SOL     OW27667   0.345   4.520   2.132 -0.4903 -0.2531  0.0755
 5345SOL    HW127668   0.263   4.488   2.170 -1.0495  1.4386  0.2871
 5345SOL    HW227669   0.411   4.458   2.163 -0.0978  1.3146  2.4537
 5346SOL     OW27670   0.606   1.598   3.020 -0.2606  0.4890 -0.2943
 5346SOL    HW127671   0.557   1.517   3.008  1.4316 -0.4129 -1.1718
 5346SOL    HW227672   0.557   1.647   2.954 -1.2798  0.2632  0.2930
 5347SOL     OW27673   4.403   3.287  15.994  0.2671 -0.6610  0.0483
 5347SOL    HW127674   4.434   3.318  15.909 -0.8043 -1.0530 -0.4868
 5347SOL    HW227675   4.462   3.213  16.005  0.0643 -0.9744 -0.9626
 5348SOL     OW27676   4.615   0.838   4.807 -0.0552 -0.4434  0.1377
 5348SOL    HW127677   4.564   0.915   4.781 -0.8169 -0.7407  0.7483
 5348SOL    HW227678   4.552   0.793   4.863  0.7580 -1.2121  0.4255
 5349SOL     OW27679   3.382   0.808   4.629  0.4758  0.5136 -0.6049
 5349SOL    HW127680   3.366   0.846   4.543 -0.0651  0.1585 -0.6600
 5349SOL    HW227681   3.397   0.722   4.590 -0.6531  0.3587 -0.7128
 5350SOL     OW27682   2.431   3.258   0.481 -0.3423 -0.4784 -0.3502
 5350SOL    HW127683   2.511   3.306   0.458 -1.1137  0.7745 -0.3999
 5350SOL    HW227684   2.369   3.331   0.486 -0.3843 -0.5299 -0.1247
 5351SOL     OW27685   4.163   1.205   0.733  0.1125 -0.5235 -0.0663
 5351SOL    HW127686   4.106   1.280   0.752  0.5979  0.2498 -1.6638
 5351SOL    HW227687   4.098   1.136   0.742 -0.1174 -0.4422 -1.2011
 5352SOL     OW27688   0.552   3.528   5.168 -0.3062  0.2804  0.0031
 5352SOL    HW127689   0.547   3.559   5.259 -1.2433 -0.0139  0.0540
 5352SOL    HW227690   0.620   3.594   5.153  1.6232 -1.9410 -0.9861
 5353SOL     OW27691   1.786   0.760   6.574 -0.3546  0.4001 -0.4539
 5353SOL    HW127692   1.867   0.762   6.625 -0.0246  3.2324 -1.1229
 5353SOL    HW227693   1.819   0.799   6.493  1.1077 -1.1643 -0.6257
 5354SOL     OW27694   0.485   3.248   0.987 -0.1643 -0.0988 -0.5770
 5354SOL    HW127695   0.461   3.214   0.901 -2.1002 -0.1299 -0.0262
 5354SOL    HW227696   0.580   3.249   0.982 -0.2243 -0.2913 -1.6692
 5355SOL     OW27697   4.357   2.925   6.055 -0.2481  0.1917  0.1874
 5355SOL    HW127698   4.450   2.911   6.041  0.2908  2.4311  1.6309
 5355SOL    HW227699   4.358   3.021   6.052 -0.1291  0.2246  1.6596
 5356SOL     OW27700   1.735   4.413   1.171 -0.1139  0.2318 -0.3212
 5356SOL    HW127701   1.800   4.345   1.153 -0.2092 -0.4851  1.9703
 5356SOL    HW227702   1.671   4.389   1.104 -0.5323 -0.4965  0.3318
 5357SOL     OW27703   1.904   0.060   7.684  0.1560  0.5555 -0.0903
 5357SOL    HW127704   1.985   0.061   7.635 -2.1778 -0.1252 -3.9762
 5357SOL    HW227705   1.888   0.152   7.704 -1.0902  0.0739  1.1530
 5358SOL     OW27706   0.180   1.322  12.593  0.1768  0.4576  0.3119
 5358SOL    HW127707   0.096   1.286  12.622  0.3133  0.4192  0.6553
 5358SOL    HW227708   0.214   1.368  12.670  0.3863  0.1000  0.4300
 5359SOL     OW27709   2.962   1.601  12.290  0.6992  0.0528  0.0922
 5359SOL    HW127710   2.954   1.588  12.195 -2.4999  2.1000  0.0995
 5359SOL    HW227711   3.018   1.527  12.314  1.2934  0.1649 -0.9027
 5360SOL     OW27712   2.801   2.618  16.908  0.4155  0.3349 -0.2676
 5360SOL    HW127713   2.748   2.689  16.870 -0.4205 -0.2560 -0.2039
 5360SOL    HW227714   2.884   2.664  16.915  0.2852  0.4599  0.3953
 5361SOL     OW27715   3.408   0.601   7.050  0.1264 -0.1257 -0.2070
 5361SOL    HW127716   3.379   0.566   7.134  1.0004 -0.0871  0.1112
 5361SOL    HW227717   3.403   0.695   7.067 -0.8606  0.0466 -1.3749
 5362SOL     OW27718   0.768   3.264   0.969 -0.1470 -0.2851 -0.1272
 5362SOL    HW127719   0.796   3.350   0.938 -0.5031  0.2311  0.9665
 5362SOL    HW227720   0.849   3.237   1.013  0.3486  2.1746  0.4845
 5363SOL     OW27721   1.361   1.898   4.683  0.0025 -0.2638 -0.5419
 5363SOL    HW127722   1.420   1.835   4.641  0.7674  0.3935 -0.4455
 5363SOL    HW227723   1.406   1.889   4.767  1.1890 -1.7640 -1.3264
 5364SOL     OW27724   4.243   4.144  12.226  0.8303  0.1671  0.4640
 5364SOL    HW127725   4.176   4.191  12.176  0.1652 -0.5982  0.6438
 5364SOL    HW227726   4.223   4.051  12.221  1.6792 -0.0558  1.3635
 5365SOL     OW27727   1.395   1.229   4.743 -0.1380  0.1288  0.6544
 5365SOL    HW127728   1.356   1.212   4.829 -0.6826  1.3437  0.6565
 5365SOL    HW227729   1.350   1.314   4.737 -1.3841 -0.5077  0.8891
 5366SOL     OW27730   1.956   1.364   6.866 -0.0786 -0.1919  0.2772
 5366SOL    HW127731   1.876   1.416   6.878 -0.4346 -0.6918  0.1141
 5366SOL    HW227732   1.990   1.390   6.952  0.9583 -0.5237 -0.0338
 5367SOL     OW27733   2.853   0.887   7.302 -0.0558 -0.1944 -0.5936
 5367SOL    HW127734   2.936   0.840   7.294  0.1033 -0.3213  1.7051
 5367SOL    HW227735   2.878   0.978   7.284  1.5301 -0.5020  0.0953
 5368SOL     OW27736   0.450   3.213   2.712  0.2846 -0.2840  0.0337
 5368SOL    HW127737   0.501   3.134   2.690 -0.7373 -0.7458 -0.6789
 5368SOL    HW227738   0.372   3.175   2.754  0.3547 -1.5550 -0.9815
 5369SOL     OW27739   0.882   0.781   3.664  0.6675 -0.2590 -0.4312
 5369SOL    HW127740   0.923   0.712   3.716  1.5046  0.1868 -0.5125
 5369SOL    HW227741   0.912   0.750   3.578 -0.8208 -0.6251 -0.8272
 5370SOL     OW27742   2.612   0.375   1.413 -0.1789 -0.0891  0.0790
 5370SOL    HW127743   2.597   0.367   1.319  0.6822  0.8249 -0.1380
 5370SOL    HW227744   2.535   0.418   1.450  1.9067  2.8777  0.9546
 5371SOL     OW27745   0.657   1.430   7.240 -0.1075 -0.0336 -0.1930
 5371SOL    HW127746   0.742   1.417   7.198  0.6904  0.7867  1.1894
 5371SOL    HW227747   0.607   1.378   7.177  0.3030 -0.6383 -0.0209
 5372SOL     OW27748   2.855   3.437  14.788  0.0266  0.1865 -0.2256
 5372SOL    HW127749   2.877   3.526  14.815  2.0700 -0.1559 -0.7227
 5372SOL    HW227750   2.865   3.446  14.693 -0.9022 -0.4302 -0.3813
 5373SOL     OW27751   3.614   0.968  16.378  0.6563  0.7841  0.2959
 5373SOL    HW127752   3.675   0.974  16.304 -0.6916  0.1669 -0.8525
 5373SOL    HW227753   3.666   1.022  16.438 -1.2802  1.0684  1.6904
 5374SOL     OW27754   1.814   1.701   2.380  0.4394  0.1998 -0.0618
 5374SOL    HW127755   1.826   1.654   2.462 -0.6022 -1.4341 -0.8465
 5374SOL    HW227756   1.766   1.636   2.328 -2.3850  0.4067  2.3064
 5375SOL     OW27757   4.027   4.084   1.037 -0.0811  0.0714 -0.3163
 5375SOL    HW127758   4.060   4.121   1.119  0.1449 -0.4985 -0.1508
 5375SOL    HW227759   4.061   4.147   0.974 -0.2092  1.5397  1.0855
 5376SOL     OW27760   3.035   1.698   4.945 -0.0402 -0.2837 -0.0175
 5376SOL    HW127761   2.942   1.692   4.968 -0.3767 -1.9997 -1.8415
 5376SOL    HW227762   3.078   1.657   5.021 -0.9993 -1.6204 -0.1853
 5377SOL     OW27763   1.085   1.736   0.709  0.0678  0.1380  0.0030
 5377SOL    HW127764   1.028   1.762   0.781  1.5565 -2.3172  2.0789
 5377SOL    HW227765   1.148   1.681   0.755 -0.8061 -2.2482 -1.6408
 5378SOL     OW27766   3.288   2.831   4.475  0.2381 -0.0661  0.4207
 5378SOL    HW127767   3.241   2.749   4.457 -0.5685  0.2826  0.9608
 5378SOL    HW227768   3.217   2.890   4.501 -0.7794 -0.7944 -0.6429
 5379SOL     OW27769   4.564   0.559  11.325 -0.1953 -0.2988  0.3438
 5379SOL    HW127770   4.488   0.519  11.368 -0.9301 -0.9812 -1.6175
 5379SOL    HW227771   4.523   0.617  11.261  1.6540 -0.6297 -1.1468
 5380SOL     OW27772   4.714   4.049   5.051  0.1167  0.3095  0.8264
 5380SOL    HW127773   4.643   3.997   5.015  0.4214  0.5464 -0.1157
 5380SOL    HW227774   0.052   4.016   5.002 -1.2943 -2.1430  0.3078
 5381SOL     OW27775   2.209   2.807   7.416 -0.2804 -0.2211 -0.3958
 5381SOL    HW127776   2.187   2.759   7.496  1.6812  1.9500  1.4322
 5381SOL    HW227777   2.226   2.729   7.363  0.3199 -1.2566  1.3213
 5382SOL     OW27778   1.159   2.416   4.853  0.0396  0.3784  0.0184
 5382SOL    HW127779   1.150   2.348   4.920 -3.1630  0.0021 -0.8047
 5382SOL    HW227780   1.094   2.392   4.787  0.3335 -0.3498 -0.0104
 5383SOL     OW27781   4.108   2.964  17.749  0.2824  0.0866  0.4993
 5383SOL    HW127782   4.023   2.921   0.010 -0.7577  2.5817  2.3572
 5383SOL    HW227783   4.079   3.023  17.680  1.3761 -0.4436 -0.4104
 5384SOL     OW27784   4.155   0.387  11.563  0.2263  1.0321  0.3739
 5384SOL    HW127785   4.139   0.478  11.538 -2.1602  1.0762  2.1247
 5384SOL    HW227786   4.151   0.399  11.658  2.5252 -0.2627  0.6441
 5385SOL     OW27787   2.512   4.335   2.037 -0.4386  0.2113  0.0145
 5385SOL    HW127788   2.455   4.296   1.971  1.5047  2.9909 -3.2943
 5385SOL    HW227789   2.582   4.340   1.973 -0.0452 -3.0654  0.1521
 5386SOL     OW27790   1.567   1.743   8.559 -0.4255  0.1050  0.4289
 5386SOL    HW127791   1.591   1.786   8.641 -0.3349  0.3297  0.2837
 5386SOL    HW227792   1.489   1.797   8.544  0.5058  1.4951  0.5944
 5387SOL     OW27793   3.577   3.186  16.087  0.3124 -0.4407 -0.6078
 5387SOL    HW127794   3.483   3.172  16.095  0.7524 -1.4232  2.8544
 5387SOL    HW227795   3.600   3.203  16.178  0.1954  0.2293 -0.7046
 5388SOL     OW27796   2.991   3.314   3.782 -0.2201 -0.6544 -0.1558
 5388SOL    HW127797   3.065   3.339   3.727 -1.1552 -0.4759 -1.3159
 5388SOL    HW227798   2.998   3.377   3.854  0.5298 -0.5263 -0.3333
 5389SOL     OW27799   3.812   4.402  12.592 -0.7304  0.2011 -0.6002
 5389SOL    HW127800   3.839   4.370  12.506  4.0411  2.3975  0.0946
 5389SOL    HW227801   3.758   4.476  12.566 -1.1865  0.3652  0.8000
 5390SOL     OW27802   1.547   0.734   4.781 -0.0328  0.4572 -0.1292
 5390SOL    HW127803   1.469   0.684   4.757  0.9161 -0.2597 -1.7591
 5390SOL    HW227804   1.528   0.823   4.753 -1.2356  0.0383 -0.6505
 5391SOL     OW27805   3.626   3.101   3.943  0.3917  0.1675  0.1106
 5391SOL    HW127806   3.624   3.042   4.018  0.4925 -0.3944 -0.3263
 5391SOL    HW227807   3.572   3.175   3.970  0.2323  0.2285 -0.3736
 5392SOL     OW27808   0.261   1.273  14.038  0.3702 -0.0638  0.6134
 5392SOL    HW127809   0.222   1.299  14.122  0.5390 -0.5058  0.8302
 5392SOL    HW227810   0.299   1.190  14.067 -0.5146 -0.3686  0.8940
 5393SOL     OW27811   1.773   2.678  14.039  0.2622 -0.0937  0.1896
 5393SOL    HW127812   1.718   2.730  14.098  0.6985  1.0962 -0.4572
 5393SOL    HW227813   1.819   2.611  14.090  0.0199 -0.7369 -0.4458
 5394SOL     OW27814   2.766   2.717   9.105  0.3500  0.2994 -0.3450
 5394SOL    HW127815   2.800   2.652   9.166 -3.7919 -2.2274 -0.7202
 5394SOL    HW227816   2.847   2.759   9.078 -0.3045  2.6372  1.2441
 5395SOL     OW27817   4.699   3.559   2.613 -0.3718 -0.2160 -0.7593
 5395SOL    HW127818   4.628   3.594   2.559 -1.1080 -0.0904  0.2836
 5395SOL    HW227819   4.655   3.509   2.682 -0.9575  1.0348 -0.2222
 5396SOL     OW27820   0.014   3.818   1.345  0.2965  0.2265  0.3035
 5396SOL    HW127821   0.087   3.783   1.294 -0.9418 -2.8372  0.5947
 5396SOL    HW227822   0.055   3.893   1.388  0.6751  0.7329 -0.9382
 5397SOL     OW27823   4.085   4.503   1.974 -0.0995 -0.2263  0.7704
 5397SOL    HW127824   4.055   4.464   1.892 -0.1560 -2.0244  1.6417
 5397SOL    HW227825   4.045   4.589   1.963 -0.7860 -0.6014  0.3449
 5398SOL     OW27826   2.841   0.327  11.852 -0.1700  0.0487 -0.6085
 5398SOL    HW127827   2.785   0.299  11.925  0.3188  1.0482  0.1552
 5398SOL    HW227828   2.912   0.264  11.857  1.5332  2.1727  1.7171
 5399SOL     OW27829   2.908   3.727  16.518  0.3701  0.5288 -0.1646
 5399SOL    HW127830   2.849   3.782  16.570  0.3447  2.1227 -1.8462
 5399SOL    HW227831   2.985   3.727  16.574  2.1369 -2.0067 -2.6150
 5400SOL     OW27832   2.519   2.783   9.122 -0.0980  0.0823 -0.2177
 5400SOL    HW127833   2.612   2.769   9.104  0.3272  3.5114 -0.7231
 5400SOL    HW227834   2.527   2.863   9.174 -0.0908 -0.0359 -0.0380
 5401SOL     OW27835   1.849   3.244  14.633 -0.2329 -0.0785 -0.4245
 5401SOL    HW127836   1.785   3.174  14.642 -0.6303  0.5241  1.4132
 5401SOL    HW227837   1.925   3.186  14.641  0.1106  0.1437 -1.8981
 5402SOL     OW27838   4.170   1.739  13.628 -0.4326 -0.4659  0.4836
 5402SOL    HW127839   4.128   1.780  13.704  1.4689  0.6892  0.9059
 5402SOL    HW227840   4.185   1.806  13.562  0.6593  0.6472  1.8417
 5403SOL     OW27841   2.785   4.160   2.852 -0.0995  0.6468 -0.1708
 5403SOL    HW127842   2.734   4.237   2.877 -1.2576 -0.3878  0.6215
 5403SOL    HW227843   2.753   4.119   2.772 -2.5276  1.5609  0.3556
 5404SOL     OW27844   1.692   0.859   8.991 -0.5037 -0.1872  0.1774
 5404SOL    HW127845   1.647   0.876   9.074  0.0560 -0.9939  0.6362
 5404SOL    HW227846   1.733   0.774   9.007 -2.5421 -0.8204  1.9453
 5405SOL     OW27847   1.772   2.597  12.191 -0.4486  0.0499 -0.0309
 5405SOL    HW127848   1.682   2.579  12.217 -0.8614  1.4348 -0.5428
 5405SOL    HW227849   1.812   2.518  12.229 -0.3974  0.6492  1.1480
 5406SOL     OW27850   4.440   0.837   3.200 -0.2459  0.0793 -0.2507
 5406SOL    HW127851   4.436   0.799   3.112  0.6954 -1.1774  0.2407
 5406SOL    HW227852   4.440   0.764   3.261  3.1155  0.4826  0.2354
 5407SOL     OW27853   1.092   2.411   5.859 -0.4966 -0.0503  0.2623
 5407SOL    HW127854   1.155   2.409   5.932 -0.7617 -1.3937  0.4636
 5407SOL    HW227855   1.020   2.366   5.903 -1.4146 -0.8764 -2.1083
 5408SOL     OW27856   0.018   3.960  15.147  0.1598 -0.0003 -0.4021
 5408SOL    HW127857   4.715   4.043  15.170 -0.0535  0.3638 -2.0790
 5408SOL    HW227858   4.700   3.937  15.072 -1.2644 -1.5231  1.1094
 5409SOL     OW27859   1.579   4.256   8.082 -0.4733 -0.0427  0.2280
 5409SOL    HW127860   1.589   4.336   8.030  0.9995  1.8933  3.5008
 5409SOL    HW227861   1.484   4.245   8.081 -0.1965 -2.8541  2.3817
 5410SOL     OW27862   0.473   3.680   4.411  0.1308 -0.2957 -0.0318
 5410SOL    HW127863   0.509   3.680   4.500  1.5552 -2.1416 -0.6115
 5410SOL    HW227864   0.514   3.762   4.381  1.3282 -1.7483 -2.4491
 5411SOL     OW27865   2.833   2.534   1.479 -0.7951  0.1808 -0.2836
 5411SOL    HW127866   2.920   2.557   1.512 -1.6596 -1.7700  3.4544
 5411SOL    HW227867   2.798   2.479   1.549  0.1739 -0.6005 -0.3961
 5412SOL     OW27868   3.240   3.067   6.570  0.5600  0.0668  0.0764
 5412SOL    HW127869   3.304   3.134   6.547  1.0465  0.1071  1.6157
 5412SOL    HW227870   3.239   3.078   6.665  2.0626 -3.8420  0.5448
 5413SOL     OW27871   2.370   1.992  13.612 -0.6385  0.4460  0.1482
 5413SOL    HW127872   2.360   2.070  13.556 -1.8999  1.1697  1.3780
 5413SOL    HW227873   2.281   1.963  13.630  0.2673 -2.6222 -0.4313
 5414SOL     OW27874   2.947   2.026   6.711 -0.0576 -0.3213 -0.3769
 5414SOL    HW127875   2.970   2.041   6.802  1.4781  0.2358 -0.8497
 5414SOL    HW227876   2.871   1.968   6.713 -0.7034  0.6352  2.3403
 5415SOL     OW27877   2.941   3.425   5.814  0.1704  0.2182 -0.7215
 5415SOL    HW127878   2.916   3.434   5.906 -1.1573 -3.0661 -0.7536
 5415SOL    HW227879   2.856   3.400   5.777  0.2781  0.7167 -1.2980
 5416SOL     OW27880   4.559   4.575   7.582 -1.2219 -0.2140 -0.1293
 5416SOL    HW127881   4.540   4.487   7.614  1.6327 -1.3698 -1.5877
 5416SOL    HW227882   4.575   4.625   7.662  1.6554  0.4663 -1.1089
 5417SOL     OW27883   0.977   4.090   7.567 -0.0567  0.0553 -0.7124
 5417SOL    HW127884   1.042   4.152   7.598 -1.0160  0.6458  0.1299
 5417SOL    HW227885   1.039   4.024   7.536 -1.2595 -1.2356 -0.4137
 5418SOL     OW27886   2.107   2.335   4.663 -0.4115  0.4216 -0.0822
 5418SOL    HW127887   2.070   2.247   4.669  0.6886  0.0383  1.1022
 5418SOL    HW227888   2.091   2.357   4.571 -0.4857 -0.6929 -0.3346
 5419SOL     OW27889   2.856   3.321  12.351 -0.6440  0.2849  0.2137
 5419SOL    HW127890   2.775   3.291  12.310 -1.5985  0.0232  2.2896
 5419SOL    HW227891   2.836   3.402  12.396  0.3644  0.5446  0.2082
 5420SOL     OW27892   4.046   2.463   4.328  0.0851 -0.0994  0.6196
 5420SOL    HW127893   3.954   2.463   4.352 -0.0192  0.8800  0.2373
 5420SOL    HW227894   4.046   2.524   4.253 -0.2536  0.4659  1.0760
 5421SOL     OW27895   3.298   3.979   1.206 -0.7598 -0.0274 -0.1448
 5421SOL    HW127896   3.313   3.885   1.200  0.5687  0.2715 -1.3631
 5421SOL    HW227897   3.216   3.991   1.254  0.6319  2.6250  1.5819
 5422SOL     OW27898   0.266   0.135   7.052  0.2647 -0.3085  0.3761
 5422SOL    HW127899   0.290   0.122   6.960 -1.0988 -0.5272  0.0630
 5422SOL    HW227900   0.262   0.230   7.064 -2.8029 -0.2935 -0.9570
 5423SOL     OW27901   2.835   0.907  13.709  0.5406  0.3541  0.0297
 5423SOL    HW127902   2.873   0.892  13.622 -0.5131  2.3038 -0.7657
 5423SOL    HW227903   2.785   0.825  13.705  0.4884  0.4790 -1.9956
 5424SOL     OW27904   0.162   3.650   9.558 -0.0952 -0.3666  0.0182
 5424SOL    HW127905   0.111   3.621   9.482 -0.2393  1.9427 -0.7715
 5424SOL    HW227906   0.146   3.745   9.561 -1.0467 -0.5178 -0.1910
 5425SOL     OW27907   2.755   1.770   3.644  0.3776  0.4052 -0.5612
 5425SOL    HW127908   2.807   1.838   3.688 -0.3671 -1.2017  2.7867
 5425SOL    HW227909   2.824   1.720   3.601  0.0659  1.5797 -2.4566
 5426SOL     OW27910   3.256   0.532   5.785 -0.2440 -0.0749 -0.0243
 5426SOL    HW127911   3.329   0.558   5.841 -1.7245  0.6372  1.5878
 5426SOL    HW227912   3.284   0.469   5.719 -1.7947  0.9572 -1.6839
 5427SOL     OW27913   0.988   0.076   5.634 -0.2935  0.0080  0.3716
 5427SOL    HW127914   1.013   0.085   5.542 -0.0186 -1.3312  0.3129
 5427SOL    HW227915   1.029   4.733   5.665  1.6723  1.8455  2.5554
 5428SOL     OW27916   2.121   1.428   3.210  0.2174  0.0409  0.0404
 5428SOL    HW127917   2.205   1.433   3.165 -0.2403  0.5675 -0.7712
 5428SOL    HW227918   2.056   1.477   3.158  0.0640  0.2877  0.4582
 5429SOL     OW27919   4.677   2.584   8.337 -0.1842 -0.0485  0.2674
 5429SOL    HW127920   4.684   2.638   8.258  0.6386 -2.3300 -1.2267
 5429SOL    HW227921   4.584   2.565   8.342  0.1113 -1.8146 -0.7594
 5430SOL     OW27922   2.345   3.940   2.696 -0.0767 -0.2043 -0.8139
 5430SOL    HW127923   2.250   3.949   2.692 -0.1496  0.6543  3.7018
 5430SOL    HW227924   2.367   3.983   2.614  1.8536  1.2757  0.4828
 5431SOL     OW27925   3.992   1.640   3.941 -0.1202  0.0566 -0.2193
 5431SOL    HW127926   3.942   1.656   3.861 -1.9637  0.9474  1.1189
 5431SOL    HW227927   3.983   1.546   3.950  0.1127  0.2082  1.6005
 5432SOL     OW27928   2.781   3.315   2.530  0.4511  0.5261  0.0665
 5432SOL    HW127929   2.722   3.330   2.456  1.3940 -0.4992 -0.8991
 5432SOL    HW227930   2.739   3.241   2.574  1.6357 -0.2147 -0.0550
 5433SOL     OW27931   0.792   0.376   4.415  0.1364 -0.1163 -0.0090
 5433SOL    HW127932   0.718   0.400   4.470  1.0984  0.5124  1.0064
 5433SOL    HW227933   0.749   0.373   4.329 -2.7525 -1.6266  1.4871
 5434SOL     OW27934   2.350   4.383  11.218 -0.6664 -0.5520 -0.5183
 5434SOL    HW127935   2.306   4.311  11.262 -0.6611  0.4080  1.0603
 5434SOL    HW227936   2.291   4.458  11.223  1.0648  0.8927 -1.4824
 5435SOL     OW27937   3.875   1.212   2.643 -0.3133  0.2469 -0.1486
 5435SOL    HW127938   3.872   1.126   2.601  2.6423 -0.6067  1.4012
 5435SOL    HW227939   3.789   1.247   2.619 -1.3421 -0.9753  1.7683
 5436SOL     OW27940   3.826   4.343   3.768 -0.3141  0.4143  0.2826
 5436SOL    HW127941   3.872   4.368   3.688 -3.1524  0.7715 -1.2460
 5436SOL    HW227942   3.783   4.259   3.753 -1.7165  1.1419  0.1778
 5437SOL     OW27943   0.205   4.410  12.038  0.5408  0.3909  0.7124
 5437SOL    HW127944   0.136   4.350  12.067  1.2023  0.1444  1.7906
 5437SOL    HW227945   0.235   4.356  11.965  0.9712 -0.0887  1.2482
 5438SOL     OW27946   4.372   1.340  11.404  0.2172  0.2416  0.5039
 5438SOL    HW127947   4.460   1.359  11.436  1.2503 -1.8388 -1.0979
 5438SOL    HW227948   4.372   1.373  11.315 -1.2974 -0.9650  0.0525
 5439SOL     OW27949   4.491   3.939   9.952 -0.0255 -0.6426 -1.1470
 5439SOL    HW127950   4.576   3.979   9.976 -0.1800 -1.7164  1.1906
 5439SOL    HW227951   4.514   3.884   9.878 -2.0657  0.5479 -2.6538
 5440SOL     OW27952   3.767   4.390   3.222  0.4695  1.0096  0.0242
 5440SOL    HW127953   3.725   4.348   3.297  0.3371 -1.2270 -1.2973
 5440SOL    HW227954   3.698   4.394   3.156  0.2000 -2.4548  0.1007
 5441SOL     OW27955   4.369   1.656   6.504  0.5719  0.0821 -0.0600
 5441SOL    HW127956   4.312   1.731   6.520  1.5513  0.7786  0.1665
 5441SOL    HW227957   4.308   1.588   6.473 -1.2750  1.2888  0.8911
 5442SOL     OW27958   1.713   1.952   7.720 -0.8677  0.0990 -0.0324
 5442SOL    HW127959   1.721   1.992   7.806  0.9607  0.3717 -0.3473
 5442SOL    HW227960   1.669   2.024   7.675  0.5217  0.6269 -0.5256
 5443SOL     OW27961   2.446   0.545   8.961 -0.0695  0.7146  0.6901
 5443SOL    HW127962   2.517   0.610   8.961  0.0262  0.6050 -0.3391
 5443SOL    HW227963   2.465   0.500   9.044 -2.3013 -0.7525  0.4127
 5444SOL     OW27964   2.444   1.281   4.489  0.4174  0.0653 -0.3566
 5444SOL    HW127965   2.531   1.251   4.513  0.0889 -0.2114  0.4886
 5444SOL    HW227966   2.379   1.215   4.515  2.9254 -1.7790  1.1846
 5445SOL     OW27967   1.260   0.034   5.080  0.2373  0.0263  0.5113
 5445SOL    HW127968   1.222   0.115   5.114 -0.9507  0.0915 -0.9879
 5445SOL    HW227969   1.353   0.058   5.086  0.1628  0.2640  0.7216
 5446SOL     OW27970   2.424   2.522   1.382  0.4099 -0.2502  0.2734
 5446SOL    HW127971   2.378   2.489   1.459 -3.3818 -1.2910 -2.4731
 5446SOL    HW227972   2.494   2.456   1.377 -1.0283 -2.0211  3.5878
 5447SOL     OW27973   2.382   0.805  10.213  0.2184 -0.2001  0.4493
 5447SOL    HW127974   2.462   0.809  10.265 -0.0194  1.2137  0.6827
 5447SOL    HW227975   2.402   0.749  10.137 -0.3313  1.8030 -1.1555
 5448SOL     OW27976   3.552   0.244   9.906  0.4632 -0.2250 -0.3352
 5448SOL    HW127977   3.519   0.268   9.992  0.7564 -1.2784  0.0698
 5448SOL    HW227978   3.639   0.208   9.921  0.2268 -0.3145  0.8382
 5449SOL     OW27979   4.430   0.671   8.459  0.4943  0.1290 -0.1877
 5449SOL    HW127980   4.460   0.742   8.516 -2.1796  0.5154  0.7292
 5449SOL    HW227981   4.503   0.612   8.477  1.6243  0.0846 -4.9667
 5450SOL     OW27982   3.506   0.010   5.037 -0.3393 -0.0198  0.2888
 5450SOL    HW127983   3.418   0.046   5.031  0.0276  0.6724 -0.9508
 5450SOL    HW227984   3.519   4.698   4.957 -0.1441 -0.8770  0.8527
 5451SOL     OW27985   0.250   3.996   3.848 -0.2990 -0.1368  0.2663
 5451SOL    HW127986   0.324   4.013   3.905 -0.6108 -0.4242  0.7516
 5451SOL    HW227987   0.294   3.975   3.766 -1.1974  0.8576 -0.4795
 5452SOL     OW27988   0.589   3.410  13.348  0.3934 -0.0944  0.3404
 5452SOL    HW127989   0.632   3.441  13.268  0.6605  1.6659  1.1796
 5452SOL    HW227990   0.533   3.485  13.365 -0.7102 -1.0126  0.6937
 5453SOL     OW27991   4.263   2.492   9.174 -0.3236  0.2111 -0.1165
 5453SOL    HW127992   4.308   2.431   9.232  1.1123 -0.1222 -1.5814
 5453SOL    HW227993   4.178   2.493   9.217 -0.1562 -0.0158  0.2177
 5454SOL     OW27994   2.267   0.073   3.244  0.4114  0.7255  0.6660
 5454SOL    HW127995   2.329   0.078   3.171  2.2301  0.7617  2.2016
 5454SOL    HW227996   2.323   0.018   3.298  1.3920  1.0300 -0.0409
 5455SOL     OW27997   2.593   3.622   1.322  0.6656  0.3803 -0.2076
 5455SOL    HW127998   2.554   3.702   1.285 -2.1400 -0.3675  1.1721
 5455SOL    HW227999   2.656   3.602   1.253 -0.0363 -0.0852 -0.7059
 5456SOL     OW28000   2.524   1.936   4.189  0.2401 -0.0659  1.1224
 5456SOL    HW128001   2.455   1.929   4.254 -0.7396  0.1024  0.0970
 5456SOL    HW228002   2.480   1.917   4.106  2.1747 -1.7671  0.4616
 5457SOL     OW28003   0.646   0.757  12.891  0.4272 -0.2739 -0.4732
 5457SOL    HW128004   0.663   0.755  12.985 -0.1616 -0.9494 -0.3806
 5457SOL    HW228005   0.717   0.816  12.866  0.3778  0.1887  0.4490
 5458SOL     OW28006   4.317   0.398  14.067  0.1768 -0.2009 -0.7019
 5458SOL    HW128007   4.302   0.418  14.160 -0.5705  0.3512 -0.9434
 5458SOL    HW228008   4.317   0.490  14.041 -0.8270 -0.1400 -0.4896
 5459SOL     OW28009   3.327   0.585   6.160  0.3895 -0.1112 -0.5462
 5459SOL    HW128010   3.287   0.670   6.145 -2.3398 -1.5084 -1.0442
 5459SOL    HW228011   3.351   0.588   6.253  0.1197 -1.3874 -0.4346
 5460SOL     OW28012   0.132   2.270   9.573 -0.3418  0.6312 -0.4971
 5460SOL    HW128013   0.054   2.310   9.534  0.4513 -0.9046 -3.7009
 5460SOL    HW228014   0.127   2.296   9.665 -0.2241  0.9641 -0.5846
 5461SOL     OW28015   0.970   4.334  13.393  0.0791 -0.7729  0.2325
 5461SOL    HW128016   0.875   4.339  13.381  0.1646 -0.4568 -0.3270
 5461SOL    HW228017   0.982   4.426  13.416  0.8285 -1.3433  2.0903
 5462SOL     OW28018   0.288   4.075  13.188 -0.4840 -0.3188 -0.4669
 5462SOL    HW128019   0.328   4.035  13.111 -0.7926 -1.2466 -0.1347
 5462SOL    HW228020   0.275   3.995  13.239 -1.1910  1.3534  1.9803
 5463SOL     OW28021   2.820   3.660   7.908 -0.2860  0.9351  0.0833
 5463SOL    HW128022   2.840   3.589   7.848 -0.7081  1.3470 -0.5443
 5463SOL    HW228023   2.896   3.668   7.966 -0.3792  1.7780  0.0878
 5464SOL     OW28024   3.891   1.022   6.376  0.1845 -0.2713 -0.9280
 5464SOL    HW128025   3.913   0.935   6.409  2.1491  0.6954  0.3122
 5464SOL    HW228026   3.967   1.075   6.401  1.4179 -2.4289 -0.0097
 5465SOL     OW28027   2.899   3.438   7.444  0.1214  0.0111 -0.1514
 5465SOL    HW128028   2.869   3.519   7.403  0.6454  1.0166  1.4682
 5465SOL    HW228029   2.820   3.395   7.476  0.6779 -0.8627  0.0617
 5466SOL     OW28030   1.561   0.885  12.722 -0.4741  0.3834 -0.5828
 5466SOL    HW128031   1.630   0.834  12.681 -1.5037 -0.5987 -1.0982
 5466SOL    HW228032   1.505   0.898  12.646 -0.8022  1.1662 -0.2175
 5467SOL     OW28033   4.587   3.471   3.909 -0.8270  0.0396  0.1058
 5467SOL    HW128034   4.646   3.527   3.959 -1.3997  1.2558 -0.5777
 5467SOL    HW228035   4.545   3.548   3.870 -1.2631 -0.9275 -1.3215
 5468SOL     OW28036   2.299   2.153  16.262 -0.1768 -0.4740 -0.0157
 5468SOL    HW128037   2.363   2.207  16.215  1.7154 -0.5785  2.4341
 5468SOL    HW228038   2.309   2.068  16.219 -0.7357 -0.4004 -0.2890
 5469SOL     OW28039   3.601   0.041   5.509  0.2773 -0.4471 -0.5427
 5469SOL    HW128040   3.668   0.002   5.453 -1.0325  0.3193 -2.6471
 5469SOL    HW228041   3.543   0.086   5.448  0.7063  0.9311  0.0633
 5470SOL     OW28042   2.725   2.351   6.752 -0.3302  0.1627 -0.2195
 5470SOL    HW128043   2.705   2.284   6.686  4.3271 -0.3800 -1.1164
 5470SOL    HW228044   2.704   2.296   6.827  1.3520 -0.5212 -0.2337
 5471SOL     OW28045   1.475   1.460   5.987  0.1756 -0.0071  0.0256
 5471SOL    HW128046   1.380   1.459   5.998  0.0588  2.0500 -0.7972
 5471SOL    HW228047   1.494   1.395   5.920  1.7266  1.9704 -1.4457
 5472SOL     OW28048   4.289   4.300  13.091 -0.4060  0.1430 -0.0903
 5472SOL    HW128049   4.194   4.312  13.096 -0.2619  0.6101  1.5819
 5472SOL    HW228050   4.310   4.388  13.121 -0.9944  0.8197 -1.6683
 5473SOL     OW28051   0.788   1.205   7.850  0.2710 -0.1492  0.6863
 5473SOL    HW128052   0.784   1.244   7.937 -0.0488  2.2309 -0.3737
 5473SOL    HW228053   0.882   1.196   7.838  0.3199 -1.4570  2.1364
 5474SOL     OW28054   4.450   1.585  16.695  0.2302 -0.1611 -0.1892
 5474SOL    HW128055   4.478   1.600  16.786 -2.1124  1.8270  0.2182
 5474SOL    HW228056   4.432   1.679  16.686 -0.6853 -0.3065  0.1318
 5475SOL     OW28057   3.012   1.994   3.462  0.2019  0.0168  0.4582
 5475SOL    HW128058   2.966   1.918   3.426  0.0872  0.7075 -0.8682
 5475SOL    HW228059   2.981   2.072   3.414 -0.4595 -0.0283  0.8203
 5476SOL     OW28060   4.364   3.383   2.715  0.7029 -0.4201 -0.0957
 5476SOL    HW128061   4.357   3.421   2.628 -0.9077  2.0004  1.1050
 5476SOL    HW228062   4.377   3.462   2.768 -2.0207 -1.2584  1.8054
 5477SOL     OW28063   2.680   2.149   5.427 -0.5491 -0.2633  0.0160
 5477SOL    HW128064   2.601   2.129   5.377 -1.0291 -0.1452  0.7232
 5477SOL    HW228065   2.647   2.215   5.487  1.3197 -0.2708  1.0761
 5478SOL     OW28066   2.127   3.582   7.201  0.4512 -0.2944  0.0933
 5478SOL    HW128067   2.175   3.657   7.236 -0.9510  0.3183  0.6709
 5478SOL    HW228068   2.196   3.516   7.204  0.6883 -0.0369  0.2523
 5479SOL     OW28069   3.574   1.408   8.408  0.4138  0.0518  0.3743
 5479SOL    HW128070   3.650   1.446   8.363 -0.8692  1.1560 -0.8576
 5479SOL    HW228071   3.535   1.346   8.346  1.1858 -2.0085  1.9666
 5480SOL     OW28072   1.660   3.170  10.081 -0.6375  0.5194 -0.2736
 5480SOL    HW128073   1.564   3.175  10.074 -0.4614  0.6693 -2.5961
 5480SOL    HW228074   1.677   3.076  10.076 -0.9594  0.4526 -0.1236
 5481SOL     OW28075   0.102   3.377   8.190  0.1822  0.3669 -0.3987
 5481SOL    HW128076   0.092   3.399   8.097 -3.7156 -2.0155 -0.5359
 5481SOL    HW228077   0.196   3.373   8.205  0.0828  0.5366  0.2535
 5482SOL     OW28078   4.630   4.398   5.909 -0.0261 -0.3517 -0.4836
 5482SOL    HW128079   4.640   4.415   5.815 -1.0448 -0.3861 -0.5907
 5482SOL    HW228080   4.631   4.303   5.910 -1.6543 -0.3233  2.2885
 5483SOL     OW28081   4.037   4.514  14.643  0.1615  0.3942 -0.3937
 5483SOL    HW128082   4.000   4.445  14.588 -0.9926  1.6001 -1.1214
 5483SOL    HW228083   4.105   4.548  14.585  0.8567 -0.2870  0.0107
 5484SOL     OW28084   1.491   2.093   6.807 -0.2297  0.2356  0.2877
 5484SOL    HW128085   1.444   2.034   6.749  3.2205 -1.2246 -0.9931
 5484SOL    HW228086   1.583   2.073   6.788  0.0802  2.5170 -0.6765
 5485SOL     OW28087   3.790   2.006  10.965  0.1885  0.0983 -0.5944
 5485SOL    HW128088   3.817   2.073  11.028  2.6490 -1.4663  0.0060
 5485SOL    HW228089   3.699   1.990  10.989  0.3811  0.4251  0.3364
 5486SOL     OW28090   1.452   3.591   2.169 -0.7115  0.0488 -0.0473
 5486SOL    HW128091   1.385   3.544   2.120 -2.9853 -1.1075  4.1682
 5486SOL    HW228092   1.411   3.628   2.247  0.1117 -2.3714  1.5668
 5487SOL     OW28093   4.489   0.291   7.417 -0.4949  0.1759  0.6861
 5487SOL    HW128094   4.437   0.324   7.490  0.8610 -1.4942  2.4428
 5487SOL    HW228095   4.466   0.199   7.430  0.7582 -0.6136 -2.8158
 5488SOL     OW28096   4.380   2.213  16.562  0.4420 -0.2016 -0.2686
 5488SOL    HW128097   4.423   2.283  16.513 -0.6669  0.5400 -0.1675
 5488SOL    HW228098   4.308   2.198  16.501 -0.7389 -2.3273  1.6688
 5489SOL     OW28099   3.574   0.838   6.430  0.6068 -0.0410 -0.0418
 5489SOL    HW128100   3.511   0.907   6.410  1.0950  0.2979 -0.4352
 5489SOL    HW228101   3.620   0.872   6.507 -1.1573  0.7024  0.6874
 5490SOL     OW28102   4.616   2.505   4.824 -0.3798  0.3948  0.1774
 5490SOL    HW128103   4.550   2.470   4.884 -1.5732  2.8399  0.2691
 5490SOL    HW228104   4.574   2.482   4.742  2.1830  0.9145 -1.2710
 5491SOL     OW28105   0.049   2.180   3.023  0.6819 -0.0020 -0.5230
 5491SOL    HW128106   0.144   2.190   3.031  0.4347  2.1372 -0.1366
 5491SOL    HW228107   0.028   2.274   3.031  0.4140 -0.0192 -1.0344
 5492SOL     OW28108   2.109   3.938   6.826  0.3393  0.4214 -0.7470
 5492SOL    HW128109   2.061   4.005   6.876  1.0150 -1.6903  2.7422
 5492SOL    HW228110   2.149   3.895   6.901  1.5566 -0.2508 -1.7927
 5493SOL     OW28111   2.512   1.552   4.475  0.3059 -0.8700 -0.1222
 5493SOL    HW128112   2.474   1.466   4.453  0.2720 -0.5175 -1.4564
 5493SOL    HW228113   2.542   1.532   4.564  0.6230 -1.0964 -0.2770
 5494SOL     OW28114   3.150   1.037   4.805  0.0717 -0.3696 -0.5434
 5494SOL    HW128115   3.061   1.048   4.771 -0.2627 -0.1776  0.3925
 5494SOL    HW228116   3.138   1.047   4.899  1.4452 -1.9395 -0.1983
 5495SOL     OW28117   0.997   3.580   4.756 -0.0031 -0.0845  0.1136
 5495SOL    HW128118   0.978   3.650   4.818 -0.3323  0.1179 -0.2077
 5495SOL    HW228119   0.925   3.517   4.760 -0.9920  1.0943  0.6481
 5496SOL     OW28120   2.725   3.050  15.608 -0.6325 -0.0014 -0.1968
 5496SOL    HW128121   2.746   3.076  15.518  0.2010  0.8628  0.2393
 5496SOL    HW228122   2.687   3.129  15.648 -1.0360 -0.0911 -0.3993
 5497SOL     OW28123   2.331   4.078   6.726 -0.4044  0.2809  0.1954
 5497SOL    HW128124   2.370   4.064   6.812  1.2946 -1.6743 -0.8735
 5497SOL    HW228125   2.261   4.013   6.719  0.9559 -1.2550  0.8315
 5498SOL     OW28126   0.536   4.247  16.265  0.0689  0.1409  0.7217
 5498SOL    HW128127   0.601   4.304  16.224 -0.2983 -1.3839 -1.9680
 5498SOL    HW228128   0.459   4.304  16.279 -0.9443 -1.5631  1.9825
 5499SOL     OW28129   3.684   2.997   5.930 -0.1766  0.4993 -0.2736
 5499SOL    HW128130   3.779   3.010   5.925  0.3153 -2.1146  1.7837
 5499SOL    HW228131   3.679   2.961   5.841 -0.8811  0.2293 -0.1190
 5500SOL     OW28132   0.554   1.868   9.149  0.3739  0.2680 -0.3135
 5500SOL    HW128133   0.523   1.802   9.211  1.3692  1.8872  1.9354
 5500SOL    HW228134   0.618   1.816   9.100  0.4815  0.3024 -0.2090
 5501SOL     OW28135   3.011   3.271   2.102 -0.5239 -0.1046  0.3408
 5501SOL    HW128136   3.098   3.307   2.085  1.0379 -2.2508  3.9032
 5501SOL    HW228137   3.005   3.205   2.034  0.2689  0.0386  0.1374
 5502SOL     OW28138   3.753   0.708   2.838 -0.8337 -0.2826  0.2654
 5502SOL    HW128139   3.707   0.780   2.880  0.3727  0.0714  0.9929
 5502SOL    HW228140   3.703   0.631   2.866  0.1216 -0.9884  0.0576
 5503SOL     OW28141   0.515   1.583   4.430  0.0846 -0.1543 -0.3585
 5503SOL    HW128142   0.524   1.498   4.474  0.2489  0.9159  1.6940
 5503SOL    HW228143   0.483   1.644   4.497 -1.2424 -1.3930  0.1338
 5504SOL     OW28144   2.123   0.625  11.476 -0.2263  0.1425 -0.5844
 5504SOL    HW128145   2.184   0.552  11.475 -0.7057 -0.2596 -0.5979
 5504SOL    HW228146   2.068   0.604  11.552  0.3235  0.2695 -0.1542
 5505SOL     OW28147   2.825   1.770  16.677 -0.2336 -0.0540 -0.0089
 5505SOL    HW128148   2.876   1.792  16.599 -0.4201  0.2533 -0.0446
 5505SOL    HW228149   2.801   1.853  16.719  1.5468  0.8033 -0.6919
 5506SOL     OW28150   3.970   0.719  14.309  0.4078  0.1609 -0.9245
 5506SOL    HW128151   4.052   0.669  14.310  2.0043  2.7341 -3.0102
 5506SOL    HW228152   3.907   0.683  14.246 -1.5741  0.6199  0.7848
 5507SOL     OW28153   2.089   2.383   8.498 -0.2712 -0.3421  0.1740
 5507SOL    HW128154   2.014   2.332   8.467  1.3479 -1.1371 -2.4458
 5507SOL    HW228155   2.095   2.358   8.590  3.8449 -3.4002 -0.9309
 5508SOL     OW28156   0.481   0.937   6.138  0.1872 -0.2927 -0.1458
 5508SOL    HW128157   0.577   0.940   6.142  0.0559  1.2316  1.9091
 5508SOL    HW228158   0.453   1.028   6.142  0.4263 -0.1265 -2.1377
 5509SOL     OW28159   1.477   0.235   0.867  0.5641  0.1581  0.3834
 5509SOL    HW128160   1.486   0.234   0.771  1.9132 -0.6348  0.5161
 5509SOL    HW228161   1.569   0.250   0.890  0.8170 -0.8130  0.0272
 5510SOL     OW28162   4.415   0.786  10.631  0.1060 -0.4115 -0.1484
 5510SOL    HW128163   4.388   0.740  10.710 -0.4426  0.6930  0.3160
 5510SOL    HW228164   4.467   0.857  10.669 -1.4477  0.9272 -0.5225
 5511SOL     OW28165   0.975   4.713  12.367  0.3392 -0.7153  0.5248
 5511SOL    HW128166   0.979   0.010  12.456  0.3958 -0.2679  0.3469
 5511SOL    HW228167   0.883   4.731  12.349  0.8119  1.5802  0.4527
 5512SOL     OW28168   4.263   4.732  17.644 -0.0396  0.0224  0.1746
 5512SOL    HW128169   4.313   0.073  17.665 -0.0450 -0.1290  0.7383
 5512SOL    HW228170   4.279   4.730  17.549 -1.2996  0.5617 -0.0444
 5513SOL     OW28171   0.010   2.584   4.458  0.3320 -0.5720 -0.0888
 5513SOL    HW128172   0.021   2.629   4.542 -0.7391  0.3087 -0.4290
 5513SOL    HW228173   4.668   2.531   4.471 -0.4481  1.1138  1.9146
 5514SOL     OW28174   2.651   3.528   9.567  0.1847  0.3363 -0.3654
 5514SOL    HW128175   2.733   3.537   9.519  0.0339  0.5040 -0.5899
 5514SOL    HW228176   2.604   3.605   9.538  0.4802  0.3759 -0.7344
 5515SOL     OW28177   3.656   0.456   2.874  0.8121 -0.2774 -0.2654
 5515SOL    HW128178   3.743   0.419   2.861  1.0863  0.4632 -0.5287
 5515SOL    HW228179   3.606   0.419   2.801 -1.0499  1.1927  0.2561
 5516SOL     OW28180   0.738   3.407   3.541 -0.4953  0.0917 -0.3303
 5516SOL    HW128181   0.720   3.330   3.595  1.2161 -0.8819 -1.1856
 5516SOL    HW228182   0.827   3.426   3.570 -1.4358  2.8795  0.7681
 5517SOL     OW28183   1.115   2.056   2.604 -0.5010 -0.1633  0.3254
 5517SOL    HW128184   1.045   2.075   2.542 -2.3716  0.0696  2.5040
 5517SOL    HW228185   1.130   2.147   2.629  2.1372 -1.1907  2.5591
 5518SOL     OW28186   2.783   1.696   9.820 -0.2922  0.4185 -0.0855
 5518SOL    HW128187   2.718   1.657   9.761 -2.0426  2.3815  0.5393
 5518SOL    HW228188   2.791   1.784   9.782  0.4975  0.1566 -0.5092
 5519SOL     OW28189   1.853   1.286  10.034 -0.0605  0.0732  0.7346
 5519SOL    HW128190   1.928   1.284   9.975  0.7453 -0.1931  1.7707
 5519SOL    HW228191   1.857   1.378  10.059 -0.5939  0.7153 -1.5160
 5520SOL     OW28192   3.346   0.317   7.855 -0.3571 -0.6458  0.3062
 5520SOL    HW128193   3.417   0.346   7.913  0.0712 -0.0518 -0.5207
 5520SOL    HW228194   3.357   0.222   7.853 -2.3744 -0.8494 -0.6070
 5521SOL     OW28195   3.866   0.108   2.203  0.4599 -0.4133 -0.4499
 5521SOL    HW128196   3.858   0.028   2.151  0.0664 -0.3140 -0.5435
 5521SOL    HW228197   3.824   0.159   2.134  1.7176  0.7845 -0.3481
 5522SOL     OW28198   2.891   4.572   3.926 -0.6229  0.2646 -0.0502
 5522SOL    HW128199   2.811   4.579   3.978 -1.7915  0.8128 -1.9416
 5522SOL    HW228200   2.935   4.656   3.938 -0.2251  0.0066  0.3217
 5523SOL     OW28201   3.875   0.576  15.183 -0.5885  0.3946  0.6914
 5523SOL    HW128202   3.801   0.637  15.173 -0.4213  0.8685  2.3251
 5523SOL    HW228203   3.925   0.612  15.256 -0.0857 -0.3529  0.7086
 5524SOL     OW28204   3.531   0.848   8.307 -0.3535 -0.5555 -0.3870
 5524SOL    HW128205   3.465   0.916   8.291  1.5261  1.7193  1.4251
 5524SOL    HW228206   3.499   0.809   8.389  0.6969 -0.8324 -0.1143
 5525SOL     OW28207   1.078   1.225   1.670 -0.2153  0.0745 -0.2236
 5525SOL    HW128208   1.157   1.265   1.634  1.4156 -1.2397  1.8739
 5525SOL    HW228209   1.056   1.281   1.744 -1.9022  0.9671 -1.4011
 5526SOL     OW28210   4.343   1.528   7.101 -0.6474 -0.4857 -0.2868
 5526SOL    HW128211   4.353   1.469   7.176 -2.0142 -0.6546 -0.2363
 5526SOL    HW228212   4.392   1.606   7.126 -0.2852 -0.3126 -1.5338
 5527SOL     OW28213   3.804   4.478   0.599 -0.4612  0.4141 -0.2117
 5527SOL    HW128214   3.802   4.483   0.504 -0.3371  1.8895 -0.1361
 5527SOL    HW228215   3.892   4.504   0.625 -0.2917 -0.6765  0.3183
 5528SOL     OW28216   4.495   4.304  10.376 -0.5420  0.1261  0.5007
 5528SOL    HW128217   4.525   4.214  10.391  2.7847  0.8623 -1.8218
 5528SOL    HW228218   4.474   4.312  10.283  2.4543  1.0007 -0.1134
 5529SOL     OW28219   3.157   2.641   0.681  0.1193  0.4010 -0.2570
 5529SOL    HW128220   3.124   2.604   0.763  0.2523  1.2714  0.1897
 5529SOL    HW228221   3.075   2.628   0.633  0.0210 -0.8378  0.2447
 5530SOL     OW28222   0.512   2.002   8.440 -0.5140 -0.0471  0.1185
 5530SOL    HW128223   0.419   1.980   8.453 -0.2413 -1.2533  0.0784
 5530SOL    HW228224   0.543   1.993   8.530 -0.3663 -2.4866 -0.1699
 5531SOL     OW28225   3.248   3.591   7.380 -0.3210  0.3407  0.5486
 5531SOL    HW128226   3.327   3.639   7.355  0.6443 -1.5684 -0.0038
 5531SOL    HW228227   3.280   3.505   7.406  1.0084  0.2674 -1.2906
 5532SOL     OW28228   4.202   4.021   7.707  0.3706 -0.1908  0.6477
 5532SOL    HW128229   4.159   4.088   7.759  0.0855 -0.4798  0.7772
 5532SOL    HW228230   4.178   3.946   7.761  0.9244  0.8392  2.3329
 5533SOL     OW28231   1.768   2.482   4.548  0.3516 -0.3304 -0.1950
 5533SOL    HW128232   1.794   2.439   4.466 -0.0897  2.3228 -1.7368
 5533SOL    HW228233   1.704   2.422   4.584  2.0257 -1.7064  0.4868
 5534SOL     OW28234   4.512   3.817  17.569 -0.0891 -0.1927  0.1830
 5534SOL    HW128235   4.474   3.745  17.619  0.4299 -0.3411  0.3713
 5534SOL    HW228236   4.492   3.798  17.477  1.4595  0.5214 -0.3144
 5535SOL     OW28237   1.786   2.480  17.059  0.2909 -0.0265  0.2365
 5535SOL    HW128238   1.706   2.446  17.018 -0.2186  0.1270  1.0870
 5535SOL    HW228239   1.795   2.425  17.137 -2.4660 -3.9345 -2.1852
 5536SOL     OW28240   0.865   2.737   7.103 -0.6570 -0.5933 -0.1614
 5536SOL    HW128241   0.899   2.824   7.126  0.7863 -1.0730 -0.5073
 5536SOL    HW228242   0.773   2.753   7.125 -0.4576 -0.0993  0.3194
 5537SOL     OW28243   2.866   3.807   2.839 -0.9060 -0.1319 -0.2261
 5537SOL    HW128244   2.784   3.778   2.880 -0.5340  0.8037  1.1776
 5537SOL    HW228245   2.863   3.775   2.749  2.5062 -0.9304 -0.0442
 5538SOL     OW28246   2.997   3.159  10.523  0.3769  0.0601 -0.6435
 5538SOL    HW128247   3.042   3.226  10.574 -0.6913  1.3094 -1.3795
 5538SOL    HW228248   3.066   3.160  10.456 -0.3183  2.8773 -1.2827
 5539SOL     OW28249   4.311   1.060   7.765  0.3363  0.1656  0.3952
 5539SOL    HW128250   4.367   1.132   7.792  0.7495  0.0235 -0.0859
 5539SOL    HW228251   4.222   1.083   7.790 -0.4747 -1.1088 -1.3455
 5540SOL     OW28252   1.827   0.996   8.062 -0.0812  0.3809  0.5246
 5540SOL    HW128253   1.802   1.089   8.066 -2.2078 -0.1297 -1.7934
 5540SOL    HW228254   1.920   1.006   8.083  0.1257  1.4678 -0.8828
 5541SOL     OW28255   2.636   0.336  10.162  0.1293  0.0400  0.6799
 5541SOL    HW128256   2.624   0.422  10.121 -0.0277 -0.5262 -0.4326
 5541SOL    HW228257   2.581   0.279  10.109  1.6034  0.1687 -1.0051
 5542SOL     OW28258   3.765   3.831   7.438  0.2225 -0.2825 -0.8279
 5542SOL    HW128259   3.726   3.756   7.482 -1.1511  1.1247  0.3501
 5542SOL    HW228260   3.852   3.829   7.479 -0.2681  0.4814  0.2431
 5543SOL     OW28261   1.095   4.426   7.831 -0.3621 -0.0993 -0.2669
 5543SOL    HW128262   1.069   4.413   7.739  1.9580  2.7253 -1.3169
 5543SOL    HW228263   1.188   4.405   7.832 -0.2166  0.5665 -0.1351
 5544SOL     OW28264   2.967   1.000   1.429  0.0925 -0.0252 -0.1710
 5544SOL    HW128265   3.043   0.957   1.390 -0.3123 -1.3283  0.4511
 5544SOL    HW228266   2.891   0.944   1.409  1.0004 -1.2677 -0.1189
 5545SOL     OW28267   3.521   2.420   4.136  0.8834 -0.3961 -0.2075
 5545SOL    HW128268   3.494   2.489   4.075  2.2273 -0.1196 -0.4982
 5545SOL    HW228269   3.457   2.352   4.118  0.9942 -0.4944 -0.2287
 5546SOL     OW28270   4.174   2.256   4.450 -0.1436 -0.1597  0.0297
 5546SOL    HW128271   4.081   2.236   4.465 -0.4825  1.9118  0.7100
 5546SOL    HW228272   4.158   2.309   4.372  2.3228  0.4927 -0.0151
 5547SOL     OW28273   2.479   3.943   2.015  0.0432  0.9135 -0.0710
 5547SOL    HW128274   2.473   3.949   2.110 -1.2199 -0.3390 -0.0598
 5547SOL    HW228275   2.392   3.911   1.991  1.5973 -0.8909 -3.3361
 5548SOL     OW28276   1.190   2.066  10.918 -0.1443 -0.2968  0.2316
 5548SOL    HW128277   1.115   2.110  10.958  0.9869  0.0045  2.0220
 5548SOL    HW228278   1.147   1.992  10.875 -1.2365  0.0227  0.7740
 5549SOL     OW28279   3.343   4.236   4.539 -0.0765  0.4490  0.4096
 5549SOL    HW128280   3.353   4.280   4.455  0.4955  0.6085  0.5568
 5549SOL    HW228281   3.388   4.158   4.506  1.3519  1.8827 -0.9822
 5550SOL     OW28282   0.787   4.328   7.132 -0.4775 -0.4556 -0.1673
 5550SOL    HW128283   0.856   4.390   7.154  0.4843 -1.9347  0.9971
 5550SOL    HW228284   0.797   4.258   7.196  0.5367 -0.5039 -0.3780
 5551SOL     OW28285   1.729   1.966   6.729 -0.3095  0.6665  0.4745
 5551SOL    HW128286   1.808   2.012   6.702  1.6839 -3.4583 -0.7550
 5551SOL    HW228287   1.756   1.904   6.797  0.9298  2.4845  1.6200
 5552SOL     OW28288   1.010   4.027   8.945  0.0505 -0.4120 -0.3682
 5552SOL    HW128289   0.954   4.093   8.904  0.1370 -0.4970 -0.6224
 5552SOL    HW228290   0.979   4.041   9.035  0.0307 -1.4743 -0.2116
 5553SOL     OW28291   3.280   0.337   1.665 -0.5372 -0.5358 -0.2659
 5553SOL    HW128292   3.304   0.295   1.582 -1.3697  0.8858 -1.2228
 5553SOL    HW228293   3.293   0.271   1.733 -0.7677 -1.4007 -1.0616
 5554SOL     OW28294   2.035   3.009   4.349  0.2264 -0.1648  0.0102
 5554SOL    HW128295   2.124   3.010   4.384  0.5489  0.9497 -0.8303
 5554SOL    HW228296   2.012   3.100   4.370 -1.9096 -0.5994 -0.4793
 5555SOL     OW28297   2.604   0.173   3.365 -0.0779 -0.1971 -0.2598
 5555SOL    HW128298   2.651   0.229   3.303  0.5587 -0.9681 -0.4865
 5555SOL    HW228299   2.634   0.089   3.330  2.1961  1.0988 -1.4090
 5556SOL     OW28300   0.893   2.794   9.048  0.2802  0.3096  0.4199
 5556SOL    HW128301   0.956   2.722   9.052 -1.5392 -1.2004  2.5992
 5556SOL    HW228302   0.839   2.774   9.125 -0.0544  2.2434  0.6829
 5557SOL     OW28303   4.063   2.890   1.633 -0.3844 -0.0145 -0.3583
 5557SOL    HW128304   4.129   2.821   1.642  1.3446  1.5479 -0.9414
 5557SOL    HW228305   4.045   2.881   1.539 -0.4762 -2.5992 -0.0755
 5558SOL     OW28306   0.281   1.945   3.045  0.2968  0.2209  0.7821
 5558SOL    HW128307   0.256   2.038   3.050 -0.1896  0.2323 -1.7498
 5558SOL    HW228308   0.372   1.959   3.019  0.1336 -1.3046 -0.5919
 5559SOL     OW28309   0.099   1.660   8.566 -0.6672  0.4024  0.0372
 5559SOL    HW128310   0.136   1.576   8.593  2.6720  1.2835 -1.7508
 5559SOL    HW228311   0.048   1.688   8.642  1.6028  0.6653  1.4672
 5560SOL     OW28312   1.999   2.235   5.265 -0.3661 -0.3438 -0.2174
 5560SOL    HW128313   1.936   2.212   5.197  1.4635  0.5825 -2.2186
 5560SOL    HW228314   2.049   2.307   5.226  2.5097 -1.2665  1.8087
 5561SOL     OW28315   3.642   0.420   3.509  0.1019 -0.1290  0.2038
 5561SOL    HW128316   3.643   0.468   3.591  0.9363  1.2643 -0.6254
 5561SOL    HW228317   3.731   0.384   3.502 -0.8729 -2.4487 -0.5218
 5562SOL     OW28318   3.078   1.387   3.493  0.2375 -0.0650  0.7303
 5562SOL    HW128319   3.148   1.392   3.559  0.5913  0.8281  0.2966
 5562SOL    HW228320   3.130   1.359   3.417  0.1918  1.7384  0.0366
 5563SOL     OW28321   4.014   3.028   8.836 -0.7747  0.4327  0.2435
 5563SOL    HW128322   4.005   3.121   8.855 -2.5476  0.6767 -1.8048
 5563SOL    HW228323   4.102   3.012   8.870  0.4136  0.4486 -2.8475
 5564SOL     OW28324   1.837   1.688   7.743 -0.0505 -0.3541 -0.8065
 5564SOL    HW128325   1.826   1.779   7.771 -0.1697 -1.5622  3.1382
 5564SOL    HW228326   1.931   1.675   7.730  0.0341 -2.3219  1.6415
 5565SOL     OW28327   3.888   2.794  10.269  0.1642 -0.5954 -0.0779
 5565SOL    HW128328   3.798   2.785  10.236 -0.2521  1.9086  0.3234
 5565SOL    HW228329   3.903   2.724  10.332  0.6453 -0.1720  0.2752
 5566SOL     OW28330   0.590   1.169   5.279 -0.3203 -0.0527  0.2578
 5566SOL    HW128331   0.657   1.125   5.332 -0.1398  0.8549  0.7727
 5566SOL    HW228332   0.570   1.113   5.204  2.3386  1.2916 -1.4520
 5567SOL     OW28333   2.236   0.999   6.123 -0.2118  0.1378 -0.6479
 5567SOL    HW128334   2.179   0.946   6.068 -0.6299 -1.7494  1.6389
 5567SOL    HW228335   2.172   1.068   6.140 -0.8071 -0.3159 -1.0479
 5568SOL     OW28336   2.544   3.985   5.598 -0.6599  1.1265  0.2443
 5568SOL    HW128337   2.626   3.982   5.648 -0.1169  0.6648 -0.6676
 5568SOL    HW228338   2.571   4.033   5.520 -1.6745  0.0052 -0.8001
 5569SOL     OW28339   3.802   0.227   4.694 -0.5049 -0.7127  0.0442
 5569SOL    HW128340   3.800   0.132   4.694 -3.3398 -0.6330 -2.0903
 5569SOL    HW228341   3.895   0.247   4.693 -0.4347 -1.0454  0.0051
 5570SOL     OW28342   4.355   0.245   7.077 -0.1197 -0.2504  0.1281
 5570SOL    HW128343   4.397   0.324   7.110  0.5513 -1.7427  2.8468
 5570SOL    HW228344   4.299   0.281   7.008  2.6099  1.2560 -1.2812
 5571SOL     OW28345   3.305   1.392   2.480 -0.2068  0.4388  0.6630
 5571SOL    HW128346   3.281   1.303   2.505 -2.1426  0.6270 -0.4978
 5571SOL    HW228347   3.237   1.403   2.412 -0.5450 -0.9600  0.7850
 5572SOL     OW28348   2.187   0.815   2.765 -0.3319 -0.5422 -0.1680
 5572SOL    HW128349   2.150   0.885   2.820 -0.7449 -0.1106 -0.9963
 5572SOL    HW228350   2.251   0.859   2.709 -1.2438  0.9006 -0.0902
 5573SOL     OW28351   1.671   0.032   1.999 -0.1677  0.1547  0.4164
 5573SOL    HW128352   1.645   0.112   1.955  0.7473 -0.2143 -0.8060
 5573SOL    HW228353   1.736   4.727   1.944 -0.5764  2.1660 -1.6140
 5574SOL     OW28354   3.967   2.512   7.288 -0.1254  0.0588 -0.1261
 5574SOL    HW128355   4.051   2.487   7.250  0.8622 -0.7988  2.5977
 5574SOL    HW228356   3.915   2.526   7.209 -2.9831 -0.5360  1.6368
 5575SOL     OW28357   2.392   0.606   2.527 -0.2993 -0.5337 -0.7183
 5575SOL    HW128358   2.309   0.651   2.510 -0.7936 -1.4160 -0.6492
 5575SOL    HW228359   2.358   0.517   2.540 -3.5306  0.7400 -0.2847
 5576SOL     OW28360   0.681   4.641   8.987 -0.4189 -0.9442 -0.2520
 5576SOL    HW128361   0.586   4.641   8.994 -0.5527  0.5060 -2.0413
 5576SOL    HW228362   0.710   4.700   9.057  3.3694 -0.8809 -1.8541
 5577SOL     OW28363   1.718   2.770   3.058 -0.2931 -0.0016 -0.3113
 5577SOL    HW128364   1.752   2.815   3.135  0.6400 -3.6720  1.4290
 5577SOL    HW228365   1.713   2.677   3.080  0.0229  0.0036 -0.2164
 5578SOL     OW28366   4.583   0.889   8.552 -0.4924 -0.4363 -0.6805
 5578SOL    HW128367   4.673   0.921   8.544 -0.8127  0.3410 -1.1638
 5578SOL    HW228368   4.562   0.940   8.630  0.2441  0.0462 -0.7955
 5579SOL     OW28369   0.105   0.086   0.958 -0.0490  0.1561 -0.7656
 5579SOL    HW128370   0.018   0.059   0.931  0.3101 -2.2075  0.4698
 5579SOL    HW228371   0.102   0.178   0.931  1.6636  0.7974  1.1428
 5580SOL     OW28372   3.190   3.342  16.650  0.0495 -0.0842  0.6398
 5580SOL    HW128373   3.258   3.380  16.706 -0.6763  0.5982  1.0544
 5580SOL    HW228374   3.131   3.283  16.697  0.2252  0.2565  1.2780
 5581SOL     OW28375   4.521   0.782   0.110  0.4189 -0.2463  0.3626
 5581SOL    HW128376   4.574   0.842   0.163  0.5241  0.7894 -0.8984
 5581SOL    HW228377   4.543   0.703   0.159  1.9906  0.1208  0.2606
 5582SOL     OW28378   2.238   0.322   6.701  0.3249  0.1400 -0.4528
 5582SOL    HW128379   2.303   0.318   6.772 -1.9558  1.3201  1.7190
 5582SOL    HW228380   2.194   0.241   6.724  1.2832 -0.5203 -0.9623
 5583SOL     OW28381   4.521   1.322  14.292 -0.1465 -0.3266  0.1734
 5583SOL    HW128382   4.507   1.237  14.250 -1.9483  0.1161 -0.1142
 5583SOL    HW228383   4.435   1.362  14.302  0.2590  0.6479 -0.1957
 5584SOL     OW28384   0.140   0.560   3.593 -0.1771  0.4090 -0.5785
 5584SOL    HW128385   0.093   0.520   3.520 -0.5720  0.3990 -0.3156
 5584SOL    HW228386   0.120   0.500   3.665  1.6914  1.3111  0.7012
 5585SOL     OW28387   0.078   3.303   1.444 -0.7384 -0.1829  0.5798
 5585SOL    HW128388   0.106   3.246   1.516  2.9966  0.6392 -0.1985
 5585SOL    HW228389   0.124   3.265   1.369  0.7032  1.1806  0.7669
 5586SOL     OW28390   4.480   1.285  14.591  0.1480  0.0080 -0.0875
 5586SOL    HW128391   4.504   1.308  14.501 -1.6805  0.6286 -0.4179
 5586SOL    HW228392   4.389   1.315  14.593 -0.2473 -1.4280  2.9930
 5587SOL     OW28393   3.017   2.009   9.833  0.1521 -0.0387 -0.1460
 5587SOL    HW128394   3.054   1.928   9.797  2.8022  1.0377  0.1141
 5587SOL    HW228395   3.001   1.981   9.923  1.6441 -0.5105 -0.0125
 5588SOL     OW28396   2.177   2.875   2.632  0.3070  0.1008  0.1835
 5588SOL    HW128397   2.125   2.797   2.649 -0.2461  0.1431 -1.3146
 5588SOL    HW228398   2.187   2.910   2.721  2.6941 -0.5602  0.1655
 5589SOL     OW28399   2.242   1.158   4.260  0.5981  0.2562  0.1248
 5589SOL    HW128400   2.321   1.179   4.209 -0.2493  2.1968 -0.3553
 5589SOL    HW228401   2.279   1.136   4.345 -1.9754  1.4683  1.5255
 5590SOL     OW28402   0.459   1.602   5.143 -0.6856  0.5872 -0.2834
 5590SOL    HW128403   0.440   1.533   5.206 -1.4879  0.6009 -0.5101
 5590SOL    HW228404   0.551   1.579   5.130  0.0190  2.9371  0.5782
 5591SOL     OW28405   2.065   1.890   1.545 -0.1176  0.2107 -0.8896
 5591SOL    HW128406   2.158   1.877   1.564 -0.0884  0.8079 -0.6063
 5591SOL    HW228407   2.069   1.917   1.453 -3.0823  0.3742 -0.9485
 5592SOL     OW28408   0.032   3.132   6.038 -0.6076 -0.0749 -0.2275
 5592SOL    HW128409   0.072   3.083   5.965  2.4354  0.6501  0.9329
 5592SOL    HW228410   4.709   3.188   5.990 -0.1670  0.6760  0.0878
 5593SOL     OW28411   0.873   1.181   6.465 -0.5111 -0.3306 -0.3134
 5593SOL    HW128412   0.943   1.142   6.518 -0.0518 -0.1751 -0.8035
 5593SOL    HW228413   0.815   1.105   6.454  1.3918 -1.9692  0.9353
 5594SOL     OW28414   4.249   1.297   8.798  0.2601 -0.2655  0.2165
 5594SOL    HW128415   4.161   1.273   8.771 -0.3158  2.1177  0.0415
 5594SOL    HW228416   4.294   1.279   8.715  0.0488 -1.4038  0.3398
 5595SOL     OW28417   3.908   1.712   6.301 -0.1646  0.3246 -0.4220
 5595SOL    HW128418   3.989   1.754   6.276  1.4099 -1.2830  1.9722
 5595SOL    HW228419   3.950   1.647   6.358 -1.9367 -1.6217 -1.3357
 5596SOL     OW28420   3.464   3.614   8.423  0.4101  0.1150  0.0093
 5596SOL    HW128421   3.408   3.536   8.433 -0.0978  0.4447 -0.2573
 5596SOL    HW228422   3.430   3.676   8.488 -1.2576 -0.5599 -0.2184
 5597SOL     OW28423   3.897   1.491   7.010  0.3041 -0.4654  0.5041
 5597SOL    HW128424   3.978   1.513   6.964 -1.2909  1.8761 -1.2072
 5597SOL    HW228425   3.876   1.577   7.046  0.5182 -0.3872  0.4391
 5598SOL     OW28426   2.006   4.406   6.296  0.2925  0.2742  0.5151
 5598SOL    HW128427   1.930   4.399   6.354 -0.8861 -0.2305 -1.0946
 5598SOL    HW228428   1.982   4.351   6.222  1.8091 -1.5321  1.3807
 5599SOL     OW28429   2.556   2.974   0.347 -0.0230 -0.3039 -0.2064
 5599SOL    HW128430   2.564   3.007   0.258 -4.4257  1.6218  0.1393
 5599SOL    HW228431   2.492   3.033   0.388 -1.3686 -0.6371 -1.8741
 5600SOL     OW28432   4.617   0.192  13.842  0.1181 -0.5960 -0.4284
 5600SOL    HW128433   4.524   0.212  13.833  0.0110 -1.0923 -0.3784
 5600SOL    HW228434   4.644   0.236  13.923  1.0284  0.1608 -1.1327
 5601SOL     OW28435   4.159   2.179  16.386 -0.0212 -0.2120  0.1683
 5601SOL    HW128436   4.150   2.162  16.292 -1.0478  0.7456  0.0936
 5601SOL    HW228437   4.087   2.242  16.389  0.4928  0.2991  1.6944
 5602SOL     OW28438   3.345   0.588   7.318 -0.1650  0.1513  0.0783
 5602SOL    HW128439   3.400   0.662   7.344 -1.0217  1.0138 -0.5919
 5602SOL    HW228440   3.371   0.516   7.376 -0.8296  0.3187  0.5739
 5603SOL     OW28441   2.272   1.813   6.390 -0.6876  0.0695 -0.0090
 5603SOL    HW128442   2.233   1.760   6.460 -1.7919 -1.6661 -1.9393
 5603SOL    HW228443   2.270   1.760   6.311 -0.7705  0.2807 -0.1480
 5604SOL     OW28444   3.363   3.821   2.222 -0.8337  0.1471 -0.0108
 5604SOL    HW128445   3.347   3.727   2.215 -2.6180  0.4109  0.6900
 5604SOL    HW228446   3.414   3.837   2.143 -0.0630 -0.3857  0.3776
 5605SOL     OW28447   2.591   2.922  11.036 -0.2177  0.4294 -1.2063
 5605SOL    HW128448   2.550   3.001  11.069 -0.9025  0.4450 -2.1068
 5605SOL    HW228449   2.645   2.962  10.968  0.4357  0.8971 -0.4147
 5606SOL     OW28450   3.783   4.225   6.899  0.6414 -0.6520 -0.0286
 5606SOL    HW128451   3.835   4.278   6.959 -0.0882  2.0729 -1.7918
 5606SOL    HW228452   3.839   4.205   6.823 -1.0012  5.0626 -2.7996
 5607SOL     OW28453   2.197   2.032   3.802 -0.0035  0.0027 -0.1221
 5607SOL    HW128454   2.128   2.036   3.736 -2.2556  0.8089  2.2970
 5607SOL    HW228455   2.252   2.108   3.779 -0.8159  0.4045 -0.7317
 5608SOL     OW28456   0.509   0.261   8.697 -0.3486 -0.4512 -0.3945
 5608SOL    HW128457   0.496   0.250   8.603 -2.0474  0.2022 -0.2237
 5608SOL    HW228458   0.594   0.306   8.697  0.4666 -1.9669 -1.9708
 5609SOL     OW28459   3.059   4.478   3.253  0.5608  0.0155 -0.1253
 5609SOL    HW128460   3.005   4.480   3.173 -1.3326 -0.4644  1.1345
 5609SOL    HW228461   3.120   4.409   3.228  0.6610  0.1221 -0.1768
 5610SOL     OW28462   1.624   4.448   4.239 -0.3184 -0.0454 -0.3082
 5610SOL    HW128463   1.531   4.456   4.261  0.1382 -2.6076  2.6125
 5610SOL    HW228464   1.660   4.537   4.237  1.2784 -0.7490 -2.5123
 5611SOL     OW28465   1.809   3.003   9.297  0.4863 -0.1735  0.3031
 5611SOL    HW128466   1.756   2.923   9.297 -0.7507  0.6478 -0.9910
 5611SOL    HW228467   1.749   3.068   9.335  0.6404 -0.7945  1.6387
 5612SOL     OW28468   0.057   1.492   2.352 -0.1984 -0.2699 -0.0158
 5612SOL    HW128469   0.040   1.499   2.445  0.0636  0.2455 -0.0078
 5612SOL    HW228470   0.151   1.476   2.358  0.5717  4.1524 -0.0610
 5613SOL     OW28471   3.276   3.387   1.115  0.2407 -0.3017 -0.1293
 5613SOL    HW128472   3.319   3.321   1.170  1.5600 -0.1757 -1.0092
 5613SOL    HW228473   3.190   3.349   1.094  0.0827  0.2818 -0.5491
 5614SOL     OW28474   3.049   0.589   5.509 -0.0585  0.2138 -0.4311
 5614SOL    HW128475   3.037   0.556   5.598  0.2198 -0.1606 -0.5291
 5614SOL    HW228476   3.041   0.513   5.450 -1.1413 -0.8579  1.1153
 5615SOL     OW28477   4.418   3.152   7.404 -0.8545 -0.0835  0.2373
 5615SOL    HW128478   4.470   3.071   7.396  1.2713  1.2785  0.2806
 5615SOL    HW228479   4.476   3.208   7.456  0.5367 -0.2506 -1.1432
 5616SOL     OW28480   1.524   3.780   6.846  0.4263 -0.4519  0.2517
 5616SOL    HW128481   1.520   3.746   6.935  2.2051  1.8765  1.2021
 5616SOL    HW228482   1.574   3.861   6.850  0.8783 -0.8415  2.4773
 5617SOL     OW28483   3.619   4.310   4.389  0.1877 -0.4250  0.0169
 5617SOL    HW128484   3.690   4.293   4.327 -1.5416 -0.5509 -1.9179
 5617SOL    HW228485   3.583   4.223   4.406 -0.4333 -0.2597 -0.4821
 5618SOL     OW28486   0.299   0.026   7.416 -0.5690 -0.1821 -0.4359
 5618SOL    HW128487   0.238   4.737   7.347 -1.7888 -0.2133  0.6602
 5618SOL    HW228488   0.281   0.120   7.417  0.1857 -0.0612  1.7221
 5619SOL     OW28489   2.725   4.338   1.849 -0.0440 -0.0713  0.5113
 5619SOL    HW128490   2.761   4.259   1.890  2.1088 -0.6322 -2.4672
 5619SOL    HW228491   2.714   4.306   1.760  0.8556 -1.2670  0.8275
 5620SOL     OW28492   0.119   1.569   4.613 -0.1849 -0.3608  0.1488
 5620SOL    HW128493   0.171   1.534   4.541  1.4842  2.3306  0.0523
 5620SOL    HW228494   0.035   1.584   4.571  0.3029 -0.8623 -1.0003
 5621SOL     OW28495   3.254   2.440   4.502 -0.2766 -0.0290 -0.3522
 5621SOL    HW128496   3.334   2.401   4.466  2.0730  2.8472  1.7415
 5621SOL    HW228497   3.226   2.499   4.432 -1.3755 -1.7354 -1.3498
 5622SOL     OW28498   3.707   4.633  12.480  0.5442 -0.2492  0.6713
 5622SOL    HW128499   3.750   4.666  12.402 -3.1722  1.4987 -0.6328
 5622SOL    HW228500   3.638   4.589  12.431  0.1651 -0.5365  1.4478
 5623SOL     OW28501   4.074   1.156   3.465 -0.0934 -0.5532  0.4913
 5623SOL    HW128502   4.143   1.093   3.447  0.1818 -1.1323  3.5312
 5623SOL    HW228503   4.006   1.128   3.404  0.8287  1.1021 -1.3040
 5624SOL     OW28504   2.858   3.597  12.921 -0.3361 -0.0289  0.2749
 5624SOL    HW128505   2.776   3.606  12.872 -1.3640  0.6065  2.1212
 5624SOL    HW228506   2.841   3.539  12.996  0.6537 -1.2808 -0.4611
 5625SOL     OW28507   4.161   1.098   6.212  0.1838  0.2156  0.1892
 5625SOL    HW128508   4.149   1.149   6.132  1.5340 -1.2492 -0.9393
 5625SOL    HW228509   4.198   1.163   6.271 -1.0957  0.7378  0.4191
 5626SOL     OW28510   1.769   0.456   1.114 -0.3576 -0.0963 -0.0918
 5626SOL    HW128511   1.860   0.428   1.106 -0.1499 -0.0878  2.3336
 5626SOL    HW228512   1.773   0.527   1.178  0.4891  1.8717 -2.3427
 5627SOL     OW28513   0.433   1.270   5.573 -0.3795  0.1690  0.1441
 5627SOL    HW128514   0.456   1.262   5.666 -0.0011  0.3877  0.0715
 5627SOL    HW228515   0.506   1.323   5.542 -0.1267 -0.5506 -0.4968
 5628SOL     OW28516   1.191   0.026  11.214 -0.2496 -0.0218  0.0362
 5628SOL    HW128517   1.178   4.703  11.142  0.2949  0.8531 -0.7961
 5628SOL    HW228518   1.150   4.711  11.282  1.4790  1.0763  1.9435
 5629SOL     OW28519   3.035   2.766   8.999 -0.3622 -0.0523  0.3900
 5629SOL    HW128520   3.032   2.860   8.981  0.7498  0.0810  0.9261
 5629SOL    HW228521   3.093   2.727   8.933 -1.2442 -1.1641  0.2632
 5630SOL     OW28522   2.595   0.300   9.627  0.7204  0.2250  0.2321
 5630SOL    HW128523   2.657   0.327   9.695 -0.2381  0.1575  1.1257
 5630SOL    HW228524   2.564   0.217   9.665 -0.3206  0.3448 -0.3855
 5631SOL     OW28525   2.987   2.848  13.474  0.4032 -0.3669 -0.2748
 5631SOL    HW128526   2.986   2.811  13.563 -0.9316  1.1433  0.3351
 5631SOL    HW228527   3.081   2.862  13.461  0.3275  0.0418 -0.3641
 5632SOL     OW28528   1.188   0.496   8.197 -0.2879  0.2374  0.6042
 5632SOL    HW128529   1.221   0.408   8.183 -1.3159 -0.1494  0.6661
 5632SOL    HW228530   1.109   0.488   8.249 -1.5109 -0.7778 -1.4111
 5633SOL     OW28531   3.252   3.990   2.402 -0.6821 -0.1882  0.5938
 5633SOL    HW128532   3.252   3.950   2.315 -0.2132 -1.3059  1.1070
 5633SOL    HW228533   3.188   4.061   2.403  0.4669  0.8591 -1.7083
 5634SOL     OW28534   1.073   1.260   9.365  0.4006  0.4350  0.1696
 5634SOL    HW128535   1.072   1.315   9.287 -1.9253 -0.2459 -0.2801
 5634SOL    HW228536   1.005   1.198   9.340 -0.1299  0.0698  2.5238
 5635SOL     OW28537   0.866   2.753  11.160  0.1428 -0.1339  0.1844
 5635SOL    HW128538   0.914   2.706  11.228 -0.9248 -1.1788  0.2172
 5635SOL    HW228539   0.937   2.764  11.096 -0.1880  0.6109 -0.0552
 5636SOL     OW28540   2.171   3.444   5.500  0.1498 -0.2463 -0.1275
 5636SOL    HW128541   2.222   3.466   5.578  0.3998 -0.2675 -0.2846
 5636SOL    HW228542   2.098   3.398   5.541 -0.1334  1.9927  1.9418
 5637SOL     OW28543   2.474   2.376  12.150  0.3646 -0.8941  0.1348
 5637SOL    HW128544   2.429   2.459  12.163 -1.1653 -1.8176  0.7740
 5637SOL    HW228545   2.404   2.310  12.151  0.3437 -0.8675  0.3052
 5638SOL     OW28546   2.387   3.458   8.803 -0.0390 -0.5820  0.1507
 5638SOL    HW128547   2.471   3.440   8.845  1.1956 -0.7116 -2.4395
 5638SOL    HW228548   2.404   3.457   8.709  0.0778  0.3868  0.1637
 5639SOL     OW28549   0.864   2.499   8.220 -0.7762 -0.1736  0.1964
 5639SOL    HW128550   0.821   2.447   8.287 -0.6617 -1.8113 -1.0217
 5639SOL    HW228551   0.782   2.499   8.171 -0.1670 -0.6020 -0.8345
 5640SOL     OW28552   4.376   4.061   7.508  0.2056  0.2943 -0.2373
 5640SOL    HW128553   4.319   4.052   7.432 -0.2046 -0.4304  0.1531
 5640SOL    HW228554   4.325   4.028   7.582 -0.4787 -1.7251 -1.6128
 5641SOL     OW28555   2.336   0.241   7.751  0.2758 -0.0699 -0.5414
 5641SOL    HW128556   2.283   0.174   7.708  0.3794 -0.5101  0.0217
 5641SOL    HW228557   2.288   0.320   7.728  1.1529  0.4944 -0.4547
 5642SOL     OW28558   0.386   4.321   5.344 -0.6282 -0.1768 -0.0556
 5642SOL    HW128559   0.370   4.327   5.250  0.1642  0.4138 -0.1492
 5642SOL    HW228560   0.384   4.227   5.359 -3.4214  0.0818  1.2032
 5643SOL     OW28561   2.065   0.553   3.123 -0.0242  0.7098 -0.3971
 5643SOL    HW128562   2.114   0.532   3.203  1.5710 -0.7226 -1.7534
 5643SOL    HW228563   2.127   0.580   3.055  2.3211 -2.3610  0.5196
 5644SOL     OW28564   0.602   2.086   8.718 -0.3581  0.3228  0.3557
 5644SOL    HW128565   0.623   1.995   8.739 -0.8303  0.4012  1.1263
 5644SOL    HW228566   0.694   2.104   8.700  0.6318 -2.9063  2.1643
 5645SOL     OW28567   1.231   0.225   8.112 -0.3407  0.0655  0.0132
 5645SOL    HW128568   1.308   0.171   8.130 -0.1079  0.4528  0.1786
 5645SOL    HW228569   1.162   0.170   8.150 -0.7859  0.3409 -0.3949
 5646SOL     OW28570   3.131   2.264  10.640 -0.3646  0.1597  0.3760
 5646SOL    HW128571   3.050   2.222  10.669 -0.0598 -0.8022 -0.1820
 5646SOL    HW228572   3.153   2.322  10.713 -0.8474 -2.1042  2.2882
 5647SOL     OW28573   0.428   1.982   9.559  0.2056 -0.6769 -0.4657
 5647SOL    HW128574   0.411   2.076   9.567  1.8894 -0.4717  0.6751
 5647SOL    HW228575   0.519   1.986   9.588 -0.2395 -1.6553  1.0433
 5648SOL     OW28576   4.371   2.752   3.850  0.6607 -0.0706 -0.3640
 5648SOL    HW128577   4.277   2.741   3.866  0.0727  1.8965 -2.4245
 5648SOL    HW228578   4.399   2.805   3.924  0.4015  1.5263 -1.4178
 5649SOL     OW28579   2.703   0.612   3.071 -0.0145 -0.2013  0.0620
 5649SOL    HW128580   2.714   0.655   3.156 -2.4728 -1.5192  1.0256
 5649SOL    HW228581   2.797   0.614   3.052  0.1565 -0.1856  0.8994
 5650SOL     OW28582   0.346   3.514   8.088  0.0433  0.5649 -0.2067
 5650SOL    HW128583   0.363   3.608   8.100 -0.1910  0.8538 -2.0370
 5650SOL    HW228584   0.395   3.485   8.165  1.6831  2.8613 -0.3717
 5651SOL     OW28585   0.534   3.943   4.424 -0.4811 -0.1549  0.1424
 5651SOL    HW128586   0.626   3.936   4.397 -0.1748  1.2543  0.8324
 5651SOL    HW228587   0.509   4.028   4.390  0.3946 -0.4435 -1.2517
 5652SOL     OW28588   1.153   3.336  17.540 -0.0343  0.2877  0.1395
 5652SOL    HW128589   1.064   3.303  17.533 -0.8341  2.5801 -0.5229
 5652SOL    HW228590   1.148   3.372  17.452  1.5543 -1.0884 -0.5162
 5653SOL     OW28591   4.459   2.338   4.946  0.5385  0.0488  0.0140
 5653SOL    HW128592   4.537   2.283   4.942 -0.9251 -2.0698  0.4051
 5653SOL    HW228593   4.381   2.291   4.917  1.1338 -1.0142  0.0987
 5654SOL     OW28594   4.157   3.623  15.120  0.0314  0.1281 -0.3764
 5654SOL    HW128595   4.118   3.665  15.197  0.0384 -1.0277  0.2535
 5654SOL    HW228596   4.252   3.629  15.132 -0.1766 -0.1326  1.3931
 5655SOL     OW28597   4.190   1.872   9.408 -0.2827 -0.5552 -0.0989
 5655SOL    HW128598   4.173   1.807   9.340 -0.2766  1.7138 -2.2694
 5655SOL    HW228599   4.113   1.928   9.392  1.7931  1.3818 -3.2616
 5656SOL     OW28600   2.484   1.268   5.540 -0.0067  0.2429  0.5260
 5656SOL    HW128601   2.486   1.332   5.469  1.2930  1.5927  1.7868
 5656SOL    HW228602   2.400   1.283   5.583 -1.1987 -2.3220 -0.9004
 5657SOL     OW28603   1.253   3.935   7.034  0.1692 -0.2623  0.2449
 5657SOL    HW128604   1.254   4.024   7.067  1.4777 -0.3225  0.3440
 5657SOL    HW228605   1.330   3.895   7.074  1.4655 -0.1192 -2.1310
 5658SOL     OW28606   0.533   0.521  17.431  0.2299 -0.1872  0.2470
 5658SOL    HW128607   0.512   0.497  17.341 -2.4743  1.0655  0.5521
 5658SOL    HW228608   0.627   0.502  17.428  0.3163  0.5612 -1.5376
 5659SOL     OW28609   3.412   1.813   8.653 -0.3589  0.3874  0.0116
 5659SOL    HW128610   3.439   1.785   8.565  0.5127 -0.8208  0.6711
 5659SOL    HW228611   3.389   1.733   8.699 -1.4269  1.7453  1.8120
 5660SOL     OW28612   1.939   3.488   1.671  0.7623  0.4697  0.2426
 5660SOL    HW128613   1.870   3.511   1.609  1.0226  0.2329 -0.1345
 5660SOL    HW228614   2.019   3.508   1.623  1.1359 -1.4201  0.0869
 5661SOL     OW28615   4.327   2.643   4.733 -0.1324  0.4293  0.4506
 5661SOL    HW128616   4.304   2.607   4.647  0.6068  1.8496 -0.3489
 5661SOL    HW228617   4.239   2.656   4.769 -0.6246 -0.7934 -0.3192
 5662SOL     OW28618   1.240   4.706  13.499 -0.1472  0.0534  0.4897
 5662SOL    HW128619   1.196   0.053  13.493 -0.0291  0.0944  0.1846
 5662SOL    HW228620   1.220   4.658  13.418 -1.1448 -1.0081  1.3814
 5663SOL     OW28621   0.844   1.020   5.044 -0.2330 -0.1423 -0.7250
 5663SOL    HW128622   0.753   1.011   5.070  0.2996 -0.6829  0.9237
 5663SOL    HW228623   0.890   0.982   5.119 -1.3275  0.4217  0.2278
 5664SOL     OW28624   0.433   1.780   6.911  0.4016  0.3842  0.2602
 5664SOL    HW128625   0.479   1.823   6.982  0.5802 -0.6932  0.8035
 5664SOL    HW228626   0.354   1.834   6.906 -0.5250 -1.0032 -0.3240
 5665SOL     OW28627   3.144   3.333   3.163 -0.2712  0.2244 -0.1750
 5665SOL    HW128628   3.195   3.379   3.230  0.2053  0.1212 -0.4693
 5665SOL    HW228629   3.139   3.395   3.091 -1.8918  2.9683  2.3004
 5666SOL     OW28630   4.444   4.328   5.359 -0.2693  1.0196 -0.3041
 5666SOL    HW128631   4.414   4.395   5.420  0.4158 -1.0835  2.3590
 5666SOL    HW228632   4.532   4.350   5.330  0.6558 -3.0640 -0.6250
 5667SOL     OW28633   3.258   3.796  16.917 -0.1726  0.0863 -0.5504
 5667SOL    HW128634   3.336   3.846  16.942  0.6562 -1.8009  0.6234
 5667SOL    HW228635   3.229   3.745  16.992  1.5138 -0.4929 -0.2863
 5668SOL     OW28636   0.067   1.651  17.418  0.0815 -0.1581  0.4427
 5668SOL    HW128637   0.018   1.598  17.480  1.3656  0.2622  1.7989
 5668SOL    HW228638   0.142   1.682  17.468 -0.0443  1.6152 -0.4570
 5669SOL     OW28639   1.951   1.148  11.464  0.1968 -0.1284 -0.3380
 5669SOL    HW128640   1.967   1.067  11.513  1.1402 -0.5361 -1.3294
 5669SOL    HW228641   1.876   1.188  11.508  1.2637  0.7964  0.6439
 5670SOL     OW28642   0.671   3.264  15.860  0.1086 -0.5066 -0.0993
 5670SOL    HW128643   0.644   3.355  15.864 -0.9729 -0.8357  0.1646
 5670SOL    HW228644   0.653   3.249  15.953 -1.0507  1.5042 -0.0172
 5671SOL     OW28645   2.587   2.605   7.015 -1.1700 -0.2377 -0.2226
 5671SOL    HW128646   2.497   2.580   6.995 -0.8142 -2.5306  0.9581
 5671SOL    HW228647   2.610   2.530   7.071 -2.1748 -0.3068  0.0930
 5672SOL     OW28648   3.683   0.694  16.383  0.0360 -0.0562  0.0172
 5672SOL    HW128649   3.766   0.681  16.430  1.2323  3.9240 -1.0375
 5672SOL    HW228650   3.666   0.788  16.387 -0.7856 -0.0690 -3.4354
 5673SOL     OW28651   1.561   4.212   2.847  0.3896  0.0120 -0.5456
 5673SOL    HW128652   1.551   4.263   2.927 -0.4882 -1.6768  0.4131
 5673SOL    HW228653   1.522   4.267   2.779 -0.1380 -0.7287 -0.8416
 5674SOL     OW28654   0.112   4.725   4.178 -0.0589  1.1016  0.0271
 5674SOL    HW128655   0.101   4.648   4.234 -0.2454  1.4771  0.4984
 5674SOL    HW228656   0.148   4.683   4.100 -2.0707  0.7656 -0.7450
 5675SOL     OW28657   0.150   4.593   3.553  0.0044 -0.3018  0.2137
 5675SOL    HW128658   0.183   4.507   3.527 -1.8892 -0.5273 -1.4488
 5675SOL    HW228659   0.224   4.623   3.606  0.3555 -3.2675  1.4091
 5676SOL     OW28660   1.220   2.549   7.741 -0.1464 -0.1811 -0.4599
 5676SOL    HW128661   1.202   2.643   7.735  0.1204 -0.1018  0.0379
 5676SOL    HW228662   1.312   2.552   7.765 -0.1870 -0.2107 -0.3032
 5677SOL     OW28663   2.164   3.668  10.211 -1.2514 -0.1415 -0.3900
 5677SOL    HW128664   2.237   3.686  10.152 -0.4626  3.1491  1.6222
 5677SOL    HW228665   2.139   3.585  10.171  0.7169 -0.5254 -0.8382
 5678SOL     OW28666   4.732   4.626   1.130 -0.2385  0.5972 -0.3209
 5678SOL    HW128667   0.038   4.615   1.215 -0.3508  0.3128 -0.2988
 5678SOL    HW228668   0.063   4.679   1.088 -1.0236  1.7679 -0.1321
 5679SOL     OW28669   2.732   2.391   4.664 -0.5705  0.0762  0.0616
 5679SOL    HW128670   2.697   2.478   4.648  0.4626  0.9275  2.3183
 5679SOL    HW228671   2.800   2.375   4.598 -1.1057  2.0777 -0.9445
 5680SOL     OW28672   3.201   1.236   7.345  0.2388  0.4552 -0.8650
 5680SOL    HW128673   3.288   1.209   7.375  0.0231  0.8040  0.0555
 5680SOL    HW228674   3.214   1.276   7.259 -1.8373  1.0959 -0.8717
 5681SOL     OW28675   2.393   0.435   5.741 -0.1308 -0.0126  0.1658
 5681SOL    HW128676   2.424   0.520   5.712  2.5443 -1.0422  0.0740
 5681SOL    HW228677   2.467   0.382   5.714 -1.1992 -1.6754  0.4899
 5682SOL     OW28678   1.360   4.135  14.831 -0.8406 -0.2815 -0.1697
 5682SOL    HW128679   1.405   4.196  14.890  1.2063 -0.9482 -1.0532
 5682SOL    HW228680   1.364   4.181  14.747 -0.8694 -0.0252 -0.0311
 5683SOL     OW28681   4.357   2.940   1.767 -0.1153  0.0409 -0.6574
 5683SOL    HW128682   4.353   3.036   1.762  1.2382  0.0532 -1.5373
 5683SOL    HW228683   4.268   2.910   1.749 -0.1815  1.7523 -3.2626
 5684SOL     OW28684   1.097   3.236  10.387 -0.0151 -0.4774 -0.1420
 5684SOL    HW128685   1.051   3.224  10.304  3.0620 -1.5941 -1.6751
 5684SOL    HW228686   1.055   3.170  10.442 -0.2726  1.3538  1.8825
 5685SOL     OW28687   2.269   0.522   6.534  0.3263 -0.1203 -0.3361
 5685SOL    HW128688   2.271   0.445   6.591 -1.0667  0.7335  0.8644
 5685SOL    HW228689   2.269   0.468   6.456  0.3897  0.4711 -0.7450
 5686SOL     OW28690   4.660   0.702   4.577  0.6072 -0.1184 -0.5224
 5686SOL    HW128691   4.641   0.763   4.648  0.1072 -0.9538  0.0609
 5686SOL    HW228692   4.701   0.763   4.516  0.9863  0.1123 -0.0432
 5687SOL     OW28693   0.753   3.053   3.648 -0.3028  0.0042  0.2224
 5687SOL    HW128694   0.830   3.048   3.592 -1.1456 -2.2660 -0.7329
 5687SOL    HW228695   0.732   3.146   3.659  0.6389  0.2495 -0.0843
 5688SOL     OW28696   3.891   2.552  15.409 -0.2044  0.4365 -0.5716
 5688SOL    HW128697   3.975   2.508  15.421 -0.0137  0.5551 -1.4968
 5688SOL    HW228698   3.920   2.624  15.465  1.1251 -0.3774 -0.2072
 5689SOL     OW28699   2.300   1.162   7.351  0.5334 -0.0264 -0.0002
 5689SOL    HW128700   2.263   1.173   7.263  0.6898 -0.0980 -0.0748
 5689SOL    HW228701   2.394   1.150   7.338  0.0242 -2.0202 -1.7277
 5690SOL     OW28702   3.096   2.954  15.993  0.1273  0.0191 -0.8513
 5690SOL    HW128703   3.177   2.953  15.942 -0.6017 -0.4434 -1.9856
 5690SOL    HW228704   3.080   2.860  16.001  0.2471  0.0875  0.1362
 5691SOL     OW28705   3.061   0.266   7.923 -0.0753  0.4616 -0.5063
 5691SOL    HW128706   3.078   0.340   7.981 -0.3264 -0.4496  0.7304
 5691SOL    HW228707   3.134   0.271   7.861  1.3151 -1.6990  0.9650
 5692SOL     OW28708   4.322   1.276   6.361 -0.1875 -0.2967 -0.5240
 5692SOL    HW128709   4.388   1.299   6.426 -0.0666  1.1063 -1.1325
 5692SOL    HW228710   4.242   1.265   6.412  0.9639  1.0794  1.5591
 5693SOL     OW28711   4.157   0.250   6.449 -0.4716 -0.1287  0.2711
 5693SOL    HW128712   4.182   0.225   6.360 -0.5772 -0.8219  0.4349
 5693SOL    HW228713   4.138   0.163   6.485  0.0390 -0.7001 -0.8682
 5694SOL     OW28714   3.369   4.058   2.624 -0.1275  0.0602  0.0988
 5694SOL    HW128715   3.344   4.035   2.535 -0.5903  0.0867  0.2227
 5694SOL    HW228716   3.398   3.972   2.654 -2.3262 -0.5253  0.4982
 5695SOL     OW28717   4.429   1.838  12.818  0.0731  0.7712 -0.0997
 5695SOL    HW128718   4.481   1.842  12.898  1.1061 -3.1847 -0.5985
 5695SOL    HW228719   4.350   1.800  12.856 -0.4864  2.5278  0.5121
 5696SOL     OW28720   3.676   1.558   7.438 -0.2892 -0.6251  0.0827
 5696SOL    HW128721   3.700   1.630   7.496 -1.3165  1.0759 -1.5856
 5696SOL    HW228722   3.761   1.514   7.441 -0.4565 -0.8901  0.8359
 5697SOL     OW28723   0.470   0.344  13.730 -0.3289  0.0598  0.0337
 5697SOL    HW128724   0.493   0.271  13.673  0.3347 -1.8126  2.7106
 5697SOL    HW228725   0.503   0.426  13.694 -0.1022 -0.0212  0.0585
 5698SOL     OW28726   1.062   4.561  16.166 -0.0419 -0.3849 -0.4918
 5698SOL    HW128727   1.060   4.631  16.101 -0.3714 -0.6018 -0.7150
 5698SOL    HW228728   1.155   4.575  16.186  0.1491 -1.9275 -0.2887
 5699SOL     OW28729   1.466   2.748   8.357 -0.2401  0.7534  0.4076
 5699SOL    HW128730   1.385   2.740   8.407 -0.3827  0.0841  0.0647
 5699SOL    HW228731   1.518   2.802   8.417 -0.3678  1.9097 -0.5189
 5700SOL     OW28732   4.098   2.391  15.414 -0.1651 -0.4311 -0.5281
 5700SOL    HW128733   4.088   2.304  15.453  0.6123 -0.7958 -1.1305
 5700SOL    HW228734   4.053   2.369  15.332 -0.3798 -1.4700 -0.1301
 5701SOL     OW28735   1.360   3.911   3.984  0.0752  0.0978 -0.4689
 5701SOL    HW128736   1.348   3.831   4.034 -0.8264 -0.3763 -1.4474
 5701SOL    HW228737   1.277   3.955   4.002 -0.9686 -2.3075  0.5970
 5702SOL     OW28738   0.216   4.580   7.640  0.1688  0.0355 -0.2727
 5702SOL    HW128739   0.184   4.513   7.581  0.8339 -0.7318  0.2446
 5702SOL    HW228740   0.269   4.632   7.580 -1.0224 -0.4117 -1.7050
 5703SOL     OW28741   4.666   0.703   5.482 -0.4791 -0.5206  0.7028
 5703SOL    HW128742   4.713   0.695   5.565 -1.2792 -1.6015  1.0446
 5703SOL    HW228743   4.699   0.788   5.452  1.2382 -0.1621  3.5489
 5704SOL     OW28744   2.851   1.504   2.776  0.0395 -0.0738  0.1541
 5704SOL    HW128745   2.791   1.462   2.714 -1.0696  0.8237  0.6331
 5704SOL    HW228746   2.898   1.428   2.812  0.3812  0.1295  0.1404
 5705SOL     OW28747   1.647   0.412  10.402 -0.1386 -0.4153 -0.2944
 5705SOL    HW128748   1.635   0.503  10.377  0.2914 -1.1845 -3.2734
 5705SOL    HW228749   1.559   0.376  10.391 -0.0758 -0.3095 -1.1478
 5706SOL     OW28750   2.253   0.118   8.466 -0.2611  0.4646 -0.7046
 5706SOL    HW128751   2.170   0.071   8.475  0.6963 -1.1897 -0.3905
 5706SOL    HW228752   2.282   0.117   8.557  0.4243 -0.6658 -0.9307
 5707SOL     OW28753   3.892   4.323   0.221 -0.5397 -0.2410 -0.4502
 5707SOL    HW128754   3.840   4.399   0.247  1.0200  0.5160  0.4433
 5707SOL    HW228755   3.918   4.278   0.301  2.1454 -0.8590 -1.6478
 5708SOL     OW28756   0.792   0.945  17.288 -0.0913  0.1370  0.0844
 5708SOL    HW128757   0.873   0.993  17.304  0.4610 -0.4369 -0.9489
 5708SOL    HW228758   0.735   1.004  17.238 -2.7212 -1.7973  0.7997
 5709SOL     OW28759   3.217   4.670   1.141 -0.0833 -0.4211 -0.0440
 5709SOL    HW128760   3.301   4.712   1.124 -0.8226  1.3074  0.5543
 5709SOL    HW228761   3.151   0.000   1.156  1.1557  0.5106  1.1331
 5710SOL     OW28762   1.709   1.062   3.198 -0.1943  0.1239 -0.4856
 5710SOL    HW128763   1.686   0.973   3.172 -0.6289  0.5847 -1.6850
 5710SOL    HW228764   1.793   1.043   3.242 -0.6237  0.3726  0.4540
 5711SOL     OW28765   2.976   3.867   3.330 -0.0568 -0.1003  0.1183
 5711SOL    HW128766   3.030   3.788   3.330  1.3808  0.9036  1.0747
 5711SOL    HW228767   2.895   3.831   3.369  0.4158  0.6137  1.7669
 5712SOL     OW28768   4.321   0.921   7.246  0.0490  0.3491 -0.1753
 5712SOL    HW128769   4.332   0.964   7.331  1.6661 -1.1348  0.3682
 5712SOL    HW228770   4.410   0.911   7.215  0.0854  0.9337 -0.2580
 5713SOL     OW28771   0.875   0.985   7.480  0.3990  0.1341 -0.3141
 5713SOL    HW128772   0.813   1.048   7.445 -0.1099  0.0385  0.4091
 5713SOL    HW228773   0.918   1.043   7.542  1.7585  1.4141 -2.4653
 5714SOL     OW28774   4.029   3.648  14.399  0.1209 -0.1963 -0.2036
 5714SOL    HW128775   4.070   3.664  14.314 -1.0049  0.0167 -0.7170
 5714SOL    HW228776   4.065   3.560  14.412 -0.7329 -0.3862  0.8304
 5715SOL     OW28777   3.864   1.834   5.107 -0.2685  0.2180 -0.2062
 5715SOL    HW128778   3.771   1.857   5.114 -0.0204  0.3343  2.5967
 5715SOL    HW228779   3.861   1.778   5.029 -0.6188 -1.4055  0.9756
 5716SOL     OW28780   3.955   2.972   2.578 -0.0384  0.1696  0.6914
 5716SOL    HW128781   4.015   2.899   2.593  2.4871  2.1827  0.2654
 5716SOL    HW228782   4.016   3.038   2.545 -0.9111  0.4654 -0.3186
 5717SOL     OW28783   4.142   1.621   6.955  0.0259 -0.2535  0.3045
 5717SOL    HW128784   4.203   1.593   7.023 -0.2528  3.5396  2.1062
 5717SOL    HW228785   4.179   1.706   6.931 -2.5341  1.3612  1.9850
 5718SOL     OW28786   3.485   0.325   2.677 -0.4122 -0.0673  0.0416
 5718SOL    HW128787   3.482   0.231   2.693  1.2468 -0.2149 -0.4834
 5718SOL    HW228788   3.392   0.346   2.669 -0.5488 -0.6242  0.1389
 5719SOL     OW28789   4.229   3.640   3.741 -0.2055 -0.1407  0.4343
 5719SOL    HW128790   4.224   3.545   3.736  0.3447 -0.1783  0.6211
 5719SOL    HW228791   4.250   3.653   3.834 -0.4929 -0.2200  0.5092
 5720SOL     OW28792   4.504   0.571  14.820  0.2657 -0.4197 -0.2109
 5720SOL    HW128793   4.504   0.477  14.804 -2.4250 -0.5478  0.5610
 5720SOL    HW228794   4.532   0.611  14.737 -2.8475 -0.8460 -1.4631
 5721SOL     OW28795   0.290   1.924   9.342 -0.1563 -0.0958 -1.1508
 5721SOL    HW128796   0.229   1.860   9.379  1.1982 -1.2094 -0.8500
 5721SOL    HW228797   0.316   1.966   9.425 -1.8052  1.1824 -1.2662
 5722SOL     OW28798   4.152   0.989   9.212  0.3440  0.5738  0.1902
 5722SOL    HW128799   4.201   1.066   9.239  0.4441  0.5897 -0.0343
 5722SOL    HW228800   4.148   0.943   9.296  3.8754  0.8596  0.5021
 5723SOL     OW28801   0.857   0.077  13.072 -0.4822 -0.0829 -0.2854
 5723SOL    HW128802   0.938   0.128  13.082  0.1209 -0.5300 -2.9302
 5723SOL    HW228803   0.890   4.726  13.087  0.2649  0.1678 -0.4471
 5724SOL     OW28804   0.770   2.979  17.719  0.0005  0.5570  0.0177
 5724SOL    HW128805   0.848   3.012  17.674 -0.5966  0.1948 -1.2734
 5724SOL    HW228806   0.706   2.963  17.649 -0.2544  4.2614 -0.5604
 5725SOL     OW28807   1.354   0.644   5.222  0.1587  0.3586 -0.1360
 5725SOL    HW128808   1.420   0.706   5.192  0.5722 -0.9308 -1.9121
 5725SOL    HW228809   1.303   0.703   5.277  0.2181  1.6438 -1.4617
 5726SOL     OW28810   2.898   2.210   6.509 -0.0549 -0.0950 -0.9242
 5726SOL    HW128811   2.928   2.148   6.575  1.0878 -0.5079 -1.8163
 5726SOL    HW228812   2.809   2.224   6.541  0.6253  0.2723  0.7988
 5727SOL     OW28813   3.059   1.540   1.331 -0.4098 -0.4186 -0.1647
 5727SOL    HW128814   3.103   1.509   1.410 -2.9951 -0.2668  1.3376
 5727SOL    HW228815   3.079   1.634   1.332  1.7092 -0.8515 -1.6455
 5728SOL     OW28816   2.362   3.125   2.173  0.2806  0.4952  0.4904
 5728SOL    HW128817   2.374   3.149   2.081  2.5401 -0.8054  0.4362
 5728SOL    HW228818   2.276   3.160   2.196  0.7962  2.3334 -0.3666
 5729SOL     OW28819   0.867   1.578  17.303 -0.0716  0.3407  0.0074
 5729SOL    HW128820   0.860   1.626  17.220 -2.0000  0.8053  0.4507
 5729SOL    HW228821   0.781   1.538  17.309  0.6170 -0.7216  2.7317
 5730SOL     OW28822   1.572   4.004   6.097  0.4226  0.0052  0.1703
 5730SOL    HW128823   1.595   4.072   6.035 -0.8783 -1.0006 -1.4430
 5730SOL    HW228824   1.483   4.030   6.122  1.0582  0.0367  2.4022
 5731SOL     OW28825   0.862   1.634   8.743  0.4476 -0.4650  0.2132
 5731SOL    HW128826   0.819   1.548   8.742  1.5706 -1.0494  1.6144
 5731SOL    HW228827   0.872   1.665   8.653  1.7532 -1.8871 -0.1444
 5732SOL     OW28828   2.911   1.483  13.572  0.2597 -0.2685  0.0991
 5732SOL    HW128829   2.966   1.449  13.642  0.3861  2.0444  1.1248
 5732SOL    HW228830   2.899   1.411  13.510 -1.1261 -0.6404  0.8129
 5733SOL     OW28831   0.292   3.564   5.903 -0.2455 -0.2075 -0.4839
 5733SOL    HW128832   0.387   3.567   5.918 -0.3893  0.0512  0.3898
 5733SOL    HW228833   0.272   3.487   5.850 -1.4542  0.7818 -1.4564
 5734SOL     OW28834   4.196   3.883   5.404 -0.3237  0.1041 -0.7106
 5734SOL    HW128835   4.189   3.966   5.450 -0.7809  0.1957 -0.9457
 5734SOL    HW228836   4.202   3.829   5.482 -0.4846 -2.0506 -2.1708
 5735SOL     OW28837   0.143   2.135   7.640 -0.2397  0.0805  0.5701
 5735SOL    HW128838   0.129   2.188   7.718  0.6163  0.2399  0.6097
 5735SOL    HW228839   0.109   2.195   7.574 -0.0255 -0.2771  0.1414
 5736SOL     OW28840   4.495   3.471   5.319 -0.2741 -0.0801 -0.0517
 5736SOL    HW128841   4.556   3.410   5.360 -1.8389 -1.4128  0.3032
 5736SOL    HW228842   4.456   3.420   5.248  0.4432 -0.8366  0.1028
 5737SOL     OW28843   1.625   4.389   9.156 -0.1463  0.0197  0.1382
 5737SOL    HW128844   1.642   4.384   9.062 -0.8505  0.1292  0.0030
 5737SOL    HW228845   1.677   4.464   9.185 -1.2247  1.4675 -1.6227
 5738SOL     OW28846   2.397   1.014   6.334 -0.3843  0.6737 -0.3082
 5738SOL    HW128847   2.339   1.012   6.258 -1.3815  1.2473  0.4456
 5738SOL    HW228848   2.483   0.981   6.308 -0.1016 -0.1914  1.7301
 5739SOL     OW28849   3.593   2.897   8.380 -0.6258 -0.3020  0.5608
 5739SOL    HW128850   3.636   2.982   8.382  0.2277 -0.7795  2.1024
 5739SOL    HW228851   3.550   2.900   8.294  0.4718  2.9756  0.1203
 5740SOL     OW28852   2.495   0.865   7.700 -0.1573 -0.4538  0.1197
 5740SOL    HW128853   2.424   0.804   7.683 -1.6294  1.4034 -0.4486
 5740SOL    HW228854   2.538   0.812   7.767 -0.3384 -1.5458 -0.6336
 5741SOL     OW28855   1.843   1.509   3.972 -0.3749 -0.3853 -0.3306
 5741SOL    HW128856   1.776   1.492   4.039  0.6456  3.5175  1.6751
 5741SOL    HW228857   1.824   1.601   3.954 -0.9609 -0.4953 -0.2798
 5742SOL     OW28858   4.729   3.845  14.528 -0.5047  0.2563  0.1430
 5742SOL    HW128859   0.081   3.859  14.498 -0.0647 -0.5599  1.0650
 5742SOL    HW228860   4.713   3.750  14.531 -0.9583  0.3195 -0.2480
 5743SOL     OW28861   0.243   3.000  14.229  0.2131 -0.0065 -0.5031
 5743SOL    HW128862   0.213   3.075  14.178  1.3546 -0.9883 -2.6293
 5743SOL    HW228863   0.180   2.934  14.200 -0.3920 -0.4452  1.7869
 5744SOL     OW28864   2.314   2.353   3.293 -0.1973 -0.0648  1.0390
 5744SOL    HW128865   2.226   2.342   3.257  1.2949  0.3646 -2.6717
 5744SOL    HW228866   2.361   2.393   3.220 -1.7572  1.5123  0.9010
 5745SOL     OW28867   0.214   1.775   2.548 -0.4314 -0.2412  0.3323
 5745SOL    HW128868   0.170   1.695   2.578 -0.7096  0.2525  1.2522
 5745SOL    HW228869   0.165   1.806   2.472 -0.6704 -1.2083  0.0949
 5746SOL     OW28870   0.802   2.002   9.301 -0.2540  0.7160  0.0748
 5746SOL    HW128871   0.761   2.070   9.355 -1.1217 -0.1961  0.5596
 5746SOL    HW228872   0.724   1.952   9.276 -0.5477  0.2501  1.9280
 5747SOL     OW28873   1.910   3.563   6.136 -0.0948 -0.4166 -0.0191
 5747SOL    HW128874   1.851   3.512   6.081 -0.0716  0.4848 -0.8618
 5747SOL    HW228875   1.919   3.520   6.222  1.8539 -1.0155 -0.5110
 5748SOL     OW28876   0.974   4.005   2.489 -0.5728  0.4086 -0.0611
 5748SOL    HW128877   1.060   3.965   2.476 -1.2440 -1.8394  2.5614
 5748SOL    HW228878   0.968   4.023   2.395  1.0637  1.0146 -0.0531
 5749SOL     OW28879   2.371   3.781   0.160 -0.1720  0.1635 -0.0002
 5749SOL    HW128880   2.385   3.694   0.198 -1.5461  0.6984  1.7093
 5749SOL    HW228881   2.404   3.762   0.072 -2.4350  0.8021 -0.9715
 5750SOL     OW28882   4.697   1.170  13.287  0.0795  0.3072 -0.5600
 5750SOL    HW128883   4.683   1.117  13.365  0.7054  0.1479 -0.5640
 5750SOL    HW228884   4.615   1.142  13.246  1.1997 -0.6983 -2.1271
 5751SOL     OW28885   3.452   3.638   4.024 -0.1538  0.5490  0.0700
 5751SOL    HW128886   3.538   3.680   4.021  0.1195 -0.0539 -0.6229
 5751SOL    HW228887   3.401   3.716   4.047  0.2846  0.5981  0.8511
 5752SOL     OW28888   3.575   1.130   2.645 -0.7195  0.0126  0.3255
 5752SOL    HW128889   3.594   1.171   2.729  0.0790 -2.8307  1.5040
 5752SOL    HW228890   3.583   1.039   2.674 -1.4446 -0.3104 -0.4630
 5753SOL     OW28891   4.047   2.192   5.584 -0.4283 -0.4216  0.1483
 5753SOL    HW128892   4.009   2.109   5.616 -0.9437 -0.2895 -0.1129
 5753SOL    HW228893   4.139   2.175   5.602 -0.4327  1.8852  2.3097
 5754SOL     OW28894   0.690   2.223   9.436 -0.4363 -0.1412  0.1086
 5754SOL    HW128895   0.655   2.250   9.521  0.4202  0.4340  0.2803
 5754SOL    HW228896   0.746   2.297   9.414 -2.7849  0.9547 -2.2144
 5755SOL     OW28897   0.922   1.529   0.650 -1.1256  0.1820  0.1059
 5755SOL    HW128898   0.982   1.603   0.645 -0.5136 -0.5187 -2.8838
 5755SOL    HW228899   0.912   1.527   0.745  0.7632 -1.4813  0.2832
 5756SOL     OW28900   2.700   3.216   6.125 -0.0956  0.9447 -0.1209
 5756SOL    HW128901   2.742   3.161   6.192 -1.1236  1.3218  0.8338
 5756SOL    HW228902   2.610   3.185   6.132 -0.3805  1.8907  0.4471
 5757SOL     OW28903   0.756   0.931   4.339  0.0698  0.4407  0.1647
 5757SOL    HW128904   0.824   0.988   4.303 -1.3795  2.4566  0.6016
 5757SOL    HW228905   0.761   0.849   4.290  1.3446  0.2926  0.5538
 5758SOL     OW28906   2.572   3.611  17.302  0.6734 -0.2434 -0.1554
 5758SOL    HW128907   2.598   3.571  17.385 -2.2278  0.8223  1.2870
 5758SOL    HW228908   2.506   3.552  17.266  0.7354 -1.0691  1.1024
 5759SOL     OW28909   2.412   1.305   8.257  0.5461 -0.6165 -0.5661
 5759SOL    HW128910   2.483   1.242   8.268  1.2639 -0.2418 -2.9441
 5759SOL    HW228911   2.346   1.270   8.316  1.6239  1.2842  1.7866
 5760SOL     OW28912   3.224   2.467   4.170 -0.3091  0.1234 -0.2882
 5760SOL    HW128913   3.148   2.438   4.120 -0.7239  1.6554 -0.5485
 5760SOL    HW228914   3.246   2.382   4.207  0.8959  1.3036  1.7010
 5761SOL     OW28915   2.374   1.214   0.859  0.9537  0.2824 -0.5109
 5761SOL    HW128916   2.346   1.124   0.872 -2.3042  1.2923 -0.5058
 5761SOL    HW228917   2.349   1.233   0.769 -1.4535 -0.8132 -0.0649
 5762SOL     OW28918   3.461   2.408   5.386 -0.2448  0.0953  0.7004
 5762SOL    HW128919   3.479   2.341   5.452 -2.1322 -0.4722  0.6181
 5762SOL    HW228920   3.515   2.370   5.316  1.0433  0.7244  1.3544
 5763SOL     OW28921   3.363   1.643   6.275 -0.3894 -0.2655  0.1598
 5763SOL    HW128922   3.365   1.664   6.368 -0.5198 -0.7509  0.2708
 5763SOL    HW228923   3.314   1.561   6.282 -0.2629 -0.6302 -3.1218
 5764SOL     OW28924   3.340   3.193   3.561 -0.8678  0.0381  0.2214
 5764SOL    HW128925   3.290   3.274   3.568 -0.1741  0.1187  4.2040
 5764SOL    HW228926   3.423   3.229   3.591 -0.6243 -0.1663 -0.2112
 5765SOL     OW28927   3.057   4.593  10.895 -0.2445 -0.2090  0.2976
 5765SOL    HW128928   3.140   4.590  10.941 -1.9427  0.1269  3.3910
 5765SOL    HW228929   3.053   4.687  10.875  0.6068 -0.4293 -0.8687
 5766SOL     OW28930   2.054   3.451   7.789 -0.0857 -0.3446 -0.1930
 5766SOL    HW128931   2.140   3.411   7.777 -1.0334 -2.3068 -0.4975
 5766SOL    HW228932   2.055   3.526   7.730 -0.7992 -0.7827 -0.7678
 5767SOL     OW28933   1.792   4.024   6.615 -0.1340  0.1465 -0.2276
 5767SOL    HW128934   1.742   3.995   6.692  1.1127 -2.3859 -0.3816
 5767SOL    HW228935   1.823   4.109   6.644 -0.4907  1.0368 -2.4214
 5768SOL     OW28936   2.451   3.595  13.349  0.0254  0.2168  0.0321
 5768SOL    HW128937   2.374   3.546  13.375 -0.2081 -0.4332 -1.8602
 5768SOL    HW228938   2.417   3.663  13.291  1.9796  0.3275 -0.9830
 5769SOL     OW28939   0.504   0.034  10.678 -0.8209 -0.2228  0.4889
 5769SOL    HW128940   0.544   4.685  10.666  0.0046  0.3361 -0.8226
 5769SOL    HW228941   0.556   0.086  10.617 -0.6415 -0.3180  0.5604
 5770SOL     OW28942   0.819   0.598   6.950  0.1168  0.6379 -0.5545
 5770SOL    HW128943   0.758   0.533   6.985  1.0362  0.5119  0.8097
 5770SOL    HW228944   0.765   0.656   6.898 -0.3835  1.6030  1.0534
 5771SOL     OW28945   1.670   1.934   7.060 -0.0985  0.1438 -0.1969
 5771SOL    HW128946   1.738   1.871   7.083 -1.7534 -1.2586  0.8916
 5771SOL    HW228947   1.717   2.014   7.036  0.0935  0.6834  1.9888
 5772SOL     OW28948   3.126   4.016   0.549 -0.3399 -0.7264 -0.6882
 5772SOL    HW128949   3.042   4.046   0.513 -1.3471  0.9021  2.9472
 5772SOL    HW228950   3.190   4.073   0.507  1.0570 -1.3479  0.5903
 5773SOL     OW28951   3.607   2.931   7.892 -0.2019 -0.0286  0.0231
 5773SOL    HW128952   3.656   2.964   7.968 -0.6670  1.0869 -0.1670
 5773SOL    HW228953   3.607   2.836   7.905  1.7534 -0.0542 -0.0220
 5774SOL     OW28954   3.695   0.603   3.713  0.0819  0.1560 -0.6131
 5774SOL    HW128955   3.742   0.683   3.688 -0.8396  0.7265 -0.5591
 5774SOL    HW228956   3.736   0.583   3.797 -0.4936 -0.9815 -0.6029
 5775SOL     OW28957   3.744   4.350  17.150 -0.1603  0.2470 -0.5438
 5775SOL    HW128958   3.661   4.373  17.192 -1.1508 -1.4287 -1.5943
 5775SOL    HW228959   3.792   4.433  17.142  0.4036 -0.0557 -0.2631
 5776SOL     OW28960   2.168   1.562   4.463 -0.3259 -0.2826 -0.2397
 5776SOL    HW128961   2.218   1.568   4.545  1.0064  0.6953 -1.1356
 5776SOL    HW228962   2.242   1.552   4.403 -0.3153  1.9072 -0.5826
 5777SOL     OW28963   3.296   0.651  11.443  0.3272  0.1881  0.0027
 5777SOL    HW128964   3.215   0.659  11.393 -0.0723 -0.1982  0.5851
 5777SOL    HW228965   3.311   0.742  11.469  1.6089 -0.0593  0.1213
 5778SOL     OW28966   0.579   1.893  10.803  0.2485 -0.1860  0.0352
 5778SOL    HW128967   0.558   1.983  10.829  0.7699  0.2069 -0.8884
 5778SOL    HW228968   0.505   1.841  10.833 -0.3907  0.7400  0.0482
 5779SOL     OW28969   4.451   2.083  15.835 -0.1155 -0.4178  0.0342
 5779SOL    HW128970   4.420   2.062  15.923  1.4984 -1.4951  0.3402
 5779SOL    HW228971   4.488   2.002  15.800  0.2479  0.4217 -1.5345
 5780SOL     OW28972   4.238   0.217  10.265  0.1093 -0.0592  0.5787
 5780SOL    HW128973   4.326   0.180  10.267  0.7147  1.3514 -0.1314
 5780SOL    HW228974   4.261   0.309  10.252 -0.5367 -0.2216 -1.8159
 5781SOL     OW28975   3.217   0.116  16.388  0.4282  0.2863  0.3224
 5781SOL    HW128976   3.161   0.038  16.398 -0.0204  0.5105 -0.4187
 5781SOL    HW228977   3.170   0.176  16.445 -0.7223 -1.6652  1.4407
 5782SOL     OW28978   2.119   1.226  15.558  0.0846  0.0636 -0.0458
 5782SOL    HW128979   2.139   1.303  15.611  0.6185  0.1431 -0.3632
 5782SOL    HW228980   2.053   1.186  15.614  0.2506  2.0731  1.5565
 5783SOL     OW28981   2.328   0.426   4.484 -0.8463  0.1022  0.2379
 5783SOL    HW128982   2.412   0.398   4.447 -0.9552 -0.6621  0.5735
 5783SOL    HW228983   2.284   0.344   4.504  0.3645 -0.4708  0.5347
 5784SOL     OW28984   0.581   2.968   2.671 -0.0070 -0.8246 -0.2661
 5784SOL    HW128985   0.550   2.908   2.602 -0.4300 -1.2433  0.2883
 5784SOL    HW228986   0.675   2.949   2.668  0.3259  1.0794 -1.9445
 5785SOL     OW28987   2.889   4.323  10.848 -0.0609  0.2447  0.0134
 5785SOL    HW128988   2.806   4.275  10.857  0.0881  0.7243  3.6959
 5785SOL    HW228989   2.933   4.293  10.927  2.6084 -0.1054 -1.5903
 5786SOL     OW28990   4.187   2.163  15.598 -0.1548 -0.6954 -0.0833
 5786SOL    HW128991   4.282   2.171  15.600 -0.2927  1.0148  0.0631
 5786SOL    HW228992   4.168   2.093  15.537 -0.0877 -2.5746  2.0563
 5787SOL     OW28993   4.140   1.333   5.148 -0.0049  0.8636  0.4302
 5787SOL    HW128994   4.080   1.289   5.207 -0.8233  2.4711  0.8027
 5787SOL    HW228995   4.089   1.411   5.126 -0.5918  1.1443  2.7406
 5788SOL     OW28996   4.103   4.716   6.528 -0.4805  0.6620 -0.4655
 5788SOL    HW128997   4.070   4.661   6.457  2.7123  0.1791 -1.5538
 5788SOL    HW228998   4.195   4.691   6.534 -0.1990  1.4207 -1.7080
 5789SOL     OW28999   3.450   1.007  12.228  0.0031  0.0468 -0.4022
 5789SOL    HW129000   3.497   0.965  12.156  0.0647  1.8250 -1.3976
 5789SOL    HW229001   3.454   1.096  12.194  2.3903 -0.3191 -1.0344
 5790SOL     OW29002   3.163   1.382   1.521  0.3556  0.0793 -0.8136
 5790SOL    HW129003   3.242   1.387   1.574 -1.0314  0.0116  1.2933
 5790SOL    HW229004   3.131   1.295   1.544  1.0644 -0.3776 -1.5637
 5791SOL     OW29005   3.740   0.122   1.582  0.2095 -0.2341 -0.2487
 5791SOL    HW129006   3.702   0.202   1.544  1.2637 -0.1668 -1.1756
 5791SOL    HW229007   3.690   0.106   1.661  1.5860 -0.1360  0.6476
 5792SOL     OW29008   1.119   4.372   4.220  0.0998  0.0496 -0.1856
 5792SOL    HW129009   1.088   4.348   4.308 -0.2772 -0.6671 -0.5144
 5792SOL    HW229010   1.035   4.389   4.178 -0.6189  0.6447  1.4830
 5793SOL     OW29011   2.942   4.643  14.035  0.3426  0.6789 -0.0038
 5793SOL    HW129012   2.886   4.669  13.962  1.3607 -1.0604 -1.3810
 5793SOL    HW229013   2.871   4.625  14.097  0.5444  1.9434  0.6127
 5794SOL     OW29014   0.379   4.075   1.777  0.2828 -0.1840  0.0415
 5794SOL    HW129015   0.411   3.989   1.748 -0.0143 -0.1708 -0.3239
 5794SOL    HW229016   0.383   4.065   1.872 -1.3623  2.5230  0.3735
 5795SOL     OW29017   4.733   4.126   5.627 -0.5175  0.5090 -0.1709
 5795SOL    HW129018   4.669   4.078   5.679 -1.5652  0.3053 -1.6471
 5795SOL    HW229019   4.702   4.215   5.646 -0.3334  0.4486  0.4131
 5796SOL     OW29020   0.462   1.766   2.450 -0.7422 -0.2067  0.2044
 5796SOL    HW129021   0.376   1.785   2.486 -0.7847 -0.0365  0.0119
 5796SOL    HW229022   0.494   1.857   2.449  0.2031 -0.5506 -1.1927
 5797SOL     OW29023   1.777   0.907   9.497  0.1551  0.2135 -0.0583
 5797SOL    HW129024   1.795   0.830   9.443  0.8341  0.6335 -0.4173
 5797SOL    HW229025   1.684   0.898   9.521  0.4535 -2.0960  0.2215
 5798SOL     OW29026   2.759   4.417   2.612 -0.5766  0.2512  0.4096
 5798SOL    HW129027   2.726   4.504   2.631 -1.0297 -0.0787  1.1346
 5798SOL    HW229028   2.818   4.426   2.536 -1.0969  0.9314  0.0847
 5799SOL     OW29029   3.418   4.575   8.124 -0.1611  0.8461 -0.4359
 5799SOL    HW129030   3.471   4.554   8.201 -1.2458  1.7685  0.5665
 5799SOL    HW229031   3.409   4.670   8.128  1.1455  0.9943 -1.3647
 5800SOL     OW29032   0.884   2.269   4.807  0.6947  0.7922  0.3787
 5800SOL    HW129033   0.854   2.320   4.731  0.1801  2.1449  1.5060
 5800SOL    HW229034   0.820   2.296   4.872  1.3917  1.6739  0.7011
 5801SOL     OW29035   4.628   2.748   5.186 -0.1934  0.7134 -0.5529
 5801SOL    HW129036   4.568   2.719   5.254  0.3562 -0.0387 -0.3965
 5801SOL    HW229037   4.588   2.709   5.108 -0.6207  0.0495 -0.0031
 5802SOL     OW29038   2.322   2.604  15.928 -0.1380  0.4754 -0.4972
 5802SOL    HW129039   2.368   2.661  15.866 -0.2255  1.6604  0.5305
 5802SOL    HW229040   2.243   2.654  15.948 -0.7643 -0.8902  0.4038
 5803SOL     OW29041   4.157   3.236   0.409 -0.1919  0.1338  0.5356
 5803SOL    HW129042   4.214   3.273   0.476 -2.1610  2.4022  0.9817
 5803SOL    HW229043   4.092   3.180   0.452  0.7054 -1.4937 -0.2388
 5804SOL     OW29044   1.234   3.390  10.721  0.8124  0.0994 -0.6040
 5804SOL    HW129045   1.194   3.476  10.728 -0.1519 -0.5107  1.3758
 5804SOL    HW229046   1.211   3.365  10.811  0.1302  1.4581 -0.4034
 5805SOL     OW29047   0.710   4.522  15.417  0.4258  0.2058  0.3582
 5805SOL    HW129048   0.681   4.554  15.331 -2.7757 -1.5787  0.7813
 5805SOL    HW229049   0.704   4.429  15.394 -0.6190  0.0135  1.4310
 5806SOL     OW29050   1.451   4.296   6.159  0.4528 -0.2150 -0.0593
 5806SOL    HW129051   1.372   4.341   6.188 -0.8883 -0.6011 -3.0458
 5806SOL    HW229052   1.417   4.207   6.160 -0.3456  0.1107  1.2909
 5807SOL     OW29053   1.679   1.337   4.143  0.2619  0.1706  0.4318
 5807SOL    HW129054   1.691   1.369   4.232  0.4749  0.5366  0.2697
 5807SOL    HW229055   1.653   1.249   4.172 -2.3738  1.0084  0.5886
 5808SOL     OW29056   1.315   1.676  12.035 -0.4837  0.0329 -0.3403
 5808SOL    HW129057   1.224   1.702  12.024 -0.5915 -0.1799  0.0392
 5808SOL    HW229058   1.341   1.721  12.116 -0.5553  1.9200 -1.3613
 5809SOL     OW29059   1.789   2.623   2.491  0.0460  0.1383  0.3815
 5809SOL    HW129060   1.705   2.617   2.536  0.7317  0.5880  1.7164
 5809SOL    HW229061   1.763   2.667   2.410  0.9464 -0.7344 -0.3773
 5810SOL     OW29062   2.018   0.134   8.155  0.4631 -0.4682  0.2193
 5810SOL    HW129063   1.961   0.209   8.170  0.5741 -0.2732 -0.3199
 5810SOL    HW229064   1.995   0.065   8.217 -1.5832 -1.3129 -1.4914
 5811SOL     OW29065   4.418   3.298   6.786 -0.1537  0.1446  0.5485
 5811SOL    HW129066   4.420   3.388   6.819  0.5337 -0.1090  1.2099
 5811SOL    HW229067   4.412   3.303   6.691  3.6833 -1.0616  0.2247
 5812SOL     OW29068   2.129   4.299   2.151 -0.0938  0.2596  0.7939
 5812SOL    HW129069   2.164   4.380   2.112  1.0206 -1.0327 -0.8756
 5812SOL    HW229070   2.119   4.237   2.079 -3.0736 -0.2126  1.6119
 5813SOL     OW29071   0.085   1.771   8.258 -0.0332  0.0282 -0.1770
 5813SOL    HW129072   0.139   1.849   8.243  0.3837 -0.1570  0.3624
 5813SOL    HW229073   0.127   1.716   8.192  0.5999 -0.1954  0.4133
 5814SOL     OW29074   0.381   3.878   2.793  0.1321 -0.4367 -0.4418
 5814SOL    HW129075   0.346   3.965   2.811  1.6068 -0.5458  2.8390
 5814SOL    HW229076   0.430   3.856   2.872  0.5186  0.5490 -0.4111
 5815SOL     OW29077   0.303   1.584  15.466  0.0507  0.3806 -0.0176
 5815SOL    HW129078   0.295   1.622  15.378  1.9517  1.7146  0.3926
 5815SOL    HW229079   0.276   1.663  15.513  0.4173 -0.9319  2.3781
 5816SOL     OW29080   0.095   2.530   7.955  0.3419  0.1630 -0.0105
 5816SOL    HW129081   0.032   2.546   7.885 -0.1496  0.7251  0.5663
 5816SOL    HW229082   0.108   2.616   7.996  1.5109 -0.2226  0.4119
 5817SOL     OW29083   1.047   2.039   8.297 -0.6139  0.2261 -0.0503
 5817SOL    HW129084   1.126   2.038   8.243 -0.5109 -0.5145  0.1191
 5817SOL    HW229085   0.998   2.105   8.247  1.1233  1.0049 -0.7234
 5818SOL     OW29086   4.536   0.514  10.054 -0.4664  0.0314 -0.1017
 5818SOL    HW129087   4.482   0.500  10.132  0.3685  0.2530  0.5233
 5818SOL    HW229088   4.519   0.607  10.041 -0.8921  0.2364  1.9489
 5819SOL     OW29089   3.012   3.498   3.964 -0.0661  0.0112 -0.0991
 5819SOL    HW129090   3.018   3.589   3.991 -1.6605  1.1202 -3.4569
 5819SOL    HW229091   2.960   3.449   4.028 -1.8366  0.3863 -1.2734
 5820SOL     OW29092   2.095   2.866   7.841  0.0080  0.2702 -0.1008
 5820SOL    HW129093   2.156   2.792   7.836 -0.6883 -0.2544 -0.8522
 5820SOL    HW229094   2.013   2.820   7.824  0.6884  0.0677 -2.8130
 5821SOL     OW29095   3.621   2.653   7.886  0.0624  0.4958 -0.0863
 5821SOL    HW129096   3.715   2.662   7.877 -0.1133  1.5895 -0.9209
 5821SOL    HW229097   3.621   2.580   7.948 -0.9477 -0.6873 -1.4924
 5822SOL     OW29098   3.085   1.384   5.402  0.1101 -0.0729 -0.3106
 5822SOL    HW129099   3.078   1.462   5.457 -1.4198 -1.7034  1.8148
 5822SOL    HW229100   2.993   1.359   5.393 -0.1569  0.1387  1.8804
 5823SOL     OW29101   2.434   2.634   4.333  0.3478  0.6887  0.7747
 5823SOL    HW129102   2.352   2.682   4.318 -0.3173 -1.1352 -1.3910
 5823SOL    HW229103   2.423   2.557   4.277  1.9958  1.8080 -1.0500
 5824SOL     OW29104   2.366   3.267   1.203  0.4297  0.0471  0.9537
 5824SOL    HW129105   2.340   3.315   1.124  1.3588  0.6033  0.9853
 5824SOL    HW229106   2.308   3.191   1.196 -0.6429  0.8272  1.2424
 5825SOL     OW29107   0.058   4.679   2.988 -0.2407  0.3003 -0.6620
 5825SOL    HW129108   0.026   4.673   2.898  1.3574  2.5546 -1.3842
 5825SOL    HW229109   4.732   0.006   3.019 -0.0382  0.0851  0.2046
 5826SOL     OW29110   3.080   3.677   4.435  0.0463 -0.0204  0.3234
 5826SOL    HW129111   3.137   3.693   4.510 -0.5856  2.9026  0.1742
 5826SOL    HW229112   3.092   3.584   4.415 -0.4679 -0.3006  1.3161
 5827SOL     OW29113   2.356   3.600   2.457 -0.2991 -0.4135 -0.3828
 5827SOL    HW129114   2.261   3.589   2.464 -0.4354  0.8035 -0.3850
 5827SOL    HW229115   2.391   3.529   2.511 -1.5115 -1.4282 -0.9411
 5828SOL     OW29116   4.409   4.573   2.369 -0.4074  0.7353  0.1849
 5828SOL    HW129117   4.468   4.604   2.300 -1.2136  4.1192  1.0204
 5828SOL    HW229118   4.326   4.605   2.334 -0.0134  0.5484 -0.9325
 5829SOL     OW29119   1.253   1.667   8.624  0.0916 -0.2446 -0.1331
 5829SOL    HW129120   1.287   1.756   8.619  0.1978 -0.2324  0.8618
 5829SOL    HW229121   1.229   1.656   8.532  1.1940  1.0149 -0.5679
 5830SOL     OW29122   3.594   4.461  12.245  0.1838  0.2426  0.2043
 5830SOL    HW129123   3.531   4.398  12.211 -0.1668  0.5699  0.2559
 5830SOL    HW229124   3.623   4.515  12.172 -0.3137  2.0808  1.3823
 5831SOL     OW29125   1.872   1.651   1.058 -0.5520  0.0280 -0.7511
 5831SOL    HW129126   1.913   1.596   1.124  0.3887  0.2723 -1.1265
 5831SOL    HW229127   1.905   1.613   0.976  0.7672  0.8201 -0.5778
 5832SOL     OW29128   4.683   4.171   8.727 -0.5332  0.0309 -0.4452
 5832SOL    HW129129   4.654   4.158   8.637  0.2689  1.9096 -0.9914
 5832SOL    HW229130   4.639   4.256   8.739  1.3282  1.0859 -1.0879
 5833SOL     OW29131   1.405   2.638   3.192  0.2712 -0.4510  0.1476
 5833SOL    HW129132   1.403   2.617   3.286  1.1494  2.0122  0.7176
 5833SOL    HW229133   1.498   2.620   3.179  0.5031  0.2154  0.8932
 5834SOL     OW29134   4.359   3.153  17.278  0.1974 -0.6178 -0.1541
 5834SOL    HW129135   4.326   3.131  17.365 -0.0616 -0.3290 -0.1817
 5834SOL    HW229136   4.275   3.178  17.241  0.7812  0.8892 -0.4555
 5835SOL     OW29137   3.059   1.961   4.872  0.3795  0.6945 -0.0914
 5835SOL    HW129138   3.025   1.940   4.785 -1.1721  2.6920  0.0225
 5835SOL    HW229139   3.076   1.872   4.904 -0.3227  1.0690  1.3444
 5836SOL     OW29140   4.176   2.977   0.282 -0.5955 -0.5745 -0.0481
 5836SOL    HW129141   4.156   2.952   0.192  1.0596  0.5753 -0.7559
 5836SOL    HW229142   4.227   3.053   0.253 -1.0874 -0.6607 -1.1164
 5837SOL     OW29143   2.848   1.780  12.458 -0.0609 -0.5826  0.1100
 5837SOL    HW129144   2.869   1.731  12.537 -0.1941 -0.4838  0.2055
 5837SOL    HW229145   2.909   1.739  12.396  0.0044  0.1595 -0.3116
 5838SOL     OW29146   3.857   2.263   7.386  0.1780  0.0970  0.2943
 5838SOL    HW129147   3.789   2.325   7.364 -0.4465 -0.9564 -0.7670
 5838SOL    HW229148   3.934   2.320   7.384  1.0158 -1.0980 -1.9847
 5839SOL     OW29149   3.671   3.927   8.764 -0.3851 -0.7698 -0.4859
 5839SOL    HW129150   3.595   3.962   8.717  2.1084  3.3133 -1.4707
 5839SOL    HW229151   3.735   3.901   8.697  1.6569  1.9966  0.4058
 5840SOL     OW29152   2.244   0.582   0.932 -0.2816  0.0033 -0.2928
 5840SOL    HW129153   2.254   0.585   1.027 -0.4036 -0.2708 -0.2708
 5840SOL    HW229154   2.318   0.532   0.896  0.1542 -0.6823  1.5304
 5841SOL     OW29155   4.699   1.962   2.448  0.2070  0.0362 -0.1352
 5841SOL    HW129156   4.652   1.976   2.366  1.6088  0.7743 -0.8145
 5841SOL    HW229157   4.629   1.962   2.514  0.8231 -2.0259  0.5084
 5842SOL     OW29158   2.818   2.277  17.273 -0.0137 -0.6404  0.4712
 5842SOL    HW129159   2.746   2.336  17.296 -0.3033 -0.5167 -0.7489
 5842SOL    HW229160   2.854   2.311  17.191 -0.9973  2.5275  1.3495
 5843SOL     OW29161   1.649   2.878  12.467  1.0976 -0.5161 -0.0413
 5843SOL    HW129162   1.571   2.821  12.472  0.2164  0.8767  2.4765
 5843SOL    HW229163   1.657   2.908  12.558  1.6185 -1.3386  0.1857
 5844SOL     OW29164   2.673   0.226   4.654 -0.3351  0.0020 -0.3817
 5844SOL    HW129165   2.753   0.271   4.627  0.2630  0.3064  1.9116
 5844SOL    HW229166   2.619   0.234   4.576 -0.0435 -3.2627 -0.9307
 5845SOL     OW29167   1.248   1.779   3.790  0.3084 -0.0345  0.2941
 5845SOL    HW129168   1.274   1.869   3.809  0.4359 -0.0058 -0.0161
 5845SOL    HW229169   1.217   1.800   3.702 -0.7468  0.3226  0.7542
 5846SOL     OW29170   1.078   4.602   2.275 -0.3769  0.4830 -0.0776
 5846SOL    HW129171   1.070   4.617   2.369  1.0019  0.9262 -0.0419
 5846SOL    HW229172   1.166   4.638   2.263  0.3807 -1.7354 -1.2021
 5847SOL     OW29173   0.753   3.667   7.272  1.1150  0.1650 -0.5435
 5847SOL    HW129174   0.835   3.653   7.319  1.1715 -1.6623 -1.1674
 5847SOL    HW229175   0.792   3.649   7.187 -0.2792 -1.5324 -0.8221
 5848SOL     OW29176   2.262   3.293  13.003 -0.6618 -0.0726 -0.6045
 5848SOL    HW129177   2.199   3.281  12.932 -0.6513 -2.9372 -0.1258
 5848SOL    HW229178   2.249   3.217  13.059  1.7970 -0.4585 -0.5647
 5849SOL     OW29179   1.588   4.575   4.894  0.3312 -0.0480  0.1027
 5849SOL    HW129180   1.640   4.509   4.939 -2.5390 -1.1893  1.7332
 5849SOL    HW229181   1.521   4.514   4.864  0.6148 -0.4279  0.2491
 5850SOL     OW29182   4.140   1.492   6.690  0.0884  0.0762 -0.1098
 5850SOL    HW129183   4.147   1.544   6.770  1.8540  0.0348 -0.2407
 5850SOL    HW229184   4.141   1.403   6.727 -0.1354  1.3645  2.9663
 5851SOL     OW29185   3.081   0.218   9.966  0.9359  0.1385 -0.4146
 5851SOL    HW129186   3.040   0.167   9.896  0.0896  0.7660 -0.3792
 5851SOL    HW229187   3.137   0.154  10.009 -0.4343 -1.5181 -1.0970
 5852SOL     OW29188   3.657   2.665   3.201  0.2835 -0.1954  0.6189
 5852SOL    HW129189   3.658   2.753   3.239  0.7414 -1.0900  2.6712
 5852SOL    HW229190   3.583   2.674   3.141  0.5537 -0.5550  0.2347
 5853SOL     OW29191   1.139   3.592   0.710 -0.4127  0.2358 -0.1141
 5853SOL    HW129192   1.176   3.665   0.660 -1.0680 -0.2455 -1.3039
 5853SOL    HW229193   1.212   3.535   0.736 -0.9646 -0.3240  0.2015
 5854SOL     OW29194   3.701   0.152  13.419  0.3586  0.0263 -0.0471
 5854SOL    HW129195   3.693   0.200  13.501 -1.9641 -2.4399  1.1734
 5854SOL    HW229196   3.662   0.069  13.447 -0.3877  0.3701 -0.0769
 5855SOL     OW29197   3.060   1.338   6.852 -0.3290  0.1146  0.4860
 5855SOL    HW129198   3.126   1.275   6.824 -0.1419 -0.9281  3.2652
 5855SOL    HW229199   3.067   1.405   6.784 -2.2270 -1.6363 -1.4160
 5856SOL     OW29200   1.183   1.061   6.311  0.1956 -0.7299  0.3114
 5856SOL    HW129201   1.202   0.970   6.335 -0.9836 -1.0706 -0.0603
 5856SOL    HW229202   1.272   1.091   6.329  0.4085 -1.2957  0.2156
 5857SOL     OW29203   3.605   3.690   5.058  0.4889 -0.1767 -0.2996
 5857SOL    HW129204   3.551   3.618   5.091 -2.4466  4.2468  4.4213
 5857SOL    HW229205   3.541   3.760   5.072 -0.3850 -1.2189  0.9397
 5858SOL     OW29206   4.195   3.679   2.659  0.4053 -0.3567  0.0927
 5858SOL    HW129207   4.126   3.627   2.699 -0.2071  0.0219 -0.4771
 5858SOL    HW229208   4.279   3.643   2.689  1.2012  1.4639  0.0183
 5859SOL     OW29209   1.701   2.399   8.369  0.1830  0.0688  0.0229
 5859SOL    HW129210   1.624   2.368   8.323 -0.3736 -2.6814  2.7851
 5859SOL    HW229211   1.721   2.326   8.428  2.2192  0.2856 -0.3989
 5860SOL     OW29212   3.484   4.202   2.082  0.1727 -0.3741 -0.1829
 5860SOL    HW129213   3.394   4.169   2.088 -0.4321  1.1291 -0.9051
 5860SOL    HW229214   3.486   4.282   2.029  0.9333 -0.2321  0.0637
 5861SOL     OW29215   0.499   1.983   6.343 -0.0890  0.2272 -0.0159
 5861SOL    HW129216   0.478   2.072   6.314  1.2366  1.1217  1.8156
 5861SOL    HW229217   0.416   1.936   6.357  0.3401 -1.0034 -1.5886
 5862SOL     OW29218   3.342   4.263  15.389  0.3838  0.2912 -0.2060
 5862SOL    HW129219   3.374   4.198  15.451  1.9604  1.4723  0.2019
 5862SOL    HW229220   3.311   4.331  15.449  2.3444  0.5671  0.4734
 5863SOL     OW29221   1.327   0.752   8.237  0.5926  0.1262  0.2535
 5863SOL    HW129222   1.299   0.661   8.245 -1.2626  0.7719  1.2775
 5863SOL    HW229223   1.335   0.761   8.142  1.2664  0.7610  0.3698
 5864SOL     OW29224   3.023   3.388   0.176 -1.1520  0.3139  0.1041
 5864SOL    HW129225   3.026   3.450   0.103  2.1668  0.1802  0.1304
 5864SOL    HW229226   3.015   3.449   0.249 -0.3495 -1.4566  1.6597
 5865SOL     OW29227   0.803   3.943   7.761  0.1082  0.4962 -0.3430
 5865SOL    HW129228   0.799   3.860   7.714  4.5576 -0.1260  0.3637
 5865SOL    HW229229   0.872   3.975   7.704 -0.4959  0.1782 -1.2513
 5866SOL     OW29230   1.083   1.132   8.128  0.3030 -0.2654  0.2210
 5866SOL    HW129231   1.176   1.131   8.150  0.2843 -1.7984  0.2034
 5866SOL    HW229232   1.087   1.176   8.043 -1.5585  1.5063  1.0401
 5867SOL     OW29233   1.066   1.349  16.738 -0.5716 -0.0935 -0.0836
 5867SOL    HW129234   0.972   1.362  16.751 -0.4176  0.8268  0.1104
 5867SOL    HW229235   1.061   1.264  16.693 -0.1784 -0.2058  0.0874
 5868SOL     OW29236   3.269   3.023   4.046  0.7229  0.2680 -0.3370
 5868SOL    HW129237   3.300   2.938   4.014 -1.9997 -0.2188 -1.6516
 5868SOL    HW229238   3.195   2.998   4.102  0.6001  0.5645 -0.3696
 5869SOL     OW29239   1.794   1.805   9.050  0.2346  0.4101 -0.3308
 5869SOL    HW129240   1.741   1.845   9.119  0.9001  0.2860  0.2376
 5869SOL    HW229241   1.882   1.828   9.079  0.7761 -0.8581 -0.9689
 5870SOL     OW29242   4.448   4.677  13.821 -0.2030 -0.1530  0.2545
 5870SOL    HW129243   4.353   4.689  13.825 -0.3700 -1.4874  0.4262
 5870SOL    HW229244   4.484   0.027  13.813  0.4967 -0.3293  1.4774
 5871SOL     OW29245   1.059   4.404  11.342 -0.0274 -0.5044  0.2782
 5871SOL    HW129246   1.027   4.466  11.277  2.3325  0.7222  0.2911
 5871SOL    HW229247   1.093   4.332  11.290 -0.4355 -1.0409  0.7548
 5872SOL     OW29248   2.020   1.844   2.671  0.3568 -0.0647 -0.5314
 5872SOL    HW129249   2.111   1.865   2.651  0.6757 -1.3991 -0.4873
 5872SOL    HW229250   2.010   1.874   2.761 -2.1092 -0.2394 -0.7475
 5873SOL     OW29251   1.909   3.322   4.991 -0.0758 -0.2669 -0.7484
 5873SOL    HW129252   1.890   3.406   4.950 -0.0189  0.4047  0.6314
 5873SOL    HW229253   1.852   3.320   5.068  0.5878  2.8372 -0.1852
 5874SOL     OW29254   2.475   2.233   7.344  0.0936  0.5073  0.1651
 5874SOL    HW129255   2.415   2.177   7.392  0.5516  1.2124  1.5508
 5874SOL    HW229256   2.424   2.233   7.263  1.2376 -1.9824 -0.5641
 5875SOL     OW29257   2.003   1.319   4.906  0.1107 -0.1768  0.2922
 5875SOL    HW129258   2.034   1.234   4.874 -0.4688 -0.9189  1.6761
 5875SOL    HW229259   2.007   1.371   4.826  0.7486 -0.0829  0.3799
 5876SOL     OW29260   0.227   0.128   4.386  0.0217  0.3118  0.1883
 5876SOL    HW129261   0.179   0.068   4.329  0.8122 -0.2265  0.0822
 5876SOL    HW229262   0.243   0.066   4.457  2.2856  0.0124 -0.5672
 5877SOL     OW29263   1.403   1.500   1.959  0.7582  0.3230  0.7002
 5877SOL    HW129264   1.428   1.453   1.880  1.0261  1.5546  0.0566
 5877SOL    HW229265   1.446   1.455   2.032  2.9099 -0.2202 -0.9374
 5878SOL     OW29266   4.017   1.043   5.881  0.1532 -0.2108  0.0268
 5878SOL    HW129267   4.064   1.085   5.953 -0.7517  0.2707  0.3321
 5878SOL    HW229268   3.977   1.112   5.828  3.0430  1.7017  0.3372
 5879SOL     OW29269   3.444   3.277  11.852 -0.2840  0.2011 -0.2690
 5879SOL    HW129270   3.358   3.315  11.836  0.1726  1.3589  0.0213
 5879SOL    HW229271   3.422   3.184  11.844 -1.2424  0.2143  2.3556
 5880SOL     OW29272   3.875   1.674   3.696 -0.4475  0.4750  0.1939
 5880SOL    HW129273   3.881   1.602   3.633  0.3969  0.0097  0.8153
 5880SOL    HW229274   3.779   1.675   3.695 -0.4695 -1.7426 -0.1726
 5881SOL     OW29275   0.766   4.405   6.172 -0.2345  0.0323  0.1576
 5881SOL    HW129276   0.714   4.384   6.250  0.0338  0.6340  0.5002
 5881SOL    HW229277   0.717   4.480   6.140  1.0823  1.7774  2.2286
 5882SOL     OW29278   1.871   4.252   2.654 -0.3897  0.3010  0.1037
 5882SOL    HW129279   1.961   4.227   2.675  0.0882  1.8584 -0.0970
 5882SOL    HW229280   1.831   4.170   2.683  0.0712 -0.4148 -1.2896
 5883SOL     OW29281   1.151   0.078   3.238  0.4317  0.2953  0.3609
 5883SOL    HW129282   1.088   0.127   3.185 -0.6054 -0.3390  1.0054
 5883SOL    HW229283   1.227   0.136   3.235  1.2505 -0.7448  1.0956
 5884SOL     OW29284   0.871   2.977  13.898  0.1348  0.3825 -0.4707
 5884SOL    HW129285   0.836   2.919  13.965  2.2358 -1.3998 -0.9051
 5884SOL    HW229286   0.868   3.063  13.939 -0.0259 -0.5964  1.5330
 5885SOL     OW29287   0.700   4.619   3.220  0.0801  0.0429 -0.0377
 5885SOL    HW129288   0.765   4.550   3.210  0.1379  0.1930 -0.6806
 5885SOL    HW229289   0.738   4.669   3.292  0.4105 -0.4309  0.1172
 5886SOL     OW29290   1.759   2.412   6.883 -0.2384  0.0870 -0.2793
 5886SOL    HW129291   1.806   2.428   6.965  1.6707  0.2009 -1.3826
 5886SOL    HW229292   1.693   2.481   6.883  0.4847  0.7773 -1.0849
 5887SOL     OW29293   3.776   3.939  17.010 -0.5839  0.0403 -0.0313
 5887SOL    HW129294   3.802   4.011  17.067  1.2133 -0.8912  0.3165
 5887SOL    HW229295   3.831   3.950  16.932 -0.0020 -0.9345  0.2516
 5888SOL     OW29296   4.720   2.464   7.291 -0.6146 -0.2040  0.9385
 5888SOL    HW129297   4.647   2.485   7.234  0.2549  0.8574  0.2123
 5888SOL    HW229298   4.672   2.469   7.374 -0.9604  1.5194  0.6150
 5889SOL     OW29299   1.687   4.390   2.094  0.0479  0.1105  0.1322
 5889SOL    HW129300   1.740   4.428   2.163  0.4015  1.4854 -0.9065
 5889SOL    HW229301   1.611   4.370   2.150 -0.5802  1.0249 -0.3923
 5890SOL     OW29302   1.318   4.452  11.425  0.2181 -0.0764 -0.2858
 5890SOL    HW129303   1.225   4.466  11.410 -0.3242 -1.2537  2.0430
 5890SOL    HW229304   1.352   4.487  11.343  0.7640 -0.3063 -0.1593
 5891SOL     OW29305   1.263   0.349   3.176  0.3918  0.0004 -0.1924
 5891SOL    HW129306   1.227   0.430   3.142  0.3342  0.2450  0.4462
 5891SOL    HW229307   1.351   0.366   3.210  1.0728 -1.7879 -1.0220
 5892SOL     OW29308   4.716   2.717   5.670 -0.4356  0.5536 -0.1632
 5892SOL    HW129309   4.711   2.635   5.620  0.3785 -0.1450  0.8938
 5892SOL    HW229310   4.625   2.745   5.671 -0.6264 -0.0677 -0.1995
 5893SOL     OW29311   2.376   3.749   5.032  0.4709 -0.1480 -0.2797
 5893SOL    HW129312   2.461   3.723   5.068  0.0103 -1.6474 -0.2600
 5893SOL    HW229313   2.382   3.835   5.074  2.2878 -0.0113 -0.8612
 5894SOL     OW29314   3.301   4.142   5.577  0.1197  0.7857  0.9182
 5894SOL    HW129315   3.352   4.199   5.519  1.7379 -0.1038  1.4697
 5894SOL    HW229316   3.220   4.137   5.528  0.7308 -1.8837  0.1944
 5895SOL     OW29317   2.136   0.090   7.512 -0.1101 -0.0017 -0.6826
 5895SOL    HW129318   2.108   0.017   7.457  1.6869 -0.8688 -0.4702
 5895SOL    HW229319   2.224   0.115   7.482  0.8366  0.7687  2.7203
 5896SOL     OW29320   3.730   1.864  16.409  0.0186  0.0298  0.5853
 5896SOL    HW129321   3.716   1.792  16.347  1.7647 -0.7405  1.0817
 5896SOL    HW229322   3.637   1.883  16.420 -0.1900 -0.8869  0.4284
 5897SOL     OW29323   0.982   4.656   6.477 -0.2014  0.7204  0.2880
 5897SOL    HW129324   1.016   4.683   6.391  0.0263  1.6764  0.6821
 5897SOL    HW229325   1.048   4.594   6.509 -0.5155  0.0650 -0.3302
 5898SOL     OW29326   3.291   0.176   7.179 -0.4858  0.2661 -0.0716
 5898SOL    HW129327   3.280   0.082   7.167  0.0764  0.4165 -1.8663
 5898SOL    HW229328   3.284   0.203   7.087 -1.5016 -2.4355 -0.7736
 5899SOL     OW29329   1.391   2.158   7.062  0.3172  0.0712  0.3482
 5899SOL    HW129330   1.388   2.073   7.106 -0.4201  0.3715  0.8859
 5899SOL    HW229331   1.443   2.136   6.984 -0.3114 -1.1262  0.2802
 5900SOL     OW29332   1.935   4.096  11.401  0.3788 -0.2240 -1.1410
 5900SOL    HW129333   1.926   4.172  11.344  0.6280 -0.6279 -1.7051
 5900SOL    HW229334   1.891   4.025  11.355 -1.1402  1.0838 -1.7204
 5901SOL     OW29335   2.170   1.004   7.656  0.3821  0.1957 -0.0755
 5901SOL    HW129336   2.184   0.946   7.730  1.2787 -0.5972 -0.8736
 5901SOL    HW229337   2.230   1.074   7.684 -0.5199  1.6784 -1.8240
 5902SOL     OW29338   3.505   2.097   8.456  0.3132  0.0348 -0.5324
 5902SOL    HW129339   3.576   2.042   8.488  0.4013  1.0247  1.0045
 5902SOL    HW229340   3.504   2.169   8.520  2.4869 -0.2511 -0.1715
 5903SOL     OW29341   3.264   0.222  12.079  0.1074 -0.3459 -0.7644
 5903SOL    HW129342   3.174   0.218  12.046  0.1871 -1.0442 -0.8841
 5903SOL    HW229343   3.309   0.249  11.999 -2.2382  1.0707 -1.6077
 5904SOL     OW29344   4.364   2.490   3.837  0.3316  0.7997 -0.2395
 5904SOL    HW129345   4.389   2.467   3.747  0.2461  0.0575 -0.0741
 5904SOL    HW229346   4.373   2.586   3.836 -0.0072  0.8316 -0.2433
 5905SOL     OW29347   1.614   0.226   1.181 -0.6367  0.1349 -0.7248
 5905SOL    HW129348   1.684   0.163   1.199 -1.6508 -0.7480  0.1482
 5905SOL    HW229349   1.666   0.298   1.147  2.1879 -0.4235  2.5075
 5906SOL     OW29350   2.501   1.492   5.364  0.3075 -0.4617 -0.0632
 5906SOL    HW129351   2.528   1.583   5.381  1.8496 -1.5322  3.0642
 5906SOL    HW229352   2.426   1.505   5.306 -0.9994  0.5368  1.8969
 5907SOL     OW29353   3.128   0.703   7.876  0.9843  0.1290  0.5484
 5907SOL    HW129354   3.183   0.653   7.816  0.3833 -0.1129  0.1911
 5907SOL    HW229355   3.043   0.659   7.869 -0.3241  2.7435 -0.0081
 5908SOL     OW29356   4.063   1.236   9.408 -0.1611  0.1797  0.4762
 5908SOL    HW129357   4.014   1.212   9.330 -0.3891  0.1779  0.6193
 5908SOL    HW229358   3.995   1.229   9.476  2.1548  0.0737  2.7979
 5909SOL     OW29359   0.667   1.407   9.084 -0.2557 -0.0347  0.8122
 5909SOL    HW129360   0.692   1.319   9.114 -0.9831 -0.3248  0.5642
 5909SOL    HW229361   0.580   1.395   9.046  1.3813 -1.8988 -2.3608
 5910SOL     OW29362   1.888   0.048   5.455 -0.0824  1.5297  0.1437
 5910SOL    HW129363   1.857   0.114   5.393 -2.4225  3.4937  3.3741
 5910SOL    HW229364   1.830   0.064   5.530  1.3825  2.8662  0.9869
 5911SOL     OW29365   3.005   4.395  17.494 -0.4036 -0.5099 -0.6744
 5911SOL    HW129366   2.931   4.368  17.439  0.4252 -0.9464 -1.5706
 5911SOL    HW229367   3.044   4.463  17.439  0.9248  0.2522  1.2249
 5912SOL     OW29368   3.415   3.925   9.037 -0.1117 -0.0078  0.0796
 5912SOL    HW129369   3.469   3.868   8.983  0.3052 -0.8938  1.4500
 5912SOL    HW229370   3.329   3.909   8.999  0.5332  1.5879 -2.0491
 5913SOL     OW29371   1.975   4.559   5.330 -0.1758 -1.0057  0.3970
 5913SOL    HW129372   1.955   4.626   5.396 -0.7907 -1.2905  0.4978
 5913SOL    HW229373   1.929   4.593   5.253 -0.0123 -0.1715  0.6645
 5914SOL     OW29374   1.380   0.348  10.406  0.6887 -0.0013  0.2105
 5914SOL    HW129375   1.358   0.382  10.492 -1.3360 -2.2201  0.5885
 5914SOL    HW229376   1.381   0.253  10.416 -1.9657 -0.0207  0.2942
 5915SOL     OW29377   1.269   2.399  12.238  0.1562  0.6423  0.8168
 5915SOL    HW129378   1.268   2.415  12.144 -2.0439  1.1837  0.9436
 5915SOL    HW229379   1.275   2.304  12.246 -0.4583  0.6390  1.2183
 5916SOL     OW29380   3.407   1.002   3.024  0.0962 -0.3190  0.6689
 5916SOL    HW129381   3.416   1.094   3.049  3.4067 -0.6848  0.8680
 5916SOL    HW229382   3.398   0.950   3.104 -1.9166 -3.1036 -1.3430
 5917SOL     OW29383   3.706   2.560   4.985  0.1333 -0.0112  0.4082
 5917SOL    HW129384   3.741   2.588   5.070 -0.1078  0.3550  0.3867
 5917SOL    HW229385   3.674   2.640   4.943 -0.8534 -0.0211  1.1278
 5918SOL     OW29386   0.707   3.194   4.223  0.0959 -0.1775 -0.0925
 5918SOL    HW129387   0.657   3.126   4.179 -1.5917  1.5352 -0.7653
 5918SOL    HW229388   0.786   3.143   4.244 -0.1011 -0.0759  0.9173
 5919SOL     OW29389   2.887   2.307   4.419 -0.1621 -0.1072  0.1514
 5919SOL    HW129390   2.881   2.263   4.334 -2.7717  2.2576 -0.8777
 5919SOL    HW229391   2.853   2.393   4.395  0.4716 -0.6914 -2.8045
 5920SOL     OW29392   2.437   2.546   9.526 -0.0601 -0.2188 -0.0665
 5920SOL    HW129393   2.408   2.552   9.435  1.9405  0.2631 -0.6530
 5920SOL    HW229394   2.432   2.452   9.542 -0.4310  0.2224  2.4134
 5921SOL     OW29395   3.015   1.414   8.371 -0.1137  0.5678  0.3084
 5921SOL    HW129396   3.028   1.378   8.283  1.2296 -3.0647  1.9800
 5921SOL    HW229397   2.926   1.450   8.365 -1.3453 -2.4563  0.5341
 5922SOL     OW29398   2.725   1.823   2.422  0.6667  0.0469 -0.3064
 5922SOL    HW129399   2.728   1.918   2.431 -0.0651 -0.0246  0.6725
 5922SOL    HW229400   2.768   1.799   2.504 -1.7304 -2.0289  0.3418
 5923SOL     OW29401   2.679   0.221  17.696  0.5051 -0.3992 -0.5536
 5923SOL    HW129402   2.699   0.128  17.691  1.8566 -0.1067 -0.5499
 5923SOL    HW229403   2.747   0.244   0.010 -0.1027 -1.7888  0.5984
 5924SOL     OW29404   0.915   4.475   4.053 -0.1381 -0.0950  0.2812
 5924SOL    HW129405   0.911   4.400   3.994 -2.4044  0.2821 -0.0324
 5924SOL    HW229406   0.880   4.539   3.992 -2.3898 -1.3852  0.2363
 5925SOL     OW29407   3.272   3.809   0.618 -0.5183 -0.2754  0.4158
 5925SOL    HW129408   3.227   3.892   0.603  4.5731  2.0732 -1.8785
 5925SOL    HW229409   3.263   3.801   0.713 -0.0978  0.5049  0.5192
 5926SOL     OW29410   3.668   0.633   7.850 -0.4734  0.3119  0.0042
 5926SOL    HW129411   3.725   0.594   7.784  0.4407  0.8537  0.4655
 5926SOL    HW229412   3.628   0.562   7.900  0.4057 -1.5682 -1.9932
 5927SOL     OW29413   0.787   1.269   2.880 -0.2848 -0.3476  0.2174
 5927SOL    HW129414   0.721   1.253   2.814 -0.1323  0.8959 -0.2273
 5927SOL    HW229415   0.871   1.268   2.833 -0.0661 -0.7756  0.6113
 5928SOL     OW29416   2.883   2.079   3.232 -0.1299 -0.0406  0.2167
 5928SOL    HW129417   2.843   1.997   3.260 -0.0954  0.1897  0.9377
 5928SOL    HW229418   2.884   2.067   3.137 -0.9631 -2.9434  0.6046
 5929SOL     OW29419   1.616   1.151   9.630  0.2965  0.1886  0.5270
 5929SOL    HW129420   1.583   1.088   9.565 -0.7494 -0.6166  1.8367
 5929SOL    HW229421   1.647   1.098   9.703 -0.4573  0.3353  0.9568
 5930SOL     OW29422   3.646   2.164  14.641  0.2035  0.0465 -0.0490
 5930SOL    HW129423   3.590   2.135  14.713  1.2282 -3.4622 -0.6607
 5930SOL    HW229424   3.607   2.107  14.574 -2.0284  0.3473  1.0066
 5931SOL     OW29425   2.589   4.309   5.833  0.0360  0.3564  0.1894
 5931SOL    HW129426   2.578   4.278   5.923 -1.5429 -0.9019 -0.4438
 5931SOL    HW229427   2.502   4.297   5.796  0.8041  0.0257 -1.5187
 5932SOL     OW29428   4.270   2.575   8.197 -0.1722 -0.0880 -0.5197
 5932SOL    HW129429   4.261   2.644   8.262 -0.8929 -0.5676 -0.1203
 5932SOL    HW229430   4.221   2.503   8.235 -0.7409  1.6578  2.0661
 5933SOL     OW29431   3.360   1.449   5.329 -0.0673  0.2206  1.0482
 5933SOL    HW129432   3.273   1.410   5.335 -0.8224  1.5259 -1.4974
 5933SOL    HW229433   3.411   1.386   5.277 -1.0115  2.6024 -2.7936
 5934SOL     OW29434   1.875   0.498   3.486 -0.0769  0.2885 -0.4589
 5934SOL    HW129435   1.931   0.430   3.448  1.3283  0.8923  0.5044
 5934SOL    HW229436   1.937   0.560   3.527 -0.7929  1.7689 -1.6144
 5935SOL     OW29437   3.151   0.593   4.250 -0.5395 -0.3822  0.3162
 5935SOL    HW129438   3.243   0.571   4.242 -0.9101 -1.8298  0.0198
 5935SOL    HW229439   3.116   0.587   4.160  1.4283 -0.8972 -0.4080
 5936SOL     OW29440   1.990   3.823   6.597  0.1756  0.3970 -0.2984
 5936SOL    HW129441   1.926   3.892   6.581 -1.7005 -1.4019 -0.5567
 5936SOL    HW229442   2.046   3.861   6.665 -1.2231  2.6298 -0.3897
 5937SOL     OW29443   1.116   0.372   8.802 -0.4161 -0.3013 -0.3799
 5937SOL    HW129444   1.111   0.427   8.723 -0.8285 -0.1236 -0.2325
 5937SOL    HW229445   1.167   0.300   8.764 -0.4430 -0.5817  0.1242
 5938SOL     OW29446   1.803   1.329  14.765 -0.0670  0.4344  0.4676
 5938SOL    HW129447   1.771   1.256  14.818  1.2070  0.7369  1.6583
 5938SOL    HW229448   1.890   1.300  14.737 -1.2305 -1.1746 -1.4334
 5939SOL     OW29449   2.361   0.234   9.422  0.1441  0.2792 -0.5399
 5939SOL    HW129450   2.455   0.221   9.432 -0.5046 -2.8310  1.4563
 5939SOL    HW229451   2.329   0.227   9.512 -0.8340 -2.8580 -1.1176
 5940SOL     OW29452   4.259   3.990   3.917 -0.3774 -0.2523  0.1058
 5940SOL    HW129453   4.340   4.022   3.878  1.0717 -2.5711  1.2184
 5940SOL    HW229454   4.281   3.958   4.005 -0.7020  2.9274  1.3641
 5941SOL     OW29455   4.072   2.819   8.039 -0.0036  0.6498  0.3737
 5941SOL    HW129456   4.027   2.747   8.084  0.2933  0.3900  0.2481
 5941SOL    HW229457   4.042   2.898   8.085 -1.4416  0.4306 -0.1968
 5942SOL     OW29458   0.717   3.753   4.146 -0.0064  0.0056 -0.3031
 5942SOL    HW129459   0.728   3.677   4.203 -0.9463  0.3821  0.3759
 5942SOL    HW229460   0.759   3.727   4.064 -1.0729 -1.3482 -0.4249
 5943SOL     OW29461   1.290   1.681   6.460 -0.8971 -0.3931  0.0348
 5943SOL    HW129462   1.248   1.759   6.498 -2.8353 -1.7021  0.5829
 5943SOL    HW229463   1.266   1.622   6.531 -2.8307  1.6858  1.1481
 5944SOL     OW29464   1.044   4.002   0.468  0.6626  0.5204  0.3015
 5944SOL    HW129465   1.026   3.928   0.410 -2.5881  1.3565  0.2552
 5944SOL    HW229466   0.967   4.052   0.440 -0.0587 -1.5032 -1.3156
 5945SOL     OW29467   0.702   2.654   8.785  0.3574 -0.6379 -0.2405
 5945SOL    HW129468   0.674   2.706   8.860  1.8187 -0.3827  0.1331
 5945SOL    HW229469   0.694   2.726   8.722 -1.0971 -1.9801 -1.6077
 5946SOL     OW29470   1.721   0.258   3.594 -0.3872 -0.2585 -0.2256
 5946SOL    HW129471   1.714   0.267   3.689  1.0876  0.0931 -0.1485
 5946SOL    HW229472   1.737   0.350   3.570  1.5471 -0.8044 -1.0454
 5947SOL     OW29473   0.567   2.935   7.637 -0.1210  0.4292 -0.1303
 5947SOL    HW129474   0.597   2.886   7.560 -0.1088 -0.1580  0.2508
 5947SOL    HW229475   0.485   2.970   7.602  0.3437  1.9742  0.3004
 5948SOL     OW29476   4.131   3.530   1.531 -0.8876  0.4962 -0.2156
 5948SOL    HW129477   4.175   3.559   1.611 -0.0250  1.0111 -0.8795
 5948SOL    HW229478   4.054   3.586   1.538 -0.3179  0.9931  2.3118
 5949SOL     OW29479   4.337   2.247   7.077 -0.2041 -0.5861 -0.2122
 5949SOL    HW129480   4.260   2.303   7.070  0.4817  0.4880  0.6924
 5949SOL    HW229481   4.390   2.291   7.011 -0.0654  0.1282  0.3758
 5950SOL     OW29482   2.561   4.593  16.682 -0.5754  0.2555 -0.4703
 5950SOL    HW129483   2.517   4.512  16.656 -1.2891  0.9522 -1.4409
 5950SOL    HW229484   2.490   4.639  16.727  0.2390 -2.2251  3.3628
 5951SOL     OW29485   2.145   4.103  17.643  0.0270  0.7022 -0.4758
 5951SOL    HW129486   2.176   4.049  17.715 -0.5552  0.3144 -0.5165
 5951SOL    HW229487   2.055   4.122  17.671  0.5867  1.1312  1.0054
 5952SOL     OW29488   3.900   1.472   2.998 -0.2037 -0.0083  0.0691
 5952SOL    HW129489   3.894   1.559   3.036 -2.1765 -0.1297  0.0328
 5952SOL    HW229490   3.876   1.487   2.907 -0.9184 -0.2956  0.2083
 5953SOL     OW29491   0.060   1.343  10.964 -0.8598  0.0868  0.3131
 5953SOL    HW129492   0.028   1.271  11.019 -0.1202  0.2213  0.9150
 5953SOL    HW229493   0.104   1.400  11.027 -1.8490  0.3595  0.7567
 5954SOL     OW29494   3.888   4.639   6.702 -0.8238  0.0633 -0.5040
 5954SOL    HW129495   3.924   4.591   6.777 -1.2022  0.0023 -0.3599
 5954SOL    HW229496   3.962   4.655   6.645 -0.3078  1.7048  0.6425
 5955SOL     OW29497   3.475   1.771   0.995  0.1232  0.7782 -0.0254
 5955SOL    HW129498   3.561   1.792   0.957  0.2546  2.3396  1.1205
 5955SOL    HW229499   3.487   1.814   1.080  0.1456 -0.1310  0.4257
 5956SOL     OW29500   3.625   2.851  12.716 -0.1002  0.1229 -0.4811
 5956SOL    HW129501   3.632   2.881  12.807 -0.6492  1.2412 -0.8124
 5956SOL    HW229502   3.588   2.926  12.672  0.1414  0.0621 -0.7870
 5957SOL     OW29503   4.057   4.736   7.938  0.0441 -0.2130 -0.3263
 5957SOL    HW129504   4.126   4.681   7.899 -2.0745 -3.2269  0.1421
 5957SOL    HW229505   4.061   0.081   7.891 -1.6322 -0.3664 -0.7523
 5958SOL     OW29506   1.605   2.938   2.611  0.0991 -0.4191 -0.3040
 5958SOL    HW129507   1.676   2.905   2.666 -0.7122  0.1122  1.0637
 5958SOL    HW229508   1.644   2.977   2.532 -3.6454  0.1145 -1.8885
 5959SOL     OW29509   2.941   1.593   5.560 -0.1584  0.1038 -0.0286
 5959SOL    HW129510   2.908   1.599   5.649  1.8709 -2.7892  0.9276
 5959SOL    HW229511   2.885   1.519   5.535  1.6460 -0.9691 -0.9801
 5960SOL     OW29512   3.763   3.926   4.239  0.1251  0.3972 -0.2344
 5960SOL    HW129513   3.782   3.882   4.322 -1.9663  2.2761  1.2110
 5960SOL    HW229514   3.754   4.018   4.264  1.2183 -0.4444  3.3225
 5961SOL     OW29515   3.871   4.504  16.450  0.8419 -0.4709 -0.1879
 5961SOL    HW129516   3.903   4.572  16.509 -0.0327  0.0899 -0.3617
 5961SOL    HW229517   3.809   4.553  16.396 -1.5818 -1.0675  2.0530
 5962SOL     OW29518   3.233   3.917   5.909  0.3777 -0.1271 -0.0167
 5962SOL    HW129519   3.166   3.913   5.842  2.5513  0.5079 -2.2254
 5962SOL    HW229520   3.187   3.881   5.985 -1.6159 -1.3621 -1.8474
 5963SOL     OW29521   2.862   0.868   6.033  0.1304 -0.2792 -0.1049
 5963SOL    HW129522   2.789   0.848   5.975 -0.4919  0.9055  0.2693
 5963SOL    HW229523   2.901   0.944   5.990 -0.2190  0.6730  1.2636
 5964SOL     OW29524   0.926   4.278   6.785 -0.8243  0.1769  0.0503
 5964SOL    HW129525   0.883   4.256   6.868  0.2075 -1.1434  0.2374
 5964SOL    HW229526   0.979   4.356   6.802  1.0488 -1.1326  0.1262
 5965SOL     OW29527   1.624   2.812   9.231  0.4587 -0.3879  0.1851
 5965SOL    HW129528   1.644   2.791   9.139  0.1638  0.7506 -0.1293
 5965SOL    HW229529   1.530   2.795   9.232  0.1318  1.4134 -1.0777
 5966SOL     OW29530   0.171   3.159   1.634 -0.6980 -0.0319 -0.5905
 5966SOL    HW129531   0.137   3.072   1.613  1.0256 -0.6380 -0.8697
 5966SOL    HW229532   0.244   3.135   1.692  0.6686  0.2992 -2.1814
 5967SOL     OW29533   2.922   3.025   1.002 -0.6541  1.0564  0.2788
 5967SOL    HW129534   2.926   2.947   0.947 -1.2951  1.6379 -0.5895
 5967SOL    HW229535   2.840   3.008   1.049  0.1400  1.0413  1.6815
 5968SOL     OW29536   4.394   1.569   1.702 -0.7458 -0.3769 -0.4648
 5968SOL    HW129537   4.482   1.603   1.718 -1.3901  1.5591 -0.9359
 5968SOL    HW229538   4.413   1.476   1.710 -0.4926 -0.5564 -3.0072
 5969SOL     OW29539   1.550   0.210   0.394 -0.4594 -0.2075  0.5049
 5969SOL    HW129540   1.607   0.230   0.320  1.7572  0.8344  2.4817
 5969SOL    HW229541   1.466   0.210   0.348 -0.1537 -3.6439 -0.0408
 5970SOL     OW29542   1.532   1.715   5.578  0.2669  0.3269  0.4160
 5970SOL    HW129543   1.593   1.716   5.652 -1.3228  0.1490  1.7129
 5970SOL    HW229544   1.475   1.645   5.608  0.6327  0.1175  0.6122
 5971SOL     OW29545   3.580   4.546  17.257 -0.3823 -0.4941 -0.4082
 5971SOL    HW129546   3.494   4.507  17.272  0.8444 -2.2496  2.0440
 5971SOL    HW229547   3.554   4.590  17.176  0.4590  0.3991 -0.1974
 5972SOL     OW29548   3.015   2.471   5.176  0.4481 -0.2769  0.0053
 5972SOL    HW129549   2.957   2.459   5.101  0.0539  0.1076  0.2466
 5972SOL    HW229550   2.993   2.400   5.237 -0.2784  1.2916  1.5732
 5973SOL     OW29551   2.742   2.297   8.278  0.0295  0.0775  0.3362
 5973SOL    HW129552   2.762   2.317   8.186  0.2973  1.5240  0.7113
 5973SOL    HW229553   2.765   2.205   8.268  1.0590  0.1588  2.0682
 5974SOL     OW29554   0.834   2.316   6.003  0.7662  0.4120 -0.2009
 5974SOL    HW129555   0.740   2.316   6.021  0.8553 -0.1164  0.2374
 5974SOL    HW229556   0.839   2.228   5.967 -2.0843  2.1837 -4.9769
 5975SOL     OW29557   3.987   4.004  15.143 -0.4570  0.3393  0.1402
 5975SOL    HW129558   3.993   3.934  15.077 -0.2724 -1.4376  2.0248
 5975SOL    HW229559   4.080   4.021  15.157 -0.0693 -1.1869 -0.5590
 5976SOL     OW29560   3.964   0.618   5.879 -0.2374  0.6948  0.0515
 5976SOL    HW129561   3.871   0.636   5.894 -0.1087 -0.2974  2.0697
 5976SOL    HW229562   3.997   0.591   5.965 -0.5137 -1.5297 -0.5472
 5977SOL     OW29563   1.826   3.838   0.459  0.0361 -0.2690  0.0194
 5977SOL    HW129564   1.903   3.805   0.413  0.3459 -0.6716  0.8295
 5977SOL    HW229565   1.758   3.773   0.447 -1.1200  1.0362 -0.4603
 5978SOL     OW29566   0.619   4.404   6.387  1.0320 -0.3072 -0.0390
 5978SOL    HW129567   0.677   4.419   6.462 -1.2746 -1.8735  2.0606
 5978SOL    HW229568   0.577   4.321   6.409  2.5088 -0.7888  0.9498
 5979SOL     OW29569   4.077   0.035   5.508  0.1055  0.4334  0.3631
 5979SOL    HW129570   4.083   0.101   5.577 -0.7013 -1.1734  1.9882
 5979SOL    HW229571   4.155   0.059   5.459 -0.8589  1.1637 -0.8136
 5980SOL     OW29572   4.062   4.339   7.366  0.0398 -0.6029  0.4936
 5980SOL    HW129573   4.068   4.435   7.365  1.1900 -0.6614  1.1666
 5980SOL    HW229574   3.978   4.324   7.409 -0.6560  2.1649  0.1122
 5981SOL     OW29575   2.329   3.135   3.037 -0.5220  0.0918 -0.0359
 5981SOL    HW129576   2.292   3.131   2.949  0.6931 -1.3987 -0.4675
 5981SOL    HW229577   2.255   3.096   3.084  1.1937 -1.8968  1.0032
 5982SOL     OW29578   2.055   2.609   7.617 -0.1218  0.4721  0.0972
 5982SOL    HW129579   1.986   2.636   7.676 -1.7321 -1.4737 -0.8910
 5982SOL    HW229580   2.119   2.589   7.686 -0.4983  0.5803  0.4749
 5983SOL     OW29581   2.818   0.496  11.604  0.2767  0.3220 -0.6005
 5983SOL    HW129582   2.843   0.448  11.525 -2.2347 -1.1893 -0.4440
 5983SOL    HW229583   2.827   0.424  11.666 -2.6972 -0.1670 -0.7619
 5984SOL     OW29584   2.527   4.074  12.446 -0.8049  0.8041  0.2331
 5984SOL    HW129585   2.510   4.106  12.534  0.7546 -1.1411  1.2644
 5984SOL    HW229586   2.534   4.161  12.406 -2.1231  0.3127 -1.0543
 5985SOL     OW29587   1.314   1.519  11.812  0.2973  0.3390  0.4007
 5985SOL    HW129588   1.397   1.480  11.784 -0.2729 -0.2114 -0.4984
 5985SOL    HW229589   1.349   1.572  11.884 -3.1651 -0.7319  2.8685
 5986SOL     OW29590   3.126   2.977   4.849  0.2555 -0.0613 -0.7225
 5986SOL    HW129591   3.178   2.999   4.927  0.2323  0.6328 -0.8981
 5986SOL    HW229592   3.076   2.902   4.880 -0.5093 -0.0453 -1.9084
 5987SOL     OW29593   2.684   1.003   7.572  0.1679  0.2421 -0.3822
 5987SOL    HW129594   2.636   0.935   7.619  0.8508  0.9725  1.3825
 5987SOL    HW229595   2.641   0.994   7.488  0.5135 -0.9341 -0.4350
 5988SOL     OW29596   3.120   1.294   8.601  0.4050  0.4676 -0.4503
 5988SOL    HW129597   3.045   1.234   8.601  1.5660 -0.9607 -2.9384
 5988SOL    HW229598   3.095   1.353   8.530 -0.6387  0.2408 -0.2686
 5989SOL     OW29599   0.484   0.765   6.529  0.2340 -0.3338 -0.1793
 5989SOL    HW129600   0.414   0.724   6.580  1.7101 -0.2513  1.9199
 5989SOL    HW229601   0.442   0.812   6.457  1.3762 -0.7067 -1.0915
 5990SOL     OW29602   2.485   0.125  17.524 -0.1027  0.1663 -0.3966
 5990SOL    HW129603   2.556   0.140  17.587 -0.7458  2.1263 -0.1253
 5990SOL    HW229604   2.464   0.218  17.511 -0.5952  0.3213  1.4962
 5991SOL     OW29605   2.010   2.249   9.052  0.8733  0.0434  0.2117
 5991SOL    HW129606   1.973   2.244   9.141 -0.5591 -0.7112 -0.4243
 5991SOL    HW229607   2.095   2.292   9.058  2.8238 -3.0867 -5.4335
 5992SOL     OW29608   3.837   0.516   8.657  0.3104 -0.2570  0.4894
 5992SOL    HW129609   3.886   0.575   8.713 -0.3564 -1.6605  2.5480
 5992SOL    HW229610   3.902   0.487   8.593 -0.2733 -0.5619  0.0255
 5993SOL     OW29611   0.264   0.639   5.130  0.6117  0.1079 -0.2598
 5993SOL    HW129612   0.325   0.698   5.174  0.3962 -1.4549  2.1452
 5993SOL    HW229613   0.214   0.695   5.070 -0.2221 -0.2454  0.0976
 5994SOL     OW29614   2.379   2.611   5.224 -0.2690 -0.2087  0.2730
 5994SOL    HW129615   2.434   2.533   5.212  1.5439  1.1883 -0.5254
 5994SOL    HW229616   2.449   2.674   5.207 -1.1809  0.7675  0.1690
 5995SOL     OW29617   4.287   0.615   4.501  0.4733  0.4087 -0.2486
 5995SOL    HW129618   4.283   0.696   4.553 -1.4590  0.5053 -0.5518
 5995SOL    HW229619   4.339   0.655   4.431  0.1416  0.4497 -0.4701
 5996SOL     OW29620   0.731   1.061   3.386  0.0038  0.1377  0.1260
 5996SOL    HW129621   0.678   1.139   3.366  2.2313  1.6985  0.2580
 5996SOL    HW229622   0.701   1.006   3.315  2.1562 -0.6487 -0.1755
 5997SOL     OW29623   4.106   3.927   8.693 -0.0238  0.7186  0.0645
 5997SOL    HW129624   4.032   3.982   8.666 -0.7529  0.5411  1.6962
 5997SOL    HW229625   4.081   3.844   8.653 -1.1899  1.1585 -0.1277
 5998SOL     OW29626   4.593   3.082   5.694  0.5542  0.3286  0.2075
 5998SOL    HW129627   4.528   3.136   5.649 -0.2111  0.0208  0.9489
 5998SOL    HW229628   4.677   3.126   5.681  1.5677 -1.5681  0.2758
 5999SOL     OW29629   3.405   1.834   3.940 -0.0305 -0.3414 -0.4265
 5999SOL    HW129630   3.365   1.896   3.879  0.7021  1.0267  0.4867
 5999SOL    HW229631   3.337   1.798   3.996 -0.2349  0.8583  0.0769
 6000SOL     OW29632   3.838   0.932  14.409  0.3007 -0.1209 -0.2030
 6000SOL    HW129633   3.868   0.998  14.347  0.9646  0.7841  1.0655
 6000SOL    HW229634   3.873   0.857  14.361  1.0856  0.8479 -1.1674
 6001SOL     OW29635   2.695   3.392   3.809  0.2341 -0.4765 -0.1294
 6001SOL    HW129636   2.721   3.462   3.868  0.2998 -0.6584  0.0586
 6001SOL    HW229637   2.725   3.420   3.722  1.2297 -1.3898 -0.0777
 6002SOL     OW29638   1.344   3.411   0.755  0.2392 -0.0855  0.3136
 6002SOL    HW129639   1.428   3.367   0.765 -0.3909 -1.7456 -1.7576
 6002SOL    HW229640   1.303   3.356   0.689 -1.2882  1.8010 -0.3119
 6003SOL     OW29641   3.228   4.289   6.538 -0.0931 -0.1877  0.0267
 6003SOL    HW129642   3.169   4.341   6.593  1.6579 -0.3306  2.0442
 6003SOL    HW229643   3.188   4.205   6.562 -2.2583  1.3603  1.8543
 6004SOL     OW29644   2.585   0.424   1.149 -0.0556 -0.1786 -0.2395
 6004SOL    HW129645   2.563   0.483   1.077 -1.9098  0.0752  0.5473
 6004SOL    HW229646   2.563   0.340   1.111  0.4645 -0.0353 -0.8624
 6005SOL     OW29647   3.738   1.132   6.629 -0.3901 -0.7943  0.3241
 6005SOL    HW129648   3.758   1.118   6.537 -2.0451  0.4957 -0.2374
 6005SOL    HW229649   3.803   1.071   6.663  1.0854  1.2718  1.1953
 6006SOL     OW29650   0.347   0.853   7.987 -0.5045 -0.1521  0.0455
 6006SOL    HW129651   0.377   0.821   7.902 -1.1584 -0.4141 -0.0875
 6006SOL    HW229652   0.427   0.883   8.029 -1.0869  0.7590  0.5036
 6007SOL     OW29653   0.256   2.051   5.138 -0.3195 -0.3821 -0.4268
 6007SOL    HW129654   0.288   1.963   5.119 -1.3734 -0.9173  0.2980
 6007SOL    HW229655   0.338   2.101   5.134 -1.2008  0.9442 -1.8669
 6008SOL     OW29656   3.170   3.224  17.135 -0.3768  0.2536 -0.1598
 6008SOL    HW129657   3.163   3.133  17.164 -0.6381 -0.4248 -2.2851
 6008SOL    HW229658   3.217   3.251  17.214 -0.8825  1.0566 -0.1366
 6009SOL     OW29659   0.443   3.595   9.481  0.1221  0.6688 -0.2303
 6009SOL    HW129660   0.454   3.502   9.503 -0.2977  0.7406  0.2830
 6009SOL    HW229661   0.349   3.612   9.490 -0.6764 -3.6507 -0.0465
 6010SOL     OW29662   4.507   3.810   8.887 -0.1328  0.1274 -0.1366
 6010SOL    HW129663   4.420   3.850   8.895 -1.4100 -2.6364 -0.1350
 6010SOL    HW229664   4.483   3.722   8.856 -2.3425  0.3244  1.0055
 6011SOL     OW29665   0.883   3.234  17.545  0.2450  0.7050  0.3457
 6011SOL    HW129666   0.801   3.191  17.521  0.5692  0.6542 -0.6487
 6011SOL    HW229667   0.845   3.320  17.564 -2.1177  0.2927 -2.6401
 6012SOL     OW29668   4.153   4.663   8.297 -0.1370 -0.3789  0.7248
 6012SOL    HW129669   4.222   4.728   8.280  0.7270 -0.4351  4.1024
 6012SOL    HW229670   4.190   4.630   8.378  3.2670 -2.1370 -1.5434
 6013SOL     OW29671   1.081   0.004   3.912 -0.5758  0.0409 -0.1962
 6013SOL    HW129672   1.055   0.071   3.848  0.2300  1.3450  0.8583
 6013SOL    HW229673   1.040   0.046   3.988 -2.6598 -0.3375 -1.0985
 6014SOL     OW29674   1.814   4.011   7.712  0.6115 -0.0140  0.1558
 6014SOL    HW129675   1.748   4.011   7.781  1.9043  1.3247  1.4068
 6014SOL    HW229676   1.850   4.099   7.724 -0.0447  0.0954  1.3398
 6015SOL     OW29677   2.138   0.407   4.171  0.7569  0.0921  0.1212
 6015SOL    HW129678   2.155   0.324   4.215  3.7141  0.5303 -0.2164
 6015SOL    HW229679   2.051   0.383   4.140  1.0057  1.0088 -1.2656
 6016SOL     OW29680   0.475   2.771   1.914  0.3105  0.1930 -0.4785
 6016SOL    HW129681   0.496   2.693   1.966 -0.5673 -0.2582 -0.7936
 6016SOL    HW229682   0.477   2.740   1.823  1.6012 -0.5123 -0.2173
 6017SOL     OW29683   4.550   0.354  16.445 -0.3148 -0.1227  0.1052
 6017SOL    HW129684   4.554   0.442  16.407 -1.2033 -0.6365 -1.1664
 6017SOL    HW229685   4.466   0.322  16.414  0.3924 -1.2810 -0.6230
 6018SOL     OW29686   2.943   1.644   3.507 -0.7316  0.0397 -0.2547
 6018SOL    HW129687   3.016   1.672   3.562 -1.5329  3.6277 -1.0234
 6018SOL    HW229688   2.967   1.552   3.493 -1.9895 -0.3589  0.1740
 6019SOL     OW29689   0.664   3.451  10.488  0.2811  0.2835 -0.4127
 6019SOL    HW129690   0.754   3.417  10.489  0.3445  0.4912  1.1596
 6019SOL    HW229691   0.652   3.499  10.406  1.3321  0.3397 -0.5329
 6020SOL     OW29692   2.487   3.791   2.334  0.2493  0.5157  0.3228
 6020SOL    HW129693   2.463   3.765   2.246  0.7178  0.8614  0.0915
 6020SOL    HW229694   2.442   3.729   2.391 -1.5091  2.4024  0.9591
 6021SOL     OW29695   2.887   3.055   3.823  0.7460  0.1113 -0.1316
 6021SOL    HW129696   2.957   2.995   3.798 -0.7006 -0.8030 -2.0104
 6021SOL    HW229697   2.935   3.137   3.810  0.5028  0.1524 -0.7658
 6022SOL     OW29698   3.047   1.270   2.083 -0.2873 -0.1949  0.4946
 6022SOL    HW129699   3.050   1.280   1.988  2.6820 -0.1180  0.5892
 6022SOL    HW229700   2.954   1.264   2.107  0.1265  2.0000  2.6459
 6023SOL     OW29701   0.073   0.681   7.927  0.2926 -0.0511 -0.0104
 6023SOL    HW129702   0.154   0.632   7.912  0.2378  0.1543 -0.9861
 6023SOL    HW229703   4.737   0.623   7.908  1.1740 -0.7047 -1.4632
 6024SOL     OW29704   1.094   2.839   5.905 -0.1476  0.6110  0.2201
 6024SOL    HW129705   1.044   2.784   5.965 -0.9956  0.7977 -0.3117
 6024SOL    HW229706   1.179   2.798   5.890  0.0501  0.4788  1.6531
 6025SOL     OW29707   2.958   2.845   1.320 -1.0995 -0.4622  0.6412
 6025SOL    HW129708   2.944   2.871   1.411  2.0805 -0.7882  1.2363
 6025SOL    HW229709   3.035   2.898   1.299 -0.0811 -1.9405  0.6225
 6026SOL     OW29710   2.737   0.654  13.716  0.3826 -0.2840  0.9452
 6026SOL    HW129711   2.645   0.653  13.691  0.5046  2.8063  0.3477
 6026SOL    HW229712   2.755   0.562  13.696  0.0915 -0.1059 -0.1138
 6027SOL     OW29713   4.277   1.919   6.549 -0.0430  0.1519  0.3238
 6027SOL    HW129714   4.338   1.983   6.585 -1.5492  0.7373  1.8456
 6027SOL    HW229715   4.223   1.980   6.498 -0.5434 -2.3127 -2.1202
 6028SOL     OW29716   3.402   1.435   5.622  0.1388  0.0129 -0.2005
 6028SOL    HW129717   3.482   1.484   5.642  1.0562 -3.0347  3.5823
 6028SOL    HW229718   3.395   1.462   5.530  2.4244  1.3563  0.0276
 6029SOL     OW29719   0.046   2.316  13.440  0.3684 -0.1218 -0.1933
 6029SOL    HW129720   0.139   2.333  13.427  0.1719 -0.1661 -1.5951
 6029SOL    HW229721   0.023   2.274  13.357  1.1380 -0.7145 -0.1019
 6030SOL     OW29722   2.253   3.946   0.907 -0.1318  0.4751  0.4328
 6030SOL    HW129723   2.284   4.017   0.963  0.8691  1.6846 -1.6359
 6030SOL    HW229724   2.203   3.888   0.963 -0.9942 -0.3678 -1.1940
 6031SOL     OW29725   1.521   0.718   7.372 -0.5205 -0.4632  0.5364
 6031SOL    HW129726   1.456   0.679   7.430 -0.4681  1.3215  1.8224
 6031SOL    HW229727   1.487   0.795   7.325 -2.4519 -1.3207  0.5283
 6032SOL     OW29728   3.565   0.169  11.928  0.3792 -0.3164  0.3773
 6032SOL    HW129729   3.519   0.246  11.895  0.4936 -0.1727  0.5529
 6032SOL    HW229730   3.644   0.168  11.874  1.1766  0.4049  1.5195
 6033SOL     OW29731   0.772   1.664   9.040 -0.1117 -0.3510 -0.0922
 6033SOL    HW129732   0.774   1.664   8.944 -0.3835 -0.8020 -0.1013
 6033SOL    HW229733   0.748   1.575   9.067  0.7120 -0.7082 -0.5405
 6034SOL     OW29734   1.044   3.745   6.546  0.1518  0.1484 -0.1664
 6034SOL    HW129735   1.128   3.790   6.553 -0.6385  1.4457  1.1365
 6034SOL    HW229736   1.047   3.689   6.623  1.4749  0.5926  0.1041
 6035SOL     OW29737   3.668   1.263   2.434 -0.3372 -0.1212  0.3243
 6035SOL    HW129738   3.621   1.213   2.501 -0.0672  0.8623  1.2480
 6035SOL    HW229739   3.648   1.221   2.350  2.7139  1.6483 -1.3004
 6036SOL     OW29740   0.465   2.481   5.560  0.4610  0.0667 -0.0515
 6036SOL    HW129741   0.396   2.543   5.536  0.7053  0.9988  1.6545
 6036SOL    HW229742   0.459   2.428   5.481 -0.5875 -0.7481  0.5573
 6037SOL     OW29743   3.220   0.455   9.976  0.0201 -0.6282  0.0697
 6037SOL    HW129744   3.313   0.434   9.989 -0.2977 -1.1878  1.4050
 6037SOL    HW229745   3.191   0.364   9.980 -0.7377 -0.4694 -1.9936
 6038SOL     OW29746   2.214   2.969   5.000  0.2522  0.4223  0.5970
 6038SOL    HW129747   2.212   2.889   5.051 -1.1730  1.6109  2.3960
 6038SOL    HW229748   2.127   3.006   5.014  1.2141  2.4792  1.1368
 6039SOL     OW29749   2.024   2.165   4.081  0.0540  0.2897  0.0037
 6039SOL    HW129750   2.099   2.224   4.091  0.7781 -0.7624  0.7845
 6039SOL    HW229751   2.034   2.136   3.990 -2.2739 -1.8115  0.4268
 6040SOL     OW29752   4.606   1.905  11.459 -0.5371  0.0766 -0.3000
 6040SOL    HW129753   4.531   1.847  11.469 -0.7634  0.3294 -0.5308
 6040SOL    HW229754   4.670   1.854  11.509  0.9180  2.0047 -0.1856
 6041SOL     OW29755   3.715   3.988  15.489 -0.6015  0.1906 -0.1111
 6041SOL    HW129756   3.794   3.979  15.544 -0.9253 -4.3940 -0.4140
 6041SOL    HW229757   3.643   3.977  15.551  0.3092 -1.3826  0.6761
 6042SOL     OW29758   2.015   1.539   5.271  0.1053 -0.1191  0.6454
 6042SOL    HW129759   1.971   1.615   5.234  0.2282  0.9721  2.7623
 6042SOL    HW229760   1.938   1.495   5.306 -0.7587  0.3037 -0.7113
 6043SOL     OW29761   3.145   0.871   6.166  0.0250  0.2569  0.1598
 6043SOL    HW129762   3.176   0.945   6.113  0.8298 -1.3192 -1.5509
 6043SOL    HW229763   3.068   0.859   6.110  1.8465 -0.3979 -2.1675
 6044SOL     OW29764   0.333   1.033   8.712 -0.5340 -0.2778 -0.1261
 6044SOL    HW129765   0.344   1.004   8.802 -2.2022  0.6053  0.3632
 6044SOL    HW229766   0.255   1.085   8.729  1.1117  2.4513 -0.8379
 6045SOL     OW29767   0.385   0.000   2.505 -0.6446 -0.6516  0.4526
 6045SOL    HW129768   0.475   4.705   2.502  0.4071  2.1649  0.9764
 6045SOL    HW229769   0.332   4.658   2.501 -2.6537  0.6952  0.1675
 6046SOL     OW29770   1.096   0.993   2.297 -0.0702  0.3023 -0.0846
 6046SOL    HW129771   1.050   0.944   2.229  1.1101 -0.2292 -0.4840
 6046SOL    HW229772   1.081   0.946   2.380  1.2562 -0.7334 -0.4397
 6047SOL     OW29773   0.562   0.584   8.067 -0.1610  0.2408 -0.4655
 6047SOL    HW129774   0.649   0.572   8.105 -0.5787 -0.9272  0.1316
 6047SOL    HW229775   0.517   0.567   8.150  2.1304  1.5985  1.0365
 6048SOL     OW29776   1.292   3.636  15.005  0.4517 -0.4015  0.4995
 6048SOL    HW129777   1.309   3.721  14.964 -1.3861  0.1831  0.9729
 6048SOL    HW229778   1.383   3.609  15.017  1.4504  2.3068 -0.9816
 6049SOL     OW29779   0.568   2.065   2.077 -0.0018 -0.2903  0.1680
 6049SOL    HW129780   0.489   2.095   2.032 -0.8468 -4.1726 -0.9237
 6049SOL    HW229781   0.635   2.126   2.045  1.1026  0.0814  3.2029
 6050SOL     OW29782   1.712   1.160   6.394  0.3346  1.1419  0.1217
 6050SOL    HW129783   1.782   1.225   6.394  2.2612 -0.9718 -0.4678
 6050SOL    HW229784   1.700   1.144   6.488  0.2079  1.6189  0.1893
 6051SOL     OW29785   4.506   1.502   1.987 -0.3273  0.3695 -0.2685
 6051SOL    HW129786   4.501   1.407   1.990  2.0304  0.2199 -0.9844
 6051SOL    HW229787   4.595   1.511   2.021  0.4754 -0.6332 -2.1319
 6052SOL     OW29788   4.365   1.870  16.700 -0.5673  0.3031  0.4199
 6052SOL    HW129789   4.402   1.951  16.733 -0.1169  0.2776 -0.0079
 6052SOL    HW229790   4.313   1.895  16.623 -0.6180  1.0179  0.6967
 6053SOL     OW29791   0.779   0.061   4.400 -0.2599 -0.8492 -0.3345
 6053SOL    HW129792   0.783   0.138   4.344  0.2224 -0.2637  0.4990
 6053SOL    HW229793   0.692   0.025   4.384 -0.7953  1.2257 -1.9989
 6054SOL     OW29794   1.628   3.762  14.563  0.1185 -0.0202 -1.0327
 6054SOL    HW129795   1.534   3.773  14.553  0.1521  0.6017 -0.6824
 6054SOL    HW229796   1.645   3.737  14.653 -0.6086 -0.3363 -0.9866
 6055SOL     OW29797   3.719   0.958  10.274 -0.0790 -0.2396  0.0615
 6055SOL    HW129798   3.630   0.984  10.296 -0.5789 -3.5559  1.9954
 6055SOL    HW229799   3.735   0.887  10.336 -2.9090 -1.1061 -0.1975
 6056SOL     OW29800   1.309   1.925   3.166 -0.0884  0.1960 -0.1709
 6056SOL    HW129801   1.380   1.871   3.130 -0.3631 -1.5232  1.8568
 6056SOL    HW229802   1.363   1.971   3.230  0.6309  0.3335 -0.8775
 6057SOL     OW29803   2.593   1.502   2.627 -0.1232 -0.1981  0.1330
 6057SOL    HW129804   2.531   1.542   2.687 -0.2945  1.3892 -1.0993
 6057SOL    HW229805   2.556   1.530   2.543 -0.3213 -1.9151 -0.3584
 6058SOL     OW29806   2.811   3.530  14.180 -0.8033 -0.3584 -0.1011
 6058SOL    HW129807   2.727   3.574  14.192 -0.5130  0.0823  0.3178
 6058SOL    HW229808   2.812   3.466  14.252  1.4842 -0.6978 -0.4379
 6059SOL     OW29809   3.088   2.290   6.311  0.0846  0.2644  0.2793
 6059SOL    HW129810   3.035   2.358   6.268 -1.6381 -1.6679 -0.6570
 6059SOL    HW229811   3.043   2.275   6.394  1.6509 -0.8910  0.9117
 6060SOL     OW29812   0.871   2.766   3.328 -0.4969  0.0411 -0.6802
 6060SOL    HW129813   0.895   2.836   3.390  1.5185 -0.3825 -1.0125
 6060SOL    HW229814   0.951   2.725   3.298 -0.9104  0.2673 -2.0829
 6061SOL     OW29815   3.263   2.827   5.916 -0.3147 -0.1243  0.1785
 6061SOL    HW129816   3.271   2.740   5.876 -0.6424 -0.6612  1.2708
 6061SOL    HW229817   3.167   2.827   5.915 -0.3417 -0.1246  3.3759
 6062SOL     OW29818   4.265   3.612   8.171 -0.0247 -0.1251  0.5129
 6062SOL    HW129819   4.339   3.627   8.112  1.8102 -0.6773  2.6583
 6062SOL    HW229820   4.295   3.668   8.242  2.1269  0.1989 -0.6346
 6063SOL     OW29821   3.223   2.297   3.434  0.2364  0.1942 -0.1141
 6063SOL    HW129822   3.163   2.286   3.507  1.0901 -1.3165  0.3459
 6063SOL    HW229823   3.266   2.378   3.461  0.9584  0.1814 -1.2016
 6064SOL     OW29824   1.634   4.303   7.623 -0.1492  0.3452  0.6310
 6064SOL    HW129825   1.601   4.215   7.642 -1.2984  0.4754 -0.7952
 6064SOL    HW229826   1.625   4.310   7.528  1.6785 -0.9945  0.3661
 6065SOL     OW29827   4.347   0.299   2.085  0.0562 -0.2753 -0.2076
 6065SOL    HW129828   4.335   0.283   1.991 -0.6651 -3.0842  0.3675
 6065SOL    HW229829   4.261   0.279   2.121  0.4926  0.2566  1.1375
 6066SOL     OW29830   2.484   3.473   4.504 -0.3246  0.2712 -0.5538
 6066SOL    HW129831   2.460   3.445   4.416  1.1773 -0.9062 -0.5950
 6066SOL    HW229832   2.484   3.385   4.543 -0.9824 -0.5521 -2.4488
 6067SOL     OW29833   3.846   3.219  14.966  0.3505 -0.2436 -1.1864
 6067SOL    HW129834   3.866   3.126  14.972  0.7761 -0.2445 -2.6528
 6067SOL    HW229835   3.834   3.227  14.872 -0.8853  3.6067 -0.7039
 6068SOL     OW29836   3.489   2.539   6.960 -0.4998 -0.0564  0.0108
 6068SOL    HW129837   3.400   2.573   6.954 -0.5995 -0.3793 -0.3310
 6068SOL    HW229838   3.513   2.598   7.032  0.3983  0.2185 -0.5086
 6069SOL     OW29839   0.747   4.035  17.011 -0.0762 -0.5867 -0.5954
 6069SOL    HW129840   0.679   3.986  16.965 -0.9548  1.1436 -1.1367
 6069SOL    HW229841   0.823   4.045  16.953  0.2927 -0.8480 -0.1610
 6070SOL     OW29842   2.061   0.117   0.188  0.0005  0.3061  0.1619
 6070SOL    HW129843   2.095   0.117   0.099 -1.3014  0.9444 -0.3318
 6070SOL    HW229844   2.141   0.127   0.240  0.4263  1.5575 -0.7540
 6071SOL     OW29845   4.378   4.428  17.608  0.5151  0.0741 -0.5376
 6071SOL    HW129846   4.309   4.368  17.581 -3.3035  3.2294  2.2623
 6071SOL    HW229847   4.326   4.503  17.636  1.2737  0.9208 -1.3870
 6072SOL     OW29848   3.730   1.974   4.507  0.0017  0.5019  0.3107
 6072SOL    HW129849   3.648   2.013   4.478 -0.6910  0.5043  2.2688
 6072SOL    HW229850   3.742   2.018   4.591 -2.1934  0.6756  0.5363
 6073SOL     OW29851   1.611   4.681   8.574  0.5663 -0.4864  0.3410
 6073SOL    HW129852   1.589   4.699   8.665  0.3492  0.7855  0.0392
 6073SOL    HW229853   1.625   4.587   8.569 -2.2195 -0.8090 -1.4746
 6074SOL     OW29854   1.073   4.585   5.728 -0.1596  0.3035 -0.1099
 6074SOL    HW129855   1.140   4.568   5.795 -0.5423 -2.8331 -0.5237
 6074SOL    HW229856   1.104   4.523   5.662 -2.6560 -2.3680  1.2323
 6075SOL     OW29857   1.560   0.348   0.621  0.0138 -0.2216  0.1336
 6075SOL    HW129858   1.643   0.388   0.594 -1.0650  2.6033  1.0381
 6075SOL    HW229859   1.541   0.291   0.546 -0.8761  2.4213 -1.6527
 6076SOL     OW29860   3.582   3.176   2.893  0.0184 -0.0136  0.2162
 6076SOL    HW129861   3.497   3.168   2.849  0.7000 -1.1543 -0.8989
 6076SOL    HW229862   3.634   3.226   2.830 -1.0654  0.1744 -0.5443
 6077SOL     OW29863   4.061   4.016  17.372  0.4215 -0.3444 -1.1352
 6077SOL    HW129864   4.001   4.061  17.312 -1.3627 -0.6544  0.4236
 6077SOL    HW229865   4.147   4.056  17.355  1.7415 -3.0427 -0.7353
 6078SOL     OW29866   0.321   0.052   8.227 -0.5019 -0.0551  0.4713
 6078SOL    HW129867   0.352   0.072   8.316 -1.0274 -2.3393  1.1596
 6078SOL    HW229868   0.405   0.054   8.183 -0.0696 -0.9788  1.2615
 6079SOL     OW29869   3.587   4.165   7.255 -0.4878 -0.0062 -0.0797
 6079SOL    HW129870   3.676   4.130   7.251 -1.3095 -1.8329 -2.1746
 6079SOL    HW229871   3.542   4.122   7.183  0.4525  1.9641 -1.8269
 6080SOL     OW29872   4.517   0.746   2.346 -0.2043 -0.2375 -0.1062
 6080SOL    HW129873   4.457   0.678   2.316 -1.6466  1.6409 -1.4521
 6080SOL    HW229874   4.531   0.719   2.437  1.5897  0.2219 -0.2538
 6081SOL     OW29875   3.311   0.537   7.711  0.6297  0.3241 -0.3663
 6081SOL    HW129876   3.335   0.461   7.764  0.6636 -0.1069 -0.9997
 6081SOL    HW229877   3.277   0.491   7.634 -0.9082  0.4814  0.2221
 6082SOL     OW29878   3.525   4.508   8.536 -0.0091  0.2583  0.2008
 6082SOL    HW129879   3.586   4.478   8.604 -0.9658 -0.0891  0.9024
 6082SOL    HW229880   3.476   4.572   8.589 -2.9096 -1.8677  0.0975
 6083SOL     OW29881   1.454   2.794   2.975 -0.1195  0.2706  0.3938
 6083SOL    HW129882   1.545   2.771   2.990 -0.1089 -0.5162 -0.8187
 6083SOL    HW229883   1.416   2.736   3.041 -0.2391  0.4499  0.4814
 6084SOL     OW29884   3.477   3.216   2.135 -0.8257 -0.2709 -0.1101
 6084SOL    HW129885   3.570   3.202   2.154 -1.6137 -2.2223  2.3214
 6084SOL    HW229886   3.441   3.127   2.135  1.6751 -1.2958  1.0347
 6085SOL     OW29887   2.454   4.255   4.843  0.5366  0.1241  0.1085
 6085SOL    HW129888   2.380   4.316   4.839 -0.1705 -0.5959  2.3365
 6085SOL    HW229889   2.406   4.173   4.834 -0.3254  0.5430  0.9118
 6086SOL     OW29890   2.779   3.954   5.957 -0.0243 -0.4039 -0.3768
 6086SOL    HW129891   2.801   3.927   5.868  1.0218 -2.4278  0.4749
 6086SOL    HW229892   2.723   3.886   5.996  0.1624  1.0213  2.3979
 6087SOL     OW29893   3.055   1.351   0.095  0.2056  0.3003 -0.4123
 6087SOL    HW129894   3.149   1.334   0.098  0.4761  1.7368 -0.8225
 6087SOL    HW229895   3.039   1.318   0.183  2.0273  0.6894  0.0742
 6088SOL     OW29896   2.207   3.747   9.861  0.2305  0.0015 -0.0889
 6088SOL    HW129897   2.131   3.689   9.861 -0.8849  1.4779 -0.9223
 6088SOL    HW229898   2.255   3.706   9.933 -0.9575  2.7365  2.2545
 6089SOL     OW29899   0.349   0.238  12.358  0.3066 -0.5709 -0.1590
 6089SOL    HW129900   0.387   0.326  12.363  0.1914 -0.6020  1.1338
 6089SOL    HW229901   0.347   0.208  12.449  2.3825  1.6219  0.6170
 6090SOL     OW29902   2.887   4.278   0.355 -0.6896  0.0953  0.1006
 6090SOL    HW129903   2.867   4.222   0.430 -1.7982  0.8941  0.4032
 6090SOL    HW229904   2.935   4.213   0.304 -2.1707 -0.7125 -0.2352
 6091SOL     OW29905   0.594   3.406   0.441  0.0637 -0.6056  0.0112
 6091SOL    HW129906   0.640   3.476   0.489  2.4768 -3.0459  1.2885
 6091SOL    HW229907   0.669   3.347   0.435 -0.3861 -1.2491  0.7836
 6092SOL     OW29908   3.632   2.604  16.567  0.2560  0.3247 -0.8932
 6092SOL    HW129909   3.620   2.664  16.494  0.7985  0.5353 -0.8124
 6092SOL    HW229910   3.576   2.640  16.635  0.4670  0.6954 -0.9166
 6093SOL     OW29911   1.702   2.209   2.811 -0.2996 -0.6058 -0.2003
 6093SOL    HW129912   1.607   2.214   2.802 -0.6752 -0.9706  3.4186
 6093SOL    HW229913   1.727   2.179   2.724 -0.8112  2.6061 -1.4567
 6094SOL     OW29914   1.976   2.572  14.165  0.7004 -0.1589 -0.0224
 6094SOL    HW129915   2.070   2.588  14.176  0.4120  0.3152  1.7371
 6094SOL    HW229916   1.985   2.480  14.140  0.4924 -0.3863  0.7618
 6095SOL     OW29917   1.507   2.428   1.725  0.4614  0.3962 -0.5723
 6095SOL    HW129918   1.534   2.350   1.773  0.4316  1.4001  1.0793
 6095SOL    HW229919   1.512   2.388   1.638  0.9111  0.5028 -0.5962
 6096SOL     OW29920   0.690   2.481  11.178 -0.4474 -0.1688 -0.1457
 6096SOL    HW129921   0.601   2.499  11.148 -1.1907 -0.9449  1.5562
 6096SOL    HW229922   0.729   2.566  11.157  1.0081 -0.8500 -0.2577
 6097SOL     OW29923   4.276   2.556   4.494 -0.2921  0.1410  0.2028
 6097SOL    HW129924   4.282   2.616   4.420  2.6155  0.3848  0.6552
 6097SOL    HW229925   4.220   2.487   4.459  1.9578 -2.6044  2.0255
 6098SOL     OW29926   3.718   2.067   4.104  0.1462  0.4770  0.1147
 6098SOL    HW129927   3.801   2.066   4.056  1.2311 -0.5751  2.0000
 6098SOL    HW229928   3.653   2.084   4.036  2.3779  1.0429 -1.8683
 6099SOL     OW29929   1.529   2.594   6.939  0.3421  0.5817  0.0194
 6099SOL    HW129930   1.511   2.633   7.024  0.9207  0.9971 -0.0505
 6099SOL    HW229931   1.466   2.522   6.928  0.2129  0.6552  0.3021
 6100SOL     OW29932   1.031   2.845   2.473  0.1579 -0.0232  0.0786
 6100SOL    HW129933   1.033   2.915   2.407  0.8224 -1.4609 -1.4194
 6100SOL    HW229934   1.102   2.877   2.529  0.2077  1.6103 -0.9123
 6101SOL     OW29935   1.760   1.996  16.004  0.3938  0.8126 -0.3440
 6101SOL    HW129936   1.742   1.988  16.098  1.4954  2.6192  0.0297
 6101SOL    HW229937   1.855   2.001  16.016  0.5410  0.8926 -1.5930
 6102SOL     OW29938   3.202   4.318   5.035  0.0791  0.0259  0.2043
 6102SOL    HW129939   3.174   4.279   4.952  0.3814 -1.5739  0.8586
 6102SOL    HW229940   3.291   4.283   5.038 -0.2247 -0.7788 -0.2220
 6103SOL     OW29941   1.175   3.461  16.239 -0.1114  0.2335  0.3021
 6103SOL    HW129942   1.093   3.438  16.284  0.3121 -0.3601  0.7800
 6103SOL    HW229943   1.148   3.453  16.148  2.0608 -0.3921 -0.2915
 6104SOL     OW29944   2.117   3.025   3.137 -0.7086  0.1476 -0.2719
 6104SOL    HW129945   2.124   2.989   3.225  1.0249  0.0004 -0.4804
 6104SOL    HW229946   2.025   3.051   3.138 -0.9662 -0.8160  1.6973
 6105SOL     OW29947   2.509   2.568   2.764 -0.1624 -0.3050 -0.0355
 6105SOL    HW129948   2.532   2.646   2.713 -0.6632  2.4635  3.9303
 6105SOL    HW229949   2.578   2.573   2.830  0.8736  0.2641 -1.1572
 6106SOL     OW29950   4.617   3.764   3.480  0.1901 -0.3500  0.2810
 6106SOL    HW129951   4.605   3.732   3.391  2.1021 -1.3360  0.3731
 6106SOL    HW229952   4.580   3.852   3.475 -2.2570 -1.3357  1.3320
 6107SOL     OW29953   2.659   1.461   3.767 -0.0710  0.4690  0.2372
 6107SOL    HW129954   2.746   1.439   3.734 -0.7436 -0.9883 -0.5527
 6107SOL    HW229955   2.672   1.444   3.860 -0.8540 -1.5849 -0.0378
 6108SOL     OW29956   1.951   2.659   9.295  0.5048 -0.1783 -0.3112
 6108SOL    HW129957   1.946   2.683   9.388 -2.5384 -2.5743  0.1169
 6108SOL    HW229958   1.865   2.675   9.257  0.9643 -0.2203 -1.3658
 6109SOL     OW29959   0.629   2.146   3.508  0.0571  0.3640 -0.9544
 6109SOL    HW129960   0.696   2.125   3.572 -1.7547 -0.3272  0.7150
 6109SOL    HW229961   0.553   2.134   3.565  1.9439  0.4223  1.5590
 6110SOL     OW29962   2.295   0.527  10.836 -0.4575  0.5548  0.0550
 6110SOL    HW129963   2.366   0.505  10.776 -2.0896  1.6946 -2.2860
 6110SOL    HW229964   2.218   0.489  10.794  0.7769 -3.2787  1.2374
 6111SOL     OW29965   1.197   2.822   7.726 -0.3031 -0.1349  0.0029
 6111SOL    HW129966   1.234   2.852   7.643 -0.5606  0.7248  0.1911
 6111SOL    HW229967   1.276   2.844   7.775 -0.1701  1.3861 -0.8682
 6112SOL     OW29968   2.033   3.507   2.743 -0.3017 -0.2605  0.4926
 6112SOL    HW129969   1.970   3.481   2.810 -0.1199  1.4763  1.3475
 6112SOL    HW229970   1.969   3.524   2.673 -1.1946 -3.3325  0.5557
 6113SOL     OW29971   1.668   3.704   2.106 -0.1486 -0.1573 -0.1312
 6113SOL    HW129972   1.688   3.644   2.034  1.7568 -1.4864  1.4944
 6113SOL    HW229973   1.587   3.661   2.135 -0.0572  0.1964  0.6394
 6114SOL     OW29974   4.120   0.418   3.275 -0.6644 -0.6164  0.2559
 6114SOL    HW129975   4.037   0.464   3.258  0.2641  1.6425  1.7900
 6114SOL    HW229976   4.101   0.326   3.260 -0.7539 -0.6516  0.5916
 6115SOL     OW29977   2.100   1.053  16.645  0.0873  0.6622 -0.2304
 6115SOL    HW129978   2.135   1.007  16.722 -2.1444 -1.7412 -0.6513
 6115SOL    HW229979   2.113   0.986  16.578 -3.0786 -0.5770  0.3737
 6116SOL     OW29980   1.800   3.422   8.217 -0.4851  0.6777 -0.2229
 6116SOL    HW129981   1.840   3.443   8.132  0.4025 -2.3706 -0.5502
 6116SOL    HW229982   1.851   3.349   8.252  0.3776  2.2894  1.8428
 6117SOL     OW29983   2.828   2.334   3.324  0.2027 -0.2409 -0.3081
 6117SOL    HW129984   2.764   2.372   3.264  0.3911  0.6847  0.0687
 6117SOL    HW229985   2.838   2.247   3.286  1.0023 -0.3230  0.0834
 6118SOL     OW29986   0.783   2.875   8.383  1.2642  0.2726 -0.4299
 6118SOL    HW129987   0.745   2.815   8.318  1.7996  0.9782 -1.3977
 6118SOL    HW229988   0.705   2.929   8.398  0.0359 -1.0543 -2.0057
 6119SOL     OW29989   1.452   0.973   5.998  0.1366  0.6710  0.5466
 6119SOL    HW129990   1.514   0.995   6.068  1.4336  0.8486 -0.6481
 6119SOL    HW229991   1.503   0.899   5.966 -0.8446 -0.4529  1.6212
 6120SOL     OW29992   2.925   1.019   4.077 -0.3113 -0.1744 -0.1947
 6120SOL    HW129993   3.016   1.050   4.084 -1.0194  2.0174 -0.5976
 6120SOL    HW229994   2.931   0.951   4.011 -0.2394 -2.1685  1.8764
 6121SOL     OW29995   1.015   4.454   5.467  0.0850  0.1230 -0.0058
 6121SOL    HW129996   1.020   4.535   5.416 -2.2269 -0.4576 -1.1985
 6121SOL    HW229997   0.920   4.444   5.460  0.4605 -3.6316  0.1531
 6122SOL     OW29998   1.722   2.809   4.843  0.2142 -0.2654  0.8604
 6122SOL    HW129999   1.682   2.864   4.776  0.2506 -2.1547 -0.7117
 6122SOL    HW230000   1.797   2.778   4.793  0.6770  0.3062  1.1883
 6123SOL     OW30001   2.722   3.294   4.766 -0.4243  0.4063  0.2197
 6123SOL    HW130002   2.733   3.259   4.855  0.3865  0.0818 -0.0037
 6123SOL    HW230003   2.714   3.386   4.790  0.9962  0.9132 -1.2682
 6124SOL     OW30004   2.575   1.313   4.848 -0.2190  0.3025  0.2608
 6124SOL    HW130005   2.667   1.288   4.848 -0.4410 -0.5329  0.4165
 6124SOL    HW230006   2.579   1.404   4.819  2.2211  0.1398  0.0768
 6125SOL     OW30007   3.920   4.316   6.669 -0.3819  0.3659 -0.1520
 6125SOL    HW130008   4.011   4.307   6.643  0.1135  2.6610  0.8324
 6125SOL    HW230009   3.930   4.385   6.734  1.8560  0.0643 -0.1997
 6126SOL     OW30010   1.318   3.398  10.460  0.1586 -0.2591  0.1362
 6126SOL    HW130011   1.298   3.368  10.549 -0.5533  1.3889  0.5456
 6126SOL    HW230012   1.273   3.333  10.407 -0.3910 -0.1558  0.4666
 6127SOL     OW30013   3.277   4.025   8.062 -0.1071  0.4811  0.8459
 6127SOL    HW130014   3.369   4.051   8.067  0.0702  0.0224  0.0134
 6127SOL    HW230015   3.257   4.011   8.155  1.7947  3.6275  1.7009
 6128SOL     OW30016   3.840   4.694  12.266  0.4252  0.2930 -0.2318
 6128SOL    HW130017   3.801   4.663  12.184  1.5058 -1.6662 -0.0222
 6128SOL    HW230018   3.935   4.685  12.255 -0.0313 -3.5816 -1.1740
 6129SOL     OW30019   4.065   4.555  17.322 -0.2607  0.5795 -0.1564
 6129SOL    HW130020   3.989   4.506  17.353 -0.5843  0.1908 -1.5926
 6129SOL    HW230021   4.050   4.646  17.347 -1.4346  0.4474 -0.3444
 6130SOL     OW30022   3.880   1.373  10.230 -0.0892 -0.3643 -0.0914
 6130SOL    HW130023   3.956   1.397  10.282  0.4820  0.8119 -1.4630
 6130SOL    HW230024   3.893   1.278  10.239 -0.3657 -0.1774  2.2367
 6131SOL     OW30025   3.237   4.110   3.008 -0.0361 -0.1783 -0.3754
 6131SOL    HW130026   3.189   4.028   2.994  0.2537 -0.8994  2.8375
 6131SOL    HW230027   3.233   4.144   2.919  0.8346  2.2282  0.5053
 6132SOL     OW30028   4.562   0.324   0.950 -0.0053 -0.2815  0.3301
 6132SOL    HW130029   4.647   0.343   0.912  0.3668  1.1283  1.8577
 6132SOL    HW230030   4.560   0.229   0.962 -0.6638 -0.1228  1.5477
 6133SOL     OW30031   1.171   2.417   2.479  0.0582  0.7909 -0.1047
 6133SOL    HW130032   1.159   2.512   2.485 -0.7139  0.5419  2.1952
 6133SOL    HW230033   1.186   2.394   2.387 -1.4957 -3.3741  0.6869
 6134SOL     OW30034   1.947   2.672  16.732  0.5302  0.1477 -0.1468
 6134SOL    HW130035   1.921   2.764  16.721 -1.7312 -0.5700 -0.8320
 6134SOL    HW230036   1.922   2.649  16.821 -1.8843  1.8746 -0.3664
 6135SOL     OW30037   3.116   2.188   8.764  0.7174  0.1755  0.6317
 6135SOL    HW130038   3.025   2.201   8.789  0.0999 -3.0753  0.0511
 6135SOL    HW230039   3.156   2.257   8.817 -0.1062 -0.4901  2.1137
 6136SOL     OW30040   3.681   0.695   6.697 -0.4495  0.4620  0.1280
 6136SOL    HW130041   3.606   0.639   6.678 -0.2594  0.4555 -0.5717
 6136SOL    HW230042   3.723   0.702   6.611 -2.8299 -0.6488 -1.1181
 6137SOL     OW30043   0.117   3.682   8.351 -0.6308  0.1137 -0.5611
 6137SOL    HW130044   0.048   3.616   8.339  1.0334 -1.8493  0.7740
 6137SOL    HW230045   0.174   3.630   8.408  1.8577  1.4870 -1.8388
 6138SOL     OW30046   2.724   3.661  12.675 -0.0518 -0.1869 -0.0891
 6138SOL    HW130047   2.652   3.714  12.640  0.1542  1.0481  1.3164
 6138SOL    HW230048   2.788   3.727  12.702  0.6978 -1.2843  0.7922
 6139SOL     OW30049   0.017   0.502  11.507 -0.1634 -0.2799 -0.6028
 6139SOL    HW130050   0.052   0.584  11.542  0.6991 -0.4910 -0.9765
 6139SOL    HW230051   4.711   0.540  11.431 -2.4157 -1.5373  0.0387
 6140SOL     OW30052   1.529   3.863  14.139  0.2496  0.0645  0.5613
 6140SOL    HW130053   1.549   3.930  14.205  1.0090 -1.1129  1.5369
 6140SOL    HW230054   1.561   3.781  14.176  1.6844  0.0901 -0.6071
 6141SOL     OW30055   4.504   2.092   6.599  0.1868 -0.0270  0.2111
 6141SOL    HW130056   4.514   2.089   6.504 -0.1582  1.3263  0.1343
 6141SOL    HW230057   4.562   2.166   6.617  1.3150 -0.5512 -1.2677
 6142SOL     OW30058   3.010   1.509   4.644 -0.2030  0.5940  0.0325
 6142SOL    HW130059   3.105   1.498   4.640 -0.6019 -2.4207 -0.9833
 6142SOL    HW230060   2.986   1.478   4.557  2.2837  0.3551 -0.5812
 6143SOL     OW30061   0.271   1.231   3.817 -0.1659 -0.0809 -0.1653
 6143SOL    HW130062   0.354   1.199   3.782 -0.4305  0.0359 -0.9082
 6143SOL    HW230063   0.289   1.281   3.897  1.2166  0.6215 -0.9161
 6144SOL     OW30064   2.222   3.412   0.524 -0.1955 -0.6888  0.2220
 6144SOL    HW130065   2.230   3.505   0.505 -1.3670 -0.6321 -0.0020
 6144SOL    HW230066   2.131   3.383   0.523 -0.8545  1.4446 -0.3466
 6145SOL     OW30067   3.084   0.747   2.432  0.1404 -0.1845 -0.0212
 6145SOL    HW130068   3.069   0.805   2.357  1.6321 -0.3373 -0.4373
 6145SOL    HW230069   3.095   0.809   2.504 -2.4701  1.6100 -1.1676
 6146SOL     OW30070   3.919   2.284   6.053  0.0350 -0.2020 -0.0911
 6146SOL    HW130071   3.893   2.357   6.110 -0.4683  0.1424 -0.7637
 6146SOL    HW230072   4.008   2.310   6.031 -1.0172  2.0733 -1.6003
 6147SOL     OW30073   4.362   3.384   4.141  0.4403 -0.2836  0.6557
 6147SOL    HW130074   4.442   3.333   4.143  0.8523  0.2070 -2.5774
 6147SOL    HW230075   4.391   3.458   4.086  0.4034  1.3590  2.8484
 6148SOL     OW30076   2.668   3.501  12.470  0.2820  0.0247  0.0451
 6148SOL    HW130077   2.630   3.570  12.415  1.6957 -0.5196 -1.5792
 6148SOL    HW230078   2.683   3.553  12.549  0.7908  1.8299 -1.2258
 6149SOL     OW30079   2.018   1.662   7.235  0.0697 -0.5588  0.2880
 6149SOL    HW130080   1.984   1.705   7.314 -0.3153 -0.6033  0.1430
 6149SOL    HW230081   2.111   1.683   7.243 -0.5421  2.7685 -1.0918
 6150SOL     OW30082   1.106   2.059   2.040  0.6043 -0.3363 -0.2639
 6150SOL    HW130083   1.091   2.124   1.972  0.4800  1.4012  1.4348
 6150SOL    HW230084   1.036   1.995   2.028  0.7042 -0.1398 -1.8454
 6151SOL     OW30085   3.851   4.215   1.899 -0.1748  0.0226  0.0075
 6151SOL    HW130086   3.843   4.181   1.809  1.2149 -0.7397  0.1764
 6151SOL    HW230087   3.932   4.171   1.924 -0.6390 -1.0497 -0.3801
 6152SOL     OW30088   2.528   2.356   4.874  0.1833  0.4737  0.3610
 6152SOL    HW130089   2.554   2.274   4.915  0.3238 -0.4656 -1.5685
 6152SOL    HW230090   2.607   2.373   4.823 -0.8639  1.4832 -0.9577
 6153SOL     OW30091   4.629   4.590   3.690  0.1571 -0.6274  0.0450
 6153SOL    HW130092   4.715   4.575   3.652  0.1150  1.7433 -1.0431
 6153SOL    HW230093   4.565   4.562   3.625  1.7308 -1.0663 -1.3165
 6154SOL     OW30094   3.788   1.580   0.732 -0.6268  0.0157  0.2170
 6154SOL    HW130095   3.715   1.518   0.739  0.7173 -1.6679 -0.5010
 6154SOL    HW230096   3.857   1.525   0.769  0.5634  2.1232  1.1128
 6155SOL     OW30097   2.594   3.708   9.117 -0.3926 -0.5242  0.6805
 6155SOL    HW130098   2.662   3.643   9.135 -0.3052 -0.8975 -1.0073
 6155SOL    HW230099   2.626   3.737   9.032 -0.2895 -1.9315  0.2389
 6156SOL     OW30100   0.449   0.652   9.545  0.5466 -0.0014  0.2244
 6156SOL    HW130101   0.427   0.654   9.639  1.8512 -1.5674  0.5592
 6156SOL    HW230102   0.392   0.721   9.510  0.1727  0.0347  0.9004
 6157SOL     OW30103   2.582   0.883   3.279 -0.9706 -0.4059 -0.4071
 6157SOL    HW130104   2.612   0.798   3.311  1.2148  0.5535  0.0562
 6157SOL    HW230105   2.576   0.929   3.364 -1.7973  0.1675 -0.7719
 6158SOL     OW30106   2.380   0.647   4.671  0.2005  0.1133  0.2044
 6158SOL    HW130107   2.476   0.636   4.669  0.0324 -1.3458  0.1101
 6158SOL    HW230108   2.353   0.606   4.589  2.7327 -1.6227  0.2340
 6159SOL     OW30109   3.901   0.912   7.971 -0.6581 -0.8561  0.2376
 6159SOL    HW130110   3.849   0.864   8.036 -2.2156  0.4909 -0.0141
 6159SOL    HW230111   3.971   0.848   7.958  0.8561  0.3702  2.2756
 6160SOL     OW30112   1.434   2.807   4.292  0.0866 -0.2267  0.5516
 6160SOL    HW130113   1.444   2.898   4.263 -0.2788 -1.1785 -2.5069
 6160SOL    HW230114   1.430   2.827   4.386 -0.1082  1.1422  0.2469
 6161SOL     OW30115   2.659   2.531  11.670 -0.1866 -0.0035 -0.1123
 6161SOL    HW130116   2.577   2.488  11.694 -0.7325 -0.8929 -3.5673
 6161SOL    HW230117   2.685   2.566  11.756 -0.6553  1.3011 -0.4973
 6162SOL     OW30118   0.031   1.387  13.117 -0.4571  0.1148 -0.0717
 6162SOL    HW130119   0.007   1.329  13.190 -0.3097  0.1938  0.0413
 6162SOL    HW230120   0.070   1.317  13.065  2.5916  1.4172  0.4371
 6163SOL     OW30121   4.014   3.950  14.750 -0.2854  0.0235  0.4282
 6163SOL    HW130122   4.086   3.917  14.696  1.1948  1.7559  1.3190
 6163SOL    HW230123   3.989   3.885  14.816 -0.4031  0.5326  0.8929
 6164SOL     OW30124   3.817   3.845   7.021  0.2369 -0.3928  0.6604
 6164SOL    HW130125   3.758   3.809   7.087  1.3646  0.4488  2.1143
 6164SOL    HW230126   3.864   3.768   6.989  2.3041 -0.1397  3.1395
 6165SOL     OW30127   1.735   3.827   4.094 -0.1562  0.0244  0.2461
 6165SOL    HW130128   1.742   3.771   4.017  0.3124  0.8617 -0.3216
 6165SOL    HW230129   1.827   3.824   4.123 -0.4105  0.5187  1.0946
 6166SOL     OW30130   3.806   4.192   4.245  0.3701 -0.1427  0.5872
 6166SOL    HW130131   3.892   4.226   4.272  1.6805 -2.3382 -0.8205
 6166SOL    HW230132   3.818   4.205   4.151 -0.4002 -0.6423  0.4193
 6167SOL     OW30133   0.350   2.527  10.889 -0.0457  0.6278 -0.4198
 6167SOL    HW130134   0.335   2.514  10.982 -0.7151 -1.7407 -0.8637
 6167SOL    HW230135   0.349   2.435  10.862 -2.6445  0.5842 -0.1646
 6168SOL     OW30136   2.267   0.173   1.070 -0.2354  0.1946 -0.2632
 6168SOL    HW130137   2.183   0.132   1.091 -0.9430  2.2202  0.8475
 6168SOL    HW230138   2.284   0.140   0.981 -1.9231 -0.7514 -0.2364
 6169SOL     OW30139   1.258   2.598  12.896  0.0378  0.6441  0.0608
 6169SOL    HW130140   1.190   2.572  12.958 -1.3738 -1.5289 -2.4145
 6169SOL    HW230141   1.202   2.602  12.819 -0.3807  0.4999  0.3563
 6170SOL     OW30142   3.199   1.231  16.673 -0.2981  0.2721  0.1397
 6170SOL    HW130143   3.171   1.155  16.622 -1.5494  1.7803 -1.4171
 6170SOL    HW230144   3.204   1.298  16.604  1.7512  0.9698  0.9704
 6171SOL     OW30145   4.636   3.691  12.175 -0.9074 -0.4233  0.2964
 6171SOL    HW130146   4.644   3.750  12.250  3.2397  1.1903 -1.4197
 6171SOL    HW230147   4.628   3.608  12.222 -0.2115 -1.7886 -2.0006
 6172SOL     OW30148   4.398   3.380  10.350 -0.6123  0.0979  0.5098
 6172SOL    HW130149   4.483   3.421  10.337 -0.2936 -0.8131 -0.2496
 6172SOL    HW230150   4.433   3.299  10.388 -2.4151 -1.5865 -1.4474
 6173SOL     OW30151   3.331   1.373   2.818  0.1324  0.6502 -0.4050
 6173SOL    HW130152   3.261   1.337   2.872  1.1339  1.1751  1.2434
 6173SOL    HW230153   3.334   1.319   2.739 -0.4956  0.2071 -0.1217
 6174SOL     OW30154   3.265   2.045   5.756 -0.3641 -0.1741  0.0305
 6174SOL    HW130155   3.282   2.017   5.845 -1.2650  0.4755  0.4076
 6174SOL    HW230156   3.181   2.089   5.773 -0.4710 -0.3094 -0.1419
 6175SOL     OW30157   3.202   4.545   6.892  0.4516 -0.0433  0.1419
 6175SOL    HW130158   3.140   4.528   6.821 -0.1390 -0.3354  0.7371
 6175SOL    HW230159   3.277   4.491   6.864 -0.3055 -1.8827  1.6222
 6176SOL     OW30160   1.422   2.791  11.538 -0.4312  0.0194 -0.2335
 6176SOL    HW130161   1.416   2.857  11.608 -1.1408 -1.4286  1.0761
 6176SOL    HW230162   1.505   2.815  11.496 -0.6030 -0.2442 -0.7156
 6177SOL     OW30163   3.769   3.314   4.140 -0.4595  0.0558  0.3997
 6177SOL    HW130164   3.765   3.407   4.119 -2.3922 -0.2849 -0.8152
 6177SOL    HW230165   3.692   3.284   4.090  0.5102 -2.9165  0.6711
 6178SOL     OW30166   4.592   0.326   5.657  1.1096 -0.2090  0.0693
 6178SOL    HW130167   4.589   0.344   5.563  2.5788 -1.1725 -0.1655
 6178SOL    HW230168   4.560   0.236   5.651  0.5351 -0.1539  2.3374
 6179SOL     OW30169   3.268   0.170   2.906 -0.3317 -0.3987 -0.4559
 6179SOL    HW130170   3.329   0.226   2.955 -1.4918  0.1530  0.3443
 6179SOL    HW230171   3.243   0.224   2.831 -0.7614 -1.1865 -0.8831
 6180SOL     OW30172   3.397   3.678   2.535 -0.0080 -0.4383 -0.3186
 6180SOL    HW130173   3.437   3.596   2.503 -2.3627 -0.6862 -2.6491
 6180SOL    HW230174   3.378   3.726   2.455 -1.2956  2.6877  1.8793
 6181SOL     OW30175   2.984   2.175  12.718  0.0814  0.3936 -0.2177
 6181SOL    HW130176   2.934   2.094  12.728 -1.6563  1.4224 -0.5009
 6181SOL    HW230177   3.035   2.179  12.799  2.6843  0.3398 -1.8525
 6182SOL     OW30178   0.419   2.334   4.616 -0.3852 -0.1476 -0.2997
 6182SOL    HW130179   0.451   2.270   4.679  0.1229 -0.5675 -0.9815
 6182SOL    HW230180   0.458   2.302   4.535 -0.4431 -0.4805 -0.1980
 6183SOL     OW30181   0.370   1.091   6.692 -0.4229 -0.2887  0.6254
 6183SOL    HW130182   0.404   1.175   6.724  0.5690 -0.7346  0.7266
 6183SOL    HW230183   0.394   1.099   6.600 -0.3083  0.7091  0.7388
 6184SOL     OW30184   3.073   0.305   2.476 -0.3091 -0.2589  0.1019
 6184SOL    HW130185   3.001   0.242   2.474  1.1533 -1.9158 -0.9328
 6184SOL    HW230186   3.034   0.378   2.428 -0.5794 -0.9721 -0.7612
 6185SOL     OW30187   4.549   0.911   7.782  0.0914 -0.3523 -0.4452
 6185SOL    HW130188   4.477   0.974   7.773 -0.2796 -0.5943  0.8276
 6185SOL    HW230189   4.503   0.844   7.833  0.0839  0.6239  0.8456
 6186SOL     OW30190   2.235   1.390   2.551  0.2463  0.0144  0.9543
 6186SOL    HW130191   2.246   1.298   2.529  0.5260  0.6523 -1.5920
 6186SOL    HW230192   2.245   1.431   2.465 -0.1484 -0.6102  0.6188
 6187SOL     OW30193   0.575   4.147   2.473 -0.5208 -0.4121  0.0812
 6187SOL    HW130194   0.649   4.140   2.533  0.4288 -0.5898 -1.1046
 6187SOL    HW230195   0.544   4.057   2.479 -1.3977 -0.0781  0.6262
 6188SOL     OW30196   1.870   0.517   9.633 -0.3308  0.4749  0.2750
 6188SOL    HW130197   1.951   0.485   9.595 -0.3043 -1.4369  1.9188
 6188SOL    HW230198   1.882   0.514   9.728 -0.8692  0.6872  0.3504
 6189SOL     OW30199   2.855   1.760   8.459 -0.1090 -0.1531  0.2794
 6189SOL    HW130200   2.854   1.725   8.548  0.8766 -0.6089  0.1129
 6189SOL    HW230201   2.924   1.708   8.417  0.4174 -0.4529  1.5284
 6190SOL     OW30202   4.658   0.170   2.766 -0.7410 -0.0834 -0.3081
 6190SOL    HW130203   4.637   0.254   2.808 -0.3936 -0.0256 -0.2488
 6190SOL    HW230204   0.013   0.184   2.749 -0.9563  0.4983 -1.0063
 6191SOL     OW30205   3.002   2.729   5.039  0.2608 -0.4730 -0.3884
 6191SOL    HW130206   3.016   2.645   5.083  0.3640  0.1872  0.8278
 6191SOL    HW230207   2.980   2.705   4.948 -1.5578  0.7801 -0.2760
 6192SOL     OW30208   2.125   1.709  10.998  0.6536 -0.3205  0.4561
 6192SOL    HW130209   2.104   1.781  10.937 -1.4556 -1.9270 -0.7329
 6192SOL    HW230210   2.056   1.732  11.060  1.1571  2.6934 -0.0764
 6193SOL     OW30211   0.232   1.427   7.218  0.0782  0.2960  0.1212
 6193SOL    HW130212   0.220   1.513   7.178  1.2567  0.0285 -0.8167
 6193SOL    HW230213   0.291   1.390   7.152 -0.1966 -0.5735  0.3710
 6194SOL     OW30214   0.816   4.427   8.597  0.4654 -0.0013  0.5533
 6194SOL    HW130215   0.838   4.477   8.518  1.6777 -2.6870 -0.7980
 6194SOL    HW230216   0.809   4.338   8.564  0.6325  0.0569  0.3583
 6195SOL     OW30217   2.381   3.337   8.498  0.1115  0.0475  0.4027
 6195SOL    HW130218   2.286   3.327   8.509  0.0094 -0.5956 -1.0747
 6195SOL    HW230219   2.377   3.432   8.486  0.9669  0.2573  1.8629
 6196SOL     OW30220   3.891   2.261   6.402  1.0513  0.5426  0.5731
 6196SOL    HW130221   3.851   2.271   6.489  2.1992 -0.6646  1.2330
 6196SOL    HW230222   3.869   2.345   6.362  0.2232 -0.5054 -1.1663
 6197SOL     OW30223   2.790   4.677   8.136  0.5173  0.5292  0.4802
 6197SOL    HW130224   2.705   4.645   8.165  0.0611  1.8463  0.5979
 6197SOL    HW230225   2.809   4.729   8.215  0.3873  0.5057  0.5264
 6198SOL     OW30226   1.837   3.988   1.168 -0.2903 -0.3741  0.2935
 6198SOL    HW130227   1.900   3.964   1.236  0.0996  0.9208  0.3854
 6198SOL    HW230228   1.756   4.002   1.218 -1.9121 -1.7334 -1.9670
 6199SOL     OW30229   2.679   0.532   0.714 -0.2341 -0.1578 -0.0019
 6199SOL    HW130230   2.738   0.457   0.704  1.4441  1.2073 -0.3130
 6199SOL    HW230231   2.717   0.595   0.653  1.7720 -1.7868 -0.4394
 6200SOL     OW30232   4.642   0.101   8.358  0.1216 -0.3113  0.0999
 6200SOL    HW130233   4.669   0.083   8.268  0.8229  1.2469 -0.0100
 6200SOL    HW230234   4.716   0.150   8.395  0.0673 -3.1042  3.8573
 6201SOL     OW30235   2.728   1.399   5.248  0.3029 -0.3449  0.2846
 6201SOL    HW130236   2.667   1.460   5.290 -1.5157 -1.3614 -0.8641
 6201SOL    HW230237   2.671   1.324   5.232 -0.6035  0.1118  1.3980
 6202SOL     OW30238   4.453   3.836  14.495  0.3003 -0.0859  0.0462
 6202SOL    HW130239   4.543   3.838  14.527  0.1168  0.5616  0.5328
 6202SOL    HW230240   4.457   3.753  14.448 -1.7044 -0.0861 -0.1363
 6203SOL     OW30241   2.379   3.236   1.918 -0.9138  0.2660  0.4020
 6203SOL    HW130242   2.381   3.233   1.822  0.1972  0.1054  0.4322
 6203SOL    HW230243   2.309   3.302   1.914 -0.8746  0.2610 -0.5195
 6204SOL     OW30244   4.570   1.488  16.207 -0.4104  0.1668  0.1837
 6204SOL    HW130245   4.553   1.496  16.113 -0.5153  0.9775  0.2721
 6204SOL    HW230246   4.532   1.572  16.232 -2.3010 -0.9524  1.0367
 6205SOL     OW30247   2.461   2.627   1.119 -0.1024 -0.6388 -0.3638
 6205SOL    HW130248   2.557   2.626   1.117 -0.0798  0.4917  0.7695
 6205SOL    HW230249   2.435   2.593   1.204 -0.4982  2.7257  0.8547
 6206SOL     OW30250   4.560   0.360  15.706 -0.1337  0.2544  0.1530
 6206SOL    HW130251   4.629   0.384  15.643 -0.5616  2.8991  0.7137
 6206SOL    HW230252   4.540   0.444  15.747  0.0297  0.4351 -0.1342
 6207SOL     OW30253   4.201   1.724  12.893 -0.2069 -0.2645  0.9018
 6207SOL    HW130254   4.149   1.645  12.881  0.3791 -0.6776  1.1122
 6207SOL    HW230255   4.127   1.785  12.890 -0.5089 -0.7609 -2.4419
 6208SOL     OW30256   2.136   2.029   2.895  0.2820 -0.0550 -0.2273
 6208SOL    HW130257   2.085   2.103   2.928 -0.0904 -1.0940  1.5247
 6208SOL    HW230258   2.156   2.055   2.805  2.2706 -2.7789 -0.5600
 6209SOL     OW30259   1.870   3.135   3.165  0.2402  0.8735  0.4537
 6209SOL    HW130260   1.820   3.202   3.211  0.3267 -0.0163  1.8495
 6209SOL    HW230261   1.825   3.059   3.204  2.1164  0.7676  2.3666
 6210SOL     OW30262   4.095   1.298  16.858 -0.2425 -0.2051 -0.2301
 6210SOL    HW130263   4.080   1.375  16.913 -0.7700 -1.4428  1.3472
 6210SOL    HW230264   4.175   1.259  16.891  1.4936  1.9492 -1.8664
 6211SOL     OW30265   4.071   2.787  11.007 -0.3961  0.8347 -0.1713
 6211SOL    HW130266   4.165   2.776  10.998  0.0393  4.3459 -0.1114
 6211SOL    HW230267   4.047   2.862  10.952 -0.8091  3.4583  3.5999
 6212SOL     OW30268   3.165   0.780   8.542  0.1321 -0.0093  0.0206
 6212SOL    HW130269   3.256   0.805   8.525  0.0157 -0.2350 -0.9625
 6212SOL    HW230270   3.162   0.778   8.637 -2.9147  0.6492 -0.0789
 6213SOL     OW30271   3.979   0.061  17.694 -0.1922  0.4478 -0.2667
 6213SOL    HW130272   4.075   0.060  17.702 -0.0645  1.4213 -1.7631
 6213SOL    HW230273   3.971   0.058  17.599 -0.5783  0.0766 -0.2183
 6214SOL     OW30274   4.614   0.664   6.278 -0.2371 -0.3640 -0.1927
 6214SOL    HW130275   4.587   0.685   6.367 -0.0234 -0.0115 -0.2106
 6214SOL    HW230276   4.686   0.722   6.254 -0.7521 -0.6516 -2.4440
 6215SOL     OW30277   1.915   3.307   3.726 -0.4227 -0.0579  0.0156
 6215SOL    HW130278   1.945   3.353   3.648 -1.6387 -1.5438 -1.3348
 6215SOL    HW230279   1.936   3.219   3.695  4.8664  0.9346  0.6807
 6216SOL     OW30280   1.110   1.977  13.865 -0.2348  0.0580 -0.0183
 6216SOL    HW130281   1.149   2.050  13.817 -0.1745  0.6128  0.8552
 6216SOL    HW230282   1.161   1.993  13.945  0.0351 -0.3857 -0.1051
 6217SOL     OW30283   0.317   3.898   8.235  0.5099  0.5212 -0.0808
 6217SOL    HW130284   0.288   3.985   8.206 -2.3794  0.0784  1.4959
 6217SOL    HW230285   0.302   3.914   8.328  1.2895 -2.0441  0.4907
 6218SOL     OW30286   0.191   0.311   9.063  0.5532 -0.0419 -0.0515
 6218SOL    HW130287   0.188   0.244   8.995  0.9589  1.7906 -1.8771
 6218SOL    HW230288   0.178   0.252   9.137 -0.3887 -1.5258 -1.3983
 6219SOL     OW30289   1.574   2.341   7.229  0.7297  0.5142  0.0509
 6219SOL    HW130290   1.511   2.381   7.288 -0.2382  1.1033 -1.3659
 6219SOL    HW230291   1.527   2.265   7.193 -0.3582  2.0559 -1.7690
 6220SOL     OW30292   3.342   2.518   1.128 -0.0367 -0.5604 -0.0024
 6220SOL    HW130293   3.318   2.431   1.094 -1.0575  0.7718 -2.6756
 6220SOL    HW230294   3.347   2.568   1.047  3.1414 -1.5890 -0.4240
 6221SOL     OW30295   3.640   4.149   0.540  0.6791  0.4947 -0.4029
 6221SOL    HW130296   3.659   4.060   0.570 -1.0355  0.6418  1.1002
 6221SOL    HW230297   3.635   4.135   0.446 -1.7411 -0.3526 -0.1473
 6222SOL     OW30298   3.637   1.525   2.603 -0.2234 -0.0786  0.1388
 6222SOL    HW130299   3.614   1.440   2.640 -0.7361 -0.2532 -0.5850
 6222SOL    HW230300   3.617   1.504   2.512  1.3456 -1.2640  0.0628
 6223SOL     OW30301   4.646   4.229   2.418  0.6284 -0.2767 -0.4875
 6223SOL    HW130302   4.658   4.189   2.504  2.1270 -0.0237 -0.5833
 6223SOL    HW230303   4.580   4.171   2.379 -0.2725  0.2470  0.2261
 6224SOL     OW30304   0.271   1.108   2.388  0.7253  0.2033 -0.1527
 6224SOL    HW130305   0.183   1.112   2.426  0.4792  0.6207 -0.7674
 6224SOL    HW230306   0.259   1.031   2.332 -0.7197  2.1681 -2.5552
 6225SOL     OW30307   4.067   3.344   7.002  0.1812  0.7044 -0.5869
 6225SOL    HW130308   4.039   3.401   7.074 -0.1332 -2.2101  1.6014
 6225SOL    HW230309   4.132   3.396   6.953  0.2587  0.4722 -0.7293
 6226SOL     OW30310   0.505   4.026   3.271  0.5049 -0.2126  0.0116
 6226SOL    HW130311   0.575   4.068   3.320  0.2121 -0.8670  0.9931
 6226SOL    HW230312   0.491   3.946   3.322  0.5170 -1.1288 -1.4114
 6227SOL     OW30313   1.751   1.107   5.218 -0.2535 -0.0114 -0.4224
 6227SOL    HW130314   1.751   1.167   5.144 -1.3188  3.3417  2.3147
 6227SOL    HW230315   1.793   1.168   5.279 -1.5416  0.1877  0.2719
 6228SOL     OW30316   2.401   2.578   5.971  0.6293 -0.5901  0.1526
 6228SOL    HW130317   2.314   2.589   5.931  0.9804 -0.5331 -0.5890
 6228SOL    HW230318   2.402   2.667   6.006 -0.1207 -0.8407  0.8246
 6229SOL     OW30319   3.782   0.071   3.358  0.4288 -0.1246  0.1850
 6229SOL    HW130320   3.734   0.002   3.310 -0.9841  0.3811  0.8557
 6229SOL    HW230321   3.773   0.040   3.448  0.7991  1.8995  0.9178
 6230SOL     OW30322   4.720   0.379   3.737  0.0980 -0.3627  0.0744
 6230SOL    HW130323   4.679   0.293   3.725  0.6590 -0.5406 -0.6110
 6230SOL    HW230324   4.651   0.435   3.702 -1.6017 -1.4028  1.7453
 6231SOL     OW30325   0.743   1.322   8.084 -0.1806  0.7273  0.2196
 6231SOL    HW130326   0.723   1.415   8.071 -0.0465  0.2331 -3.5863
 6231SOL    HW230327   0.684   1.300   8.157  0.2006 -0.5304  0.1533
 6232SOL     OW30328   2.727   4.639   1.201  0.5651  0.4807 -0.4049
 6232SOL    HW130329   2.727   4.596   1.116  2.3961 -1.1378  0.4165
 6232SOL    HW230330   2.754   4.726   1.171  0.1913 -0.2201 -2.7723
 6233SOL     OW30331   2.134   2.745   4.039 -0.4313  0.8527 -0.5088
 6233SOL    HW130332   2.162   2.836   4.040  0.6235  0.5391 -0.9214
 6233SOL    HW230333   2.137   2.744   4.135 -1.7931  0.1176 -0.4735
 6234SOL     OW30334   3.901   2.982   6.150  0.2179 -0.2455 -0.1561
 6234SOL    HW130335   3.950   3.036   6.212  1.5213 -0.1666 -1.2493
 6234SOL    HW230336   3.825   3.038   6.135  2.6005  2.4862 -2.0231
 6235SOL     OW30337   1.429   4.397   2.698 -0.2468  0.1183 -0.1213
 6235SOL    HW130338   1.431   4.386   2.603  2.4607  2.8447 -0.4093
 6235SOL    HW230339   1.415   4.490   2.716  0.5492  0.5583 -1.8083
 6236SOL     OW30340   0.799   1.761   9.558  0.5638  0.3309  0.1117
 6236SOL    HW130341   0.835   1.746   9.470 -1.1320  0.6516 -0.6365
 6236SOL    HW230342   0.886   1.770   9.598  1.6375 -0.6504 -1.9641
 6237SOL     OW30343   4.177   4.300   6.017  0.0670  0.1138 -0.2075
 6237SOL    HW130344   4.173   4.382   5.968 -1.6992 -0.5912 -1.2825
 6237SOL    HW230345   4.085   4.273   6.017  0.1382 -0.1262 -0.2641
 6238SOL     OW30346   2.488   3.465   6.847  0.6051 -0.1337  0.1624
 6238SOL    HW130347   2.497   3.479   6.753  1.4009  1.1706  0.4422
 6238SOL    HW230348   2.401   3.499   6.870  1.8192  1.1050  2.8673
 6239SOL     OW30349   3.137   4.247   5.826  0.6562  0.0679 -0.6600
 6239SOL    HW130350   3.054   4.219   5.864  0.7682  0.1844 -0.3293
 6239SOL    HW230351   3.106   4.279   5.742 -0.2903 -0.8752 -0.6709
 6240SOL     OW30352   1.694   4.580   7.682 -0.6199  0.4986  0.6563
 6240SOL    HW130353   1.734   4.591   7.596 -1.2461  1.8592  0.5424
 6240SOL    HW230354   1.665   4.490   7.679  0.1659  0.2941 -0.7596
 6241SOL     OW30355   3.252   1.598  12.106 -0.6153 -0.1632  0.4912
 6241SOL    HW130356   3.157   1.587  12.104 -0.7941  1.4256  0.1484
 6241SOL    HW230357   3.264   1.601  12.011  0.9063 -0.4271  0.6727
 6242SOL     OW30358   3.979   4.095  12.527  0.8308  0.0348 -0.0160
 6242SOL    HW130359   3.982   4.182  12.486  3.4319  0.6049  1.4080
 6242SOL    HW230360   3.909   4.109  12.592  1.0931  2.0665 -0.1508
 6243SOL     OW30361   4.737   3.937  17.727 -0.2593 -0.4066 -0.1358
 6243SOL    HW130362   0.005   4.032  17.726 -0.2542 -0.4281 -1.7089
 6243SOL    HW230363   4.689   3.932  17.644 -3.0933 -0.1062  1.5010
 6244SOL     OW30364   3.087   0.358   6.513 -0.4395  0.1377 -0.4513
 6244SOL    HW130365   3.159   0.303   6.544 -1.6077 -1.0385  0.1261
 6244SOL    HW230366   3.032   0.287   6.482 -0.2210  0.1551 -0.8807
 6245SOL     OW30367   4.475   1.686  16.963 -0.0923 -0.1979  0.0232
 6245SOL    HW130368   4.384   1.712  16.978 -0.5275 -0.5143 -2.0642
 6245SOL    HW230369   4.503   1.630  17.035  1.4480 -0.3265 -0.6801
 6246SOL     OW30370   3.101   2.813   2.279  0.1052  0.3467 -0.5580
 6246SOL    HW130371   3.047   2.892   2.271 -0.0659  0.3659  0.7619
 6246SOL    HW230372   3.190   2.841   2.301  0.7127  0.3082 -2.9564
 6247SOL     OW30373   3.993   0.586   2.934 -0.6220  0.0339  0.2441
 6247SOL    HW130374   4.023   0.612   2.847 -0.4366 -0.5435  0.1309
 6247SOL    HW230375   3.903   0.619   2.933 -1.1955 -1.5537 -1.0864
 6248SOL     OW30376   2.528   3.194   4.594 -0.3852  0.3289 -0.2973
 6248SOL    HW130377   2.471   3.181   4.670  1.1186  1.0109  0.9480
 6248SOL    HW230378   2.599   3.245   4.633 -0.0410 -1.6031  1.6061
 6249SOL     OW30379   2.848   3.766   5.746  0.1295  0.3443 -0.0213
 6249SOL    HW130380   2.800   3.755   5.664 -1.8525  1.6097  0.9730
 6249SOL    HW230381   2.893   3.682   5.751  0.6382  0.7134  1.5045
 6250SOL     OW30382   0.865   1.065   9.354  0.2661  0.0197  0.0350
 6250SOL    HW130383   0.864   0.974   9.326  0.8325 -0.0764  0.3329
 6250SOL    HW230384   0.869   1.049   9.448 -1.0423 -0.1601  0.0572
 6251SOL     OW30385   1.823   4.358   4.085 -0.7686  0.3912  0.3350
 6251SOL    HW130386   1.784   4.270   4.080 -0.4516  0.4289 -2.4766
 6251SOL    HW230387   1.762   4.397   4.148  0.2424 -0.8987  2.1551
 6252SOL     OW30388   3.958   0.033   3.851  0.4920 -0.1100 -0.3228
 6252SOL    HW130389   4.013   4.718   3.792  2.6675 -0.0441  1.6435
 6252SOL    HW230390   3.898   0.081   3.794  1.5791  0.5254 -0.9352
 6253SOL     OW30391   1.625   3.287  15.167 -0.2919  0.1817 -0.1027
 6253SOL    HW130392   1.538   3.247  15.160  0.4692 -1.4835  0.0785
 6253SOL    HW230393   1.601   3.362  15.113  1.5601  0.2187 -0.8696
 6254SOL     OW30394   4.166   2.868  15.405 -0.2161 -0.2546  0.3906
 6254SOL    HW130395   4.150   2.799  15.341 -1.7319 -1.8489  2.4933
 6254SOL    HW230396   4.130   2.824  15.482 -0.5432  1.4993  1.2330
 6255SOL     OW30397   2.984   0.978   6.876 -0.0492  0.2202  0.2502
 6255SOL    HW130398   3.033   0.964   6.957  2.5107  0.8367 -1.1920
 6255SOL    HW230399   3.021   1.060   6.845 -1.6425  0.6529 -0.5119
 6256SOL     OW30400   0.965   3.027  10.964  0.6604 -0.1968 -0.2048
 6256SOL    HW130401   0.874   3.008  10.987  0.1647  1.5956 -0.6935
 6256SOL    HW230402   0.997   2.977  11.039 -0.7208  0.4013  0.7868
 6257SOL     OW30403   0.988   3.242   2.334  0.8645  0.1522 -0.4872
 6257SOL    HW130404   1.004   3.180   2.405 -0.4821  0.7548  0.3395
 6257SOL    HW230405   1.033   3.197   2.262  2.9939 -0.9530  1.5208
 6258SOL     OW30406   4.278   0.520   3.815 -0.0058 -0.3354 -0.1205
 6258SOL    HW130407   4.322   0.500   3.897  1.6582 -2.0150 -1.4211
 6258SOL    HW230408   4.353   0.559   3.771 -1.4061  0.6598 -1.6628
 6259SOL     OW30409   1.354   3.204   4.375 -0.8527 -0.2891  0.1958
 6259SOL    HW130410   1.394   3.157   4.302  0.6575 -2.6342  2.5376
 6259SOL    HW230411   1.269   3.161   4.368 -1.9046  1.9797 -0.9769
 6260SOL     OW30412   1.493   3.257   6.263 -0.0768  0.3363 -0.0877
 6260SOL    HW130413   1.437   3.184   6.236  1.4919 -0.9881  0.2648
 6260SOL    HW230414   1.424   3.323   6.269  0.4271  0.8705 -0.1331
 6261SOL     OW30415   4.177   0.198  17.232 -0.4895 -0.0524  0.0774
 6261SOL    HW130416   4.182   0.178  17.139 -1.6195  0.6717 -0.1349
 6261SOL    HW230417   4.253   0.255  17.237 -0.1969 -0.7661  3.8674
 6262SOL     OW30418   1.055   3.374  11.273  0.8608  0.2736  0.2553
 6262SOL    HW130419   1.050   3.293  11.323 -0.2986 -0.2656 -0.7204
 6262SOL    HW230420   1.037   3.439  11.341  1.8478  0.1780  0.6048
 6263SOL     OW30421   3.200   0.396   7.501  0.3336 -0.0337 -0.0519
 6263SOL    HW130422   3.132   0.340   7.540  0.8979 -0.9908 -0.4495
 6263SOL    HW230423   3.266   0.329   7.484  0.7613  0.9186 -2.0548
 6264SOL     OW30424   1.642   3.087   1.216  0.6161  0.0651  0.3665
 6264SOL    HW130425   1.731   3.055   1.227  1.2947  2.0510  0.6976
 6264SOL    HW230426   1.607   3.005   1.182 -0.4671 -0.3007  2.3558
 6265SOL     OW30427   1.904   1.756   3.897  0.2862  0.3704 -0.3858
 6265SOL    HW130428   1.928   1.808   3.973  2.2953 -0.9652 -0.0934
 6265SOL    HW230429   1.990   1.715   3.881  1.1420  1.0582  2.4656
 6266SOL     OW30430   0.553   4.475   7.663 -0.1885 -0.1725  0.2741
 6266SOL    HW130431   0.616   4.519   7.606 -1.3776  0.3999 -0.5988
 6266SOL    HW230432   0.580   4.495   7.753  1.3172 -2.7758  0.3922
 6267SOL     OW30433   3.576   4.415   1.848 -0.0962  0.4761 -0.6823
 6267SOL    HW130434   3.651   4.358   1.865 -1.0631 -0.5754  0.0678
 6267SOL    HW230435   3.533   4.366   1.778  1.8089 -1.4280 -0.5309
 6268SOL     OW30436   2.841   0.868  12.050 -0.8294  0.1533 -0.0658
 6268SOL    HW130437   2.919   0.817  12.031 -0.2966  0.6905  0.6419
 6268SOL    HW230438   2.869   0.920  12.126 -0.7724  2.4824 -1.6735
 6269SOL     OW30439   3.175   2.449   3.195 -0.1745  0.1898  0.4282
 6269SOL    HW130440   3.209   2.379   3.251  0.5297 -0.6663 -1.0741
 6269SOL    HW230441   3.139   2.512   3.257  0.5528  0.4373  0.5896
 6270SOL     OW30442   4.340   3.357   5.092  0.1091 -0.0463  0.3435
 6270SOL    HW130443   4.257   3.403   5.079 -0.7792 -1.3342  1.5827
 6270SOL    HW230444   4.308   3.269   5.075  1.8030 -0.7083  0.5813
 6271SOL     OW30445   1.447   2.746  12.091  0.2203 -0.1146  0.2879
 6271SOL    HW130446   1.388   2.684  12.048  2.5012 -1.4943 -0.8508
 6271SOL    HW230447   1.484   2.690  12.159  0.6011 -0.7891 -0.4635
 6272SOL     OW30448   1.535   0.810   2.378  0.6312  0.5202 -0.3179
 6272SOL    HW130449   1.626   0.782   2.378  0.5147  0.1406  0.6741
 6272SOL    HW230450   1.507   0.728   2.337 -1.9294  1.4756 -0.4843
 6273SOL     OW30451   1.259   1.014   8.906  0.8562 -0.2659 -0.7628
 6273SOL    HW130452   1.169   1.040   8.925  1.8864  0.3401  3.1692
 6273SOL    HW230453   1.259   0.919   8.905  1.7256 -0.2521 -2.1662
 6274SOL     OW30454   0.533   0.866   8.555 -0.4091 -0.4008 -0.0293
 6274SOL    HW130455   0.452   0.871   8.504 -0.1715 -1.2378 -0.4880
 6274SOL    HW230456   0.507   0.880   8.645 -0.2480 -0.5933  0.0473
 6275SOL     OW30457   2.199   2.624   8.430 -0.2420  0.1988 -0.2258
 6275SOL    HW130458   2.229   2.659   8.514 -0.4197 -2.0366  0.7740
 6275SOL    HW230459   2.156   2.540   8.449 -0.8455  0.2898 -1.2226
 6276SOL     OW30460   0.365   2.245   2.780 -0.5026  0.6892 -0.4557
 6276SOL    HW130461   0.289   2.302   2.769 -0.9260 -0.1798 -2.0618
 6276SOL    HW230462   0.371   2.229   2.874  1.4629 -2.2123 -1.0809
 6277SOL     OW30463   0.704   1.976   5.974  0.4690  0.0645 -0.1723
 6277SOL    HW130464   0.653   1.906   6.015 -1.2656  0.7791 -1.0897
 6277SOL    HW230465   0.747   1.922   5.907  0.9819 -0.1376  0.3248
 6278SOL     OW30466   2.462   3.364   4.020  0.0718 -0.0460  0.2461
 6278SOL    HW130467   2.404   3.324   3.954  0.7638  1.7246 -1.4468
 6278SOL    HW230468   2.552   3.346   3.992  0.0269 -2.2100  1.4784
 6279SOL     OW30469   1.636   0.690   1.912 -0.0641 -0.3351  0.0158
 6279SOL    HW130470   1.698   0.639   1.963  2.7369  2.8015 -0.2661
 6279SOL    HW230471   1.628   0.763   1.973 -3.0156 -0.3653 -0.2935
 6280SOL     OW30472   3.191   0.236   2.089  0.2553 -0.2891 -0.2996
 6280SOL    HW130473   3.231   0.246   2.175 -0.5780 -1.1250  0.1788
 6280SOL    HW230474   3.174   0.326   2.061  0.2281  0.4212  2.0328
 6281SOL     OW30475   0.711   2.354   4.988 -0.4798  0.0273 -0.2871
 6281SOL    HW130476   0.750   2.329   5.071 -0.2485  0.8599 -0.1424
 6281SOL    HW230477   0.679   2.443   4.998 -1.2407 -0.0084 -2.3295
 6282SOL     OW30478   2.819   2.863  10.458  0.2718  0.0426  0.3093
 6282SOL    HW130479   2.726   2.884  10.451  1.1595  4.2400  1.2866
 6282SOL    HW230480   2.850   2.846  10.369 -0.2552 -2.3718  0.5889
 6283SOL     OW30481   2.815   2.247   2.844 -0.2502  0.2502  0.7937
 6283SOL    HW130482   2.724   2.226   2.826 -0.2437  2.1031 -1.4765
 6283SOL    HW230483   2.847   2.167   2.885  0.2358 -0.3928 -0.8186
 6284SOL     OW30484   0.967   1.723   9.786  0.3042  1.1536 -0.0017
 6284SOL    HW130485   1.038   1.662   9.807 -1.1391 -1.5909 -3.2759
 6284SOL    HW230486   0.904   1.689   9.850  1.0823  2.0378  1.2359
 6285SOL     OW30487   4.679   3.523   9.707 -0.1576  0.5136  0.1354
 6285SOL    HW130488   0.019   3.554   9.661 -1.2205  4.9207  1.3189
 6285SOL    HW230489   4.707   3.433   9.727  1.6289  1.4456  1.7890
 6286SOL     OW30490   2.568   2.867  16.534 -0.1539 -0.3017 -0.2091
 6286SOL    HW130491   2.614   2.918  16.468 -0.5460  0.4460  0.1049
 6286SOL    HW230492   2.516   2.934  16.578  0.6039 -0.2661  0.6300
 6287SOL     OW30493   2.927   0.591  11.942 -0.4235 -0.6744 -0.0548
 6287SOL    HW130494   2.899   0.506  11.906  1.4705 -0.3469 -2.3123
 6287SOL    HW230495   2.971   0.628  11.865 -4.1402 -2.1848 -2.8883
 6288SOL     OW30496   1.588   0.305   4.515 -0.3600 -0.2995 -0.3669
 6288SOL    HW130497   1.501   0.301   4.474 -0.3204  2.1761 -0.6975
 6288SOL    HW230498   1.583   0.249   4.592 -1.0155  0.3131  0.0391
 6289SOL     OW30499   3.292   3.226  17.378  0.0608  0.8573  0.4993
 6289SOL    HW130500   3.292   3.166  17.452  1.9927 -1.0893 -1.0914
 6289SOL    HW230501   3.367   3.201  17.325  1.3680  2.4906  1.5747
 6290SOL     OW30502   4.540   2.557   7.492 -0.6276  0.5297  0.7020
 6290SOL    HW130503   4.508   2.638   7.532 -2.7246  0.6969 -1.3094
 6290SOL    HW230504   4.459   2.522   7.455  1.0462 -0.6937 -1.8247
 6291SOL     OW30505   2.829   4.445   1.346 -0.2656 -0.1294 -0.1674
 6291SOL    HW130506   2.837   4.484   1.433  2.8568 -0.6787 -0.2095
 6291SOL    HW230507   2.790   4.521   1.302 -1.5753  0.7011  2.4130
 6292SOL     OW30508   1.472   3.999  17.749  0.8074 -1.1076  0.1456
 6292SOL    HW130509   1.440   3.968   0.085 -0.5474 -1.4240 -0.4740
 6292SOL    HW230510   1.564   4.002   0.022  1.2401 -1.2296 -1.5947
 6293SOL     OW30511   1.259   2.099   1.646 -0.0182 -0.3093 -0.0998
 6293SOL    HW130512   1.243   2.124   1.555  2.3596 -0.2808 -0.5294
 6293SOL    HW230513   1.200   2.025   1.660  0.0657 -0.1190  1.2914
 6294SOL     OW30514   3.279   3.085   3.170 -0.1512 -0.1657  0.3489
 6294SOL    HW130515   3.237   3.163   3.135 -1.4235 -0.6672  0.7724
 6294SOL    HW230516   3.371   3.110   3.169 -0.2836  0.3345  0.7562
 6295SOL     OW30517   3.265   1.877  14.885  0.7499 -0.3412  0.6190
 6295SOL    HW130518   3.327   1.809  14.911 -0.8659 -1.6543  1.0391
 6295SOL    HW230519   3.287   1.956  14.935  0.3075  0.3398 -0.2377
 6296SOL     OW30520   1.029   3.427   3.597 -0.2002 -0.3010  0.5032
 6296SOL    HW130521   1.123   3.431   3.578 -0.4203  0.3654 -0.4359
 6296SOL    HW230522   1.028   3.377   3.679  0.3292 -0.6194  0.3176
 6297SOL     OW30523   4.110   3.630   7.038 -0.1756  0.8567 -0.0455
 6297SOL    HW130524   4.170   3.673   7.099  0.1014  0.0005  0.2968
 6297SOL    HW230525   4.048   3.583   7.094  1.3575  1.2473  1.9651
 6298SOL     OW30526   3.517   3.931   6.159  0.2606 -0.4331 -0.1250
 6298SOL    HW130527   3.470   3.987   6.096 -1.5797 -0.4613  1.2068
 6298SOL    HW230528   3.547   3.990   6.227  0.0425  1.0930 -1.3564
 6299SOL     OW30529   1.139   2.568   4.342 -0.4606  0.0426 -0.5059
 6299SOL    HW130530   1.151   2.612   4.258 -0.3878  2.0922  0.5772
 6299SOL    HW230531   1.217   2.513   4.342  0.0541  0.7643  0.2240
 6300SOL     OW30532   3.972   2.746   6.836  0.2893 -0.0349 -0.3461
 6300SOL    HW130533   4.044   2.806   6.815 -1.0805  1.6064 -0.3502
 6300SOL    HW230534   4.001   2.665   6.794  0.1007  0.4334 -1.3936
 6301SOL     OW30535   2.407   3.442   2.688 -0.5928  0.3607  0.6028
 6301SOL    HW130536   2.389   3.371   2.627 -0.5972  0.6443  0.2731
 6301SOL    HW230537   2.439   3.392   2.764 -0.5573 -1.0998 -0.3834
 6302SOL     OW30538   1.245   0.075   5.955 -0.4640  0.1307 -0.6036
 6302SOL    HW130539   1.186   0.136   6.000 -3.1340 -1.5294 -1.8108
 6302SOL    HW230540   1.231   0.097   5.863  1.3059 -0.9675 -1.1399
 6303SOL     OW30541   1.442   0.658  13.622 -0.2760 -0.5121 -0.5538
 6303SOL    HW130542   1.476   0.579  13.581  0.1590 -1.3233  1.3859
 6303SOL    HW230543   1.376   0.635  13.686  0.2871 -0.9352 -0.1199
 6304SOL     OW30544   2.321   0.864   1.203  0.1333 -0.3299 -0.1341
 6304SOL    HW130545   2.242   0.917   1.197  1.7780  2.2690  1.4802
 6304SOL    HW230546   2.281   0.777   1.204 -1.6191  0.4866  0.5821
 6305SOL     OW30547   0.466   0.765   2.770 -0.7717  0.3773  0.1392
 6305SOL    HW130548   0.533   0.822   2.806 -1.3150 -2.4121  5.5725
 6305SOL    HW230549   0.507   0.678   2.775  2.3757  1.8823  0.2264
 6306SOL     OW30550   2.943   1.016  11.095 -0.1063 -0.0291 -0.0492
 6306SOL    HW130551   2.953   0.923  11.075 -0.8687 -0.2949  0.8056
 6306SOL    HW230552   3.015   1.048  11.040 -0.6152  0.5863 -0.3541
 6307SOL     OW30553   0.335   0.504   1.365  0.5479  0.1165  0.0031
 6307SOL    HW130554   0.408   0.562   1.385  1.2831  0.5420 -3.8265
 6307SOL    HW230555   0.330   0.463   1.451 -1.4195  2.6343  1.0868
 6308SOL     OW30556   1.072   2.705   3.667 -0.2734 -0.1772  0.8387
 6308SOL    HW130557   0.988   2.710   3.712 -1.3049  0.0244 -1.0988
 6308SOL    HW230558   1.093   2.612   3.652  0.7580 -0.0110  1.3001
 6309SOL     OW30559   1.323   0.335  16.856  0.1934  0.0628 -0.4106
 6309SOL    HW130560   1.379   0.279  16.910 -0.5223  0.2843  0.5629
 6309SOL    HW230561   1.385   0.397  16.819  0.8014  0.8320  1.8742
 6310SOL     OW30562   3.884   0.619   8.293 -0.4373  0.5530 -0.0767
 6310SOL    HW130563   3.932   0.570   8.361 -0.1546  1.1787  0.1727
 6310SOL    HW230564   3.841   0.546   8.249  1.7930 -1.4084  0.9959
 6311SOL     OW30565   1.594   1.103  14.991 -0.4970 -0.2477 -0.4243
 6311SOL    HW130566   1.542   1.096  14.911 -0.9976 -1.9186  0.0312
 6311SOL    HW230567   1.534   1.075  15.060  0.0743 -1.2545 -0.3294
 6312SOL     OW30568   2.868   0.616   9.588 -0.2543 -0.3946  0.4200
 6312SOL    HW130569   2.790   0.596   9.536 -0.8980  1.5110  0.6586
 6312SOL    HW230570   2.883   0.704   9.554 -0.2959 -0.2790  0.7073
 6313SOL     OW30571   4.426   0.475   6.885  0.3832  0.0263 -1.1073
 6313SOL    HW130572   4.479   0.552   6.868  3.1336 -1.6576 -0.2136
 6313SOL    HW230573   4.468   0.421   6.818 -3.1061 -2.2033 -1.5348
 6314SOL     OW30574   3.718   0.286   2.024 -0.3516  0.5669  0.2304
 6314SOL    HW130575   3.690   0.255   1.937  0.4909 -0.4444  0.3310
 6314SOL    HW230576   3.637   0.324   2.058 -0.9023 -1.1919  0.8577
 6315SOL     OW30577   4.502   2.083   7.779  0.3796  0.5025 -0.1843
 6315SOL    HW130578   4.482   2.012   7.719 -0.3231  0.8229 -0.3229
 6315SOL    HW230579   4.435   2.149   7.761 -0.2876 -0.2692 -0.5073
 6316SOL     OW30580   1.520   0.545   7.982 -0.1956 -0.4738  0.1041
 6316SOL    HW130581   1.539   0.557   8.075  0.1889  0.5904 -0.1130
 6316SOL    HW230582   1.582   0.475   7.960  2.6674  1.6129  1.4561
 6317SOL     OW30583   3.262   4.572   4.719  0.3461 -0.6582  0.1356
 6317SOL    HW130584   3.264   4.598   4.627  0.3634  0.0778  0.3405
 6317SOL    HW230585   3.170   4.550   4.734  0.1380 -0.0577 -0.2513
 6318SOL     OW30586   3.315   2.704   1.982 -0.0955  0.3756 -0.7352
 6318SOL    HW130587   3.356   2.624   2.015 -1.0335 -0.6422 -2.0669
 6318SOL    HW230588   3.226   2.680   2.007  0.1725 -0.5986 -0.7179
 6319SOL     OW30589   3.371   3.175  17.667  0.1422  0.5682 -0.1719
 6319SOL    HW130590   3.357   3.191   0.011 -0.5284 -1.9094  0.1355
 6319SOL    HW230591   3.351   3.082  17.673 -2.5107  1.2091  1.2189
 6320SOL     OW30592   3.617   0.515   9.807  0.2336  0.0071 -0.4528
 6320SOL    HW130593   3.597   0.428   9.841  1.9862  0.2521  1.1974
 6320SOL    HW230594   3.580   0.576   9.871 -1.2438 -1.2224 -0.1312
 6321SOL     OW30595   0.709   0.783  13.236  0.3405  0.0259  0.2006
 6321SOL    HW130596   0.625   0.745  13.261 -0.9249  0.0030 -4.1053
 6321SOL    HW230597   0.691   0.874  13.213 -0.8009 -0.2610 -0.0085
 6322SOL     OW30598   2.924   3.012   5.174 -0.0867  0.1044 -0.2564
 6322SOL    HW130599   2.920   2.930   5.124  3.8619 -0.8704  0.9974
 6322SOL    HW230600   3.010   3.007   5.217 -0.7196 -1.8179  0.8031
 6323SOL     OW30601   1.237   0.932   5.143  0.4514 -0.3037  0.0781
 6323SOL    HW130602   1.240   0.899   5.053  0.0919 -0.1032 -0.0092
 6323SOL    HW230603   1.146   0.937   5.172  0.1064  0.2688 -1.1250
 6324SOL     OW30604   2.032   4.412   9.227 -0.1532  0.6497 -0.2618
 6324SOL    HW130605   1.950   4.401   9.178 -1.1599 -1.3273  1.8855
 6324SOL    HW230606   2.001   4.476   9.290 -1.1998 -1.0937  0.9996
 6325SOL     OW30607   0.002   3.417   2.337  0.3863 -0.4036  0.1184
 6325SOL    HW130608   0.097   3.424   2.334  0.2731  1.9676  2.5089
 6325SOL    HW230609   4.722   3.446   2.426  1.5017  0.5941  0.0088
 6326SOL     OW30610   0.433   3.995   3.628 -0.2785 -0.5588  0.0990
 6326SOL    HW130611   0.360   3.999   3.566 -0.4702 -2.6556  0.1881
 6326SOL    HW230612   0.478   4.076   3.605 -0.5579 -0.4396 -0.0320
 6327SOL     OW30613   2.024   3.631  14.810  0.1224  0.5610 -0.2834
 6327SOL    HW130614   1.973   3.553  14.832 -0.6959  0.9940 -0.6657
 6327SOL    HW230615   2.058   3.597  14.727  0.5920 -0.4542  0.3250
 6328SOL     OW30616   1.454   2.013  11.278 -0.0784  0.2299 -0.8127
 6328SOL    HW130617   1.491   2.068  11.347 -1.1853  0.7524 -0.6413
 6328SOL    HW230618   1.360   2.016  11.296 -0.1773 -0.0765 -1.2748
 6329SOL     OW30619   1.247   0.551  12.749  0.0279  0.0507  0.4988
 6329SOL    HW130620   1.223   0.518  12.836  0.3850  0.6672  0.8323
 6329SOL    HW230621   1.220   0.474  12.698  1.9146 -0.6061  0.4834
 6330SOL     OW30622   3.788   1.159   3.584  0.3417  0.2062  0.2566
 6330SOL    HW130623   3.741   1.082   3.551  1.6340  0.3964 -2.0254
 6330SOL    HW230624   3.807   1.134   3.674  0.5472  2.0941  0.7383
 6331SOL     OW30625   1.944   0.912   2.431 -0.1069  0.2961 -0.2884
 6331SOL    HW130626   1.891   0.992   2.440 -2.0496 -0.7518 -2.6744
 6331SOL    HW230627   2.024   0.939   2.386  1.0919 -1.6568  0.6557
 6332SOL     OW30628   1.909   1.617  14.893 -0.5077  0.1997  0.0102
 6332SOL    HW130629   1.888   1.539  14.842 -0.1139 -0.4293  0.7951
 6332SOL    HW230630   1.904   1.676  14.819 -0.3051 -0.6135 -0.6519
 6333SOL     OW30631   3.035   0.729   5.142  0.3912 -0.1087 -0.3485
 6333SOL    HW130632   3.007   0.755   5.230  2.7653  1.9367 -0.2089
 6333SOL    HW230633   3.010   0.808   5.093 -1.3023 -1.2512 -1.3180
 6334SOL     OW30634   3.623   2.108   2.765 -0.4021  0.3965  0.2664
 6334SOL    HW130635   3.567   2.147   2.832 -0.4667  1.6738 -0.5122
 6334SOL    HW230636   3.554   2.060   2.719  0.2783 -1.9178  1.7303
 6335SOL     OW30637   0.528   2.982   7.085  0.0102 -0.2785 -0.0658
 6335SOL    HW130638   0.568   2.967   7.000  0.3974 -1.8543  0.3993
 6335SOL    HW230639   0.500   3.073   7.077  0.4949 -0.1222  0.0239
 6336SOL     OW30640   2.987   4.455   2.006 -0.5525 -0.0875 -0.2005
 6336SOL    HW130641   3.053   4.461   1.937  1.6562 -0.3519  1.8755
 6336SOL    HW230642   2.906   4.442   1.956  0.4372 -1.2715 -1.5040
 6337SOL     OW30643   3.505   3.732  16.625  0.4223  0.7809 -0.1856
 6337SOL    HW130644   3.429   3.689  16.587  1.4690 -0.9115 -0.3694
 6337SOL    HW230645   3.570   3.726  16.555  0.6065  1.6348 -0.0947
 6338SOL     OW30646   2.344   1.659  15.842  0.2419  0.6568 -0.8909
 6338SOL    HW130647   2.269   1.672  15.900 -0.0673  1.3879 -1.4547
 6338SOL    HW230648   2.340   1.745  15.799  0.1829  1.2779  0.3296
 6339SOL     OW30649   1.352   2.792  12.500 -0.3665  0.0802  0.2283
 6339SOL    HW130650   1.281   2.768  12.441 -1.8336  2.4183  1.0314
 6339SOL    HW230651   1.296   2.847  12.555  0.0803 -0.7335  1.5014
 6340SOL     OW30652   1.853   4.689  12.892  0.3593  0.0278 -0.4280
 6340SOL    HW130653   1.941   4.671  12.925  0.2232  0.5869  0.2607
 6340SOL    HW230654   1.827   0.027  12.946 -0.3377 -0.1283 -0.5500
 6341SOL     OW30655   2.046   4.609   4.651  0.0612  0.2063  0.0405
 6341SOL    HW130656   2.117   4.565   4.699  0.0932  0.8924  0.6253
 6341SOL    HW230657   1.984   4.612   4.724  0.5013 -1.4748  0.4688
 6342SOL     OW30658   0.596   2.926   6.834 -0.1602  0.2904  0.4264
 6342SOL    HW130659   0.661   2.857   6.819 -0.4986 -0.4324  2.2848
 6342SOL    HW230660   0.564   2.934   6.744  2.5676  3.6240 -0.2420
 6343SOL     OW30661   1.688   0.355   9.498 -0.4658  0.2065  0.4379
 6343SOL    HW130662   1.766   0.393   9.539 -1.0088  0.0592  1.5963
 6343SOL    HW230663   1.718   0.268   9.472  0.5836  1.8731 -3.9203
 6344SOL     OW30664   0.113   1.265  16.735  0.2736  0.5588 -1.1767
 6344SOL    HW130665   0.058   1.338  16.708 -0.5283  0.9045  1.4681
 6344SOL    HW230666   0.140   1.245  16.645  1.6888  0.6129 -0.7725
 6345SOL     OW30667   2.260   1.038  15.374 -0.2125  0.5759  0.2653
 6345SOL    HW130668   2.344   1.075  15.402 -0.5215  0.3816  1.4383
 6345SOL    HW230669   2.212   1.052  15.456 -0.0254  1.0574  0.2930
 6346SOL     OW30670   3.930   0.293   7.750 -0.4077  0.2467 -0.5871
 6346SOL    HW130671   4.025   0.285   7.759 -0.4153 -1.5112 -1.9466
 6346SOL    HW230672   3.904   0.363   7.810  1.8765 -0.0603  0.7631
 6347SOL     OW30673   2.773   1.130   5.949 -0.0909  0.5785 -0.0546
 6347SOL    HW130674   2.830   1.177   5.889 -0.3404 -0.0936 -0.8353
 6347SOL    HW230675   2.790   1.173   6.032 -1.3045  0.3324  0.3273
 6348SOL     OW30676   0.490   0.776   7.770 -0.4674  0.0615 -0.0042
 6348SOL    HW130677   0.494   0.727   7.687  0.9874 -0.6668  0.4873
 6348SOL    HW230678   0.570   0.828   7.765  1.0177 -2.2341 -0.3390
 6349SOL     OW30679   3.962   2.912   9.713 -0.3621 -0.2062 -0.0138
 6349SOL    HW130680   3.962   2.868   9.798  0.0735  0.4843  0.3424
 6349SOL    HW230681   4.050   2.892   9.682 -0.9085 -0.3338 -1.4628
 6350SOL     OW30682   2.294   0.215   8.221  0.8051 -0.2039 -0.0438
 6350SOL    HW130683   2.279   0.185   8.311 -2.5443  0.0389 -0.5299
 6350SOL    HW230684   2.216   0.177   8.179 -0.0278 -0.1840  1.4547
 6351SOL     OW30685   0.656   1.042   4.069  0.3906  0.2431  0.2074
 6351SOL    HW130686   0.630   1.126   4.029  1.5545  0.1126 -0.8311
 6351SOL    HW230687   0.570   1.001   4.074  1.0227 -0.8961  1.3357
 6352SOL     OW30688   0.388   3.669   1.931 -0.0576  0.0760  0.3900
 6352SOL    HW130689   0.329   3.693   2.003  0.0726  0.5917  0.3253
 6352SOL    HW230690   0.394   3.752   1.884  0.4240  0.2739  0.8082
 6353SOL     OW30691   4.627   1.709   7.610 -0.3335 -0.3903  0.1682
 6353SOL    HW130692   4.584   1.776   7.664 -2.1427 -2.0579  0.7914
 6353SOL    HW230693   4.716   1.703   7.646  1.1342  1.2344 -3.1757
 6354SOL     OW30694   2.394   1.699   9.547 -0.2158 -0.2473 -0.0090
 6354SOL    HW130695   2.385   1.786   9.587 -0.4047 -0.0367 -0.5062
 6354SOL    HW230696   2.359   1.724   9.461  0.6477  2.2533  0.3657
 6355SOL     OW30697   3.598   1.496   6.160 -0.2308  0.7358 -0.5289
 6355SOL    HW130698   3.530   1.561   6.177 -0.4276  0.0154  1.4772
 6355SOL    HW230699   3.621   1.494   6.253 -0.5939  0.1892 -0.4509
 6356SOL     OW30700   4.473   2.284   1.449 -0.1885  0.2454 -0.5710
 6356SOL    HW130701   4.506   2.285   1.539  0.9440  1.3190 -1.0045
 6356SOL    HW230702   4.398   2.225   1.463  0.6456 -0.8880 -0.8738
 6357SOL     OW30703   4.732   2.434   3.091 -0.0588  0.0327 -0.1026
 6357SOL    HW130704   4.639   2.457   3.092  0.4708  2.1370  1.9072
 6357SOL    HW230705   0.027   2.466   3.175  0.1037 -1.0469  0.2385
 6358SOL     OW30706   1.335   2.147   9.746  0.4921  0.0213  0.2834
 6358SOL    HW130707   1.289   2.176   9.667 -0.6892  0.7846  1.2478
 6358SOL    HW230708   1.423   2.185   9.736 -0.5102  1.9943 -1.1088
 6359SOL     OW30709   4.442   2.879   9.873  0.0923 -0.2906 -0.1920
 6359SOL    HW130710   4.468   2.970   9.863  1.2556 -0.4308  1.4952
 6359SOL    HW230711   4.529   2.840   9.868  0.3764  0.3446 -0.1942
 6360SOL     OW30712   4.607   2.498  14.073 -0.2722  0.2349 -0.0357
 6360SOL    HW130713   4.685   2.443  14.073 -0.3033  0.1964  0.6881
 6360SOL    HW230714   4.550   2.463  14.005  0.2927 -1.5875  0.4410
 6361SOL     OW30715   4.265   3.232   8.649 -0.5159  0.1631  0.1095
 6361SOL    HW130716   4.323   3.198   8.716  2.4442  1.1909 -1.8882
 6361SOL    HW230717   4.326   3.299   8.617 -0.6573  0.4777  0.5006
 6362SOL     OW30718   1.482   0.150   6.550 -0.6360 -0.0164  0.1060
 6362SOL    HW130719   1.562   0.150   6.497 -2.8184  0.2420 -3.1977
 6362SOL    HW230720   1.492   0.239   6.582  2.5192 -0.2486 -0.2870
 6363SOL     OW30721   0.381   2.225   6.279  0.4199 -0.2661 -0.1135
 6363SOL    HW130722   0.315   2.281   6.238  0.3500  1.6232  2.5898
 6363SOL    HW230723   0.425   2.286   6.339  1.1985 -0.4336 -0.5142
 6364SOL     OW30724   2.419   0.881   2.920 -0.4757  0.1148  0.2942
 6364SOL    HW130725   2.391   0.972   2.930 -1.7177 -0.2661  0.2360
 6364SOL    HW230726   2.513   0.891   2.938 -0.4347 -2.1080  1.2633
 6365SOL     OW30727   0.406   0.015  10.379 -0.5341 -0.6503  0.5542
 6365SOL    HW130728   0.380   0.106  10.363 -0.8931 -0.9581 -0.6077
 6365SOL    HW230729   0.392   0.007  10.474  1.8550  0.8843  1.0304
 6366SOL     OW30730   0.029   1.905   4.698  0.3612 -0.3482 -0.2201
 6366SOL    HW130731   0.071   1.880   4.780  0.2181 -1.9559 -0.6413
 6366SOL    HW230732   4.696   1.842   4.691 -0.0950  0.1954 -0.4411
 6367SOL     OW30733   2.093   3.259  12.796 -0.3045  0.3909 -0.0726
 6367SOL    HW130734   2.042   3.329  12.755 -0.4267 -0.2134 -0.9521
 6367SOL    HW230735   2.074   3.186  12.737 -2.1533 -0.6458  1.7640
 6368SOL     OW30736   1.740   1.826   1.591 -0.2466  0.5011  0.3642
 6368SOL    HW130737   1.835   1.833   1.604 -0.4706  2.7263  0.9298
 6368SOL    HW230738   1.708   1.780   1.669  1.1175 -1.8234 -0.4649
 6369SOL     OW30739   2.820   1.598   0.269 -0.2386 -0.3096  0.0930
 6369SOL    HW130740   2.836   1.639   0.184 -0.5295 -0.4104 -0.0117
 6369SOL    HW230741   2.773   1.673   0.307  1.5232  0.2638  1.1089
 6370SOL     OW30742   4.433   0.025   2.688  0.2856  0.0453 -0.5155
 6370SOL    HW130743   4.379   0.094   2.648 -0.7029 -0.7166 -0.5007
 6370SOL    HW230744   4.515   0.072   2.700 -0.3417  0.8763  0.4699
 6371SOL     OW30745   1.888   0.865   6.344 -0.0453  0.6970 -0.1128
 6371SOL    HW130746   1.878   0.889   6.252 -0.8486  0.8792  0.0223
 6371SOL    HW230747   1.947   0.938   6.363 -1.1316  0.3605  4.4992
 6372SOL     OW30748   2.358   0.106  11.398 -0.1290 -0.4804 -0.3429
 6372SOL    HW130749   2.375   0.036  11.461 -0.0689 -0.9867 -0.9176
 6372SOL    HW230750   2.434   0.163  11.404 -1.2467  0.4870  4.3599
 6373SOL     OW30751   0.516   0.486   6.942  0.7061 -0.2206  0.1268
 6373SOL    HW130752   0.552   0.518   6.860 -1.1513  1.9814  0.1615
 6373SOL    HW230753   0.442   0.542   6.967  1.5408  1.1313 -0.4680
 6374SOL     OW30754   1.113   4.408   6.571  0.1359  0.0921 -0.0419
 6374SOL    HW130755   1.045   4.358   6.527 -0.0951  0.1696  0.2279
 6374SOL    HW230756   1.196   4.361   6.559  1.0239  1.6537 -0.0698
 6375SOL     OW30757   3.112   1.414   0.848 -0.2060 -0.0649 -0.6979
 6375SOL    HW130758   3.114   1.508   0.829  0.6517 -0.2190 -1.4131
 6375SOL    HW230759   3.059   1.408   0.927  0.2236 -0.9038 -0.4782
 6376SOL     OW30760   3.574   3.356  15.833 -0.6136 -0.6500  0.2781
 6376SOL    HW130761   3.482   3.381  15.826 -0.6326 -1.1479 -1.1836
 6376SOL    HW230762   3.575   3.325  15.924  0.6570 -1.9516 -0.1761
 6377SOL     OW30763   2.044   0.992   9.263 -0.0197  0.0628  0.1156
 6377SOL    HW130764   2.020   1.062   9.325 -1.0068  0.4382 -0.6945
 6377SOL    HW230765   1.987   0.919   9.286  1.1894 -1.0137 -0.3089
 6378SOL     OW30766   1.138   2.996   6.963  0.2477 -0.1145  0.6135
 6378SOL    HW130767   1.063   2.966   6.913  1.3966 -1.8612 -0.0873
 6378SOL    HW230768   1.202   3.013   6.893 -0.2512 -0.8565 -0.0158
 6379SOL     OW30769   1.650   1.046   3.636 -0.2324  0.2524  0.0547
 6379SOL    HW130770   1.741   1.067   3.658  0.3841 -2.8584  0.5168
 6379SOL    HW230771   1.612   1.006   3.714  1.1085 -1.4545 -0.1531
 6380SOL     OW30772   0.565   3.935  12.781 -0.1326  0.3385 -0.1362
 6380SOL    HW130773   0.502   3.925  12.709  0.0900  0.7803 -0.3897
 6380SOL    HW230774   0.567   4.030  12.770 -0.7886  0.2883 -0.7141
 6381SOL     OW30775   2.505   0.166   5.719 -0.9527  1.0469 -0.1326
 6381SOL    HW130776   2.517   0.084   5.767 -1.7898  1.0008 -0.0122
 6381SOL    HW230777   2.592   0.171   5.678 -0.3340 -0.4251  1.0178
 6382SOL     OW30778   3.654   3.385   8.742 -0.2079 -0.3742  0.3469
 6382SOL    HW130779   3.716   3.341   8.800 -0.0115 -0.7753 -0.1685
 6382SOL    HW230780   3.583   3.325   8.766  1.6403 -1.7772  2.2976
 6383SOL     OW30781   0.341   3.042   2.428 -0.2191 -0.6328  0.4294
 6383SOL    HW130782   0.380   2.971   2.478  0.8955 -0.1156  0.3009
 6383SOL    HW230783   0.328   3.108   2.496 -1.0924  1.8202 -2.1179
 6384SOL     OW30784   2.408   2.017   8.953  0.1632 -0.0307 -0.5654
 6384SOL    HW130785   2.496   1.978   8.949  0.5596  0.8229 -0.2960
 6384SOL    HW230786   2.355   1.938   8.944 -0.7494  0.3173  1.6621
 6385SOL     OW30787   1.800   3.979  17.073 -0.1843 -0.1913  0.2381
 6385SOL    HW130788   1.803   3.957  17.166  0.2631 -1.6854 -0.1364
 6385SOL    HW230789   1.706   3.993  17.062  0.3086  2.2347 -0.9018
 6386SOL     OW30790   2.354   2.920   6.497 -0.0223 -0.2472  0.0435
 6386SOL    HW130791   2.371   3.011   6.520 -0.0425 -0.3885  0.6020
 6386SOL    HW230792   2.287   2.893   6.560 -0.3203 -0.2647 -0.2782
 6387SOL     OW30793   2.590   3.549   7.100 -0.4189  0.5919  0.1424
 6387SOL    HW130794   2.569   3.564   7.008 -0.5727  0.6117  0.1803
 6387SOL    HW230795   2.652   3.617   7.124 -0.3993  0.9456 -0.9340
 6388SOL     OW30796   1.787   3.087   8.614 -0.2565 -0.3048 -0.2021
 6388SOL    HW130797   1.844   3.099   8.690 -0.7250 -0.4041  0.1636
 6388SOL    HW230798   1.785   3.172   8.569 -0.4526  0.4639  1.2770
 6389SOL     OW30799   3.067   2.244   3.636 -0.3132 -0.1830  0.1263
 6389SOL    HW130800   3.008   2.307   3.678 -1.9910 -1.7548  0.1706
 6389SOL    HW230801   3.024   2.158   3.637  0.1049 -0.4116 -1.9293
 6390SOL     OW30802   2.883   1.187   2.437  0.0103 -0.7505  0.3877
 6390SOL    HW130803   2.940   1.202   2.512  0.6565 -0.4027 -0.1661
 6390SOL    HW230804   2.805   1.144   2.472 -0.7839  1.1621  0.9344
 6391SOL     OW30805   3.091   3.672  16.702  0.0802  0.1593  0.2920
 6391SOL    HW130806   3.160   3.674  16.769  0.5631  0.0276 -0.2063
 6391SOL    HW230807   3.149   3.650  16.630 -1.6066  0.0283 -1.0228
 6392SOL     OW30808   1.482   2.440   5.550  0.2707  0.2225  0.0944
 6392SOL    HW130809   1.417   2.428   5.619  0.2698 -0.0178  0.0491
 6392SOL    HW230810   1.493   2.347   5.531  0.5827  0.1314  0.7172
 6393SOL     OW30811   3.770   3.054   8.060  0.1960 -0.7320 -0.3371
 6393SOL    HW130812   3.841   3.072   8.122 -0.5620  2.0351 -0.2890
 6393SOL    HW230813   3.784   3.125   7.998  1.5691 -2.0177 -1.5083
 6394SOL     OW30814   2.436   2.317   1.085  0.3549 -0.2580 -0.1156
 6394SOL    HW130815   2.463   2.287   0.998 -4.2986  1.0550 -2.0239
 6394SOL    HW230816   2.509   2.377   1.099  0.9799 -0.3111 -3.2231
 6395SOL     OW30817   4.709   2.178   7.293  0.3718  0.5752  0.5648
 6395SOL    HW130818   4.664   2.178   7.377  0.3358  1.7464  0.5425
 6395SOL    HW230819   4.711   2.272   7.275 -0.7269  0.9071  2.2978
 6396SOL     OW30820   1.417   1.881   6.651 -0.1289 -0.5514  0.4274
 6396SOL    HW130821   1.425   1.802   6.705 -0.5947 -0.0374  1.2317
 6396SOL    HW230822   1.487   1.854   6.590  0.0216  1.8969 -0.4690
 6397SOL     OW30823   3.037   1.247   2.647 -0.2957  0.4105 -0.0143
 6397SOL    HW130824   3.123   1.204   2.649  0.2638  1.5615  0.3798
 6397SOL    HW230825   3.016   1.253   2.740 -1.4439 -1.6270 -0.1386
 6398SOL     OW30826   4.491   0.975   6.167 -0.0646 -0.2978 -0.1229
 6398SOL    HW130827   4.441   1.044   6.124 -1.6180 -1.7814 -0.6994
 6398SOL    HW230828   4.514   1.025   6.246 -0.5269  1.6982 -1.2542
 6399SOL     OW30829   1.375   3.971   2.186  0.5003 -0.0076 -0.0808
 6399SOL    HW130830   1.468   3.979   2.164  0.6152 -0.3065  0.2835
 6399SOL    HW230831   1.325   4.019   2.121 -2.1703 -1.5745  0.8306
 6400SOL     OW30832   1.741   2.646   2.177 -0.4229  0.0173 -0.1158
 6400SOL    HW130833   1.677   2.599   2.230 -0.3138 -2.6473 -2.3752
 6400SOL    HW230834   1.791   2.579   2.131 -0.9678  0.2738 -1.0719
 6401SOL     OW30835   2.550   4.675   1.417 -0.6008  0.3284  1.1910
 6401SOL    HW130836   2.484   4.605   1.421 -0.6630  0.2328 -1.5740
 6401SOL    HW230837   2.612   4.642   1.352 -3.3144 -0.9783 -0.7401
 6402SOL     OW30838   0.414   4.306   9.018  0.3332 -0.7245 -0.0565
 6402SOL    HW130839   0.385   4.394   8.996 -0.0343 -0.1285  2.8814
 6402SOL    HW230840   0.359   4.254   8.959  0.1332 -1.0941  0.4492
 6403SOL     OW30841   0.768   3.975  15.877  0.1110 -0.2614  0.2587
 6403SOL    HW130842   0.831   4.011  15.940  0.8041  1.1096 -1.2418
 6403SOL    HW230843   0.705   3.926  15.931 -2.3483 -0.0221 -2.4110
 6404SOL     OW30844   1.355   4.599   6.085  0.4839  0.4293  0.7354
 6404SOL    HW130845   1.303   4.670   6.047  1.0110 -0.1252 -1.0463
 6404SOL    HW230846   1.333   4.527   6.026 -0.3249  3.3350 -2.4972
 6405SOL     OW30847   0.922   4.498   8.024  0.1736  0.1570  0.0760
 6405SOL    HW130848   0.987   4.481   7.956  0.9669 -1.1765  1.1788
 6405SOL    HW230849   0.873   4.417   8.018 -0.1119  0.1545  2.3253
 6406SOL     OW30850   1.928   4.619   2.211 -0.5414 -1.1248 -0.6719
 6406SOL    HW130851   2.007   4.614   2.158  0.2836 -0.3164  0.4918
 6406SOL    HW230852   1.892   4.706   2.191  1.7912 -0.1140 -0.4437
 6407SOL     OW30853   1.720   1.256   1.848  0.4212  0.1792 -0.0550
 6407SOL    HW130854   1.773   1.333   1.828 -0.1334 -0.0015 -2.2378
 6407SOL    HW230855   1.745   1.222   1.934  1.9718  0.9529 -0.1991
 6408SOL     OW30856   1.976   0.126   2.047 -1.0368 -0.3826  0.5702
 6408SOL    HW130857   1.971   0.060   1.978  0.5225  1.1997 -1.0503
 6408SOL    HW230858   2.057   0.166   2.016  0.4450 -2.5020  1.6962
 6409SOL     OW30859   4.646   3.232   6.992 -0.2192 -0.2420 -0.3021
 6409SOL    HW130860   4.562   3.243   6.948 -0.2669  0.1027 -0.1209
 6409SOL    HW230861   4.651   3.314   7.042  0.5699 -0.5321  0.0991
 6410SOL     OW30862   3.537   2.447  13.849  0.1880  0.0098  0.1853
 6410SOL    HW130863   3.585   2.517  13.804  1.0292 -0.3591  0.5157
 6410SOL    HW230864   3.598   2.418  13.917 -0.5547 -2.7267 -0.2865
 6411SOL     OW30865   2.644   2.449   6.001  0.1893 -0.3183  0.1376
 6411SOL    HW130866   2.555   2.482   5.992  0.3345  0.1569  0.4656
 6411SOL    HW230867   2.668   2.422   5.912 -0.2248  0.7658 -0.3002
 6412SOL     OW30868   1.019   0.925   0.177 -0.1087  0.1784  0.1114
 6412SOL    HW130869   0.928   0.941   0.201  0.0419  3.7523 -1.6821
 6412SOL    HW230870   1.025   0.829   0.181  3.5230  0.3200 -2.4823
 6413SOL     OW30871   0.602   1.165  11.521  0.0346  0.1978 -0.2527
 6413SOL    HW130872   0.689   1.183  11.486  0.2005  0.0265  0.0716
 6413SOL    HW230873   0.561   1.115  11.450  0.2584 -0.9176  0.3987
 6414SOL     OW30874   1.188   4.686   7.037  0.6023  0.3552  0.3672
 6414SOL    HW130875   1.283   4.676   7.025  0.6607  1.3311 -0.0250
 6414SOL    HW230876   1.178   0.042   7.022  0.2041  0.1321 -0.8321
 6415SOL     OW30877   1.006   1.127   8.935  0.5998  0.1847  0.3433
 6415SOL    HW130878   0.958   1.192   8.987  0.7065  0.6936 -0.1891
 6415SOL    HW230879   1.009   1.179   8.854  0.0059 -2.8635 -1.6494
 6416SOL     OW30880   0.862   4.320  12.380  0.0698  0.1244  0.2637
 6416SOL    HW130881   0.779   4.275  12.393 -1.3145  2.0974 -1.7159
 6416SOL    HW230882   0.865   4.359  12.467 -1.1460  0.7641  0.0135
 6417SOL     OW30883   3.460   1.021  10.335  0.3417 -0.5329 -0.6031
 6417SOL    HW130884   3.416   0.987  10.413  2.0848  0.0298  0.6146
 6417SOL    HW230885   3.429   0.949  10.280  0.7451 -1.2693  0.1433
 6418SOL     OW30886   1.690   3.231   0.060  0.0184  0.0398  0.6214
 6418SOL    HW130887   1.785   3.237   0.061  0.1289 -1.2854 -1.5320
 6418SOL    HW230888   1.683   3.182  17.727 -0.4209 -0.0597  0.7155
 6419SOL     OW30889   2.805   2.070   8.031 -0.1505 -0.1229 -0.4467
 6419SOL    HW130890   2.877   2.051   8.092 -0.8774 -1.4061  0.0257
 6419SOL    HW230891   2.814   2.161   8.003  1.0705 -0.4585 -1.1454
 6420SOL     OW30892   3.786   1.401   5.042  0.2164 -0.3534  0.2284
 6420SOL    HW130893   3.815   1.339   5.109  1.0662 -0.1707  0.0309
 6420SOL    HW230894   3.814   1.471   5.101  0.7209 -0.3174 -0.0463
 6421SOL     OW30895   2.206   4.543   3.333 -0.1160  0.9052  0.1640
 6421SOL    HW130896   2.162   4.578   3.255  0.9847 -0.3734 -1.0416
 6421SOL    HW230897   2.139   4.559   3.399  0.1126  0.7793  0.4243
 6422SOL     OW30898   4.046   4.617   0.172 -0.5223 -0.0409  0.0088
 6422SOL    HW130899   4.009   4.652   0.090 -0.2474  0.2479  0.0057
 6422SOL    HW230900   3.984   4.550   0.199  0.1559 -0.4568  0.5144
 6423SOL     OW30901   0.423   4.099  13.851 -0.2385  0.6540  0.4570
 6423SOL    HW130902   0.510   4.107  13.890 -0.0794  1.0376  0.0142
 6423SOL    HW230903   0.454   4.123  13.764  2.2652  0.3048  1.2544
 6424SOL     OW30904   3.918   3.515   7.822  0.2554  0.8533 -0.3452
 6424SOL    HW130905   3.969   3.500   7.901 -0.1244 -0.9910 -0.4424
 6424SOL    HW230906   3.843   3.561   7.860 -0.6776 -0.1780 -0.9269
 6425SOL     OW30907   2.020   3.775   0.789 -0.0478 -0.1500 -0.1151
 6425SOL    HW130908   2.073   3.778   0.869 -0.8593 -1.6617  0.4816
 6425SOL    HW230909   1.966   3.853   0.800  1.2037  1.1570 -3.2771
 6426SOL     OW30910   1.391   3.607   9.608  0.0705 -0.2265 -0.2213
 6426SOL    HW130911   1.451   3.681   9.602 -0.7881  0.1651 -3.5363
 6426SOL    HW230912   1.458   3.541   9.626  0.9568  0.9609  0.8380
 6427SOL     OW30913   0.530   3.960   8.015 -0.1547  0.4782  0.3450
 6427SOL    HW130914   0.543   4.042   7.968  0.7592  0.7913  1.1358
 6427SOL    HW230915   0.485   3.993   8.093 -0.3433  0.3556  0.2877
 6428SOL     OW30916   0.555   0.596  13.634 -0.1441  0.2653  0.2533
 6428SOL    HW130917   0.529   0.688  13.639 -2.9622 -0.3668 -2.3767
 6428SOL    HW230918   0.647   0.595  13.659  0.3661 -2.6041 -1.6898
 6429SOL     OW30919   1.090   1.550   9.928 -0.2729  0.0446  0.2490
 6429SOL    HW130920   1.152   1.540  10.000  0.8220  1.4768 -0.4827
 6429SOL    HW230921   1.068   1.459   9.910  0.7114  0.1076 -1.2736
 6430SOL     OW30922   4.149   4.077   2.159 -0.1757 -0.7087  0.2498
 6430SOL    HW130923   4.133   3.992   2.199  1.0901 -1.0046  0.1394
 6430SOL    HW230924   4.068   4.124   2.179  0.5242  0.5078  0.2298
 6431SOL     OW30925   3.750   2.182   7.632 -0.1515 -0.1237 -0.1274
 6431SOL    HW130926   3.790   2.212   7.550 -0.7652 -0.3153 -0.4906
 6431SOL    HW230927   3.687   2.116   7.605 -2.7292  1.2510  2.4912
 6432SOL     OW30928   3.196   2.896   5.581 -0.1275  0.0158  0.1272
 6432SOL    HW130929   3.138   2.826   5.612  0.5852  0.1869  1.8717
 6432SOL    HW230930   3.143   2.975   5.594  0.7956  0.8768 -1.3816
 6433SOL     OW30931   2.287   2.715   6.341 -0.7232  0.3339 -0.4528
 6433SOL    HW130932   2.358   2.713   6.277 -0.0850  2.6924  0.2089
 6433SOL    HW230933   2.325   2.785   6.393  1.1937  0.1070 -1.5354
 6434SOL     OW30934   0.380   0.744   3.119  0.0445  0.3809  0.7856
 6434SOL    HW130935   0.352   0.694   3.042 -1.0732  0.8772  0.8724
 6434SOL    HW230936   0.352   0.675   3.178  0.6626 -0.8545 -0.3704
 6435SOL     OW30937   1.352   3.031   1.783 -0.1596  0.1218  0.2938
 6435SOL    HW130938   1.390   2.958   1.734  1.6749  1.8872 -0.9260
 6435SOL    HW230939   1.272   3.041   1.731  0.3765  2.0479 -0.1720
 6436SOL     OW30940   1.815   1.410   3.723 -0.4476 -0.1877 -0.0997
 6436SOL    HW130941   1.820   1.479   3.789  1.5103 -0.6885  0.2951
 6436SOL    HW230942   1.909   1.401   3.707 -0.2527  0.1111  0.8588
 6437SOL     OW30943   3.752   2.664  16.227 -0.2086 -0.0935 -0.4459
 6437SOL    HW130944   3.715   2.725  16.291  1.8191  0.2027  0.4326
 6437SOL    HW230945   3.843   2.685  16.207  0.0401 -0.3028  0.5009
 6438SOL     OW30946   4.059   1.367   7.780 -0.3748  0.6736  0.3367
 6438SOL    HW130947   4.067   1.272   7.768 -0.8786  0.7286 -0.4236
 6438SOL    HW230948   4.151   1.387   7.795  0.4047 -2.1381 -0.6221
 6439SOL     OW30949   0.521   0.549   2.280  0.0803 -0.1067  0.6063
 6439SOL    HW130950   0.467   0.484   2.324 -2.5371  1.5411 -0.1832
 6439SOL    HW230951   0.598   0.552   2.337  1.3165 -0.6533 -1.0202
 6440SOL     OW30952   2.724   3.291   5.723 -0.4091  0.1279 -0.0127
 6440SOL    HW130953   2.740   3.197   5.717 -1.5117 -0.1688  1.4808
 6440SOL    HW230954   2.628   3.295   5.728 -0.3547  1.7710 -0.2348
 6441SOL     OW30955   2.313   1.529   3.027 -0.1567 -0.4523  0.2376
 6441SOL    HW130956   2.299   1.483   2.944  3.0447  0.4251 -0.7827
 6441SOL    HW230957   2.252   1.602   3.017  0.3013  0.6069  5.2634
 6442SOL     OW30958   2.432   0.944   2.651 -0.3894  0.6631 -0.2669
 6442SOL    HW130959   2.427   0.933   2.746 -0.8078  0.8304 -0.2659
 6442SOL    HW230960   2.442   0.858   2.611 -1.4610 -0.4752  1.9723
 6443SOL     OW30961   2.025   2.909   8.111  0.3390  0.0859  0.5053
 6443SOL    HW130962   2.088   2.913   8.039 -0.8339 -0.3433 -0.5303
 6443SOL    HW230963   1.970   2.982   8.082  0.4455  0.5268  1.4162
 6444SOL     OW30964   1.278   3.458   5.133 -0.1004  0.3120  0.1393
 6444SOL    HW130965   1.356   3.437   5.184 -1.1666 -1.8185  0.9166
 6444SOL    HW230966   1.278   3.377   5.082 -1.9441  0.5582 -0.2639
 6445SOL     OW30967   2.086   4.506  12.971 -0.0183  0.7771 -0.3052
 6445SOL    HW130968   2.140   4.453  13.030 -1.4814 -0.5223 -0.1344
 6445SOL    HW230969   2.146   4.502  12.897 -2.9096 -1.1337 -2.5768
 6446SOL     OW30970   1.675   0.324   7.085 -0.0431 -0.0758  0.2093
 6446SOL    HW130971   1.716   0.390   7.029  0.4439  0.3671  1.0865
 6446SOL    HW230972   1.648   0.378   7.160  0.3574  1.7263 -0.9413
 6447SOL     OW30973   2.144   4.677   3.049  0.0267  0.4252  0.3380
 6447SOL    HW130974   2.183   4.733   3.117 -0.5445  1.3875 -0.1215
 6447SOL    HW230975   2.141   0.006   2.980 -2.6749 -0.3942 -0.3023
 6448SOL     OW30976   1.656   3.874   0.694  0.2256  0.1768 -0.2817
 6448SOL    HW130977   1.708   3.863   0.614  1.5191 -2.4940  0.9422
 6448SOL    HW230978   1.619   3.786   0.697  0.3147  0.1213 -0.7200
 6449SOL     OW30979   1.381   4.143   1.076 -0.2292  0.5814  0.3534
 6449SOL    HW130980   1.430   4.073   1.119 -1.9292 -0.7406  0.1424
 6449SOL    HW230981   1.304   4.091   1.053 -0.3162  1.2114 -0.8325
 6450SOL     OW30982   2.283   0.411   6.292  0.3970 -0.1980 -0.3556
 6450SOL    HW130983   2.273   0.357   6.214  2.0385  1.6606 -1.8601
 6450SOL    HW230984   2.244   0.491   6.259  0.5654  0.3800  0.8349
 6451SOL     OW30985   3.158   0.697   3.535  0.5536  0.2656 -0.2520
 6451SOL    HW130986   3.166   0.727   3.625 -3.5152  1.3190 -0.2367
 6451SOL    HW230987   3.215   0.620   3.529  0.1425  0.0981 -2.2063
 6452SOL     OW30988   3.414   4.232   7.452 -0.3324 -0.2461 -0.2823
 6452SOL    HW130989   3.472   4.195   7.518 -2.4051 -0.8006  1.2420
 6452SOL    HW230990   3.460   4.224   7.368 -0.7915 -1.0680 -0.4561
 6453SOL     OW30991   3.951   4.177   0.436  0.6025  0.0774  0.1366
 6453SOL    HW130992   3.910   4.118   0.500  0.3310  0.2282  0.1047
 6453SOL    HW230993   3.994   4.112   0.382  1.0626  0.1709  0.3942
 6454SOL     OW30994   1.060   0.461   1.284 -0.3720  1.1518  0.5236
 6454SOL    HW130995   0.973   0.482   1.319  0.2977  0.7931  2.3833
 6454SOL    HW230996   1.084   0.387   1.339 -2.1144 -0.3061 -0.6788
 6455SOL     OW30997   0.275   2.412   2.141 -0.1620 -0.6219  0.1319
 6455SOL    HW130998   0.265   2.468   2.217 -1.3680 -3.0300  1.7562
 6455SOL    HW230999   0.205   2.444   2.085 -0.0303  3.7383  2.4840
 6456SOL     OW31000   4.347   3.429   4.452 -0.3284  0.1659  0.1302
 6456SOL    HW131001   4.254   3.436   4.431 -0.5129 -1.1568  0.5136
 6456SOL    HW231002   4.386   3.420   4.365  1.4484 -0.7939  1.0302
 6457SOL     OW31003   2.294   4.289  12.563 -0.0022  0.3752 -0.7694
 6457SOL    HW131004   2.312   4.281  12.469  1.3872  0.6718 -0.5295
 6457SOL    HW231005   2.370   4.339  12.592  2.6249 -3.9288 -0.3688
 6458SOL     OW31006   0.394   2.693   9.301 -0.7528  0.6955  0.1124
 6458SOL    HW131007   0.442   2.618   9.264  0.6602  1.3870  0.5662
 6458SOL    HW231008   0.410   2.683   9.395  1.4058  0.5388 -0.2690
 6459SOL     OW31009   1.541   3.616   0.691 -0.9129  0.3425 -0.2100
 6459SOL    HW131010   1.510   3.566   0.615 -0.9448 -1.3374  0.9139
 6459SOL    HW231011   1.466   3.603   0.749 -0.7850 -1.8342 -0.5180
 6460SOL     OW31012   1.557   3.022   5.539 -0.2458 -0.1186 -0.3187
 6460SOL    HW131013   1.643   2.999   5.574  0.5070 -1.2966 -2.9446
 6460SOL    HW231014   1.489   2.987   5.596 -0.4242 -1.4189 -1.3139
 6461SOL     OW31015   4.517   3.292   4.809  0.2365  0.1288  0.1960
 6461SOL    HW131016   4.423   3.281   4.793 -0.2285  1.4697  2.0793
 6461SOL    HW231017   4.501   3.302   4.903  0.6821 -2.2262  0.5204
 6462SOL     OW31018   2.579   0.181  13.670 -0.0479 -0.5285 -0.2393
 6462SOL    HW131019   2.487   0.190  13.695  0.3635  0.2439  1.0032
 6462SOL    HW231020   2.570   0.179  13.575  2.0552 -2.3796 -0.4036
 6463SOL     OW31021   3.967   4.366   3.516  0.0334 -0.0072 -0.1620
 6463SOL    HW131022   4.005   4.281   3.495  1.5794  0.8017 -0.6866
 6463SOL    HW231023   3.879   4.361   3.479 -0.2687  2.2250  0.2606
 6464SOL     OW31024   3.274   4.046   0.942 -0.1088  0.2191 -0.3172
 6464SOL    HW131025   3.353   4.088   0.907 -1.5628  0.5871 -3.2475
 6464SOL    HW231026   3.308   4.030   1.030  0.2092 -0.7664 -0.6159
 6465SOL     OW31027   0.079   0.828   4.408  0.2020 -0.2432 -0.9466
 6465SOL    HW131028   0.149   0.869   4.457  1.0695 -2.1473 -0.5848
 6465SOL    HW231029   0.026   0.901   4.376 -0.9152 -0.9074 -0.6275
 6466SOL     OW31030   0.261   3.639   9.012 -0.0669 -0.1615 -0.0798
 6466SOL    HW131031   0.277   3.731   9.031 -0.9834 -0.2091  0.9231
 6466SOL    HW231032   0.347   3.597   9.018 -0.2842 -0.3850  1.4515
 6467SOL     OW31033   4.160   2.248   2.311  0.4292 -0.2528 -0.4330
 6467SOL    HW131034   4.190   2.315   2.250 -0.7888 -1.0245 -1.9153
 6467SOL    HW231035   4.091   2.299   2.353  0.7484  1.4977 -2.0517
 6468SOL     OW31036   1.910   0.250   3.061 -0.2866  0.4497 -0.0456
 6468SOL    HW131037   1.921   0.162   3.097 -4.0747  0.4708  1.1480
 6468SOL    HW231038   1.987   0.248   3.004 -0.1755  0.1686  0.1134
 6469SOL     OW31039   3.619   2.053   8.023 -0.3781  0.2670  0.6090
 6469SOL    HW131040   3.689   2.109   8.057 -2.1574  3.8692 -1.6024
 6469SOL    HW231041   3.634   1.977   8.079  1.5780  0.3988  0.2581
 6470SOL     OW31042   2.971   3.537   6.351 -0.2808  0.2910  0.2148
 6470SOL    HW131043   2.985   3.456   6.401 -0.6754 -1.2080 -2.0701
 6470SOL    HW231044   3.046   3.530   6.292 -1.8265  3.1081 -2.0594
 6471SOL     OW31045   4.516   0.593  17.218  0.0153 -0.1617  0.0720
 6471SOL    HW131046   4.608   0.588  17.194  0.6310 -0.0071  2.4295
 6471SOL    HW231047   4.487   0.502  17.221 -0.9716  0.0454 -3.5122
 6472SOL     OW31048   0.047   0.419  10.001 -0.0710 -0.2615  0.4774
 6472SOL    HW131049   0.075   0.507   9.976 -0.9446  0.1900  1.0641
 6472SOL    HW231050   4.698   0.445  10.031 -0.3503 -0.8159  0.1521
 6473SOL     OW31051   0.081   1.288   4.145 -0.2687  0.3470 -0.0127
 6473SOL    HW131052   4.726   1.308   4.134 -0.1071  0.1842 -1.6519
 6473SOL    HW231053   0.077   1.267   4.239 -1.2037 -0.0199 -0.1303
 6474SOL     OW31054   0.121   3.368   4.331  0.4258  0.3664  0.2882
 6474SOL    HW131055   0.164   3.425   4.395 -0.2121  1.1569  0.0097
 6474SOL    HW231056   0.117   3.287   4.383 -2.8091 -0.0011 -0.5563
 6475SOL     OW31057   2.742   0.707   5.010 -0.2117  0.0419  0.2622
 6475SOL    HW131058   2.673   0.768   4.984 -0.2925  0.2844  1.0740
 6475SOL    HW231059   2.811   0.711   4.944 -1.7147  0.0789 -1.3343
 6476SOL     OW31060   4.142   0.897   2.975  0.1748  0.1211  0.2605
 6476SOL    HW131061   4.120   0.853   2.893  0.7792  2.6529 -1.2636
 6476SOL    HW231062   4.112   0.985   2.955 -0.1143  0.0583  0.4224
 6477SOL     OW31063   2.243   2.915  14.075  0.2596  0.5035 -0.2083
 6477SOL    HW131064   2.152   2.932  14.051 -0.1494 -0.8448  0.3555
 6477SOL    HW231065   2.239   2.831  14.121  0.5252  0.8152  0.3821
 6478SOL     OW31066   0.844   3.376   5.701 -0.4676  0.3258 -0.3299
 6478SOL    HW131067   0.902   3.333   5.638  1.2007  2.3694 -0.1801
 6478SOL    HW231068   0.789   3.306   5.736  0.1641  0.3139  0.6610
 6479SOL     OW31069   2.003   0.691   7.331  0.2096  0.2977 -0.0732
 6479SOL    HW131070   1.912   0.705   7.304  0.6644  1.6198 -0.9067
 6479SOL    HW231071   2.042   0.778   7.330 -0.6216  0.6706  1.3797
 6480SOL     OW31072   0.763   3.423   8.560 -0.0086  0.2524  0.3985
 6480SOL    HW131073   0.777   3.414   8.466  2.5121 -0.0351  0.8046
 6480SOL    HW231074   0.684   3.477   8.562 -0.6026 -0.5945 -0.0844
 6481SOL     OW31075   2.263   1.105   8.433 -0.3771  0.6939 -0.2895
 6481SOL    HW131076   2.255   1.020   8.390  0.5659  0.2406  0.4283
 6481SOL    HW231077   2.170   1.130   8.431 -0.5913 -0.0880 -0.2489
 6482SOL     OW31078   1.413   4.102   4.660 -0.3044  0.2244 -0.0757
 6482SOL    HW131079   1.491   4.075   4.610 -0.7330 -0.7863 -0.2063
 6482SOL    HW231080   1.369   4.169   4.607 -0.7405  1.7916  2.2736
 6483SOL     OW31081   1.316   2.978   5.278 -0.0900  0.0874  0.7699
 6483SOL    HW131082   1.327   2.907   5.340 -1.8666 -1.0484 -0.2196
 6483SOL    HW231083   1.223   2.978   5.257  0.1176 -0.4441 -0.1429
 6484SOL     OW31084   0.142   4.016  11.793 -0.0050  0.2301  0.7277
 6484SOL    HW131085   0.091   4.031  11.713  0.4239 -2.5353 -0.0747
 6484SOL    HW231086   0.071   3.995  11.853  1.5492  1.3664  2.9314
 6485SOL     OW31087   3.873   2.635  10.502  0.6129 -0.6616 -0.0445
 6485SOL    HW131088   3.869   2.633  10.597 -3.0849 -0.5148 -0.2291
 6485SOL    HW231089   3.900   2.546  10.479 -0.5754 -0.8578 -0.6859
 6486SOL     OW31090   0.599   2.577   2.045 -0.1365 -0.1108 -0.3024
 6486SOL    HW131091   0.627   2.504   2.101  2.1358  0.7852 -0.2986
 6486SOL    HW231092   0.628   2.644   2.106  1.2629 -1.8264  0.9214
 6487SOL     OW31093   0.473   0.213   8.419 -0.0552 -0.6983 -0.3392
 6487SOL    HW131094   0.487   0.267   8.341 -0.5381  1.2218  0.8948
 6487SOL    HW231095   0.546   0.154   8.403  0.9627  0.2739  0.6469
 6488SOL     OW31096   3.269   3.610   7.792  0.9556 -0.1924  0.0404
 6488SOL    HW131097   3.298   3.520   7.778 -0.0995 -0.8261  1.8532
 6488SOL    HW231098   3.181   3.607   7.754  1.0353  0.4602 -0.1951
 6489SOL     OW31099   0.857   4.679   3.429 -0.3111  0.1531 -0.4754
 6489SOL    HW131100   0.874   4.606   3.488  2.0719  0.3046 -0.9789
 6489SOL    HW231101   0.943   4.721   3.425 -1.5865  2.8052 -0.1794
 6490SOL     OW31102   2.785   2.522   4.320 -0.2564 -0.1180 -0.5995
 6490SOL    HW131103   2.760   2.614   4.321 -0.3729 -0.1686  1.1988
 6490SOL    HW231104   2.742   2.488   4.242  0.3419 -1.7985 -0.2179
 6491SOL     OW31105   3.178   4.196   3.453 -0.1433 -0.9511 -0.7057
 6491SOL    HW131106   3.226   4.124   3.410  0.5042 -1.6257  1.1504
 6491SOL    HW231107   3.095   4.149   3.456  0.7565 -2.5088  0.0167
 6492SOL     OW31108   1.622   0.438   2.650  0.2588  0.2192  0.0139
 6492SOL    HW131109   1.621   0.427   2.555 -1.1274  0.5882 -0.0079
 6492SOL    HW231110   1.557   0.508   2.652  1.1000  1.0095 -0.2191
 6493SOL     OW31111   0.833   2.741   9.337 -0.2320  0.0051  0.3808
 6493SOL    HW131112   0.784   2.664   9.311  2.2334 -1.4215 -0.0022
 6493SOL    HW231113   0.837   2.736   9.433 -0.5768  2.1630  0.5187
 6494SOL     OW31114   3.444   0.123   5.315 -0.1509  0.1159  0.0642
 6494SOL    HW131115   3.366   0.175   5.297 -0.3841  0.7328  2.8536
 6494SOL    HW231116   3.453   0.068   5.238 -0.5405 -1.7014  1.3137
 6495SOL     OW31117   4.235   0.090   7.242  0.3058 -0.7229  0.4588
 6495SOL    HW131118   4.309   0.063   7.295 -0.9271 -0.4733  2.3116
 6495SOL    HW231119   4.285   0.143   7.181 -1.5257  0.1704 -0.2546
 6496SOL     OW31120   3.830   0.223  14.773 -0.2208 -0.0232 -0.7368
 6496SOL    HW131121   3.853   0.308  14.734  0.1253 -0.9284 -2.5103
 6496SOL    HW231122   3.782   0.248  14.852 -1.2346 -1.0074 -1.0436
 6497SOL     OW31123   4.017   1.967   6.993 -0.1250  0.0384 -0.5471
 6497SOL    HW131124   3.986   2.052   6.960  0.7137  0.2593 -0.7644
 6497SOL    HW231125   4.052   1.940   6.908 -1.4505 -0.9621 -0.7834
 6498SOL     OW31126   2.290   1.099   5.703 -0.3408  0.2141 -0.2165
 6498SOL    HW131127   2.289   1.144   5.788  2.4813  0.1866 -0.1790
 6498SOL    HW231128   2.384   1.083   5.690 -0.1241  3.0373 -2.1192
 6499SOL     OW31129   3.002   2.614   2.506  0.1542 -0.9031 -0.5974
 6499SOL    HW131130   3.042   2.529   2.521 -0.2160 -0.8930  0.4030
 6499SOL    HW231131   3.049   2.645   2.428 -1.1419 -0.7062 -1.3038
 6500SOL     OW31132   2.607   1.614   6.377  0.1771  0.2916  0.1171
 6500SOL    HW131133   2.541   1.633   6.444 -0.3045 -0.0457 -0.2582
 6500SOL    HW231134   2.574   1.532   6.339 -1.1763  1.3302 -0.9596
 6501SOL     OW31135   1.955   2.639   4.762 -0.3483  0.3614  0.0826
 6501SOL    HW131136   2.013   2.715   4.764 -0.4869  0.4162  1.8936
 6501SOL    HW231137   1.972   2.585   4.839  2.0081 -0.3377 -0.9241
 6502SOL     OW31138   0.005   1.554   2.604 -0.4577 -0.1118  0.6915
 6502SOL    HW131139   4.688   1.622   2.644 -0.3721  0.3861 -0.0354
 6502SOL    HW231140   0.035   1.520   2.689  1.3275 -0.4052 -0.0534
 6503SOL     OW31141   4.263   0.227   6.191  0.8889  0.0695  0.9343
 6503SOL    HW131142   4.338   0.285   6.178 -1.8790  2.8124 -2.9590
 6503SOL    HW231143   4.226   0.240   6.103  1.6538 -2.8190  0.1665
 6504SOL     OW31144   2.896   2.284   5.321  1.0055  0.3166  0.4165
 6504SOL    HW131145   2.884   2.233   5.241 -0.6376 -0.4834  1.1943
 6504SOL    HW231146   2.819   2.249   5.365  1.6413 -1.4941  0.1041
 6505SOL     OW31147   0.761   0.149   8.313  0.1459  0.1299  0.0954
 6505SOL    HW131148   0.805   0.161   8.398  3.5949  0.9658 -1.8307
 6505SOL    HW231149   0.763   0.053   8.311 -1.4448  0.1450 -1.5494
 6506SOL     OW31150   4.024   4.630  10.808  0.1046  0.1133 -0.2565
 6506SOL    HW131151   4.010   4.639  10.714 -1.1568 -1.6467 -0.2366
 6506SOL    HW231152   4.101   4.573  10.811  0.7407  0.9351 -1.1689
 6507SOL     OW31153   2.011   0.128   8.582 -0.2208  0.2164 -0.0224
 6507SOL    HW131154   2.017   0.034   8.603 -1.6219 -0.1954 -1.3815
 6507SOL    HW231155   1.920   0.133   8.553  0.3184 -1.8182 -2.1361
 6508SOL     OW31156   0.532   0.023   0.997  0.5185 -0.1240  0.1539
 6508SOL    HW131157   0.471   4.728   0.930  0.8678  2.0751 -1.2410
 6508SOL    HW231158   0.504   4.694   1.060  0.6888 -0.6069 -0.2728
 6509SOL     OW31159   0.074   2.300   2.424 -0.0930  0.3307 -0.0597
 6509SOL    HW131160   0.097   2.391   2.404 -2.4689  0.8330 -0.5354
 6509SOL    HW231161   4.721   2.311   2.450 -0.1572  0.7952 -0.4729
 6510SOL     OW31162   2.532   1.062   7.275 -0.2421  0.5787 -0.6838
 6510SOL    HW131163   2.597   1.089   7.210 -1.0508  0.4845 -1.5371
 6510SOL    HW231164   2.475   1.003   7.227 -2.1130  2.5956 -0.9469
 6511SOL     OW31165   4.264   3.171   9.703  0.3869 -0.3430 -0.5966
 6511SOL    HW131166   4.234   3.241   9.760  2.7721  0.9735 -0.9531
 6511SOL    HW231167   4.275   3.227   9.626  0.5350  2.9891  1.8578
 6512SOL     OW31168   0.212   0.047   5.959 -0.0370 -0.0919 -0.0663
 6512SOL    HW131169   0.294   0.036   5.910  0.2185  0.0482  0.3366
 6512SOL    HW231170   0.218   0.131   6.004 -1.6523 -0.8705  1.5534
 6513SOL     OW31171   0.627   3.384  16.111  0.1767  0.0067  0.4393
 6513SOL    HW131172   0.578   3.424  16.039  2.1119  0.7247 -0.4737
 6513SOL    HW231173   0.565   3.388  16.184 -0.3220 -0.0641  0.0214
 6514SOL     OW31174   1.097   0.178   5.331 -0.0292  0.4762  0.4033
 6514SOL    HW131175   1.088   0.209   5.241  0.5785 -2.1476 -0.5747
 6514SOL    HW231176   1.159   0.246   5.357  0.6066 -0.9394  2.5557
 6515SOL     OW31177   0.488   1.520  12.986  0.3205 -0.1972  0.6153
 6515SOL    HW131178   0.448   1.545  13.070 -1.0783  0.5808 -0.2852
 6515SOL    HW231179   0.561   1.582  12.979  0.9485 -0.3526  5.6346
 6516SOL     OW31180   3.162   1.756   9.797  0.7595  0.5900  0.1833
 6516SOL    HW131181   3.255   1.745   9.775  0.3879 -1.9777 -0.0469
 6516SOL    HW231182   3.133   1.689   9.858 -2.9396  0.7336 -1.4534
 6517SOL     OW31183   3.349   1.643   2.899 -0.1995  0.0360 -0.3953
 6517SOL    HW131184   3.383   1.671   2.814  0.6333 -1.6890 -0.6386
 6517SOL    HW231185   3.351   1.549   2.883  0.2307  0.3947 -2.4896
 6518SOL     OW31186   4.376   2.881   5.424  0.0533  0.5989  0.2119
 6518SOL    HW131187   4.395   2.788   5.411 -1.4533  0.2211  0.6655
 6518SOL    HW231188   4.431   2.900   5.500 -0.0805  0.1143  0.4331
 6519SOL     OW31189   1.489   2.294   8.259 -0.3056  0.0296  0.1325
 6519SOL    HW131190   1.548   2.220   8.242  0.3984  0.6600 -0.2063
 6519SOL    HW231191   1.454   2.302   8.170 -0.2750  0.7889  0.1902
 6520SOL     OW31192   0.530   2.545  11.763 -0.3313 -0.2804  0.2115
 6520SOL    HW131193   0.436   2.542  11.782  0.1626 -3.9128  2.0087
 6520SOL    HW231194   0.535   2.639  11.745 -1.0523 -0.4338 -0.7942
 6521SOL     OW31195   4.674   3.233  12.210 -0.0362 -0.4133  0.0035
 6521SOL    HW131196   4.643   3.280  12.288 -0.4854 -0.0491 -0.3975
 6521SOL    HW231197   4.645   3.291  12.140 -0.6767 -0.5776  0.1236
 6522SOL     OW31198   4.029   1.247  12.778 -0.1947 -0.2875  0.2036
 6522SOL    HW131199   4.066   1.201  12.702  1.3685  0.6194  0.4145
 6522SOL    HW231200   3.980   1.180  12.825 -0.1127 -1.1124 -0.8854
 6523SOL     OW31201   4.226   0.810   2.489 -0.0102  0.6509  0.0097
 6523SOL    HW131202   4.256   0.901   2.481  0.0100  0.5605 -0.9222
 6523SOL    HW231203   4.219   0.789   2.396  1.2020  0.3809 -0.0268
 6524SOL     OW31204   2.462   4.698   3.076  0.3292  0.4455  0.4964
 6524SOL    HW131205   2.515   0.019   3.022  0.5542 -0.4221 -0.2180
 6524SOL    HW231206   2.426   4.646   3.005 -0.5581  0.7384  0.7305
 6525SOL     OW31207   3.984   4.352  12.390 -0.3681 -0.2807 -0.2154
 6525SOL    HW131208   3.948   4.313  12.310  0.2269 -1.0329 -0.1199
 6525SOL    HW231209   4.029   4.430  12.357 -2.4607  0.7501 -0.6076
 6526SOL     OW31210   4.553   1.724   9.457 -0.3642 -0.0188  0.6291
 6526SOL    HW131211   4.611   1.758   9.524  1.5748 -1.4740 -0.2944
 6526SOL    HW231212   4.479   1.783   9.471 -2.3817 -1.3459 -4.3246
 6527SOL     OW31213   1.991   4.443  10.974 -0.6359 -0.4647  0.1950
 6527SOL    HW131214   2.039   4.396  11.042  0.1915  0.2616  0.1273
 6527SOL    HW231215   1.910   4.475  11.013 -0.7217  0.6928 -0.9144
 6528SOL     OW31216   2.199   1.217   7.107 -1.2136  0.0106  0.1052
 6528SOL    HW131217   2.127   1.255   7.057 -3.3699 -0.8980  2.5152
 6528SOL    HW231218   2.195   1.124   7.087 -1.2998  0.3991 -1.6357
 6529SOL     OW31219   0.324   1.418  11.624 -0.4724 -0.0625  0.1012
 6529SOL    HW131220   0.363   1.349  11.678  0.1168 -0.0436 -0.2943
 6529SOL    HW231221   0.320   1.488  11.689  0.7256  1.2586 -1.2462
 6530SOL     OW31222   3.819   3.275   4.398  0.4536  0.2931 -0.5034
 6530SOL    HW131223   3.729   3.243   4.396  0.4330  0.3125  0.0068
 6530SOL    HW231224   3.813   3.321   4.314 -0.6743 -1.6030 -1.4754
 6531SOL     OW31225   2.406   4.282   3.937 -0.2255  0.4410 -0.3027
 6531SOL    HW131226   2.440   4.367   3.909  0.2011  0.3945  0.0781
 6531SOL    HW231227   2.409   4.225   3.860 -0.7595  0.6372 -0.4699
 6532SOL     OW31228   4.345   2.685   8.975  0.1038 -0.0686 -0.0925
 6532SOL    HW131229   4.322   2.607   9.024 -1.9621  1.5603  1.5468
 6532SOL    HW231230   4.372   2.640   8.895  0.9760 -0.2106  0.2746
 6533SOL     OW31231   1.886   2.114   9.883 -0.9950 -0.5005 -0.2561
 6533SOL    HW131232   1.981   2.125   9.891 -1.1026 -0.9968  1.6813
 6533SOL    HW231233   1.861   2.108   9.975 -0.1232  2.7997  0.1958
 6534SOL     OW31234   4.505   2.915   8.762 -0.1236  0.2729  0.5692
 6534SOL    HW131235   4.505   2.867   8.679  0.0422  0.6416  0.3542
 6534SOL    HW231236   4.555   2.994   8.739 -3.3158  2.0219 -0.3686
 6535SOL     OW31237   4.611   2.940  11.996  0.0577 -0.0648  0.2742
 6535SOL    HW131238   4.682   2.953  11.934  1.4185 -0.8498  1.6677
 6535SOL    HW231239   4.534   2.913  11.945 -0.3183  1.6133 -0.0464
 6536SOL     OW31240   1.887   0.385   4.523  0.1970  0.1236 -0.1120
 6536SOL    HW131241   1.889   0.290   4.537  0.4586  0.0961 -0.3452
 6536SOL    HW231242   1.891   0.415   4.614 -1.5605  2.2807 -0.7649
 6537SOL     OW31243   0.326   3.404   5.067 -0.3279 -0.2583 -0.0968
 6537SOL    HW131244   0.325   3.440   4.978 -2.7549  1.3236  0.5701
 6537SOL    HW231245   0.392   3.449   5.118  0.6831  0.2720 -1.8765
 6538SOL     OW31246   2.420   3.521  12.960  0.3580 -0.1225 -0.4189
 6538SOL    HW131247   2.354   3.576  12.918 -1.0410 -1.3313  0.2367
 6538SOL    HW231248   2.359   3.452  12.986 -2.0947  2.1022 -0.2786
 6539SOL     OW31249   4.516   4.432   4.700 -0.1399 -0.2290 -0.3015
 6539SOL    HW131250   4.555   4.455   4.785 -3.9046  0.5625  1.1875
 6539SOL    HW231251   4.437   4.386   4.728  0.5223 -0.8853  0.4883
 6540SOL     OW31252   0.659   0.016   4.811 -0.2500  0.2850  0.0009
 6540SOL    HW131253   0.598   0.089   4.806  0.9552  1.2011 -1.1945
 6540SOL    HW231254   0.741   0.058   4.836 -1.6307  2.1916  1.3508
 6541SOL     OW31255   3.045   1.623   2.543 -0.0748 -1.1629 -0.2336
 6541SOL    HW131256   3.097   1.549   2.576  2.4200  0.1967 -1.0642
 6541SOL    HW231257   2.976   1.587   2.487  0.9806 -1.5238 -1.3217
 6542SOL     OW31258   1.480   3.953  15.469 -0.5468  0.0078 -0.1086
 6542SOL    HW131259   1.428   4.024  15.506 -0.0982  1.2168 -1.7993
 6542SOL    HW231260   1.540   3.942  15.542 -1.5103  1.4185  0.8882
 6543SOL     OW31261   3.086   3.260   7.716 -0.0253 -0.4250 -0.3073
 6543SOL    HW131262   3.034   3.234   7.640 -1.0838  0.8427 -0.0183
 6543SOL    HW231263   3.107   3.175   7.754 -0.3366 -0.0442  0.6992
 6544SOL     OW31264   3.456   3.477   5.649 -0.0247 -0.2554 -0.5373
 6544SOL    HW131265   3.412   3.500   5.567  0.8259 -1.2139 -1.2668
 6544SOL    HW231266   3.427   3.385   5.649 -0.2736 -0.1727 -0.0174
 6545SOL     OW31267   2.667   1.558   4.709 -0.6606  0.1783  0.0675
 6545SOL    HW131268   2.741   1.509   4.744 -0.2879 -0.2591 -1.3375
 6545SOL    HW231269   2.657   1.635   4.765 -1.3265  0.1200  0.0401
 6546SOL     OW31270   2.879   4.447   7.008  0.2157 -0.3589 -0.0392
 6546SOL    HW131271   2.854   4.403   6.926 -1.2695 -0.0107  0.2172
 6546SOL    HW231272   2.972   4.452   6.988  0.7974 -0.7365  2.5164
 6547SOL     OW31273   0.672   3.375   3.070  0.3047  0.2260 -0.1458
 6547SOL    HW131274   0.591   3.411   3.034  0.9476  0.0738 -1.7766
 6547SOL    HW231275   0.709   3.353   2.984 -0.1644 -1.1724  0.0194
 6548SOL     OW31276   2.562   1.263   9.472  0.1471  0.9975 -0.4257
 6548SOL    HW131277   2.574   1.187   9.415 -0.2431  0.8934 -0.3642
 6548SOL    HW231278   2.472   1.246   9.499 -0.4913  1.5428 -2.2045
 6549SOL     OW31279   2.521   1.137   6.873 -0.9519  0.2338  0.2675
 6549SOL    HW131280   2.580   1.122   6.946 -0.4580  0.6514 -0.0468
 6549SOL    HW231281   2.512   1.043   6.858 -3.0824  0.3013  1.0584
 6550SOL     OW31282   3.683   3.268   5.734  0.9288  0.2084 -0.4399
 6550SOL    HW131283   3.631   3.198   5.695  3.1074 -1.6713  0.0988
 6550SOL    HW231284   3.657   3.330   5.666 -0.3597 -0.0254 -0.1728
 6551SOL     OW31285   4.140   4.221   1.238 -0.2081 -0.2951  0.0170
 6551SOL    HW131286   4.155   4.310   1.269 -0.4515 -1.4397  3.4078
 6551SOL    HW231287   4.212   4.180   1.285 -1.9406 -2.0064  1.1997
 6552SOL     OW31288   2.319   0.050   3.678 -0.1592  0.1778 -0.1291
 6552SOL    HW131289   2.347   4.720   3.617  0.6436  0.0208  0.4126
 6552SOL    HW231290   2.392   0.111   3.694 -0.3178  0.3136  0.0843
 6553SOL     OW31291   0.735   1.281   2.129 -0.1257 -0.1448  0.0296
 6553SOL    HW131292   0.672   1.251   2.194  0.3330 -2.4304 -0.5878
 6553SOL    HW231293   0.768   1.198   2.095 -2.2890 -0.0863 -2.2188
 6554SOL     OW31294   1.727   2.339  12.697  0.2251 -0.3050  0.2346
 6554SOL    HW131295   1.643   2.301  12.671  0.0561 -0.2738  0.7352
 6554SOL    HW231296   1.724   2.344  12.793 -0.4900  1.5321  0.0978
 6555SOL     OW31297   2.879   4.081   3.104  0.1777 -0.1203 -0.3234
 6555SOL    HW131298   2.858   4.169   3.134  2.0157  0.3184 -0.3252
 6555SOL    HW231299   2.853   4.090   3.012  1.0731 -0.4615 -0.6141
 6556SOL     OW31300   1.991   2.854  14.278  0.0324 -0.1979  0.0339
 6556SOL    HW131301   1.985   2.897  14.193 -0.1632 -0.2031  0.0450
 6556SOL    HW231302   1.975   2.763  14.254 -2.4473  0.7286 -1.8963
 6557SOL     OW31303   0.672   1.387   7.677  0.3654  0.5113  0.3645
 6557SOL    HW131304   0.722   1.453   7.726  0.0012 -0.0997  1.5685
 6557SOL    HW231305   0.697   1.308   7.727 -3.2185 -0.5025  0.5217
 6558SOL     OW31306   1.249   3.843  14.037  0.2639 -0.1101  0.0458
 6558SOL    HW131307   1.262   3.902  13.963  0.8699 -0.6444 -0.2792
 6558SOL    HW231308   1.322   3.865  14.095  0.2715 -3.2189  1.1707
 6559SOL     OW31309   2.068   2.490   4.274 -0.2760  0.4415 -0.2158
 6559SOL    HW131310   2.156   2.453   4.268  0.2760  1.3284  2.2922
 6559SOL    HW231311   2.064   2.532   4.360  0.1531 -4.7552  2.3956
 6560SOL     OW31312   1.925   3.581   8.011  0.9097 -0.2549  0.0551
 6560SOL    HW131313   1.967   3.568   8.096 -0.3896 -0.1973  0.7046
 6560SOL    HW231314   1.998   3.562   7.951 -0.2908 -3.5847 -0.3655
 6561SOL     OW31315   0.516   2.347   6.475 -0.6161  0.1689 -0.0770
 6561SOL    HW131316   0.600   2.307   6.495 -1.2995 -1.7478 -1.0796
 6561SOL    HW231317   0.505   2.405   6.551 -1.4364 -1.3490  0.9772
 6562SOL     OW31318   1.092   4.056   4.159 -0.5087  0.3715  0.4154
 6562SOL    HW131319   1.055   4.144   4.166 -0.8952  0.3118 -0.8439
 6562SOL    HW231320   1.171   4.057   4.213 -1.0665 -2.3375  1.2814
 6563SOL     OW31321   2.128   0.676   2.502 -0.1040  0.1116 -0.5088
 6563SOL    HW131322   2.082   0.739   2.558 -0.0394 -1.2340  1.0597
 6563SOL    HW231323   2.059   0.610   2.511  1.5312 -1.8137 -2.1646
 6564SOL     OW31324   3.885   1.570   4.631  0.1667 -0.1624  0.5212
 6564SOL    HW131325   3.840   1.497   4.673  0.7986 -1.9428 -1.8763
 6564SOL    HW231326   3.885   1.640   4.696 -0.0554 -0.2787  0.6465
 6565SOL     OW31327   1.891   2.334  15.635  0.2571 -0.2189  0.0518
 6565SOL    HW131328   1.865   2.250  15.672  0.3965 -0.5634 -0.6330
 6565SOL    HW231329   1.984   2.317  15.621  0.1328 -1.4609  0.7817
 6566SOL     OW31330   4.732   3.844   8.691 -0.1620 -0.3846  0.0285
 6566SOL    HW131331   4.660   3.886   8.737  1.4730  1.9548  0.4336
 6566SOL    HW231332   0.020   3.772   8.749  0.3845  0.7244  1.1639
 6567SOL     OW31333   0.106   1.713   3.802 -0.0406  0.3299 -0.7619
 6567SOL    HW131334   0.111   1.625   3.839 -2.7098 -0.4258 -2.1908
 6567SOL    HW231335   0.014   1.705   3.776 -0.0623  2.3334 -1.2738
 6568SOL     OW31336   4.068   3.546   5.905 -0.5605 -0.4503 -0.6282
 6568SOL    HW131337   3.979   3.523   5.878 -0.3768  0.3920 -1.9665
 6568SOL    HW231338   4.056   3.639   5.926 -0.3126 -0.9136  1.5996
 6569SOL     OW31339   4.312   2.468  15.546 -0.1236  0.3342 -0.4798
 6569SOL    HW131340   4.255   2.419  15.488 -0.3272  0.3904 -0.3256
 6569SOL    HW231341   4.369   2.395  15.574 -2.2207 -1.8343 -1.9200
 6570SOL     OW31342   0.718   1.459   5.554 -0.0957  0.3899  0.2121
 6570SOL    HW131343   0.745   1.518   5.484  2.0518  0.9833  1.5539
 6570SOL    HW231344   0.745   1.499   5.637  2.1145 -1.6939  0.4837
 6571SOL     OW31345   0.341   4.079   8.544  0.3997 -0.0991 -1.0650
 6571SOL    HW131346   0.306   4.168   8.538 -0.8579 -0.5708 -0.5928
 6571SOL    HW231347   0.266   4.020   8.537 -1.1503  1.6882  0.4704
 6572SOL     OW31348   4.182   0.710  10.171  0.7222 -0.3918  0.3453
 6572SOL    HW131349   4.106   0.731  10.118  1.4839 -0.8129 -0.9165
 6572SOL    HW231350   4.174   0.764  10.250  0.7819 -1.8422  1.3596
 6573SOL     OW31351   2.791   2.449   2.612 -0.1830  0.6651  0.1026
 6573SOL    HW131352   2.830   2.523   2.565  1.3890  1.1993  2.2379
 6573SOL    HW231353   2.820   2.458   2.703  2.3483  0.1108 -0.6636
 6574SOL     OW31354   4.481   4.288   9.039 -0.2979 -0.2781 -0.1703
 6574SOL    HW131355   4.453   4.345   8.968 -0.0232 -0.1670 -0.1911
 6574SOL    HW231356   4.442   4.205   9.011  1.6113 -0.1415 -3.2083
 6575SOL     OW31357   0.853   0.840   2.130 -0.0598  0.3355 -0.2613
 6575SOL    HW131358   0.829   0.890   2.051 -1.4158  1.4161  0.8379
 6575SOL    HW231359   0.787   0.875   2.190  0.6654  2.8692 -0.9325
 6576SOL     OW31360   3.699   2.329   1.115 -0.4865 -0.4305 -0.3056
 6576SOL    HW131361   3.639   2.264   1.151 -0.7144 -0.3262 -0.4963
 6576SOL    HW231362   3.653   2.407   1.148  0.4942 -0.5189  1.2851
 6577SOL     OW31363   2.716   1.418   8.960  0.2151 -0.0766  0.0087
 6577SOL    HW131364   2.627   1.444   8.935  0.1594 -0.0225  0.2646
 6577SOL    HW231365   2.715   1.437   9.054  1.1091  0.8190 -0.1506
 6578SOL     OW31366   2.881   1.029   5.261  0.2160 -0.2448  0.0350
 6578SOL    HW131367   2.956   1.065   5.214  0.7360  1.7052  2.3746
 6578SOL    HW231368   2.914   0.943   5.288 -2.8382 -1.5239 -0.2515
 6579SOL     OW31369   0.364   3.159  10.396 -0.2623 -0.2961 -0.4723
 6579SOL    HW131370   0.326   3.146  10.483  0.8805 -1.5511 -0.1700
 6579SOL    HW231371   0.456   3.152  10.423 -0.1727  2.4854 -0.0756
 6580SOL     OW31372   3.830   3.376  15.164  0.1515  0.4578  0.1520
 6580SOL    HW131373   3.837   3.315  15.091  1.2196  0.3945  0.3032
 6580SOL    HW231374   3.913   3.370  15.212  0.3591 -1.7352 -0.5240
 6581SOL     OW31375   2.027   3.529   5.744  0.9737 -0.5234  0.3311
 6581SOL    HW131376   2.062   3.604   5.696 -0.9785  0.2174  0.0378
 6581SOL    HW231377   1.934   3.552   5.738  0.5849 -2.2543 -0.3266
 6582SOL     OW31378   3.976   4.462  15.237 -0.2706  0.1303 -0.0303
 6582SOL    HW131379   3.986   4.391  15.300  1.1770  2.7366  2.6635
 6582SOL    HW231380   3.891   4.492  15.269 -0.2602  0.0102  0.1100
 6583SOL     OW31381   0.570   4.206  12.107 -0.7545  0.6529 -0.3409
 6583SOL    HW131382   0.658   4.195  12.070 -0.7912 -1.3875  0.1692
 6583SOL    HW231383   0.521   4.146  12.051  0.4287 -1.4972  0.9348
 6584SOL     OW31384   3.571   4.580  16.059  0.5484  0.4343  0.3512
 6584SOL    HW131385   3.584   4.603  16.151  2.8994 -2.0106  0.6255
 6584SOL    HW231386   3.613   4.653  16.013  0.6231  0.6031  0.6868
 6585SOL     OW31387   2.298   4.467  12.790  0.2264 -0.4705  0.0739
 6585SOL    HW131388   2.263   4.503  12.708  1.8383 -0.5950 -0.6729
 6585SOL    HW231389   2.281   4.373  12.787 -0.8969 -0.2700 -0.0534
 6586SOL     OW31390   3.138   1.959   9.141  0.4673  0.3866  0.1041
 6586SOL    HW131391   3.088   1.901   9.085 -1.1627  3.1893 -1.3510
 6586SOL    HW231392   3.089   2.041   9.147 -1.8190 -0.9135 -0.8053
 6587SOL     OW31393   3.623   2.853  16.434 -0.1685  0.0857 -0.3176
 6587SOL    HW131394   3.534   2.883  16.415 -1.2414 -2.1182  1.2431
 6587SOL    HW231395   3.647   2.902  16.513 -1.1896  1.6283 -0.9765
 6588SOL     OW31396   2.574   2.908   4.556 -0.1986  0.0095  0.1484
 6588SOL    HW131397   2.555   2.982   4.613  0.9683  1.8557 -1.8734
 6588SOL    HW231398   2.669   2.901   4.558 -0.2736 -0.6063  1.9600
 6589SOL     OW31399   2.174   1.398   7.463 -0.6342  0.5445  0.2148
 6589SOL    HW131400   2.221   1.322   7.430  0.4156  0.0957  2.7131
 6589SOL    HW231401   2.104   1.414   7.400 -0.1828 -1.8156 -0.8729
 6590SOL     OW31402   0.392   3.482   6.999 -0.6998  0.2183  0.4658
 6590SOL    HW131403   0.400   3.537   7.077 -0.6764 -0.5544  1.0112
 6590SOL    HW231404   0.378   3.553   6.936  0.8668  0.5460  0.5016
 6591SOL     OW31405   0.460   2.892   5.518 -0.3125  0.4188  0.3080
 6591SOL    HW131406   0.511   2.971   5.501 -0.9067  0.3337 -1.8752
 6591SOL    HW231407   0.449   2.863   5.428 -2.5246  1.2078  0.3065
 6592SOL     OW31408   1.115   3.774   6.854  0.2046 -0.2430  0.1685
 6592SOL    HW131409   1.161   3.806   6.932 -1.9989 -2.0725  2.2312
 6592SOL    HW231410   1.091   3.859   6.818 -0.1035 -0.9889 -1.3958
 6593SOL     OW31411   3.902   0.191   5.820 -0.4938 -0.1249  0.3236
 6593SOL    HW131412   3.822   0.213   5.773 -0.9338 -3.0644 -0.3226
 6593SOL    HW231413   3.969   0.215   5.756 -0.9065  0.3407  0.0665
 6594SOL     OW31414   2.194   2.216   2.087 -0.3609  0.6166  0.0423
 6594SOL    HW131415   2.141   2.178   2.157  2.0744  0.6224  1.8858
 6594SOL    HW231416   2.271   2.159   2.086 -0.0889  0.9971 -1.0462
 6595SOL     OW31417   3.984   0.293   4.337  0.2366  0.1416 -0.3403
 6595SOL    HW131418   4.074   0.324   4.337 -0.1990  1.4152 -0.0490
 6595SOL    HW231419   3.956   0.311   4.247  2.9962 -0.8618 -1.3758
 6596SOL     OW31420   3.839   3.920   5.280  0.2718 -0.7396 -0.7040
 6596SOL    HW131421   3.863   3.925   5.373  1.4547  0.0343 -1.0486
 6596SOL    HW231422   3.906   3.866   5.240  0.5269  0.7100 -2.1994
 6597SOL     OW31423   3.678   3.874   3.213  0.5091  0.3141  0.3331
 6597SOL    HW131424   3.765   3.901   3.243 -0.3893  1.8652  1.5901
 6597SOL    HW231425   3.695   3.802   3.152 -0.8769 -0.6004  1.0269
 6598SOL     OW31426   4.260   1.822   3.341 -0.1246  0.4974  0.1486
 6598SOL    HW131427   4.304   1.897   3.300 -0.1043  1.5536  2.0773
 6598SOL    HW231428   4.310   1.823   3.422 -0.5730 -0.0906  0.4277
 6599SOL     OW31429   0.664   0.902   9.123  0.5398 -0.3996 -0.2240
 6599SOL    HW131430   0.574   0.919   9.151  0.7651  1.3342 -0.5659
 6599SOL    HW231431   0.678   0.838   9.193 -1.8655  0.4819  1.0526
 6600SOL     OW31432   3.528   0.671   2.517  0.3747 -0.1428  0.0768
 6600SOL    HW131433   3.572   0.586   2.518  0.3428 -0.1645 -1.8843
 6600SOL    HW231434   3.495   0.664   2.428 -0.0749 -1.3523  0.3243
 6601SOL     OW31435   3.023   1.513   7.855 -0.1726  0.2601 -0.0266
 6601SOL    HW131436   3.051   1.466   7.776  0.1982  3.4546 -1.8073
 6601SOL    HW231437   3.063   1.597   7.834 -0.0178  0.7411  2.1870
 6602SOL     OW31438   3.188   4.280   0.716 -0.0302  0.5514 -0.1872
 6602SOL    HW131439   3.252   4.244   0.655 -0.0997  1.8782 -1.0431
 6602SOL    HW231440   3.135   4.204   0.739 -0.3853  0.5614 -0.9782
 6603SOL     OW31441   3.379   0.570   2.995 -0.0356  0.1902 -0.1617
 6603SOL    HW131442   3.429   0.492   2.971  0.0103 -0.3558  1.6920
 6603SOL    HW231443   3.321   0.542   3.066  0.0965  0.1531 -0.0671
 6604SOL     OW31444   0.833   3.524  17.599 -0.5589  0.0921  0.0939
 6604SOL    HW131445   0.919   3.566  17.598 -1.6837  2.4359  1.5246
 6604SOL    HW231446   0.812   3.523  17.692  1.0006  1.5194  0.4578
 6605SOL     OW31447   0.295   1.167   3.302  0.2063 -0.1242  0.2160
 6605SOL    HW131448   0.340   1.207   3.228  0.0478 -1.3470 -0.5528
 6605SOL    HW231449   0.344   1.203   3.376 -1.1028  0.2295  0.9194
 6606SOL     OW31450   3.807   1.982   7.801  0.0925  0.5037  0.0462
 6606SOL    HW131451   3.755   2.016   7.874  1.8446  0.3189  1.3896
 6606SOL    HW231452   3.798   2.046   7.730 -0.8656  1.4133  1.0037
 6607SOL     OW31453   0.730   3.597   0.103 -0.6303 -0.2062 -0.7538
 6607SOL    HW131454   0.652   3.651   0.098  0.2434  1.3104  1.7768
 6607SOL    HW231455   0.684   3.517   0.129 -1.6328  0.8351  0.6129
 6608SOL     OW31456   4.433   3.062  12.897  0.1081  0.2703  0.0945
 6608SOL    HW131457   4.508   3.006  12.876  1.1756  1.1180  1.7111
 6608SOL    HW231458   4.481   3.144  12.911 -0.6323  0.6877  0.1623
 6609SOL     OW31459   2.661   4.360  15.032  0.3218 -0.2304 -0.3380
 6609SOL    HW131460   2.683   4.422  14.962  2.0363 -1.8201 -1.1895
 6609SOL    HW231461   2.748   4.361  15.071 -0.2180 -2.6910  0.9318
 6610SOL     OW31462   3.051   2.228   7.507  0.5177 -0.6511  0.5329
 6610SOL    HW131463   2.971   2.222   7.454  2.2813 -2.3338 -1.9232
 6610SOL    HW231464   3.010   2.221   7.594 -0.2143 -0.2984  0.2194
 6611SOL     OW31465   2.274   2.373   9.132 -0.2263  0.1759  0.0192
 6611SOL    HW131466   2.267   2.446   9.193 -0.2774 -1.3410  1.8398
 6611SOL    HW231467   2.324   2.408   9.058  0.8984 -3.1803 -0.8142
 6612SOL     OW31468   1.556   4.736  11.015 -0.0132 -0.5365  0.0932
 6612SOL    HW131469   1.535   0.080  11.061  0.4740 -0.6278  0.4807
 6612SOL    HW231470   1.485   4.721  10.953 -0.2685 -2.8723  0.9282
 6613SOL     OW31471   3.765   2.526   2.265 -0.1005 -0.3236 -0.1188
 6613SOL    HW131472   3.745   2.582   2.340  1.2918 -0.7238  0.5521
 6613SOL    HW231473   3.740   2.439   2.295  3.6464 -1.2265  0.3836
 6614SOL     OW31474   3.424   3.187   2.472  0.2536  0.2470  0.5612
 6614SOL    HW131475   3.404   3.263   2.417  1.3127 -1.1438 -1.7196
 6614SOL    HW231476   3.519   3.193   2.472  0.1307  2.2593 -0.1165
 6615SOL     OW31477   4.088   3.487   4.345  0.4616  0.5740 -0.1642
 6615SOL    HW131478   4.103   3.559   4.283 -0.2689 -0.7404 -1.8839
 6615SOL    HW231479   4.036   3.424   4.294  0.7854  0.9260 -0.9276
 6616SOL     OW31480   0.685   4.721  11.077 -0.1568 -0.2191  0.1026
 6616SOL    HW131481   0.647   0.041  11.011 -0.2457  0.1362  0.4609
 6616SOL    HW231482   0.603   4.715  11.126 -1.0153 -0.9275 -1.4379
 6617SOL     OW31483   1.902   4.416   8.482 -0.6179  0.0514  0.1584
 6617SOL    HW131484   1.825   4.372   8.448 -0.5864  0.6029 -0.6178
 6617SOL    HW231485   1.931   4.450   8.398 -4.2358 -2.3835 -2.0428
 6618SOL     OW31486   1.515   1.437   9.970 -0.0430  0.2323 -0.7340
 6618SOL    HW131487   1.472   1.378   9.908 -1.0228  0.8576 -0.6521
 6618SOL    HW231488   1.606   1.442   9.939  0.0580  1.7121 -0.1643
 6619SOL     OW31489   3.387   2.757  14.845  0.0997 -0.1396  0.7708
 6619SOL    HW131490   3.383   2.693  14.774  0.0092  0.0570  0.5967
 6619SOL    HW231491   3.469   2.800  14.823 -0.5321 -0.1628 -1.6545
 6620SOL     OW31492   1.380   1.446  16.240 -0.1072 -0.3893 -0.6492
 6620SOL    HW131493   1.425   1.455  16.156 -1.9678  0.7522 -1.5204
 6620SOL    HW231494   1.382   1.350  16.239 -0.7075 -0.3934 -1.3484
 6621SOL     OW31495   3.171   1.083   4.476 -0.2195 -0.4954 -0.0246
 6621SOL    HW131496   3.245   1.092   4.536 -1.9651  1.3596  1.8799
 6621SOL    HW231497   3.180   0.993   4.446  0.6599  0.1067 -1.5427
 6622SOL     OW31498   0.506   4.552   4.714 -0.2293 -0.4038 -0.3081
 6622SOL    HW131499   0.527   4.474   4.765  1.6331  0.4269  0.2004
 6622SOL    HW231500   0.554   4.621   4.760 -0.2444 -1.7728  1.7913
 6623SOL     OW31501   2.511   2.750  10.674 -0.3662 -0.4882 -0.2014
 6623SOL    HW131502   2.553   2.665  10.673  2.8201  1.1015 -0.4614
 6623SOL    HW231503   2.493   2.769  10.766 -0.2557  0.3827 -0.3604
 6624SOL     OW31504   0.921   3.927  16.811 -0.1804  1.2059  0.0900
 6624SOL    HW131505   0.877   3.966  16.735 -2.3438  0.0893  0.7798
 6624SOL    HW231506   1.012   3.928  16.781  0.0101 -1.2667  0.5887
 6625SOL     OW31507   3.740   1.687   6.076  0.3234  0.1012 -0.4145
 6625SOL    HW131508   3.802   1.721   6.140 -0.1040 -0.4036  0.2631
 6625SOL    HW231509   3.698   1.611   6.115 -1.5917  0.9005 -0.9287
 6626SOL     OW31510   0.017   3.537   4.989  0.0148 -0.2494  0.0024
 6626SOL    HW131511   0.027   3.447   4.958  0.1516 -0.2323 -0.0060
 6626SOL    HW231512   4.662   3.547   4.969  0.0463 -0.8420 -0.4349
 6627SOL     OW31513   3.994   4.325  14.461  0.5255  0.7233  0.1818
 6627SOL    HW131514   3.914   4.334  14.409  0.4772 -0.8316 -0.0314
 6627SOL    HW231515   4.046   4.264  14.407 -3.5425 -2.2107 -0.4249
 6628SOL     OW31516   1.265   1.478   4.711 -0.0958 -0.2901 -0.3746
 6628SOL    HW131517   1.270   1.539   4.784 -0.0809 -1.7245  0.8316
 6628SOL    HW231518   1.273   1.542   4.641  0.2100 -1.6501 -1.5923
 6629SOL     OW31519   0.535   1.795   1.898 -0.7043 -0.0834 -0.9144
 6629SOL    HW131520   0.497   1.783   1.985 -2.1921  0.1771 -1.5335
 6629SOL    HW231521   0.602   1.862   1.907 -2.9304  1.8119  1.6052
 6630SOL     OW31522   2.376   3.601   9.642 -0.5816  0.0956 -0.4542
 6630SOL    HW131523   2.428   3.549   9.581 -0.3997  0.2649 -0.4428
 6630SOL    HW231524   2.298   3.613   9.588 -1.2255  1.7364  0.8224
 6631SOL     OW31525   1.543   3.053  17.607  0.1355  0.3014 -0.3246
 6631SOL    HW131526   1.501   3.031  17.690 -0.3956  4.3213  0.4822
 6631SOL    HW231527   1.524   3.146  17.596 -1.1987  0.1327  0.6318
 6632SOL     OW31528   1.531   0.249  11.107 -0.1473  0.3109  0.3739
 6632SOL    HW131529   1.466   0.291  11.164 -2.5856 -1.5193 -1.0496
 6632SOL    HW231530   1.562   0.325  11.058 -0.8394  0.0793 -0.4359
 6633SOL     OW31531   1.096   1.360  11.838 -0.1900  0.1683  0.1632
 6633SOL    HW131532   1.073   1.393  11.925 -3.4098  0.6985 -0.8662
 6633SOL    HW231533   1.177   1.405  11.818  1.1686 -2.5981 -0.5668
 6634SOL     OW31534   0.603   3.011   2.253  0.0687 -0.5018  0.0272
 6634SOL    HW131535   0.530   3.002   2.314  1.8195  0.4106  2.2744
 6634SOL    HW231536   0.635   3.093   2.291  0.8477 -1.7685  2.1022
 6635SOL     OW31537   1.132   3.597  17.639 -0.4470  0.4985 -0.5162
 6635SOL    HW131538   1.102   3.580  17.728 -0.9260 -0.1708 -0.8093
 6635SOL    HW231539   1.147   3.505  17.617  1.5606  0.4988  0.7619
 6636SOL     OW31540   0.018   3.280   9.777 -0.0284 -0.4059 -0.8218
 6636SOL    HW131541   0.033   3.218   9.706  2.4571  0.0988 -0.7113
 6636SOL    HW231542   0.098   3.267   9.827  0.5889  0.2553 -1.6500
 6637SOL     OW31543   4.397   3.807   3.638  0.2229 -0.0389  0.1554
 6637SOL    HW131544   4.336   3.742   3.673  0.2648 -0.1486  0.0257
 6637SOL    HW231545   4.458   3.755   3.585  1.8253 -0.0480  2.0220
 6638SOL     OW31546   0.356   4.385   5.074 -0.2522 -0.6710 -0.3527
 6638SOL    HW131547   0.276   4.407   5.027  0.5122 -1.8427 -2.2233
 6638SOL    HW231548   0.403   4.336   5.006  0.7130 -0.3357  0.0754
 6639SOL     OW31549   3.379   0.344  12.474  0.2361 -0.4372  0.1010
 6639SOL    HW131550   3.352   0.351  12.566  1.9037 -1.4427  0.6694
 6639SOL    HW231551   3.458   0.290  12.483  0.8602  0.1884 -1.7906
 6640SOL     OW31552   3.725   4.647   2.029 -0.0365 -0.2859  1.0188
 6640SOL    HW131553   3.667   4.673   2.101 -0.7565  0.8316  0.0182
 6640SOL    HW231554   3.723   4.551   2.025  0.2955 -0.2906  0.9372
 6641SOL     OW31555   1.427   1.650   2.425 -0.0806  0.0082  0.6211
 6641SOL    HW131556   1.471   1.725   2.386  0.0508 -0.7919 -0.7858
 6641SOL    HW231557   1.340   1.686   2.439  0.1759  1.5602 -1.9711
 6642SOL     OW31558   0.589   2.934   4.406 -0.1793 -0.3846 -0.3154
 6642SOL    HW131559   0.672   2.951   4.451 -0.5397  1.7191 -0.4447
 6642SOL    HW231560   0.613   2.973   4.322  2.1583  2.2284  1.5539
 6643SOL     OW31561   4.230   0.343   8.027  0.0300 -1.0113  0.4349
 6643SOL    HW131562   4.245   0.258   7.987  1.1422 -0.4394 -0.3513
 6643SOL    HW231563   4.322   0.370   8.028 -0.3991  0.4685  3.3646
 6644SOL     OW31564   3.932   3.544   8.495  0.1968 -0.2912  0.0014
 6644SOL    HW131565   3.940   3.578   8.406 -1.8717 -0.8264 -0.3945
 6644SOL    HW231566   3.845   3.503   8.493 -0.1972  0.5260  0.5352
 6645SOL     OW31567   2.737   2.547   1.134  0.7903  0.0062  0.2074
 6645SOL    HW131568   2.770   2.607   1.200  1.2788  0.9241 -0.8747
 6645SOL    HW231569   2.755   2.464   1.178  1.0407  1.1698  2.2772
 6646SOL     OW31570   1.066   2.136   5.240 -0.2430 -0.0575  0.5342
 6646SOL    HW131571   1.116   2.063   5.276  1.0790  1.4020  1.6914
 6646SOL    HW231572   1.069   2.190   5.319 -0.8645  1.1255 -0.2577
 6647SOL     OW31573   2.839   0.678  11.381 -0.1681 -0.3792  0.5803
 6647SOL    HW131574   2.757   0.727  11.393 -0.7541 -1.7443  2.1521
 6647SOL    HW231575   2.833   0.616  11.454  0.4343 -1.5854 -0.3947
 6648SOL     OW31576   1.636   3.642  14.290  0.0690 -0.4003  0.4071
 6648SOL    HW131577   1.591   3.560  14.312 -1.0535  0.7977  2.6055
 6648SOL    HW231578   1.669   3.663  14.378  2.3548 -1.1807 -0.2781
 6649SOL     OW31579   0.562   0.372   5.403  0.4366  0.2231 -0.1739
 6649SOL    HW131580   0.570   0.416   5.318 -1.4536  0.7297 -0.0810
 6649SOL    HW231581   0.501   0.424   5.454  0.9507  2.6635 -2.0252
 6650SOL     OW31582   1.629   0.816   3.475 -0.2027  0.3304  0.3348
 6650SOL    HW131583   1.538   0.808   3.446  0.1995 -0.4027 -0.7279
 6650SOL    HW231584   1.636   0.903   3.515  0.0756  0.6322 -0.3727
 6651SOL     OW31585   3.624   4.407  15.255  0.0864 -0.0623 -0.6073
 6651SOL    HW131586   3.705   4.356  15.262  0.4461  0.6148  0.2781
 6651SOL    HW231587   3.560   4.337  15.263 -1.7700  1.7160  0.1457
 6652SOL     OW31588   4.567   1.877   7.955 -0.2158 -0.6376 -0.5745
 6652SOL    HW131589   4.522   1.954   7.920  0.9860  1.4835  2.5419
 6652SOL    HW231590   4.655   1.913   7.970 -0.4291 -0.2442 -0.2595
 6653SOL     OW31591   0.800   1.441   5.865  0.2982 -0.8003 -0.1949
 6653SOL    HW131592   0.728   1.498   5.894  1.6862  1.1620 -0.6203
 6653SOL    HW231593   0.876   1.499   5.872 -0.3142 -0.2442  1.7292
 6654SOL     OW31594   1.224   0.794   2.036 -0.1737 -0.4842  0.2806
 6654SOL    HW131595   1.299   0.736   2.037  0.2999  0.1268  0.2050
 6654SOL    HW231596   1.184   0.762   2.117 -1.6514  0.2256 -0.1455
 6655SOL     OW31597   3.064   2.098   1.223  0.1121 -0.4475 -0.2975
 6655SOL    HW131598   3.008   2.026   1.196  1.8528 -1.0787 -2.2612
 6655SOL    HW231599   3.043   2.104   1.316 -0.5586 -1.9026 -0.3559
 6656SOL     OW31600   4.124   4.396   2.230 -0.6148  0.5975  0.3921
 6656SOL    HW131601   4.127   4.406   2.134 -0.8545 -0.1520  0.3075
 6656SOL    HW231602   4.122   4.490   2.247 -4.2311  0.4091  1.0086
 6657SOL     OW31603   2.953   0.023  16.152 -0.2672  0.3485  0.0825
 6657SOL    HW131604   3.045   0.043  16.166  0.0034  0.0085 -1.2646
 6657SOL    HW231605   2.966   4.667  16.146 -2.4767 -0.2077  3.5632
 6658SOL     OW31606   3.452   1.190   7.432  0.3333  0.0955 -0.7405
 6658SOL    HW131607   3.532   1.155   7.393  0.6647  0.1168 -0.0832
 6658SOL    HW231608   3.488   1.244   7.503  1.2616 -0.0551 -1.0938
 6659SOL     OW31609   1.078   2.724   4.035 -0.1547  0.4735 -0.7204
 6659SOL    HW131610   1.020   2.758   4.103 -0.1034 -1.5183  0.3219
 6659SOL    HW231611   1.011   2.664   4.001  0.2153  0.1609 -0.8914
 6660SOL     OW31612   3.332   2.429   8.428  0.5688  0.0611  0.0035
 6660SOL    HW131613   3.297   2.341   8.441 -2.6072  1.1321 -1.3258
 6660SOL    HW231614   3.276   2.480   8.486  1.7805  3.0783 -1.4845
 6661SOL     OW31615   1.793   0.907   2.654  0.2816 -0.4856 -0.0237
 6661SOL    HW131616   1.855   0.897   2.582 -1.3485 -1.4236 -1.3032
 6661SOL    HW231617   1.788   1.003   2.652  1.4474 -0.4157  0.1405
 6662SOL     OW31618   3.245   3.043   7.774  0.2945 -0.5628 -0.0296
 6662SOL    HW131619   3.300   3.021   7.700  0.6457  0.8359 -0.1784
 6662SOL    HW231620   3.176   2.976   7.770  0.6552 -0.9617  0.4220
 6663SOL     OW31621   1.113   1.900   1.751  0.3356 -0.5382  0.3313
 6663SOL    HW131622   1.046   1.907   1.819  0.0102 -1.1926  0.0745
 6663SOL    HW231623   1.152   1.821   1.788  2.6154  0.9401  1.0927
 6664SOL     OW31624   2.926   1.750   8.161 -0.3455 -0.4647  0.3973
 6664SOL    HW131625   2.843   1.713   8.191  0.1811 -2.8579 -1.0488
 6664SOL    HW231626   2.919   1.723   8.069  1.3529  2.9022 -0.7418
 6665SOL     OW31627   3.899   2.503  16.548 -0.3798 -0.1838  0.6054
 6665SOL    HW131628   3.813   2.525  16.584 -0.3148 -1.9141  1.7905
 6665SOL    HW231629   3.939   2.510  16.634  1.0509 -0.3139 -0.0447
 6666SOL     OW31630   2.656   2.503   8.866  0.0869  0.1715  0.2917
 6666SOL    HW131631   2.729   2.535   8.813 -0.8068 -0.0191 -1.0200
 6666SOL    HW231632   2.621   2.586   8.899  1.1256 -0.0761  2.0515
 6667SOL     OW31633   0.544   0.830   3.860 -0.0374  0.1698  0.5878
 6667SOL    HW131634   0.601   0.831   3.783 -0.2682 -2.0060  0.3984
 6667SOL    HW231635   0.608   0.846   3.930  1.6100  1.4683 -1.2233
 6668SOL     OW31636   4.344   1.206  16.944 -0.3352  0.5777  0.2248
 6668SOL    HW131637   4.432   1.237  16.922  0.6352 -2.3235 -0.0517
 6668SOL    HW231638   4.344   1.119  16.904 -0.3737  0.2258  0.9870
 6669SOL     OW31639   0.757   0.206   3.148  0.6206  0.2114 -0.1482
 6669SOL    HW131640   0.697   0.155   3.093 -2.7780  0.0860  3.6917
 6669SOL    HW231641   0.833   0.231   3.096  0.2340  0.4900 -0.5738
 6670SOL     OW31642   1.301   4.633   7.555 -0.2274 -0.0894  0.2411
 6670SOL    HW131643   1.391   4.603   7.547 -1.0092 -1.8784 -1.6993
 6670SOL    HW231644   1.320   4.717   7.597  2.0729 -1.9748  2.9407
 6671SOL     OW31645   1.710   1.551   5.070 -0.3863 -0.2009  0.4335
 6671SOL    HW131646   1.678   1.640   5.056 -2.2885 -0.7214  1.5331
 6671SOL    HW231647   1.703   1.538   5.165 -0.7353  0.2036  0.4591
 6672SOL     OW31648   3.242   0.677  15.468 -0.1403 -0.0568 -0.0822
 6672SOL    HW131649   3.265   0.658  15.377  1.8325 -2.5555  0.9344
 6672SOL    HW231650   3.169   0.738  15.459  1.5721  1.5273 -3.0970
 6673SOL     OW31651   0.445   1.631   7.796  0.1156  0.3709 -0.3744
 6673SOL    HW131652   0.513   1.632   7.729  1.5595  0.2098  1.0957
 6673SOL    HW231653   0.431   1.537   7.811 -1.1024  0.4847 -0.7949
 6674SOL     OW31654   0.564   2.096   9.028  0.5618  0.6606  0.2290
 6674SOL    HW131655   0.575   2.005   9.057 -0.2743  0.3162 -0.5427
 6674SOL    HW231656   0.517   2.127   9.105  0.3107 -0.1819  0.4168
 6675SOL     OW31657   3.501   4.293   4.763  0.1461 -0.1800  0.3730
 6675SOL    HW131658   3.510   4.200   4.742 -2.8856 -0.6997  1.4009
 6675SOL    HW231659   3.455   4.313   4.682 -1.1943  0.8209  1.3741
 6676SOL     OW31660   0.403   4.152   5.677  0.2223 -0.1913 -0.1198
 6676SOL    HW131661   0.489   4.133   5.714 -0.0735  1.5841  1.4333
 6676SOL    HW231662   0.338   4.097   5.721  0.8309  0.5398  1.7006
 6677SOL     OW31663   2.998   1.741   6.809  0.7403  0.6090 -0.2188
 6677SOL    HW131664   3.052   1.708   6.737  1.6942 -0.0127  0.7835
 6677SOL    HW231665   3.062   1.801   6.847  0.9434  0.9835 -1.1505
 6678SOL     OW31666   0.736   0.736   9.679  0.6663  0.1618  0.3330
 6678SOL    HW131667   0.758   0.818   9.634  3.5970 -0.9046 -0.1638
 6678SOL    HW231668   0.661   0.763   9.732 -0.2870 -2.1157  0.0936
 6679SOL     OW31669   3.365   2.657   7.607  0.2156  0.0351  0.2879
 6679SOL    HW131670   3.347   2.563   7.602 -1.7537  0.4539 -0.3171
 6679SOL    HW231671   3.391   2.669   7.699 -0.4105  0.5074  0.4017
 6680SOL     OW31672   1.009   0.282   4.608  0.1345  0.2950  0.2324
 6680SOL    HW131673   0.938   0.299   4.547 -1.2901  2.9083  2.6266
 6680SOL    HW231674   1.042   0.196   4.580  0.3720  0.7612 -0.8839
 6681SOL     OW31675   1.201   0.585  17.446  0.2616 -0.3649 -0.0797
 6681SOL    HW131676   1.193   0.573  17.541  0.0339 -1.3398 -0.2178
 6681SOL    HW231677   1.189   0.678  17.429 -0.4444 -0.8413 -2.2296
 6682SOL     OW31678   1.339   3.730   6.330 -0.0274 -0.0015  0.5121
 6682SOL    HW131679   1.338   3.791   6.256  3.5501 -0.1832  0.3170
 6682SOL    HW231680   1.421   3.750   6.375  1.0879 -2.6342 -0.3808
 6683SOL     OW31681   3.885   4.416  17.471  0.4221  0.0381 -0.5958
 6683SOL    HW131682   3.842   4.378  17.548  0.3294  0.1897 -0.5725
 6683SOL    HW231683   3.978   4.415  17.494  0.7211 -0.5546 -1.8647
 6684SOL     OW31684   4.143   0.810   5.800 -0.3588 -0.4675 -0.1369
 6684SOL    HW131685   4.087   0.882   5.830  1.0666  1.1616 -1.4057
 6684SOL    HW231686   4.089   0.731   5.805  1.4471 -1.6387  0.7738
 6685SOL     OW31687   4.291   1.317  16.272 -0.1360 -0.3420 -0.4158
 6685SOL    HW131688   4.365   1.348  16.324 -0.3608 -1.4270  0.5524
 6685SOL    HW231689   4.271   1.389  16.213  2.0827 -0.4440 -1.2866
 6686SOL     OW31690   0.167   1.933   9.080  0.1113  0.0771 -0.4626
 6686SOL    HW131691   0.161   2.022   9.114  0.9339  0.2457 -0.7627
 6686SOL    HW231692   0.184   1.887   9.163  0.1035 -1.5674 -1.3710
 6687SOL     OW31693   2.821   1.152   1.821 -0.2071 -0.1216 -0.3746
 6687SOL    HW131694   2.839   1.060   1.801 -0.2504 -0.6587  2.1165
 6687SOL    HW231695   2.778   1.180   1.740  0.4702 -0.7563 -0.9572
 6688SOL     OW31696   1.410   1.780   5.880 -0.4251  0.6353  0.0091
 6688SOL    HW131697   1.471   1.707   5.873  1.1797  2.0729 -0.8278
 6688SOL    HW231698   1.397   1.777   5.975 -2.5172 -2.4323 -0.3660
 6689SOL     OW31699   3.758   2.060   8.621  0.4052  0.5955  0.2383
 6689SOL    HW131700   3.752   1.971   8.584 -1.2840  0.2762  1.2902
 6689SOL    HW231701   3.748   2.038   8.713  0.8205  0.0577  0.1588
 6690SOL     OW31702   4.179   4.672  16.314 -0.0519 -0.0284  0.0524
 6690SOL    HW131703   4.119   0.004  16.339  2.2329  1.4107  1.5076
 6690SOL    HW231704   4.164   4.648  16.223 -1.5849  0.1214  0.2663
 6691SOL     OW31705   2.614   1.207  16.852 -0.1757  0.2009 -0.8477
 6691SOL    HW131706   2.664   1.260  16.790 -1.8519  0.8913 -1.6188
 6691SOL    HW231707   2.586   1.275  16.913  0.6711 -0.5815  0.4080
 6692SOL     OW31708   2.740   1.101   7.041 -0.2199 -0.5836 -0.5610
 6692SOL    HW131709   2.785   1.018   7.057 -0.5888 -0.9476 -1.4299
 6692SOL    HW231710   2.809   1.163   7.017 -0.9615 -0.5025 -2.5292
 6693SOL     OW31711   1.365   3.158  10.082  0.6408 -0.4486  0.4564
 6693SOL    HW131712   1.332   3.241  10.116  2.4070  1.3174 -2.0787
 6693SOL    HW231713   1.359   3.101  10.159  1.0386 -1.6431 -0.3873
 6694SOL     OW31714   4.394   3.351   6.491 -0.2453  0.1190  0.3201
 6694SOL    HW131715   4.465   3.336   6.428  0.1443  0.7072  0.6196
 6694SOL    HW231716   4.353   3.428   6.452 -2.2593  0.0179  2.2250
 6695SOL     OW31717   1.927   1.734   6.979 -0.1335  0.1376  0.3762
 6695SOL    HW131718   1.943   1.824   6.950 -0.2168  1.1253  3.3900
 6695SOL    HW231719   1.976   1.732   7.061 -0.7085 -2.4006  0.6484
 6696SOL     OW31720   0.193   0.341   1.581 -0.5472 -0.6137 -0.0805
 6696SOL    HW131721   0.115   0.357   1.528  0.1483 -0.1688 -0.9615
 6696SOL    HW231722   0.152   0.313   1.663  2.1468 -0.3722  1.3668
 6697SOL     OW31723   0.657   1.011   0.041  0.0735  0.3085  0.2423
 6697SOL    HW131724   0.642   0.954  17.716  1.5246 -0.8562  0.8346
 6697SOL    HW231725   0.604   1.086   0.014 -1.1091 -1.2077 -1.5465
 6698SOL     OW31726   1.607   2.877   8.928 -0.0478 -0.3408  0.0914
 6698SOL    HW131727   1.563   2.886   8.844  1.3462  0.3625 -0.5691
 6698SOL    HW231728   1.622   2.783   8.924  1.8711  0.0179 -1.3930
 6699SOL     OW31729   4.449   3.410  15.757  0.2346  0.0054  0.2825
 6699SOL    HW131730   4.462   3.501  15.731  2.1537  0.1813  1.8390
 6699SOL    HW231731   4.488   3.367  15.681  2.6633 -0.5874  1.8791
 6700SOL     OW31732   4.072   0.175   2.813  0.0795  0.3868 -0.2951
 6700SOL    HW131733   4.014   0.233   2.863 -0.2477  1.0403 -1.4305
 6700SOL    HW231734   4.131   0.239   2.773  1.7387 -1.5155 -0.8831
 6701SOL     OW31735   2.021   2.187  10.166 -0.0435  0.2823  0.3142
 6701SOL    HW131736   2.036   2.257  10.229 -2.1703  1.6203 -0.6595
 6701SOL    HW231737   2.072   2.210  10.088  2.7199 -1.7002  1.5825
 6702SOL     OW31738   4.718   1.797  17.024  0.2892 -0.3785 -0.1306
 6702SOL    HW131739   4.638   1.758  16.990 -0.2091 -0.0538  0.6766
 6702SOL    HW231740   4.695   1.798  17.117 -0.7790 -0.9038 -0.3938
 6703SOL     OW31741   2.218   2.812  13.251 -0.1125  0.1595  0.1591
 6703SOL    HW131742   2.229   2.738  13.191  0.2893 -0.0141  0.4458
 6703SOL    HW231743   2.264   2.778  13.328 -1.0545 -2.1121 -0.3009
 6704SOL     OW31744   4.147   0.444  12.097  0.1292 -0.0856  0.6476
 6704SOL    HW131745   4.231   0.477  12.128 -0.2272 -0.1997  1.7428
 6704SOL    HW231746   4.105   0.530  12.090 -0.3372 -0.4183 -0.5979
 6705SOL     OW31747   2.990   0.615   8.310 -0.1445  0.1332  0.2462
 6705SOL    HW131748   3.052   0.583   8.375 -0.9148  0.1141  0.9652
 6705SOL    HW231749   2.923   0.645   8.371 -0.5285  0.5285 -0.3645
 6706SOL     OW31750   2.836   4.624  13.435 -0.2792  0.1257  0.2941
 6706SOL    HW131751   2.860   4.611  13.527  0.8664  0.0501 -0.0223
 6706SOL    HW231752   2.747   4.657  13.449 -1.0801 -1.0094 -2.0989
 6707SOL     OW31753   2.620   0.611   2.258 -0.2251 -0.2337  0.1738
 6707SOL    HW131754   2.653   0.593   2.170 -0.7213  0.5781 -0.1671
 6707SOL    HW231755   2.533   0.571   2.259 -0.9922  1.4177 -2.3443
 6708SOL     OW31756   3.585   3.232  16.357 -0.4683  0.5575 -0.1734
 6708SOL    HW131757   3.593   3.159  16.418  2.7183  0.4307 -0.7878
 6708SOL    HW231758   3.551   3.293  16.424  1.2325  4.4414 -2.8626
 6709SOL     OW31759   3.857   0.588   7.351  0.9341  0.4252 -0.5241
 6709SOL    HW131760   3.814   0.535   7.283  2.4250 -2.5395  0.8833
 6709SOL    HW231761   3.903   0.652   7.297  0.2384 -0.1030 -1.7552
 6710SOL     OW31762   0.736   3.129   8.876  0.0866  0.1438 -0.0996
 6710SOL    HW131763   0.659   3.169   8.836 -1.3473 -0.3851  2.0729
 6710SOL    HW231764   0.704   3.039   8.883  0.2673  0.1150  0.3594
 6711SOL     OW31765   2.191   0.810  16.510  0.2907 -0.2386  0.3219
 6711SOL    HW131766   2.276   0.803  16.467  0.7029  2.0773  0.7524
 6711SOL    HW231767   2.223   0.787  16.598 -1.5661  0.5725  1.2169
 6712SOL     OW31768   3.258   4.441   4.328  0.6055  0.7696 -0.2210
 6712SOL    HW131769   3.207   4.434   4.409  1.6624 -1.1004  0.2749
 6712SOL    HW231770   3.190   4.424   4.263 -2.8883  1.1707  3.3124
 6713SOL     OW31771   0.044   3.677  14.000  0.1462  0.0272  0.2932
 6713SOL    HW131772   4.696   3.716  13.980 -0.7852 -1.7513  0.8361
 6713SOL    HW231773   0.098   3.736  13.948  0.9192 -1.9062 -1.1053
 6714SOL     OW31774   2.101   2.949   3.398 -0.1335  0.1608  0.1348
 6714SOL    HW131775   2.049   2.877   3.432  2.0448 -0.7269  1.5976
 6714SOL    HW231776   2.135   2.970   3.485  1.0505 -0.2191 -0.2375
 6715SOL     OW31777   1.614   1.586   4.345 -0.1449  0.0564 -0.5011
 6715SOL    HW131778   1.632   1.616   4.256  0.0534 -0.4290 -0.6239
 6715SOL    HW231779   1.541   1.528   4.326  1.6286 -1.9116 -1.3852
 6716SOL     OW31780   4.331   1.869   1.279 -0.1042 -0.2143  0.7178
 6716SOL    HW131781   4.359   1.794   1.331 -1.4218 -1.6076 -0.5974
 6716SOL    HW231782   4.347   1.934   1.348 -0.8345 -0.8126  1.4505
 6717SOL     OW31783   4.182   3.110   7.294  0.6164 -0.1359 -0.2479
 6717SOL    HW131784   4.194   3.166   7.217  1.6590  1.0876  0.8053
 6717SOL    HW231785   4.269   3.121   7.331 -0.1327  1.4922  1.0259
 6718SOL     OW31786   0.941   1.940   7.829 -0.0566 -0.8111 -0.4837
 6718SOL    HW131787   0.941   2.001   7.755  1.3847  1.6770  1.5751
 6718SOL    HW231788   0.889   1.985   7.896  2.2219  0.0500  0.7120
 6719SOL     OW31789   1.706   0.962   0.993  0.0070 -0.3748  0.1889
 6719SOL    HW131790   1.691   1.028   0.925  0.0766 -1.5301 -0.9476
 6719SOL    HW231791   1.634   0.989   1.051 -0.8102  2.3076 -2.0520
 6720SOL     OW31792   2.267   4.495   5.377  0.2566  0.2691 -0.1124
 6720SOL    HW131793   2.285   4.570   5.434 -1.2280  0.6977 -0.2257
 6720SOL    HW231794   2.179   4.511   5.344 -0.1211 -1.8513 -0.1388
 6721SOL     OW31795   0.418   0.823   5.274 -0.0049 -0.4405  0.0907
 6721SOL    HW131796   0.388   0.874   5.349  1.0762 -0.1288  0.3133
 6721SOL    HW231797   0.490   0.778   5.318  1.5841  0.7162 -1.3254
 6722SOL     OW31798   2.272   1.353   3.445 -0.2754  0.1789 -0.1360
 6722SOL    HW131799   2.358   1.357   3.403 -1.0499  2.9409 -1.4810
 6722SOL    HW231800   2.210   1.370   3.375 -0.7818 -1.6087 -0.1222
 6723SOL     OW31801   3.208   0.803   9.661 -0.3054  0.7738 -0.6436
 6723SOL    HW131802   3.275   0.816   9.729  1.3974 -1.1709 -1.9331
 6723SOL    HW231803   3.199   0.708   9.667 -2.7158  0.8897 -2.9668
 6724SOL     OW31804   2.139   3.044  15.459  0.1663  0.7030 -0.1390
 6724SOL    HW131805   2.131   2.951  15.479  0.4685  0.2470 -2.0811
 6724SOL    HW231806   2.233   3.054  15.447  0.2703 -0.7642 -0.5650
 6725SOL     OW31807   3.821   2.254   6.650 -0.3425  0.3201 -0.3454
 6725SOL    HW131808   3.738   2.273   6.695 -0.8137  0.2283 -1.1790
 6725SOL    HW231809   3.870   2.210   6.719  0.1425 -0.0588 -0.9360
 6726SOL     OW31810   0.883   0.852   8.242 -0.2736 -0.3176  0.2155
 6726SOL    HW131811   0.966   0.895   8.261  0.2993 -0.7801 -1.2487
 6726SOL    HW231812   0.830   0.895   8.309  2.0459  2.6706  0.1028
 6727SOL     OW31813   4.572   3.405   1.563 -0.0441 -0.4971  0.5664
 6727SOL    HW131814   4.660   3.373   1.542 -0.8217 -2.1400 -0.2508
 6727SOL    HW231815   4.587   3.495   1.536 -1.5612  0.1035  1.7478
 6728SOL     OW31816   1.738   3.567   1.518  0.3360  0.0790  0.0005
 6728SOL    HW131817   1.659   3.546   1.568  0.1186  0.7092 -0.0832
 6728SOL    HW231818   1.700   3.573   1.430  1.6962 -0.2703 -0.6115
 6729SOL     OW31819   2.996   0.359  10.186 -0.0114 -0.1289  0.7256
 6729SOL    HW131820   3.028   0.324  10.103 -1.9974 -0.2972  0.0363
 6729SOL    HW231821   2.943   0.283  10.210 -2.2096  0.6743 -1.5362
 6730SOL     OW31822   4.607   4.355  13.269 -0.5162  0.5295  0.3769
 6730SOL    HW131823   4.574   4.365  13.179  0.4192  1.7077  0.1734
 6730SOL    HW231824   4.553   4.287  13.309 -0.2389  0.8695  1.3087
 6731SOL     OW31825   0.692   2.244   2.727 -0.0741  0.2902 -0.1740
 6731SOL    HW131826   0.624   2.267   2.665 -0.5820  1.4142  0.7869
 6731SOL    HW231827   0.684   2.149   2.728 -0.2266  0.3040 -0.1427
 6732SOL     OW31828   2.106   0.765   8.146  0.3651 -0.3736  0.4788
 6732SOL    HW131829   2.193   0.774   8.187  1.1985 -1.0942 -1.1497
 6732SOL    HW231830   2.054   0.802   8.217  0.1380  0.2495 -0.0107
 6733SOL     OW31831   0.309   0.888   7.493  0.5439  0.3511  0.2909
 6733SOL    HW131832   0.258   0.968   7.502  2.1309  1.4100 -0.1281
 6733SOL    HW231833   0.394   0.926   7.515 -0.4617  1.9890  1.3483
 6734SOL     OW31834   2.611   2.342   1.410 -0.2565 -0.2310 -0.4959
 6734SOL    HW131835   2.658   2.335   1.493  1.1559  0.4991 -1.2360
 6734SOL    HW231836   2.647   2.276   1.351 -2.7726 -1.3872 -0.7250
 6735SOL     OW31837   4.168   0.157   7.744  0.4297 -0.2878  0.3652
 6735SOL    HW131838   4.232   0.207   7.693 -0.2028  0.6893  0.5142
 6735SOL    HW231839   4.188   0.073   7.703  0.4110 -0.5921  0.9769
 6736SOL     OW31840   2.293   3.321   7.720  0.2750  0.0512  0.0079
 6736SOL    HW131841   2.386   3.344   7.712  0.6142 -1.8694 -1.5035
 6736SOL    HW231842   2.315   3.228   7.717  0.2362  0.1298 -2.6745
 6737SOL     OW31843   4.567   2.984   4.189 -0.2983 -0.3063  1.0428
 6737SOL    HW131844   4.604   2.902   4.223  0.1739 -0.5570 -0.1016
 6737SOL    HW231845   4.532   3.017   4.272  0.8334 -0.7049  1.6753
 6738SOL     OW31846   0.724   2.442  14.217  0.2975  0.0355  0.0646
 6738SOL    HW131847   0.808   2.482  14.195 -0.0350  1.1854  0.9185
 6738SOL    HW231848   0.700   2.489  14.297  0.0533 -1.4617  0.8761
 6739SOL     OW31849   1.576   2.035   1.276  0.2239  0.1464  0.6944
 6739SOL    HW131850   1.632   1.957   1.272 -1.1624 -0.7551 -0.9718
 6739SOL    HW231851   1.600   2.069   1.362 -0.4045  1.5211  0.3240
 6740SOL     OW31852   2.895   3.206   3.083 -0.1933  0.2355  0.4093
 6740SOL    HW131853   2.981   3.200   3.125 -0.3561  0.6599  0.8007
 6740SOL    HW231854   2.920   3.203   2.990 -2.5705 -0.2172 -0.1926
 6741SOL     OW31855   2.735   3.209  10.501 -0.9193  0.1437 -0.4837
 6741SOL    HW131856   2.693   3.138  10.550 -2.5300 -0.0369 -2.1285
 6741SOL    HW231857   2.823   3.172  10.506 -0.3009  1.1501 -3.8209
 6742SOL     OW31858   4.173   3.652   7.365  0.4716  0.3559 -0.4249
 6742SOL    HW131859   4.167   3.738   7.323 -0.5053  1.0037  1.0051
 6742SOL    HW231860   4.239   3.671   7.432  1.6797 -1.0987 -1.2404
 6743SOL     OW31861   1.695   4.008   6.872  0.3391  0.2687 -0.7023
 6743SOL    HW131862   1.762   4.074   6.890 -0.3261  0.4989  1.0234
 6743SOL    HW231863   1.638   4.019   6.949 -0.3220  1.7607 -1.4089
 6744SOL     OW31864   2.775   4.465   4.466 -0.4437 -0.1325 -0.1532
 6744SOL    HW131865   2.711   4.402   4.501  0.1981 -2.1962 -2.6541
 6744SOL    HW231866   2.746   4.545   4.509  0.4042 -1.2356  2.4484
 6745SOL     OW31867   3.805   0.851   5.210 -0.0562 -0.2508 -0.1504
 6745SOL    HW131868   3.803   0.757   5.226  0.9574 -0.1587  0.5133
 6745SOL    HW231869   3.896   0.872   5.234  1.1300 -4.4737 -0.9409
 6746SOL     OW31870   4.210   1.666   4.091  0.3369 -0.1810 -0.0678
 6746SOL    HW131871   4.121   1.647   4.063 -0.4933 -0.1860  2.6544
 6746SOL    HW231872   4.243   1.691   4.004  0.3118 -0.3058 -0.1132
 6747SOL     OW31873   4.548   4.484   6.447 -0.2850 -0.3862 -0.0785
 6747SOL    HW131874   4.614   4.475   6.378 -1.4970 -0.0669 -1.2923
 6747SOL    HW231875   4.521   4.393   6.453 -1.9727 -0.0840 -2.9395
 6748SOL     OW31876   2.903   1.959  14.164 -0.3228  0.2964 -0.6632
 6748SOL    HW131877   2.824   1.922  14.204 -0.8960  1.1962 -0.9727
 6748SOL    HW231878   2.902   2.052  14.188 -1.1156 -0.2470  1.4902
 6749SOL     OW31879   2.623   3.193  17.106 -0.3362  0.2363 -0.3737
 6749SOL    HW131880   2.667   3.109  17.121  0.7398  0.6573 -1.1470
 6749SOL    HW231881   2.540   3.151  17.082 -0.2155  2.5133 -4.7314
 6750SOL     OW31882   2.797   2.442  12.473 -0.6418 -0.2908 -0.1644
 6750SOL    HW131883   2.767   2.415  12.386  0.1051  1.7970 -1.0846
 6750SOL    HW231884   2.714   2.482  12.499 -0.1392  0.6369  0.0132
 6751SOL     OW31885   1.962   0.533   8.119  0.0170  0.1688 -0.0518
 6751SOL    HW131886   2.011   0.612   8.141  1.0586 -1.1997  2.4169
 6751SOL    HW231887   1.880   0.569   8.086 -0.9757 -0.7418  1.4300
 6752SOL     OW31888   4.260   1.301   4.317  0.1384  0.0320  0.3881
 6752SOL    HW131889   4.171   1.303   4.282  0.2308 -0.0964  0.1462
 6752SOL    HW231890   4.291   1.392   4.320  2.1622 -0.7189  2.1156
 6753SOL     OW31891   0.554   3.600   3.539 -0.1098  0.2781  0.1701
 6753SOL    HW131892   0.538   3.582   3.632 -2.7054  0.8961 -0.1514
 6753SOL    HW231893   0.611   3.524   3.530  1.5618  1.5228  0.3190
 6754SOL     OW31894   3.798   4.187   1.602  0.3748 -0.2802 -0.1962
 6754SOL    HW131895   3.762   4.224   1.522  2.5249  0.7233 -0.7069
 6754SOL    HW231896   3.867   4.131   1.565  1.2128  0.5935  0.0582
 6755SOL     OW31897   2.303   2.216   4.834  0.2445 -0.1009  0.0888
 6755SOL    HW131898   2.384   2.261   4.858  2.8056 -4.1505 -0.9636
 6755SOL    HW231899   2.264   2.281   4.775  0.8904  0.2721  0.0629
 6756SOL     OW31900   2.367   1.414   7.019  0.7619  0.2069 -0.0985
 6756SOL    HW131901   2.325   1.329   7.011  2.6309 -0.5986 -1.2157
 6756SOL    HW231902   2.384   1.419   7.113 -3.1969  3.1156  0.5048
 6757SOL     OW31903   1.691   0.358   7.934  0.2939  0.1019  0.5021
 6757SOL    HW131904   1.717   0.350   8.026 -0.2236  0.2795  0.6635
 6757SOL    HW231905   1.709   0.279   7.882 -1.1993 -0.1016  0.3018
 6758SOL     OW31906   3.248   3.260  10.499 -0.2174 -0.2823  0.5664
 6758SOL    HW131907   3.305   3.253  10.422 -1.0730 -0.5057 -0.0382
 6758SOL    HW231908   3.303   3.219  10.566  0.2165 -1.1775 -0.3383
 6759SOL     OW31909   2.987   3.604  17.736  0.2591 -0.4554  0.0914
 6759SOL    HW131910   3.070   3.650  17.722 -0.9971  0.3476 -4.5286
 6759SOL    HW231911   2.938   3.629  17.658  0.3179 -2.0998 -0.4712
 6760SOL     OW31912   3.568   1.345   7.615  0.3992  0.2611 -0.0044
 6760SOL    HW131913   3.527   1.377   7.695  0.4579 -2.2418  0.9972
 6760SOL    HW231914   3.638   1.408   7.594 -1.3696  1.5005 -2.1631
 6761SOL     OW31915   4.139   4.200   0.152 -0.1345 -0.1987 -0.1144
 6761SOL    HW131916   4.049   4.232   0.143 -0.6780 -1.4594  0.8769
 6761SOL    HW231917   4.155   4.164   0.065  0.1345  2.0625 -1.0126
 6762SOL     OW31918   0.416   2.886   8.094 -0.1791  0.2294 -0.6030
 6762SOL    HW131919   0.420   2.800   8.137  0.1539  0.2583 -0.5766
 6762SOL    HW231920   0.421   2.848   8.006 -1.3046  1.9361 -1.4045
 6763SOL     OW31921   0.713   2.273  16.655 -0.0717  0.3844  0.3124
 6763SOL    HW131922   0.777   2.207  16.680  1.2079  1.0085 -1.3507
 6763SOL    HW231923   0.631   2.234  16.622  0.1345  0.4528 -0.2691
 6764SOL     OW31924   4.142   4.023  17.670  0.1050  0.3921 -0.3250
 6764SOL    HW131925   4.143   3.929  17.690  0.3069  1.0127  2.6834
 6764SOL    HW231926   4.081   4.029  17.597 -2.0866 -0.6863  1.4116
 6765SOL     OW31927   1.039   1.005   2.690 -0.0315  0.1156  0.0730
 6765SOL    HW131928   0.971   1.055   2.644  0.5506  0.8268 -0.0143
 6765SOL    HW231929   0.985   0.968   2.759  0.1924 -1.1280 -0.4195
 6766SOL     OW31930   3.641   0.897   2.342  0.2293  0.2590 -0.6601
 6766SOL    HW131931   3.657   0.988   2.318 -1.4004 -0.4999 -4.6285
 6766SOL    HW231932   3.625   0.893   2.437  0.2193  0.8093 -0.6373
 6767SOL     OW31933   3.108   0.532   4.523 -0.5444 -0.9189  0.2635
 6767SOL    HW131934   3.130   0.535   4.430  1.1255  0.9202  0.7073
 6767SOL    HW231935   3.153   0.606   4.565 -0.0795 -0.4806 -1.0186
 6768SOL     OW31936   3.895   3.930   5.547 -0.1932 -0.1646 -0.0310
 6768SOL    HW131937   3.974   3.902   5.593  0.2507  1.2332  0.0561
 6768SOL    HW231938   3.833   3.864   5.577  1.2987 -1.6787 -0.2371
 6769SOL     OW31939   4.719   3.046   3.177 -0.7090 -0.1112  0.2012
 6769SOL    HW131940   4.705   2.961   3.135  2.7297 -0.9758  0.7634
 6769SOL    HW231941   4.680   3.028   3.262 -1.4220  0.5638  0.0155
 6770SOL     OW31942   4.187   3.251   5.410 -0.1522 -0.1032  0.1926
 6770SOL    HW131943   4.158   3.167   5.375  2.3688 -1.0971  0.4357
 6770SOL    HW231944   4.116   3.262   5.473 -0.3091 -2.2963  0.4093
 6771SOL     OW31945   2.734   3.980   6.768 -0.5007  0.0372  0.1266
 6771SOL    HW131946   2.809   3.981   6.708 -0.4832  0.6362  0.1644
 6771SOL    HW231947   2.699   3.890   6.768  1.1623 -0.6092  0.1092
 6772SOL     OW31948   4.072   1.771   4.370 -0.3372  0.1322  0.5233
 6772SOL    HW131949   4.103   1.681   4.380 -0.5807  0.1724  1.6415
 6772SOL    HW231950   3.979   1.764   4.394  0.1631  1.3677  2.8400
 6773SOL     OW31951   3.324   3.638   5.098  0.1333 -0.5305 -0.7002
 6773SOL    HW131952   3.298   3.698   5.169 -1.6372 -2.0120 -0.0935
 6773SOL    HW231953   3.240   3.614   5.058  0.1568 -2.2229  0.2535
 6774SOL     OW31954   3.326   0.220   3.312 -0.5829  0.0122 -0.2113
 6774SOL    HW131955   3.418   0.233   3.290 -0.0749 -1.4408  1.0716
 6774SOL    HW231956   3.304   0.128   3.298  2.5352 -0.9443  1.1632
 6775SOL     OW31957   1.824   3.665   3.879 -0.0068 -0.5727 -0.2154
 6775SOL    HW131958   1.809   3.746   3.830  0.1327 -0.1422  0.4414
 6775SOL    HW231959   1.915   3.654   3.853 -0.5106  1.2564 -2.6866
 6776SOL     OW31960   1.126   0.818  14.735 -0.0151  0.6834 -0.7200
 6776SOL    HW131961   1.164   0.828  14.823 -0.2880  3.4421 -0.9191
 6776SOL    HW231962   1.175   0.886  14.688 -0.1560  1.3934  0.1675
 6777SOL     OW31963   2.628   1.557  16.915  0.4263  0.4155  0.0296
 6777SOL    HW131964   2.621   1.491  16.983 -2.5360 -0.0574 -0.7277
 6777SOL    HW231965   2.639   1.634  16.971  1.2237 -1.3810  2.3159
 6778SOL     OW31966   1.270   1.174  15.474  0.0638 -0.1756 -0.4757
 6778SOL    HW131967   1.201   1.136  15.528  1.3326  1.4537  2.3004
 6778SOL    HW231968   1.282   1.256  15.522 -1.5032  0.2550 -0.8211
 6779SOL     OW31969   1.873   2.702   3.448 -0.5077 -0.1499  0.2308
 6779SOL    HW131970   1.815   2.681   3.521  0.0457 -1.8585  0.1920
 6779SOL    HW231971   1.923   2.620   3.438  0.3027  0.7344 -2.9674
 6780SOL     OW31972   4.658   1.801   6.534 -0.3683 -0.3077  0.2798
 6780SOL    HW131973   4.728   1.846   6.487 -0.9660  0.4762  0.1490
 6780SOL    HW231974   4.583   1.849   6.499 -0.4370 -1.7473 -1.5657
 6781SOL     OW31975   3.696   1.046   4.867 -0.1585  0.1519 -0.8656
 6781SOL    HW131976   3.635   1.102   4.915  0.7003  0.7763 -0.4994
 6781SOL    HW231977   3.658   0.958   4.867  0.8729 -0.2923 -1.6748
 6782SOL     OW31978   1.261   3.840   5.953 -0.4548 -0.0396  0.1515
 6782SOL    HW131979   1.168   3.857   5.966 -0.0407  1.5226  1.2346
 6782SOL    HW231980   1.275   3.902   5.881  1.6038  0.0182  0.5800
 6783SOL     OW31981   1.878   3.899   8.461 -0.6429  0.3946  0.5809
 6783SOL    HW131982   1.789   3.865   8.468 -1.2096  1.6918 -0.2863
 6783SOL    HW231983   1.883   3.924   8.369 -1.8577  0.0807  0.4337
 6784SOL     OW31984   0.057   4.268  12.468 -0.0056 -0.0470  0.0486
 6784SOL    HW131985   4.720   4.316  12.504  0.6114  0.0931  1.1354
 6784SOL    HW231986   0.110   4.336  12.428 -0.5781  0.4343  0.1119
 6785SOL     OW31987   4.042   0.087   6.978  0.0292 -0.0754  0.0629
 6785SOL    HW131988   4.066   0.063   7.067 -1.1667 -1.1698  0.0920
 6785SOL    HW231989   3.958   0.041   6.967  0.1895 -0.1453 -0.8677
 6786SOL     OW31990   1.973   1.024   5.803  0.4052 -0.1769 -0.4137
 6786SOL    HW131991   1.937   1.059   5.721  0.6451  0.9197 -0.0590
 6786SOL    HW231992   2.052   0.980   5.773  0.5409 -0.1880 -0.0347
 6787SOL     OW31993   3.960   2.359  10.404  0.1611  0.0640  0.1512
 6787SOL    HW131994   4.026   2.416  10.364  1.2457 -0.6550  0.9139
 6787SOL    HW231995   3.982   2.275  10.364 -1.6904  0.3589 -1.4696
 6788SOL     OW31996   1.904   4.174   3.753 -0.6779 -0.2382 -0.7663
 6788SOL    HW131997   1.939   4.248   3.702 -1.6993 -0.2375 -1.4790
 6788SOL    HW231998   1.954   4.202   3.829 -2.1597 -0.8570  0.4356
 6789SOL     OW31999   0.115   3.176   5.593  0.0701 -0.2321  0.0842
 6789SOL    HW132000   0.151   3.107   5.648 -1.7043 -0.6267  0.7741
 6789SOL    HW232001   0.177   3.245   5.616 -0.1983  0.0885 -0.1322
 6790SOL     OW32002   2.089   2.071   7.257  0.2798  0.0451  0.4231
 6790SOL    HW132003   2.061   1.980   7.269  1.0164 -0.2735 -0.2899
 6790SOL    HW232004   2.024   2.125   7.302 -2.1093 -3.0927  0.7723
 6791SOL     OW32005   4.337   0.395   6.606 -0.2479  0.4777  0.3672
 6791SOL    HW132006   4.287   0.441   6.674 -0.1654  0.0319  0.7311
 6791SOL    HW232007   4.281   0.329   6.564 -1.2555  0.8014  1.1869
 6792SOL     OW32008   0.855   0.422  14.128  0.0513  0.0609  0.2414
 6792SOL    HW132009   0.838   0.431  14.034 -0.7280 -0.5618  0.3283
 6792SOL    HW232010   0.846   0.328  14.142 -2.9614  0.0312 -1.9701
 6793SOL     OW32011   1.041   3.484  17.317  0.2207  0.7013  0.1089
 6793SOL    HW132012   0.991   3.563  17.338 -0.0235 -0.2152  2.9973
 6793SOL    HW232013   0.969   3.425  17.297  1.4345 -0.8226  0.2640
 6794SOL     OW32014   1.069   1.610   3.871 -0.2086 -0.0351  0.0686
 6794SOL    HW132015   1.154   1.655   3.864 -0.8516  0.7977 -2.5718
 6794SOL    HW232016   1.032   1.654   3.794 -3.3829 -0.6683  1.2146
 6795SOL     OW32017   1.375   0.144   2.928 -0.0540  0.2509  0.4165
 6795SOL    HW132018   1.438   0.214   2.912  1.0708 -1.0073 -0.6815
 6795SOL    HW232019   1.429   0.096   2.991  0.8831  0.5858 -0.1330
 6796SOL     OW32020   1.780   4.598   9.215 -0.1865  0.5310  0.2601
 6796SOL    HW132021   1.797   4.669   9.153  2.2019  0.5071  0.8977
 6796SOL    HW232022   1.844   4.621   9.282 -2.0928  0.4707  2.1220
 6797SOL     OW32023   2.860   0.400  12.646  0.1512 -0.0042  0.0974
 6797SOL    HW132024   2.881   0.325  12.702 -1.7875  0.3421  1.2911
 6797SOL    HW232025   2.867   0.472  12.708 -1.6631  1.2574 -1.1600
 6798SOL     OW32026   2.070   4.044   6.198  0.2210  0.0156  0.1156
 6798SOL    HW132027   2.042   3.964   6.242  2.2217  0.5222  2.3005
 6798SOL    HW232028   1.985   4.085   6.184 -0.2596 -0.5890  1.2589
 6799SOL     OW32029   4.550   3.491   9.428 -0.2913 -0.7929 -0.3721
 6799SOL    HW132030   4.488   3.533   9.488  2.6545  0.3773  1.8248
 6799SOL    HW232031   4.593   3.436   9.493  0.2792  1.5372  1.2255
 6800SOL     OW32032   3.786   0.230  12.671 -0.0631 -0.1565 -0.2322
 6800SOL    HW132033   3.789   0.195  12.760  0.8831  2.8924  0.9579
 6800SOL    HW232034   3.727   0.305  12.682  0.1222 -0.6258  3.8920
 6801SOL     OW32035   0.489   4.315   2.226 -0.1048  0.2837 -0.4507
 6801SOL    HW132036   0.483   4.257   2.302  0.3547  0.4128 -0.3165
 6801SOL    HW232037   0.543   4.269   2.161 -1.1700 -2.8820  0.8891
 6802SOL     OW32038   4.559   2.896   3.358 -0.0165 -0.4881 -0.1166
 6802SOL    HW132039   4.474   2.933   3.335  1.2967  2.1501 -0.7696
 6802SOL    HW232040   4.550   2.879   3.452 -0.6457  0.4626 -0.0049
 6803SOL     OW32041   4.638   4.121   1.832  0.0267 -0.2860  0.1858
 6803SOL    HW132042   4.556   4.118   1.882 -0.8725 -1.1894 -1.3446
 6803SOL    HW232043   4.699   4.158   1.896 -1.6012  1.3811  0.7916
 6804SOL     OW32044   1.842   0.223  10.798 -0.6453  0.0303  0.4014
 6804SOL    HW132045   1.793   0.144  10.773 -0.9270  0.1824  0.4647
 6804SOL    HW232046   1.782   0.297  10.790 -1.9874 -0.9030  1.7303
 6805SOL     OW32047   2.663   3.127   4.043  0.2808 -0.0656 -0.6069
 6805SOL    HW132048   2.659   3.033   4.029  0.6182  0.1688 -2.2177
 6805SOL    HW232049   2.729   3.147   3.977 -0.5797  2.5585 -0.6705
 6806SOL     OW32050   0.073   0.951   7.836  0.2734  0.1173  0.5202
 6806SOL    HW132051   0.103   0.863   7.858 -2.3676 -1.0923 -0.6470
 6806SOL    HW232052   4.718   0.927   7.839  0.2147  0.1037 -0.9792
 6807SOL     OW32053   4.528   1.841   3.982  0.1313 -0.3972 -0.4033
 6807SOL    HW132054   4.476   1.802   3.912  0.1665  2.8166 -2.2032
 6807SOL    HW232055   4.474   1.846   4.061  1.2250 -1.2295  0.4033
 6808SOL     OW32056   0.660   4.153   7.858 -0.6862 -0.1635  0.2680
 6808SOL    HW132057   0.694   4.070   7.824  0.4689 -0.9802  3.4862
 6808SOL    HW232058   0.629   4.188   7.774 -0.1374  0.4827  0.3336
 6809SOL     OW32059   4.437   2.469   5.188  0.2972 -0.4637 -0.3594
 6809SOL    HW132060   4.425   2.385   5.142 -0.1862  0.3353 -1.6864
 6809SOL    HW232061   4.445   2.521   5.108 -0.9730 -1.1284 -0.9319
 6810SOL     OW32062   3.630   4.661   4.089 -0.4255  0.7157 -0.5545
 6810SOL    HW132063   3.594   4.643   4.176  1.3332  0.4857  0.1445
 6810SOL    HW232064   3.719   4.684   4.117 -1.0823  0.6305  1.6161
 6811SOL     OW32065   2.709   4.673  17.615  0.0111 -0.0188 -0.2546
 6811SOL    HW132066   2.653   4.600  17.643 -1.7117  1.6378  0.6369
 6811SOL    HW232067   2.668   4.668  17.529 -1.4016 -0.3398  0.4331
 6812SOL     OW32068   2.558   4.086   3.531  0.3195  0.0822 -0.1106
 6812SOL    HW132069   2.552   3.992   3.515 -0.6364  0.3191 -1.1563
 6812SOL    HW232070   2.619   4.085   3.604 -0.7566 -1.0034  0.7797
 6813SOL     OW32071   0.129   3.244   2.082  0.2685 -0.0291 -0.1804
 6813SOL    HW132072   0.217   3.274   2.101  0.3036  2.0788 -3.5250
 6813SOL    HW232073   0.113   3.156   2.117  0.0171  0.0868 -0.0025
 6814SOL     OW32074   2.926   2.542   7.806 -0.2308 -0.4516 -0.3659
 6814SOL    HW132075   2.868   2.515   7.734  0.3074 -0.0309 -0.9561
 6814SOL    HW232076   3.000   2.482   7.793 -0.2627 -0.4057 -0.7689
 6815SOL     OW32077   2.166   2.793   4.305 -0.1611  0.9840 -0.3120
 6815SOL    HW132078   2.150   2.744   4.386 -3.5144  2.2834 -0.1900
 6815SOL    HW232079   2.119   2.876   4.311 -4.4525 -1.4404  0.2298
 6816SOL     OW32080   1.682   1.194  12.438 -0.4679 -0.5963  0.6610
 6816SOL    HW132081   1.768   1.223  12.408 -1.8757  2.8191 -0.1005
 6816SOL    HW232082   1.694   1.184  12.532  2.6964  0.1226  0.3413
 6817SOL     OW32083   0.663   0.762   5.854 -0.1332  0.4519  0.1454
 6817SOL    HW132084   0.662   0.705   5.777  0.9068 -0.2803  0.6708
 6817SOL    HW232085   0.585   0.730   5.900 -0.1415  0.7537  0.3378
 6818SOL     OW32086   2.434   2.387   3.523  0.2084 -0.1645 -0.2124
 6818SOL    HW132087   2.390   2.362   3.442  0.7854  0.8869 -0.8540
 6818SOL    HW232088   2.471   2.474   3.508 -0.2584 -0.2067 -1.6702
 6819SOL     OW32089   4.237   1.329   5.443  0.1774 -0.0800 -0.1840
 6819SOL    HW132090   4.298   1.374   5.384 -0.5498  2.0663  0.7073
 6819SOL    HW232091   4.225   1.244   5.401 -0.4109 -1.2987  2.4325
 6820SOL     OW32092   1.928   4.641  13.807  0.1136  0.1076  0.7842
 6820SOL    HW132093   1.893   4.552  13.815  0.0655 -0.1738 -2.7030
 6820SOL    HW232094   2.005   4.639  13.864  0.5008  2.7648  0.3449
 6821SOL     OW32095   0.322   3.958   2.259 -0.2003 -0.2031 -0.4813
 6821SOL    HW132096   0.250   3.897   2.274 -0.0611 -0.1955  0.2208
 6821SOL    HW232097   0.382   3.916   2.320 -0.8372  1.2977  1.1919
 6822SOL     OW32098   0.619   2.876  10.724  0.3058 -0.1723  0.2804
 6822SOL    HW132099   0.599   2.839  10.639  2.0985 -1.2742  0.3380
 6822SOL    HW232100   0.712   2.892  10.706 -0.3405  1.2637 -1.7843
 6823SOL     OW32101   2.263   0.973   0.872 -0.0357 -0.4470  0.2627
 6823SOL    HW132102   2.172   0.955   0.846 -0.3181  0.2904  0.7287
 6823SOL    HW232103   2.307   0.907   0.818 -3.5749 -2.8111  0.2244
 6824SOL     OW32104   4.678   4.353   2.941  0.9476  0.6170 -0.1449
 6824SOL    HW132105   4.693   4.444   2.918  0.1623  1.4525  2.6366
 6824SOL    HW232106   0.028   4.314   2.946  0.8997  0.4790 -0.3985
 6825SOL     OW32107   2.481   0.454   0.885 -0.3131 -0.2218  0.2544
 6825SOL    HW132108   2.544   0.481   0.818 -0.0584  0.3195  0.7077
 6825SOL    HW232109   2.470   0.362   0.861  0.7108 -0.2094 -0.2752
 6826SOL     OW32110   1.258   0.039   4.327  0.4053  0.8548  0.2878
 6826SOL    HW132111   1.310   0.115   4.354 -1.0292  1.8816  0.1602
 6826SOL    HW232112   1.171   0.076   4.344  0.0543 -0.0644  0.4986
 6827SOL     OW32113   3.754   0.870   4.250 -0.2666 -0.4689 -0.2316
 6827SOL    HW132114   3.789   0.921   4.323 -2.2306  0.6330 -0.0724
 6827SOL    HW232115   3.772   0.779   4.276 -0.0062 -0.8004 -1.5698
 6828SOL     OW32116   0.750   1.622   5.344  0.0973  0.6543 -0.3299
 6828SOL    HW132117   0.729   1.605   5.252  1.2311  2.0766 -0.8631
 6828SOL    HW232118   0.841   1.652   5.340  0.8289 -1.5882 -0.2679
 6829SOL     OW32119   2.767   2.746   6.512 -0.1348  0.4906  0.1092
 6829SOL    HW132120   2.740   2.703   6.594 -0.6807  0.7219  0.0506
 6829SOL    HW232121   2.862   2.732   6.505 -0.4021 -0.6653 -1.1240
 6830SOL     OW32122   4.026   0.550   5.637 -0.6642  0.3074 -0.5249
 6830SOL    HW132123   3.938   0.527   5.607 -1.3936  2.1160  0.1919
 6830SOL    HW232124   4.003   0.580   5.725 -1.9150 -1.4685 -0.2437
 6831SOL     OW32125   0.270   2.768   7.605  0.3065  0.9040  0.2834
 6831SOL    HW132126   0.291   2.855   7.570 -0.9254  1.7878  1.7807
 6831SOL    HW232127   0.175   2.774   7.597  0.2115 -1.9200 -1.0581
 6832SOL     OW32128   4.215   3.602   3.121  0.0605  0.1393 -0.5811
 6832SOL    HW132129   4.208   3.698   3.127  0.8450  0.2212 -1.0405
 6832SOL    HW232130   4.275   3.599   3.047  1.0673 -1.3892  0.3180
 6833SOL     OW32131   3.688   3.714   5.875  0.2653  0.6170  0.2762
 6833SOL    HW132132   3.592   3.717   5.885  0.1759  0.8328 -0.5912
 6833SOL    HW232133   3.706   3.672   5.959  0.2767  2.7159  1.3296
 6834SOL     OW32134   3.906   2.394   4.838  0.0407  0.2532 -0.1698
 6834SOL    HW132135   3.944   2.477   4.867 -0.4630  0.4070  0.0489
 6834SOL    HW232136   3.819   2.402   4.877 -0.2110 -0.0025 -0.6732
 6835SOL     OW32137   0.185   1.198  12.983  0.8530  0.3286 -0.0436
 6835SOL    HW132138   0.260   1.164  13.031  0.9176  0.3532 -0.1269
 6835SOL    HW232139   0.159   1.120  12.935  1.9305  0.6087 -1.0930
 6836SOL     OW32140   2.155   4.584   1.249  0.2880  0.1773  0.0546
 6836SOL    HW132141   2.124   4.516   1.310  0.7445 -0.0052  0.0859
 6836SOL    HW232142   2.167   4.534   1.168 -1.8489  0.4988 -0.4586
 6837SOL     OW32143   3.605   0.185   2.370 -0.3487  0.0180  0.3193
 6837SOL    HW132144   3.605   0.140   2.286 -1.2675 -1.8862  1.3531
 6837SOL    HW232145   3.624   0.108   2.424 -2.3439 -1.3955 -0.9895
 6838SOL     OW32146   0.823   0.808  17.564  0.3104 -0.0628 -0.3763
 6838SOL    HW132147   0.815   0.830  17.471 -1.3250  0.4894 -0.1068
 6838SOL    HW232148   0.876   0.873  17.610 -0.4653 -0.7419  1.4618
 6839SOL     OW32149   1.947   2.779  14.868  0.4254 -1.0261 -0.8728
 6839SOL    HW132150   2.041   2.772  14.887  0.5409  0.0137 -1.0286
 6839SOL    HW232151   1.943   2.800  14.775 -1.3386  0.5896 -0.4386
 6840SOL     OW32152   1.716   3.015  16.443 -0.0076  0.1822 -0.1415
 6840SOL    HW132153   1.667   3.057  16.373  2.6663  1.1362 -1.4677
 6840SOL    HW232154   1.662   2.937  16.456  0.2448  0.1662  0.8150
 6841SOL     OW32155   1.043   1.275   8.335  0.6781 -0.6802 -0.1393
 6841SOL    HW132156   1.092   1.342   8.286 -0.2753 -1.0704 -1.6277
 6841SOL    HW232157   1.046   1.213   8.262 -2.8333 -2.2463  1.0777
 6842SOL     OW32158   4.343   3.684   4.012  0.7901 -0.3437 -0.0869
 6842SOL    HW132159   4.274   3.687   4.079  0.5863  2.7231 -0.4509
 6842SOL    HW232160   4.420   3.722   4.055  1.2837 -1.9289  0.4351
 6843SOL     OW32161   2.274   4.284   6.037  0.1617 -0.3975 -0.1601
 6843SOL    HW132162   2.250   4.259   6.127 -0.9139 -1.5853 -0.7847
 6843SOL    HW232163   2.362   4.248   6.031 -0.5465 -2.7626  3.5820
 6844SOL     OW32164   1.017   3.585   0.142  0.4203 -0.4471 -0.0832
 6844SOL    HW132165   1.005   3.563   0.234  0.7491  1.3778  0.3903
 6844SOL    HW232166   0.933   3.627   0.123 -0.2825 -1.0483  1.7606
 6845SOL     OW32167   2.828   2.803   4.741  0.0594  0.6288  0.1656
 6845SOL    HW132168   2.849   2.872   4.679 -0.5894 -2.2960 -3.3478
 6845SOL    HW232169   2.750   2.834   4.787 -1.3529 -0.0885 -1.7349
 6846SOL     OW32170   3.781   1.951   2.898 -0.2572  0.0482  0.5681
 6846SOL    HW132171   3.761   1.871   2.849  0.9481 -0.9714  1.7328
 6846SOL    HW232172   3.728   2.015   2.850  3.1444  0.6910 -2.4335
 6847SOL     OW32173   4.211   4.029  16.472 -0.1318 -0.1606 -0.5239
 6847SOL    HW132174   4.266   4.090  16.520 -0.4848 -1.2464  1.2316
 6847SOL    HW232175   4.273   3.972  16.427  0.4619  0.7372 -0.8408
 6848SOL     OW32176   4.298   3.342  13.706  0.1599  0.3926  0.5986
 6848SOL    HW132177   4.332   3.367  13.620  0.8959  1.5960  1.2491
 6848SOL    HW232178   4.207   3.318  13.688  0.9878 -1.8161 -0.6119
 6849SOL     OW32179   3.790   1.744   4.411 -0.2654  0.0113  0.0243
 6849SOL    HW132180   3.770   1.830   4.448  0.5185  0.2621 -0.1256
 6849SOL    HW232181   3.786   1.677   4.480  1.9927 -3.9159 -3.6902
 6850SOL     OW32182   1.526   4.415  10.742 -0.0196  0.0623 -0.2444
 6850SOL    HW132183   1.449   4.468  10.720 -0.3289 -0.6160 -0.7966
 6850SOL    HW232184   1.596   4.446  10.685  0.7651 -1.6913 -0.2134
 6851SOL     OW32185   2.901   4.067  10.582 -0.2203 -0.1887 -0.3486
 6851SOL    HW132186   2.901   4.010  10.659  1.3599 -0.1813 -0.3415
 6851SOL    HW232187   2.974   4.032  10.531 -1.7027 -0.0363 -2.5526
 6852SOL     OW32188   4.397   0.458   6.101  0.7526 -0.0008 -0.1790
 6852SOL    HW132189   4.382   0.522   6.170 -2.4670  0.9098 -1.7159
 6852SOL    HW232190   4.348   0.499   6.030  1.3181 -1.2282 -1.2764
 6853SOL     OW32191   3.631   0.219  12.421  0.0294 -0.2919  0.8175
 6853SOL    HW132192   3.687   0.200  12.496  0.9117  1.2286  0.5358
 6853SOL    HW232193   3.634   0.147  12.358  2.5069  0.1682  0.3980
 6854SOL     OW32194   0.299   3.943  12.210  0.2669 -0.0689  0.2172
 6854SOL    HW132195   0.294   3.905  12.122  0.1850  0.5389 -0.0393
 6854SOL    HW232196   0.224   3.906  12.256  0.0998 -1.9323 -1.5727
 6855SOL     OW32197   2.722   4.044   1.386 -0.2247 -0.8182 -0.3826
 6855SOL    HW132198   2.766   4.025   1.303  0.6766 -0.4107  0.0062
 6855SOL    HW232199   2.766   3.976   1.438 -0.2155 -0.6546 -0.1764
 6856SOL     OW32200   3.761   0.216   1.254  0.2147 -0.0387 -0.3369
 6856SOL    HW132201   3.796   0.295   1.212  1.7027  0.1423  1.2500
 6856SOL    HW232202   3.729   0.252   1.337 -0.1861 -3.2479  0.8907
 6857SOL     OW32203   3.365   2.891   4.738  0.0839 -0.5056 -0.4428
 6857SOL    HW132204   3.285   2.917   4.783 -0.9582 -0.0757 -2.5539
 6857SOL    HW232205   3.334   2.833   4.669 -1.9487 -0.3980  0.3842
 6858SOL     OW32206   0.463   2.764   5.778  0.1319 -0.8107  0.1696
 6858SOL    HW132207   0.373   2.732   5.787  0.0401 -0.7423 -0.4959
 6858SOL    HW232208   0.462   2.814   5.696 -0.3138  0.4646  0.9603
 6859SOL     OW32209   1.746   1.341   3.204  0.0195 -0.3131 -0.2850
 6859SOL    HW132210   1.767   1.248   3.209  1.4440  0.0554  0.7378
 6859SOL    HW232211   1.693   1.355   3.282 -0.8159 -1.9790 -0.5733
 6860SOL     OW32212   2.300   2.305   6.793  0.0118 -0.0631  0.1445
 6860SOL    HW132213   2.296   2.210   6.781  0.7017 -0.1445  0.5446
 6860SOL    HW232214   2.283   2.345   6.708 -1.1304 -0.6752  0.0929
 6861SOL     OW32215   3.557   1.335   9.979  0.2835 -0.1089 -0.7630
 6861SOL    HW132216   3.594   1.266   9.924  1.0066 -0.5226  0.2329
 6861SOL    HW232217   3.513   1.286  10.049  2.1265  0.6093  0.9276
 6862SOL     OW32218   3.744   0.616  15.470  0.5888  0.2665  0.5117
 6862SOL    HW132219   3.653   0.636  15.489  1.0233  0.6307  2.1778
 6862SOL    HW232220   3.736   0.543  15.408 -0.3821  1.1276 -0.3711
 6863SOL     OW32221   2.970   4.451   0.177  0.0036  0.1274  0.2917
 6863SOL    HW132222   3.060   4.454   0.209  0.5142 -1.8979 -0.9183
 6863SOL    HW232223   2.940   4.398   0.250 -0.4840 -1.2958 -0.9536
 6864SOL     OW32224   2.538   2.386   5.194 -0.4424 -0.1827  0.5229
 6864SOL    HW132225   2.564   2.430   5.114 -1.3122  0.1882  0.4466
 6864SOL    HW232226   2.536   2.299   5.153  0.7620  0.2613 -0.4612
 6865SOL     OW32227   1.419   2.767   4.567  0.3477  0.2202  0.0033
 6865SOL    HW132228   1.415   2.673   4.553  3.4213 -0.0621  1.0495
 6865SOL    HW232229   1.346   2.784   4.626  1.0336 -0.4499  1.0246
 6866SOL     OW32230   0.028   1.299   5.895  0.3638 -0.3006 -0.1801
 6866SOL    HW132231   0.073   1.222   5.931 -1.8899 -1.6113 -0.1778
 6866SOL    HW232232   0.026   1.363   5.965 -0.2225  0.3028 -0.7475
 6867SOL     OW32233   0.869   1.661   4.062  0.4630 -0.3551  0.5431
 6867SOL    HW132234   0.927   1.647   3.987 -2.3467  1.6549 -2.0418
 6867SOL    HW232235   0.849   1.754   4.068  1.2698 -0.3308  2.6742
 6868SOL     OW32236   2.604   1.844   8.910 -0.1950  0.0476  0.2581
 6868SOL    HW132237   2.534   1.791   8.948  1.4320 -1.2140  1.4574
 6868SOL    HW232238   2.639   1.788   8.840 -0.5741 -0.8693  0.8092
 6869SOL     OW32239   1.288   3.579   6.027  0.4104  0.3314 -0.2947
 6869SOL    HW132240   1.229   3.540   5.962  1.5251 -0.4761 -0.8244
 6869SOL    HW232241   1.289   3.667   5.990 -0.9469 -0.0819 -1.3162
 6870SOL     OW32242   0.956   3.510   2.606  0.1630 -0.0464  0.1860
 6870SOL    HW132243   1.008   3.513   2.526  0.9543  0.6672  0.7342
 6870SOL    HW232244   0.958   3.604   2.624  1.1642 -0.6476  3.1325
 6871SOL     OW32245   0.385   4.149   2.756  0.5383 -0.0925  1.1994
 6871SOL    HW132246   0.383   4.172   2.664  1.4756 -3.4720  0.3402
 6871SOL    HW232247   0.454   4.210   2.781  2.0025 -0.6876 -1.4340
 6872SOL     OW32248   2.833   3.776   0.927  0.0192 -0.0355  0.0374
 6872SOL    HW132249   2.870   3.703   0.877  2.9222 -0.3274  2.6419
 6872SOL    HW232250   2.740   3.776   0.904  0.2967  0.5071 -1.1174
 6873SOL     OW32251   0.308   4.657   3.093 -0.1223 -0.2155 -0.1262
 6873SOL    HW132252   0.343   4.572   3.066  1.2309  0.3692 -0.1963
 6873SOL    HW232253   0.220   4.650   3.054 -0.0442 -1.3220 -0.1233
 6874SOL     OW32254   2.183   0.076   5.453  0.1002 -0.2826 -0.2208
 6874SOL    HW132255   2.182   0.063   5.359 -2.5295  0.0813 -0.2528
 6874SOL    HW232256   2.093   0.062   5.485  0.6286 -0.2289  1.2905
 6875SOL     OW32257   4.373   0.575   2.171  0.4221  0.4213  0.3289
 6875SOL    HW132258   4.391   0.492   2.127  1.0140 -0.0028  1.3521
 6875SOL    HW232259   4.281   0.555   2.188  0.8039 -0.1047  1.8107
 6876SOL     OW32260   1.213   0.623  15.022 -0.1970 -0.0230 -0.1650
 6876SOL    HW132261   1.218   0.719  15.017  0.6923 -0.0719 -0.0417
 6876SOL    HW232262   1.293   0.606  14.973 -0.2272  1.7967 -0.8336
 6877SOL     OW32263   2.772   3.652   3.411  0.5268 -0.3269 -0.0679
 6877SOL    HW132264   2.744   3.710   3.339  0.1238  0.0170  0.3608
 6877SOL    HW232265   2.789   3.569   3.367  3.0769  0.8449 -1.2759
 6878SOL     OW32266   1.087   4.153   5.023 -0.5539  0.0336 -0.4602
 6878SOL    HW132267   1.050   4.091   4.961 -0.2343 -0.5553 -0.0560
 6878SOL    HW232268   1.049   4.235   4.990 -1.8537 -0.1625  0.5518
 6879SOL     OW32269   0.075   1.490   3.920  0.1383  0.6111 -0.2109
 6879SOL    HW132270   0.150   1.471   3.976  1.0229  1.6619 -1.0481
 6879SOL    HW232271   0.000   1.480   3.979  1.5212 -0.3506  1.3844
 6880SOL     OW32272   4.698   0.549   5.041  0.3305  0.5480 -0.0241
 6880SOL    HW132273   4.670   0.616   5.102 -0.2774  0.2686  0.0006
 6880SOL    HW232274   0.038   0.510   5.081 -0.4126 -0.0941  0.7826
 6881SOL     OW32275   4.683   3.869   4.464 -0.6951 -0.3223  0.1742
 6881SOL    HW132276   4.598   3.842   4.498  0.5079 -2.6134  1.3134
 6881SOL    HW232277   0.006   3.809   4.508  0.1226 -0.0465 -0.5663
 6882SOL     OW32278   1.709   2.273   0.295  0.0351 -0.2453  0.2133
 6882SOL    HW132279   1.663   2.318   0.366 -0.5234 -0.0675 -0.2593
 6882SOL    HW232280   1.721   2.346   0.234  1.5155 -2.0241 -1.6010
 6883SOL     OW32281   2.508   1.040   8.584  0.4411  0.1544 -0.2005
 6883SOL    HW132282   2.513   0.965   8.643  2.2164  0.8032  0.4474
 6883SOL    HW232283   2.457   1.007   8.510 -1.1191 -0.4581  1.1594
 6884SOL     OW32284   4.309   3.025   9.414  0.3581 -0.0592  0.2247
 6884SOL    HW132285   4.256   2.985   9.483  0.3232 -0.2829  0.0709
 6884SOL    HW232286   4.248   3.094   9.386  0.8089  0.1118 -0.3479
 6885SOL     OW32287   2.407   1.629   4.948  0.0579 -0.2458 -0.6199
 6885SOL    HW132288   2.354   1.578   5.009  0.2614  1.9464  1.3934
 6885SOL    HW232289   2.449   1.681   5.017 -1.8254  1.2815 -0.6019
 6886SOL     OW32290   3.650   3.560   7.646  0.0920  0.0433 -0.4055
 6886SOL    HW132291   3.574   3.592   7.695  0.1641 -1.6484  0.8242
 6886SOL    HW232292   3.653   3.472   7.684 -1.4209  0.0607 -0.2566
 6887SOL     OW32293   0.015   4.120   3.943  0.1275 -0.0964  0.0191
 6887SOL    HW132294   4.692   4.145   3.873  0.8379  0.2634 -0.4571
 6887SOL    HW232295   0.080   4.064   3.900  4.4393  4.1656  1.0131
 6888SOL     OW32296   1.620   1.872   3.831 -0.1769 -0.0846 -0.2865
 6888SOL    HW132297   1.580   1.944   3.783 -0.2904  0.2283  0.2735
 6888SOL    HW232298   1.615   1.801   3.767  3.1390 -1.2298  0.7440
 6889SOL     OW32299   0.617   2.663   4.438 -0.2883 -0.0882  0.6441
 6889SOL    HW132300   0.618   2.758   4.451 -3.3842  0.3830 -2.4137
 6889SOL    HW232301   0.522   2.660   4.426 -0.3603 -1.1745  1.5458
 6890SOL     OW32302   1.745   0.320   2.106 -0.4459 -0.0496  0.0323
 6890SOL    HW132303   1.807   0.250   2.087  1.5769  2.0524 -0.9832
 6890SOL    HW232304   1.672   0.302   2.047  0.4532 -1.3825 -0.6697
 6891SOL     OW32305   0.856   0.306   7.471  0.3004  0.0289 -0.2870
 6891SOL    HW132306   0.862   0.283   7.564 -1.9747  0.8104  0.0319
 6891SOL    HW232307   0.948   0.307   7.443  0.7502  1.0571  1.2424
 6892SOL     OW32308   3.657   0.419   2.472 -0.5465 -0.3500  0.4386
 6892SOL    HW132309   3.589   0.372   2.519 -0.3842 -2.2099 -1.1530
 6892SOL    HW232310   3.668   0.355   2.401  0.8685 -0.6195  0.8904
 6893SOL     OW32311   3.523   2.728   1.794  0.1497 -0.2264  0.2104
 6893SOL    HW132312   3.440   2.697   1.830  1.1187 -1.0255  1.7846
 6893SOL    HW232313   3.595   2.675   1.829 -0.3679 -0.0059  1.6366
 6894SOL     OW32314   3.355   0.927  16.353  0.4442  0.7142 -0.5509
 6894SOL    HW132315   3.336   0.994  16.288 -1.2978 -0.9020 -1.7288
 6894SOL    HW232316   3.451   0.929  16.353  0.4479  0.3565  1.4217
 6895SOL     OW32317   3.816   1.758   4.824 -0.2409 -0.6970 -0.4504
 6895SOL    HW132318   3.843   1.845   4.852 -2.7808  0.1401 -0.6405
 6895SOL    HW232319   3.729   1.767   4.786 -0.3146  1.7081  0.3029
 6896SOL     OW32320   1.692   4.029   3.402  0.0363 -0.2533  0.0763
 6896SOL    HW132321   1.688   4.115   3.443  0.9338  0.2614 -0.8854
 6896SOL    HW232322   1.603   4.001   3.384 -0.4300  1.0788  0.2868
 6897SOL     OW32323   1.857   4.329   5.692  0.0662  0.4224  0.5077
 6897SOL    HW132324   1.861   4.412   5.739  0.3987  0.4563  0.4167
 6897SOL    HW232325   1.934   4.283   5.726 -1.2131 -1.7373  0.5249
 6898SOL     OW32326   4.058   1.916   7.283 -0.3523 -0.4788  0.6449
 6898SOL    HW132327   4.129   1.981   7.287 -0.6803 -0.0427 -0.5966
 6898SOL    HW232328   4.066   1.902   7.189  1.1214 -2.6801  1.0908
 6899SOL     OW32329   0.187   2.481   6.005 -0.0766  0.0964  0.5260
 6899SOL    HW132330   0.133   2.416   5.960 -0.6743  0.5082  0.6481
 6899SOL    HW232331   0.273   2.477   5.963 -0.4884 -1.4709 -0.1544
 6900SOL     OW32332   0.331   1.494  14.730  0.3207  0.0870  0.1062
 6900SOL    HW132333   0.338   1.589  14.719  0.9388  0.0228 -0.0630
 6900SOL    HW232334   0.348   1.488  14.824 -0.2224 -1.3171  0.1023
 6901SOL     OW32335   1.684   3.330  12.864  0.0546 -0.0192  0.2207
 6901SOL    HW132336   1.758   3.308  12.920  1.9039  0.0709 -2.2255
 6901SOL    HW232337   1.738   3.324  12.785  0.4281 -0.6292  0.5249
 6902SOL     OW32338   2.064   1.937  10.840 -0.3368 -0.3785 -0.2288
 6902SOL    HW132339   2.086   1.935  10.747  1.4045  1.4080  0.1460
 6902SOL    HW232340   1.969   1.946  10.828 -0.0448 -1.1274 -3.1766
 6903SOL     OW32341   1.816   3.915   3.744 -0.2516 -0.5205  0.3500
 6903SOL    HW132342   1.856   3.993   3.780 -0.5463  0.2105 -0.9141
 6903SOL    HW232343   1.725   3.940   3.728  0.3564 -0.2065 -2.5708
 6904SOL     OW32344   3.794   3.558  14.973  0.6043  1.0111 -0.2544
 6904SOL    HW132345   3.814   3.465  14.968 -0.9995  0.7067 -0.9020
 6904SOL    HW232346   3.774   3.559  15.067  2.6444 -3.7294  0.2409
 6905SOL     OW32347   1.478   2.065   1.851  0.9084 -0.0587 -0.0144
 6905SOL    HW132348   1.461   1.981   1.892  1.4720 -0.4643 -0.6133
 6905SOL    HW232349   1.408   2.073   1.786  1.0154  0.6717 -0.0437
 6906SOL     OW32350   3.507   3.441   6.078 -0.2397 -0.0428  0.1948
 6906SOL    HW132351   3.517   3.379   6.149 -1.1376  0.7067  0.9696
 6906SOL    HW232352   3.431   3.399   6.038  0.6088 -1.2621 -0.1410
 6907SOL     OW32353   1.123   0.005   4.867  0.4314  0.1997 -0.2124
 6907SOL    HW132354   1.046   0.057   4.887 -0.9656 -1.2108 -1.9649
 6907SOL    HW232355   1.159   0.002   4.956  0.4568  1.6093 -0.1677
 6908SOL     OW32356   1.788   0.661  10.658 -0.2512  0.3127 -0.3780
 6908SOL    HW132357   1.791   0.702  10.571  0.4006 -1.4460 -1.1764
 6908SOL    HW232358   1.731   0.721  10.707 -1.7272 -1.4898  0.1050
 6909SOL     OW32359   2.898   1.134   4.728  0.0309 -0.1434  0.2488
 6909SOL    HW132360   2.846   1.100   4.801 -0.4624  0.3003  0.0978
 6909SOL    HW232361   2.900   1.224   4.759  0.3207  0.3009 -1.0890
 6910SOL     OW32362   3.007   3.980  11.833 -0.6218  0.0879  0.2141
 6910SOL    HW132363   3.036   3.889  11.824 -1.8217 -0.2576 -0.2210
 6910SOL    HW232364   3.048   4.021  11.756 -0.4916 -1.3024 -0.4632
 6911SOL     OW32365   0.568   3.258   9.256  0.2874 -0.4754  0.3093
 6911SOL    HW132366   0.637   3.286   9.196  0.2503  0.9915  0.9559
 6911SOL    HW232367   0.499   3.318   9.227  0.8348 -0.2996 -0.6349
 6912SOL     OW32368   2.588   0.379   7.744  0.0846 -0.1484 -0.1535
 6912SOL    HW132369   2.615   0.313   7.808  0.8372 -0.3005 -0.6250
 6912SOL    HW232370   2.498   0.358   7.717  0.4178 -1.7796  0.0097
 6913SOL     OW32371   1.668   1.398   8.756  0.0198 -0.0194 -0.5147
 6913SOL    HW132372   1.663   1.463   8.825 -1.1833  0.3578 -0.9561
 6913SOL    HW232373   1.599   1.340   8.790 -0.8688  2.0003  1.1389
 6914SOL     OW32374   0.524   0.940   5.703 -0.7856  0.2023  0.5240
 6914SOL    HW132375   0.561   0.872   5.759 -1.1892 -0.2771  0.2089
 6914SOL    HW232376   0.561   1.015   5.750  3.1677 -0.8903 -0.9135
 6915SOL     OW32377   3.231   2.692  10.745  0.0158  0.4013  0.4297
 6915SOL    HW132378   3.156   2.749  10.729 -0.4440 -0.3552 -0.1684
 6915SOL    HW232379   3.283   2.706  10.666 -0.7664  0.3021 -0.1032
 6916SOL     OW32380   0.032   4.075   8.247 -0.1199  0.1630  0.2675
 6916SOL    HW132381   0.068   4.030   8.324 -1.6699 -0.9819  0.3215
 6916SOL    HW232382   4.684   4.103   8.280 -0.7302 -1.2833 -0.0577
 6917SOL     OW32383   0.575   1.074  13.428  1.0915 -0.3861  0.4872
 6917SOL    HW132384   0.527   1.156  13.414 -1.6126 -1.6487  2.3695
 6917SOL    HW232385   0.621   1.066  13.344  1.5236  1.6305  0.5415
 6918SOL     OW32386   1.673   0.393   6.544  0.0813  0.6202 -0.2203
 6918SOL    HW132387   1.627   0.453   6.486 -0.4259  0.6816  0.2441
 6918SOL    HW232388   1.749   0.364   6.493 -0.6376 -1.8438  0.1077
 6919SOL     OW32389   1.198   0.621  15.302 -0.0393  0.4388  0.8188
 6919SOL    HW132390   1.215   0.635  15.209 -2.8857 -0.9877  0.0789
 6919SOL    HW232391   1.129   0.555  15.303  2.4622 -2.1611  1.3895
 6920SOL     OW32392   3.048   3.274   0.753  0.2580  0.0862  0.0027
 6920SOL    HW132393   3.064   3.183   0.727 -2.1746 -0.7923  1.6480
 6920SOL    HW232394   3.128   3.322   0.730  0.5356 -0.9730 -1.2434
 6921SOL     OW32395   4.678   4.401   5.651  0.2170  0.1923  0.1187
 6921SOL    HW132396   4.665   4.414   5.557 -1.3590  0.0983  0.3157
 6921SOL    HW232397   0.032   4.424   5.664  0.8489 -0.8740 -2.4276
 6922SOL     OW32398   4.436   3.537   6.927 -0.0541  0.9069 -0.3346
 6922SOL    HW132399   4.518   3.573   6.962  0.8172 -0.1443 -1.2628
 6922SOL    HW232400   4.374   3.606   6.950  0.5773  1.0333  0.9876
 6923SOL     OW32401   4.400   0.665  17.436  0.1101 -0.3389  0.3658
 6923SOL    HW132402   4.408   0.574  17.465  1.2923  0.0678  1.3242
 6923SOL    HW232403   4.447   0.648  17.355  0.6355 -0.6199  0.7307
 6924SOL     OW32404   0.786   2.898   5.193  0.0895 -0.8471  0.2144
 6924SOL    HW132405   0.777   2.988   5.224  0.1583  0.2732 -3.0454
 6924SOL    HW232406   0.696   2.869   5.205 -0.0796 -0.3822  0.0405
 6925SOL     OW32407   3.461   2.561   2.161  0.1318  0.1993 -0.0422
 6925SOL    HW132408   3.532   2.530   2.217  1.0174  2.1045 -0.1194
 6925SOL    HW232409   3.453   2.651   2.191  2.0346 -0.4472  2.3633
 6926SOL     OW32410   4.694   1.619   9.020 -0.2723 -0.4794  0.3638
 6926SOL    HW132411   0.045   1.627   9.053 -0.2606 -0.5502  0.3498
 6926SOL    HW232412   4.639   1.682   9.066 -0.6876  0.0607 -0.8806
 6927SOL     OW32413   3.125   0.596   2.706 -0.4819 -0.6427 -0.0803
 6927SOL    HW132414   3.192   0.652   2.745 -0.7957  0.5461 -1.2426
 6927SOL    HW232415   3.124   0.619   2.613  0.8891 -0.9012 -0.1564
 6928SOL     OW32416   1.515   2.713   7.202  0.3394 -0.5408  0.2870
 6928SOL    HW132417   1.445   2.655   7.234  0.6762 -2.5319 -2.5689
 6928SOL    HW232418   1.458   2.782   7.169  1.4743  0.8798  1.2988
 6929SOL     OW32419   1.937   3.413  11.948 -0.0462 -0.7114  0.0795
 6929SOL    HW132420   1.890   3.359  12.011  0.8578 -0.4841  0.9545
 6929SOL    HW232421   2.019   3.399  11.995 -0.2049 -0.1163  0.5386
 6930SOL     OW32422   3.000   0.487   5.762 -0.2282  0.4645 -0.0049
 6930SOL    HW132423   2.962   0.506   5.848 -0.3380 -1.0554  0.2884
 6930SOL    HW232424   3.092   0.508   5.774 -0.8045  2.9246  0.1114
 6931SOL     OW32425   0.849   0.070   8.575 -0.4609 -0.1472 -0.2402
 6931SOL    HW132426   0.764   0.032   8.599  0.0930 -2.2063 -1.5036
 6931SOL    HW232427   0.878   0.114   8.655 -0.5161 -1.1740  0.3431
 6932SOL     OW32428   3.624   1.494   3.931  0.0387  0.4039  0.5818
 6932SOL    HW132429   3.618   1.559   3.861 -0.3730  0.5570  0.7554
 6932SOL    HW232430   3.637   1.562   3.998 -0.6882  1.2695 -0.1575
 6933SOL     OW32431   1.747   0.311   6.004 -0.0081  0.1601  0.1010
 6933SOL    HW132432   1.676   0.263   5.961 -0.5961 -0.2253  1.5026
 6933SOL    HW232433   1.807   0.248   6.044  0.5034  0.7163  0.2140
 6934SOL     OW32434   0.512   1.139   3.711 -0.1799  0.0870 -0.1523
 6934SOL    HW132435   0.558   1.184   3.781  1.2160 -1.0103 -0.3758
 6934SOL    HW232436   0.576   1.081   3.670 -1.0692 -2.0814  1.5640
 6935SOL     OW32437   2.221   4.225   6.362  0.8603  0.1290  0.2786
 6935SOL    HW132438   2.187   4.140   6.332 -0.1387  0.7803 -0.4536
 6935SOL    HW232439   2.143   4.280   6.374  1.1788  0.7977 -0.6428
 6936SOL     OW32440   0.877   1.789  13.820  0.6193 -0.5157 -0.3434
 6936SOL    HW132441   0.956   1.839  13.843  1.9401 -1.6317 -2.5128
 6936SOL    HW232442   0.848   1.765  13.908 -1.3718  0.2105 -0.8077
 6937SOL     OW32443   0.342   4.622   6.178  0.5716 -0.3902  0.2807
 6937SOL    HW132444   0.289   4.631   6.099  0.8457 -0.0851  0.1320
 6937SOL    HW232445   0.274   4.652   6.238 -0.2280 -0.0206 -0.8022
 6938SOL     OW32446   0.436   2.115   4.753  0.0178 -0.5304 -0.2490
 6938SOL    HW132447   0.356   2.087   4.799  0.2423  1.5838  1.4218
 6938SOL    HW232448   0.437   2.056   4.678 -1.6676  0.2245 -0.8715
 6939SOL     OW32449   2.859   3.431   7.758  0.2463  0.5934 -0.2575
 6939SOL    HW132450   2.950   3.430   7.729  0.3444  0.8148  0.0413
 6939SOL    HW232451   2.866   3.341   7.790 -0.4331  0.0441 -1.7044
 6940SOL     OW32452   2.587   0.209   8.833  0.0711  0.2973  0.3336
 6940SOL    HW132453   2.597   0.263   8.912  1.7800  0.6729 -0.1212
 6940SOL    HW232454   2.660   0.146   8.831  0.9270  1.2263  1.9768
 6941SOL     OW32455   1.415   3.512   0.071 -0.3923  0.1050  0.3432
 6941SOL    HW132456   1.357   3.559   0.131 -1.5387 -0.5284 -0.2803
 6941SOL    HW232457   1.401   3.423   0.102 -1.9072  0.4824  0.7288
 6942SOL     OW32458   0.958   0.365   6.456 -0.1437 -0.3170  0.1346
 6942SOL    HW132459   0.922   0.421   6.524 -0.4766 -2.1120  1.4349
 6942SOL    HW232460   0.971   0.280   6.499  2.7335 -0.5716 -1.1811
 6943SOL     OW32461   1.143   0.722  12.592  0.2228 -0.8137  0.3069
 6943SOL    HW132462   1.053   0.697  12.615 -0.6811  0.7226 -1.5809
 6943SOL    HW232463   1.198   0.677  12.656 -0.0666  0.8920  1.7590
 6944SOL     OW32464   2.741   3.707   5.493  0.4856  0.1672 -0.3457
 6944SOL    HW132465   2.703   3.623   5.519  0.8853  0.8853  2.5141
 6944SOL    HW232466   2.822   3.678   5.451  2.0793  1.3299  1.9424
 6945SOL     OW32467   2.813   1.901  10.371  0.3721  0.4692 -0.1253
 6945SOL    HW132468   2.786   1.856  10.291 -0.4873  1.2058 -0.2427
 6945SOL    HW232469   2.899   1.858  10.380  0.4277  0.6973  0.4372
 6946SOL     OW32470   2.673   0.810   3.582 -0.1095  0.0877  0.0897
 6946SOL    HW132471   2.598   0.805   3.641  0.0085 -1.6741  0.1000
 6946SOL    HW232472   2.669   0.901   3.552  0.6954  0.0869 -0.0283
 6947SOL     OW32473   4.252   4.268   4.721 -0.0383  0.1338 -0.8948
 6947SOL    HW132474   4.285   4.195   4.774  0.4179  1.2891  0.4292
 6947SOL    HW232475   4.159   4.247   4.725 -0.1934  0.8555 -0.8363
 6948SOL     OW32476   1.521   3.246   8.619 -0.1031 -0.0861  0.0494
 6948SOL    HW132477   1.462   3.207   8.554  1.5991 -0.0219 -1.5328
 6948SOL    HW232478   1.593   3.273   8.563  0.0483  0.0258  0.2985
 6949SOL     OW32479   2.778   4.242   1.591 -0.1669 -0.4104  0.0006
 6949SOL    HW132480   2.758   4.265   1.501  1.6926  0.1564 -0.2769
 6949SOL    HW232481   2.874   4.247   1.590 -0.2155  0.4219 -0.8205
 6950SOL     OW32482   1.776   2.623   6.102 -0.0382 -0.2240  0.3429
 6950SOL    HW132483   1.796   2.620   6.195  0.5569 -1.7098  0.1635
 6950SOL    HW232484   1.843   2.678   6.062 -0.8067  1.6428  1.6337
 6951SOL     OW32485   1.909   1.319   7.731  0.0154 -0.4701 -0.1336
 6951SOL    HW132486   1.995   1.345   7.699  0.7017 -0.6736  1.5736
 6951SOL    HW232487   1.879   1.375   7.803 -1.8584 -0.0513 -1.2370
 6952SOL     OW32488   4.296   4.400  13.798  0.6444 -0.2724  0.0916
 6952SOL    HW132489   4.315   4.407  13.891 -3.1564 -0.6919  0.9096
 6952SOL    HW232490   4.273   4.492  13.782 -1.2456 -0.4094  2.0440
 6953SOL     OW32491   1.743   4.373   8.866  0.2893  0.2032 -0.2887
 6953SOL    HW132492   1.700   4.334   8.789 -1.3102  1.1092  0.1280
 6953SOL    HW232493   1.817   4.315   8.880  0.3360  0.6725  1.3757
 6954SOL     OW32494   1.912   4.141   7.008  0.1129 -0.0954  0.0892
 6954SOL    HW132495   1.903   4.166   7.100  0.4755 -0.9534  0.3635
 6954SOL    HW232496   2.002   4.171   6.996 -0.4004  1.5850  0.4645
 6955SOL     OW32497   3.784   4.496  10.743 -0.1345 -0.0010  0.2098
 6955SOL    HW132498   3.824   4.411  10.762 -0.5768 -0.3328 -0.3475
 6955SOL    HW232499   3.844   4.560  10.782  0.6426  0.9193 -2.4936
 6956SOL     OW32500   0.882   2.891   5.561 -0.4427 -0.1868  0.0026
 6956SOL    HW132501   0.801   2.841   5.550 -0.9513  0.7926 -0.6882
 6956SOL    HW232502   0.945   2.841   5.509 -1.4303 -1.4496  0.0164
 6957SOL     OW32503   2.818   1.421   7.232 -0.0376  0.5345  0.6659
 6957SOL    HW132504   2.846   1.334   7.201 -0.5178  0.8801 -0.7415
 6957SOL    HW232505   2.875   1.435   7.307  1.9696  0.9019 -0.9328
 6958SOL     OW32506   3.144   1.411   2.278  0.1563  0.2289  0.3641
 6958SOL    HW132507   3.111   1.353   2.209 -0.5750 -0.1669  1.0495
 6958SOL    HW232508   3.082   1.484   2.287  0.8555  0.9612 -0.7912
 6959SOL     OW32509   2.640   3.404   0.184  0.3737  0.2325 -0.4526
 6959SOL    HW132510   2.623   3.310   0.192 -0.2586  0.4706  1.1507
 6959SOL    HW232511   2.732   3.399   0.210 -0.2137 -0.4276  1.5581
 6960SOL     OW32512   1.540   3.832   7.336  0.1299  0.2011  0.0097
 6960SOL    HW132513   1.567   3.807   7.424 -0.7700 -0.7693  0.0080
 6960SOL    HW232514   1.538   3.748   7.291 -0.9064  1.4029 -2.2363
 6961SOL     OW32515   0.459   1.386   9.633  0.1424 -0.4527 -0.0866
 6961SOL    HW132516   0.464   1.377   9.728 -5.2108 -0.2790  0.2096
 6961SOL    HW232517   0.506   1.470   9.625 -2.1946  0.9851  1.2467
 6962SOL     OW32518   0.784   0.147   3.998  0.1516 -0.0592  0.2195
 6962SOL    HW132519   0.769   0.210   4.068 -1.9002 -1.2903  0.8648
 6962SOL    HW232520   0.704   0.159   3.947 -1.2353 -1.2294  2.1214
 6963SOL     OW32521   0.409   3.318   8.315 -0.1145 -0.1941  0.1489
 6963SOL    HW132522   0.483   3.259   8.304  0.8826  1.0417  0.1445
 6963SOL    HW232523   0.350   3.243   8.312 -1.2061  0.6313  0.6586
 6964SOL     OW32524   1.350   4.147   8.791 -0.1610 -0.2667  0.0939
 6964SOL    HW132525   1.314   4.064   8.820 -0.8746 -0.4846 -1.4494
 6964SOL    HW232526   1.349   4.198   8.873  2.3963 -0.8651  0.5100
 6965SOL     OW32527   1.917   3.571   1.922 -0.5103  0.1872 -0.4145
 6965SOL    HW132528   1.914   3.567   1.826  1.5714  3.2204 -0.5988
 6965SOL    HW232529   1.834   3.524   1.935 -0.4277 -0.2972 -1.5440
 6966SOL     OW32530   0.479   3.821   5.742 -0.3365  0.1128  0.0041
 6966SOL    HW132531   0.435   3.882   5.801  0.4384  0.3989  0.2903
 6966SOL    HW232532   0.564   3.825   5.786  0.6058 -0.5929 -1.7021
 6967SOL     OW32533   0.443   2.651   7.422  0.4192  0.0950 -0.4332
 6967SOL    HW132534   0.398   2.598   7.357 -2.6010  0.1451  1.5942
 6967SOL    HW232535   0.378   2.719   7.441 -1.3610 -1.8297  0.4343
 6968SOL     OW32536   1.386   1.491   5.554  0.1632 -0.0615 -0.2446
 6968SOL    HW132537   1.431   1.407   5.568 -0.3392  0.1611  2.6910
 6968SOL    HW232538   1.294   1.471   5.572  0.2595 -0.8221 -0.5656
 6969SOL     OW32539   4.295   2.996   3.286  0.1061  0.1168  0.1452
 6969SOL    HW132540   4.220   2.940   3.307  1.9946 -1.8523  1.6562
 6969SOL    HW232541   4.266   3.053   3.215  0.6172  0.2439  0.0362
 6970SOL     OW32542   1.427   2.651   5.128 -0.0950 -0.4696 -0.1678
 6970SOL    HW132543   1.513   2.636   5.088  0.7835  2.7568  0.4564
 6970SOL    HW232544   1.360   2.606   5.077  2.6390 -4.9248  0.1459
 6971SOL     OW32545   0.485   3.081   3.006  0.1904 -0.0158  0.1114
 6971SOL    HW132546   0.499   3.173   3.030  0.0282 -0.2784  1.2059
 6971SOL    HW232547   0.571   3.039   2.999 -0.9126 -2.3648  0.7005
 6972SOL     OW32548   1.705   2.336   4.030 -0.0300  0.0814  0.2115
 6972SOL    HW132549   1.758   2.401   4.078 -0.3751  2.0534 -2.0983
 6972SOL    HW232550   1.748   2.253   4.048  0.1874  0.4046  1.2263
 6973SOL     OW32551   0.270   3.449   2.303 -0.4138  0.0188 -0.0137
 6973SOL    HW132552   0.303   3.408   2.223 -0.9796  1.0557 -0.7772
 6973SOL    HW232553   0.340   3.446   2.368 -0.5334  0.3060  0.1264
 6974SOL     OW32554   4.074   3.083   1.820 -0.3709 -0.0009  0.3039
 6974SOL    HW132555   4.094   3.022   1.891 -1.1389 -0.2717  0.2781
 6974SOL    HW232556   4.055   3.017   1.753  0.3480  2.7707 -2.6224
 6975SOL     OW32557   3.714   4.506   6.334 -0.2738  0.4605 -0.1906
 6975SOL    HW132558   3.805   4.531   6.354 -0.9299  2.8859 -0.3044
 6975SOL    HW232559   3.683   4.591   6.304  1.2917  0.2003 -2.5823
 6976SOL     OW32560   3.578   2.332   5.746 -0.2339 -0.6836  0.2112
 6976SOL    HW132561   3.642   2.289   5.691 -1.3966 -1.8263 -0.2502
 6976SOL    HW232562   3.640   2.382   5.799  0.6573  0.0945 -1.5638
 6977SOL     OW32563   3.919   3.804  11.039  0.1666 -0.1238  0.4014
 6977SOL    HW132564   3.916   3.769  10.950  2.5439 -1.5740  0.9027
 6977SOL    HW232565   3.968   3.733  11.079  0.9510 -0.6325 -1.4321
 6978SOL     OW32566   0.884   1.334  10.101 -0.3394 -0.0623 -0.1902
 6978SOL    HW132567   0.946   1.311  10.033 -0.6116 -1.5247  0.0602
 6978SOL    HW232568   0.872   1.425  10.073 -3.0714 -0.0514  0.9195
 6979SOL     OW32569   2.537   0.871   9.115 -0.2592 -0.5675  0.4181
 6979SOL    HW132570   2.457   0.922   9.109 -0.0485 -0.2845  0.0054
 6979SOL    HW232571   2.595   0.915   9.053 -0.5911 -0.7144  0.0095
 6980SOL     OW32572   1.059   3.611   6.200  0.3628 -0.5166  0.1038
 6980SOL    HW132573   1.090   3.605   6.110  1.1789  0.0066  0.3458
 6980SOL    HW232574   1.138   3.635   6.249 -0.1544 -2.5828  1.9534
 6981SOL     OW32575   4.603   1.496   7.945  0.1064 -0.2148  0.1148
 6981SOL    HW132576   4.663   1.427   7.920 -0.2222 -0.5626  0.2774
 6981SOL    HW232577   4.572   1.468   8.031 -0.0020 -1.2359 -0.2622
 6982SOL     OW32578   0.460   1.684   4.169 -0.4307  0.1936 -0.3614
 6982SOL    HW132579   0.390   1.739   4.204 -0.9002  0.7083 -2.1194
 6982SOL    HW232580   0.491   1.648   4.252  0.3623  3.0457  0.5774
 6983SOL     OW32581   2.873   1.761   6.100  0.0506  0.1720  0.3372
 6983SOL    HW132582   2.778   1.758   6.110  0.3837 -2.7082  2.8113
 6983SOL    HW232583   2.891   1.840   6.050  0.4546 -0.5943 -0.7376
 6984SOL     OW32584   4.587   0.258   6.024  0.0443  0.0707  0.7903
 6984SOL    HW132585   4.515   0.319   6.041  1.0919  2.2896 -2.5219
 6984SOL    HW232586   4.654   0.327   6.023  0.3439 -0.2100  1.8147
 6985SOL     OW32587   4.715   2.290  11.543 -0.1977  0.1627  0.3389
 6985SOL    HW132588   4.644   2.242  11.586  0.6078 -1.4648 -0.1789
 6985SOL    HW232589   4.657   2.328  11.477  0.2547  1.5754  0.7485
 6986SOL     OW32590   3.887   0.431   1.168 -0.4801  0.1303  0.3742
 6986SOL    HW132591   3.967   0.441   1.117 -1.4312 -0.7611 -1.3143
 6986SOL    HW232592   3.834   0.490   1.114  1.2895  0.6473 -0.7843
 6987SOL     OW32593   1.505   1.555  12.892  0.3597  0.0800  0.4499
 6987SOL    HW132594   1.507   1.605  12.811  1.2901 -2.2127 -0.9465
 6987SOL    HW232595   1.597   1.529  12.889 -0.1551 -1.9914  2.2249
 6988SOL     OW32596   4.203   0.596  12.854  0.0203 -0.6337  0.0968
 6988SOL    HW132597   4.112   0.569  12.869 -0.5274  0.6030 -0.9881
 6988SOL    HW232598   4.191   0.691  12.845 -0.1703 -0.4007  2.6686
 6989SOL     OW32599   0.094   4.181  12.195 -0.4090  0.2849 -0.2805
 6989SOL    HW132600   0.071   4.224  12.277 -1.2774 -1.0787  0.1832
 6989SOL    HW232601   0.179   4.148  12.225  0.1647  0.8972 -1.2166
 6990SOL     OW32602   1.811   4.216   3.083 -0.4569  0.3369  0.3046
 6990SOL    HW132603   1.734   4.256   3.045  0.8603  1.2653 -1.3581
 6990SOL    HW232604   1.886   4.257   3.040 -0.5233 -0.4539 -0.5566
 6991SOL     OW32605   4.231   3.881  17.090 -0.4240 -0.4489  0.5989
 6991SOL    HW132606   4.305   3.833  17.127  0.4390  0.9223  0.6786
 6991SOL    HW232607   4.157   3.847  17.140 -1.0497 -0.7181 -0.5051
 6992SOL     OW32608   2.948   2.884  10.843 -0.2617  0.4505 -0.5162
 6992SOL    HW132609   2.989   2.883  10.757 -1.9357 -1.2551 -1.2810
 6992SOL    HW232610   2.869   2.936  10.829 -1.7475 -1.2747  1.3755
 6993SOL     OW32611   4.117   4.152   3.767 -0.1394  0.2759 -0.4403
 6993SOL    HW132612   4.140   4.101   3.845  0.3812  2.5023  0.8905
 6993SOL    HW232613   4.197   4.129   3.720  0.6922  0.3268  0.9482
 6994SOL     OW32614   1.897   4.597   7.880 -0.0800  0.0763  0.2727
 6994SOL    HW132615   1.912   4.515   7.833 -1.7928 -1.6070  2.6274
 6994SOL    HW232616   1.909   4.660   7.809 -0.4845 -1.6145 -1.3024
 6995SOL     OW32617   2.261   1.211  11.419 -0.0685  0.1864  0.2122
 6995SOL    HW132618   2.173   1.190  11.450 -1.0769  1.5570 -1.7521
 6995SOL    HW232619   2.255   1.178  11.330 -0.5296 -0.5938  0.5323
 6996SOL     OW32620   1.966   0.127   1.353  0.3214 -0.0704  0.0915
 6996SOL    HW132621   1.963   0.219   1.326 -1.9006  0.0656  0.7942
 6996SOL    HW232622   2.028   0.085   1.294  1.8330  0.7690  1.0813
 6997SOL     OW32623   1.494   0.008   7.122  0.9160  0.3996  0.2542
 6997SOL    HW132624   1.558   0.009   7.051 -0.3386  0.5586 -0.8619
 6997SOL    HW232625   1.494   4.651   7.141 -0.6928  0.0811 -1.3765
 6998SOL     OW32626   2.215   1.444  15.714  0.1115 -0.1154 -0.4489
 6998SOL    HW132627   2.210   1.538  15.730  2.6788 -0.0957  0.1698
 6998SOL    HW232628   2.239   1.406  15.798  2.6676  0.4155 -0.9614
 6999SOL     OW32629   2.548   4.667   5.825  0.7073 -0.0501  0.0175
 6999SOL    HW132630   2.570   4.601   5.760  1.0476  1.1935 -1.1321
 6999SOL    HW232631   2.485   4.620   5.879  0.4501  1.3473  0.9245
 7000SOL     OW32632   4.106   4.639   7.401  0.0181 -0.0564 -0.2146
 7000SOL    HW132633   4.139   4.690   7.327  1.6191  0.6116  0.9531
 7000SOL    HW232634   4.012   4.650   7.389  0.2100  1.7802 -0.1481
 7001SOL     OW32635   1.159   2.468  16.969 -0.5872  0.0963  0.4031
 7001SOL    HW132636   1.149   2.489  17.062 -3.3950 -0.8363  0.3444
 7001SOL    HW232637   1.231   2.405  16.971 -1.3050 -0.7834 -1.2425
 7002SOL     OW32638   1.332   4.202  15.494 -0.8220 -0.1076  0.0437
 7002SOL    HW132639   1.277   4.143  15.545 -2.4336  0.5043 -0.9608
 7002SOL    HW232640   1.288   4.215  15.410  0.9695  0.2914 -0.8305
 7003SOL     OW32641   0.452   4.413  13.822  0.2295 -0.1087  0.1792
 7003SOL    HW132642   0.407   4.477  13.768  1.1124  2.4829  2.5022
 7003SOL    HW232643   0.446   4.340  13.760  1.1408 -0.0945  0.0759
 7004SOL     OW32644   3.607   2.975   7.614  0.5134  0.5064  0.1792
 7004SOL    HW132645   3.585   2.970   7.707  1.5508 -1.3711  0.3129
 7004SOL    HW232646   3.643   2.887   7.612 -0.9141 -0.1081  2.0703
 7005SOL     OW32647   4.280   4.646   9.017  0.3721 -0.4688 -0.6891
 7005SOL    HW132648   4.244   4.602   8.940  0.5103 -1.3323 -0.2726
 7005SOL    HW232649   4.241   4.594   9.087 -2.2477  2.1979 -0.1836
 7006SOL     OW32650   3.820   3.487   6.444 -0.0961  0.0879 -0.3864
 7006SOL    HW132651   3.829   3.534   6.361 -1.8819 -0.2502 -0.7830
 7006SOL    HW232652   3.768   3.541   6.505 -1.1896 -0.0028 -1.2325
 7007SOL     OW32653   3.074   0.291   0.143 -0.6095 -0.4940 -0.5980
 7007SOL    HW132654   3.156   0.252   0.174 -1.3510 -0.3485  1.5993
 7007SOL    HW232655   3.043   0.213   0.098  1.2564 -1.5607 -0.0447
 7008SOL     OW32656   2.883   1.943  12.733  0.2282  0.5398  0.2711
 7008SOL    HW132657   2.889   1.904  12.821 -0.4314 -0.5250 -0.1446
 7008SOL    HW232658   2.832   1.878  12.684 -0.6796 -0.3739  2.4302
 7009SOL     OW32659   2.440   4.425   1.187  0.0978  0.3553 -0.2038
 7009SOL    HW132660   2.455   4.348   1.241  2.0080  1.3463  0.6642
 7009SOL    HW232661   2.529   4.459   1.180  0.2803  0.3408  2.2114
 7010SOL     OW32662   0.753   0.988   8.442  0.0435 -0.0197 -0.0479
 7010SOL    HW132663   0.684   0.935   8.482  0.6633 -1.0971 -0.4231
 7010SOL    HW232664   0.802   1.013   8.520 -0.3489  2.0328 -0.4658
 7011SOL     OW32665   0.214   1.940   6.884 -0.1668  0.4286  0.0960
 7011SOL    HW132666   0.243   2.025   6.848  0.8916 -0.0613 -0.2109
 7011SOL    HW232667   0.186   1.898   6.803 -3.0563 -0.3194  1.5001
 7012SOL     OW32668   4.638   2.737   9.763  0.4348  0.3648 -0.6488
 7012SOL    HW132669   4.669   2.663   9.815 -0.5554  0.2679 -0.2034
 7012SOL    HW232670   4.684   2.812   9.801 -2.2704  0.8793  1.5987
 7013SOL     OW32671   1.437   3.648   8.264  0.2452 -0.2703 -0.1922
 7013SOL    HW132672   1.475   3.735   8.255 -0.5135  0.0352 -0.4401
 7013SOL    HW232673   1.355   3.655   8.215  1.0263 -3.4475 -1.9585
 7014SOL     OW32674   3.093   2.100   2.375  0.1321  0.2230 -0.4049
 7014SOL    HW132675   3.109   2.108   2.281  1.6564 -2.3409 -0.3596
 7014SOL    HW232676   3.176   2.061   2.403  0.5922 -0.1286 -2.2694
 7015SOL     OW32677   0.414   0.726   5.971 -0.1353  0.1764 -0.2812
 7015SOL    HW132678   0.455   0.783   6.036  1.7002 -1.2154 -0.2259
 7015SOL    HW232679   0.341   0.783   5.948  0.2570  1.2680  1.2036
 7016SOL     OW32680   3.790   4.728   8.009  0.4508  0.2484  0.6621
 7016SOL    HW132681   3.883   0.003   7.987 -0.8140  1.7456 -3.7228
 7016SOL    HW232682   3.794   0.049   8.085  1.4546  1.0067  0.0279
 7017SOL     OW32683   2.047   3.958   7.414  0.2401 -0.0806  0.2260
 7017SOL    HW132684   2.001   3.885   7.454  0.5751 -1.0732 -1.1693
 7017SOL    HW232685   1.964   4.003   7.402  0.3384  0.3287  1.0896
 7018SOL     OW32686   3.301   1.127   3.813 -0.2265 -0.4573  0.0046
 7018SOL    HW132687   3.224   1.139   3.757  0.3132  0.7273 -0.4784
 7018SOL    HW232688   3.366   1.126   3.742 -0.9014 -3.8546 -0.5738
 7019SOL     OW32689   0.944   3.537   8.018  0.3190 -0.1645 -0.1164
 7019SOL    HW132690   0.997   3.473   8.065 -0.5016 -0.5650  0.2523
 7019SOL    HW232691   0.883   3.481   7.968  1.2566  1.1598 -2.7576
 7020SOL     OW32692   0.461   3.668  13.342  0.5692  0.1398 -0.3831
 7020SOL    HW132693   0.422   3.756  13.345 -0.3621 -0.3338  1.5157
 7020SOL    HW232694   0.539   3.683  13.288  0.3500 -0.4387 -0.8588
 7021SOL     OW32695   4.509   3.873   0.155 -0.3054  0.3280 -0.2924
 7021SOL    HW132696   4.558   3.904   0.080 -0.8867  4.1087  0.8860
 7021SOL    HW232697   4.427   3.834   0.124 -0.2377 -0.7801  0.9141
 7022SOL     OW32698   2.711   4.054  17.678  0.1446 -0.5243  0.1645
 7022SOL    HW132699   2.706   4.134  17.730  0.5909  0.3604 -1.1492
 7022SOL    HW232700   2.750   3.993  17.740  0.9774 -0.1563  0.0050
 7023SOL     OW32701   2.866   2.696  14.522 -0.6261 -0.3082  0.4220
 7023SOL    HW132702   2.903   2.765  14.576 -0.1767 -0.9804  0.9755
 7023SOL    HW232703   2.835   2.638  14.591 -0.5894  0.6141  1.2121
 7024SOL     OW32704   2.719   2.083   4.720 -0.6648 -0.3464  0.1168
 7024SOL    HW132705   2.705   2.039   4.636 -4.4985  1.0482  0.0256
 7024SOL    HW232706   2.731   2.171   4.682 -0.6753 -0.0207  0.8739
 7025SOL     OW32707   4.601   3.008   3.925 -0.4715  0.8937 -0.3560
 7025SOL    HW132708   4.594   2.983   4.017 -1.6539  0.3707 -0.5940
 7025SOL    HW232709   4.686   2.977   3.893 -0.1920  1.1232  0.1772
 7026SOL     OW32710   4.684   0.056   6.204  0.4662 -0.0466 -0.4604
 7026SOL    HW132711   4.734   4.728   6.157 -2.9765 -1.4549 -2.1242
 7026SOL    HW232712   4.630   0.105   6.142 -1.1157  1.6804  2.3110
 7027SOL     OW32713   3.637   2.373   2.994 -0.1682  0.1254 -0.3794
 7027SOL    HW132714   3.587   2.300   2.958  1.5420 -2.5253  2.5766
 7027SOL    HW232715   3.560   2.423   3.019 -0.4960 -0.0111 -1.1173
 7028SOL     OW32716   3.930   3.703   1.531 -0.2696 -0.1858 -0.6829
 7028SOL    HW132717   3.848   3.672   1.569 -2.2521  0.8552 -4.0554
 7028SOL    HW232718   3.919   3.797   1.543 -0.9242 -0.6834  2.3988
 7029SOL     OW32719   1.729   4.389  10.564  0.4375  0.2489  0.4704
 7029SOL    HW132720   1.811   4.390  10.614  0.2497  0.3283  0.7836
 7029SOL    HW232721   1.717   4.294  10.564 -0.6620  0.3845  0.7766
 7030SOL     OW32722   2.996   2.311  15.696  0.6838  0.2640 -0.5601
 7030SOL    HW132723   2.932   2.262  15.747  0.3896  0.5569 -0.6473
 7030SOL    HW232724   3.008   2.391  15.747 -0.1337 -1.6355  2.6193
 7031SOL     OW32725   4.601   4.544   4.069  0.0219 -0.4286  0.1489
 7031SOL    HW132726   4.569   4.484   4.003 -1.9871  1.3305 -0.4596
 7031SOL    HW232727   4.647   4.477   4.119 -1.0176 -0.0832  1.5600
 7032SOL     OW32728   0.995   4.565  11.108 -0.1286 -0.7268  0.2819
 7032SOL    HW132729   0.907   4.601  11.119  0.4839  0.9343 -0.3054
 7032SOL    HW232730   0.973   4.530  11.022  2.2587 -3.3836  0.7484
 7033SOL     OW32731   1.226   0.271   3.643 -0.1623 -0.3793 -0.4195
 7033SOL    HW132732   1.254   0.188   3.604 -2.7026 -1.0176 -0.8679
 7033SOL    HW232733   1.198   0.308   3.560 -0.8029 -1.4806 -0.6921
 7034SOL     OW32734   3.098   4.702   6.524  0.4167  0.3293 -0.6278
 7034SOL    HW132735   3.049   0.043   6.499  1.3031  1.0383 -0.1238
 7034SOL    HW232736   3.181   0.009   6.537 -0.6183  1.6611  1.3620
 7035SOL     OW32737   1.505   1.941   4.126 -0.1693 -0.4170 -0.5593
 7035SOL    HW132738   1.579   1.986   4.086  0.3045  0.3248  1.1563
 7035SOL    HW232739   1.439   1.923   4.059 -1.8533 -1.3665  1.3200
 7036SOL     OW32740   2.960   1.264   5.810 -0.5171 -0.0588 -0.1702
 7036SOL    HW132741   2.934   1.341   5.761 -0.7970  2.0971  3.3925
 7036SOL    HW232742   3.055   1.272   5.822 -0.7243  0.4948  1.0845
 7037SOL     OW32743   3.851   1.749   7.089 -0.2903 -0.4479 -0.1232
 7037SOL    HW132744   3.788   1.814   7.120  0.8078  0.4418  0.2195
 7037SOL    HW232745   3.919   1.812   7.065  1.2011 -1.2523  2.0179
 7038SOL     OW32746   1.555   1.224   8.365 -0.6079 -0.2725 -0.1381
 7038SOL    HW132747   1.511   1.153   8.412  0.6548 -0.1755  1.1566
 7038SOL    HW232748   1.518   1.295   8.417  0.0294  0.3484 -0.5323
 7039SOL     OW32749   2.182   3.917   3.662 -0.7349  0.0391  0.3276
 7039SOL    HW132750   2.251   3.851   3.669 -1.1199 -0.3578  0.3473
 7039SOL    HW232751   2.150   3.929   3.572  1.0266 -0.9225 -0.4319
 7040SOL     OW32752   1.571   2.837   2.258 -0.3090 -0.5018 -0.1149
 7040SOL    HW132753   1.503   2.771   2.249 -0.1504 -0.5968 -0.6114
 7040SOL    HW232754   1.643   2.791   2.215  0.5303 -0.4990  1.2876
 7041SOL     OW32755   0.645   3.161  15.622  0.1818  0.0793  0.3262
 7041SOL    HW132756   0.673   3.214  15.697 -0.3869  0.2001  0.4503
 7041SOL    HW232757   0.707   3.197  15.559  0.3733 -0.1991  0.3571
 7042SOL     OW32758   4.228   1.980   4.392 -0.2433 -0.1938 -0.5080
 7042SOL    HW132759   4.167   1.913   4.360  1.2326 -2.1130  0.7359
 7042SOL    HW232760   4.182   2.064   4.385 -1.4650 -0.6765  1.7187
 7043SOL     OW32761   1.723   2.001  14.297 -0.4343 -0.2502 -0.3278
 7043SOL    HW132762   1.631   2.026  14.297 -0.6381 -1.0750  3.4290
 7043SOL    HW232763   1.725   1.979  14.204  0.9592 -1.3036 -0.0463
 7044SOL     OW32764   3.572   3.103   7.204  0.0096 -0.3388 -0.0236
 7044SOL    HW132765   3.490   3.057   7.225 -0.6053 -0.1474 -2.0274
 7044SOL    HW232766   3.589   3.157   7.281 -1.7413 -1.4225  1.1415
 7045SOL     OW32767   1.874   2.674   7.790  0.3255  0.8638 -0.7963
 7045SOL    HW132768   1.837   2.648   7.874 -0.6950  0.2784 -1.4268
 7045SOL    HW232769   1.797   2.703   7.740  0.6575  3.0566 -0.0385
 7046SOL     OW32770   1.530   0.276   1.909  0.6774 -1.0512  0.0173
 7046SOL    HW132771   1.492   0.288   1.822 -0.1796 -2.9218  0.1340
 7046SOL    HW232772   1.456   0.272   1.969  1.4424 -0.6441  0.9848
 7047SOL     OW32773   0.982   2.207   0.430 -0.0452  0.4392 -0.2722
 7047SOL    HW132774   0.945   2.178   0.514  1.2787 -0.9867 -0.1740
 7047SOL    HW232775   0.910   2.194   0.369 -0.0192 -2.3044  0.2743
 7048SOL     OW32776   2.782   0.242   6.173  0.7041 -0.1905  0.0661
 7048SOL    HW132777   2.710   0.184   6.148  2.1381 -2.4907  1.2560
 7048SOL    HW232778   2.857   0.192   6.140  0.8773 -0.0237  0.2011
 7049SOL     OW32779   0.631   2.751   7.214  0.2466 -0.2385 -0.1712
 7049SOL    HW132780   0.555   2.693   7.206 -0.2476  0.7323 -2.7129
 7049SOL    HW232781   0.600   2.828   7.165 -0.7562  1.1297  2.5859
 7050SOL     OW32782   2.834   4.100   5.244 -0.0463 -0.2264 -0.2582
 7050SOL    HW132783   2.875   4.184   5.224  0.1390  0.0987  1.5269
 7050SOL    HW232784   2.800   4.065   5.161 -0.9531  0.9521 -0.3926
 7051SOL     OW32785   4.571   1.716   6.207  0.1835 -0.1284 -0.1117
 7051SOL    HW132786   4.550   1.756   6.291  0.2998 -0.2535 -0.0245
 7051SOL    HW232787   4.599   1.790   6.153  0.0995 -1.7719 -2.4201
 7052SOL     OW32788   1.126   1.561   2.961  0.3710 -0.3473 -0.1272
 7052SOL    HW132789   1.037   1.590   2.979  0.1895 -0.2846 -1.0839
 7052SOL    HW232790   1.129   1.504   3.038  1.7938 -0.4537 -0.2626
 7053SOL     OW32791   1.615   3.566   1.296 -0.5878  0.1957  0.4486
 7053SOL    HW132792   1.557   3.512   1.242 -0.2334  0.4823 -0.2094
 7053SOL    HW232793   1.571   3.650   1.283  1.8118  1.1642 -1.3942
 7054SOL     OW32794   3.635   0.679  17.241 -0.4798 -0.0836 -0.5556
 7054SOL    HW132795   3.578   0.688  17.164  1.4777  0.0254 -1.9772
 7054SOL    HW232796   3.581   0.623  17.297  1.0872 -1.5907 -0.5582
 7055SOL     OW32797   0.118   0.672  10.186  0.5985 -0.0799  0.0392
 7055SOL    HW132798   0.121   0.682  10.090 -1.8827 -1.3674 -0.1684
 7055SOL    HW232799   0.087   0.759  10.209  0.1566 -0.5110  1.0612
 7056SOL     OW32800   3.516   2.639   0.521  0.0256 -0.2645  0.0765
 7056SOL    HW132801   3.579   2.601   0.460 -0.2146  1.1766 -1.0664
 7056SOL    HW232802   3.553   2.727   0.507 -0.6033  0.0223  0.2161
 7057SOL     OW32803   2.995   3.914   7.957  0.7542  0.0510 -0.1674
 7057SOL    HW132804   2.978   3.917   7.863  0.0031  1.7754  0.0157
 7057SOL    HW232805   3.087   3.942   7.954  0.6536  0.7371  2.7798
 7058SOL     OW32806   2.981   3.633   0.733 -0.0488  0.6850  0.2927
 7058SOL    HW132807   3.044   3.697   0.767  0.8066 -1.0032  1.8603
 7058SOL    HW232808   3.029   3.553   0.714  1.6621  1.2744  2.0860
 7059SOL     OW32809   3.245   3.737   5.335  0.8065  0.1595 -0.0453
 7059SOL    HW132810   3.305   3.773   5.401  0.3147  0.8352  0.0351
 7059SOL    HW232811   3.246   3.642   5.349 -0.5496  0.2156  0.4062
 7060SOL     OW32812   4.020   3.421  14.726  0.0307 -0.5194  0.2159
 7060SOL    HW132813   3.947   3.430  14.665  1.0239  0.2749 -0.8745
 7060SOL    HW232814   4.016   3.327  14.739 -0.1442 -0.4303  0.8128
 7061SOL     OW32815   0.885   3.155   6.294 -0.0709 -0.8906 -0.3983
 7061SOL    HW132816   0.909   3.064   6.311  1.6203 -0.6312 -1.3763
 7061SOL    HW232817   0.915   3.163   6.204  2.8479  0.1931  0.6734
 7062SOL     OW32818   2.406   3.058  15.430 -0.3287  0.5988 -0.7057
 7062SOL    HW132819   2.467   2.992  15.464 -1.6794  0.9397  2.4064
 7062SOL    HW232820   2.465   3.134  15.426 -0.8041  0.7372 -4.2775
 7063SOL     OW32821   4.297   0.076   5.327  0.0997 -0.2729 -0.1106
 7063SOL    HW132822   4.342   0.142   5.275  0.8718 -1.4234 -0.8963
 7063SOL    HW232823   4.298   0.004   5.264  1.3017  0.1493 -0.5755
 7064SOL     OW32824   3.981   3.113   5.538 -0.0774 -0.0509 -0.3727
 7064SOL    HW132825   3.955   3.067   5.618  1.9916  1.9554  1.4546
 7064SOL    HW232826   4.041   3.047   5.504  1.3305  0.5412  0.9777
 7065SOL     OW32827   0.169   0.845   3.383 -0.2109  0.3108 -0.1818
 7065SOL    HW132828   0.128   0.928   3.409 -2.9835 -1.1937  0.2215
 7065SOL    HW232829   0.251   0.849   3.432 -0.0900  0.2281 -0.3793
 7066SOL     OW32830   3.793   2.692   8.346  0.1753  0.0681  0.3064
 7066SOL    HW132831   3.730   2.764   8.344  0.5907  0.4761  2.3528
 7066SOL    HW232832   3.758   2.626   8.406 -1.8837  1.8702  1.1293
 7067SOL     OW32833   3.303   1.819   1.942  0.0005  0.5490 -0.2305
 7067SOL    HW132834   3.218   1.854   1.968  1.1934  3.2648  0.0612
 7067SOL    HW232835   3.295   1.727   1.965 -2.4610  0.9070  0.2644
 7068SOL     OW32836   0.323   2.710   6.200 -0.1370  0.1825  0.1074
 7068SOL    HW132837   0.395   2.675   6.148 -0.0442  0.3238  0.1416
 7068SOL    HW232838   0.349   2.802   6.192  1.3985 -0.3364 -0.8038
 7069SOL     OW32839   0.758   0.003   8.051  0.2920 -0.4633  0.0375
 7069SOL    HW132840   0.804   4.660   8.031 -1.9694 -2.2452  2.1022
 7069SOL    HW232841   0.825   0.071   8.061 -1.7130  1.4693  0.4706
 7070SOL     OW32842   1.899   3.418   7.191 -0.8252 -0.1132 -0.0960
 7070SOL    HW132843   1.982   3.461   7.169 -0.1179 -0.4504  1.9621
 7070SOL    HW232844   1.921   3.377   7.274 -0.7559  1.4906  0.6801
 7071SOL     OW32845   3.655   3.492   4.831  0.1585 -0.3526  0.4007
 7071SOL    HW132846   3.615   3.570   4.793 -0.3836  0.7658  3.1957
 7071SOL    HW232847   3.695   3.444   4.759  1.0140 -0.9763  1.2905
 7072SOL     OW32848   0.456   1.198  11.753  0.4888 -0.0334 -0.0588
 7072SOL    HW132849   0.419   1.114  11.780 -1.3514  1.1001  0.9368
 7072SOL    HW232850   0.518   1.167  11.687 -0.7773  2.6967 -2.5254
 7073SOL     OW32851   3.163   3.825  10.684  0.2839  0.4652 -0.2157
 7073SOL    HW132852   3.207   3.902  10.647  0.9375  1.2171  2.0749
 7073SOL    HW232853   3.089   3.820  10.625 -0.0437 -1.9721  0.4181
 7074SOL     OW32854   2.732   0.627   7.556  0.1211 -0.2811 -0.0835
 7074SOL    HW132855   2.766   0.619   7.645 -0.0848  1.7342  0.1734
 7074SOL    HW232856   2.818   0.610   7.517  1.6359  0.4844  2.9243
 7075SOL     OW32857   0.605   0.953   8.854  0.5093  0.0819 -0.5905
 7075SOL    HW132858   0.563   1.035   8.831  0.8622  0.5558  0.4738
 7075SOL    HW232859   0.603   0.952   8.950  0.9479 -0.0533 -0.5803
 7076SOL     OW32860   4.282   3.589   2.081 -0.5542  0.1940  0.5047
 7076SOL    HW132861   4.364   3.542   2.064  0.3144  1.8219  0.1298
 7076SOL    HW232862   4.317   3.678   2.087 -1.0984  0.5279 -1.2736
 7077SOL     OW32863   1.340   4.514   4.286 -0.2681  0.2638 -0.2278
 7077SOL    HW132864   1.267   4.471   4.243  0.0940 -0.9495  0.3829
 7077SOL    HW232865   1.308   4.604   4.290 -1.6732 -0.2185 -0.7823
 7078SOL     OW32866   1.606   3.381   0.808  0.1683 -0.4817  0.5770
 7078SOL    HW132867   1.692   3.420   0.794 -1.0745  2.9724  2.4619
 7078SOL    HW232868   1.628   3.289   0.821  0.1913 -0.8045 -1.7905
 7079SOL     OW32869   2.030   3.689   3.388  0.1528  0.3072 -0.3419
 7079SOL    HW132870   1.978   3.766   3.410  0.3579  0.3695 -0.0779
 7079SOL    HW232871   1.993   3.665   3.303 -2.0063  0.4143  0.5537
 7080SOL     OW32872   2.215   2.393   2.519 -0.0788 -0.0933 -0.0875
 7080SOL    HW132873   2.237   2.460   2.454 -2.2700 -1.2126 -2.0078
 7080SOL    HW232874   2.308   2.373   2.530 -0.0485 -0.5740 -1.2814
 7081SOL     OW32875   2.119   2.948   2.215  0.1046  0.3332  0.5547
 7081SOL    HW132876   2.099   3.021   2.156  0.9882 -1.1465 -1.5570
 7081SOL    HW232877   2.073   2.873   2.178 -1.2278  0.7789  1.3264
 7082SOL     OW32878   2.130   1.387   6.609 -0.1802 -0.2736 -0.4957
 7082SOL    HW132879   2.206   1.343   6.646 -0.1602  0.6627  0.5849
 7082SOL    HW232880   2.081   1.392   6.692  2.7946  0.9754  1.1847
 7083SOL     OW32881   1.845   1.218   8.631 -0.0636 -0.0812  0.0257
 7083SOL    HW132882   1.815   1.150   8.690  0.6622  0.3405  0.8751
 7083SOL    HW232883   1.787   1.291   8.652  1.0607  1.0629 -0.8609
 7084SOL     OW32884   4.680   1.381   3.351  0.4046  0.2482  0.2774
 7084SOL    HW132885   4.727   1.460   3.378  0.0381  0.3769  0.5460
 7084SOL    HW232886   4.670   1.330   3.431  1.7197 -1.0348 -0.3918
 7085SOL     OW32887   4.434   4.374   3.930  0.5301 -0.1982  0.3673
 7085SOL    HW132888   4.456   4.366   3.838 -2.3455 -4.1418  0.0218
 7085SOL    HW232889   4.342   4.400   3.925  0.7299  0.1173 -1.4594
 7086SOL     OW32890   2.666   1.597  16.444 -0.6061 -0.4361 -0.4730
 7086SOL    HW132891   2.757   1.579  16.422  0.0568 -0.8701  2.6684
 7086SOL    HW232892   2.634   1.622  16.357  0.2772 -1.5902 -1.1308
 7087SOL     OW32893   0.955   3.786   3.268 -0.1654 -0.0587  0.1713
 7087SOL    HW132894   0.997   3.763   3.350  1.9700 -1.7103 -1.3846
 7087SOL    HW232895   1.035   3.807   3.221 -0.1863  0.1034  0.2110
 7088SOL     OW32896   3.994   0.140   8.504  0.0912 -0.6243 -0.2318
 7088SOL    HW132897   4.004   0.064   8.562 -0.1207 -0.0725  0.5365
 7088SOL    HW232898   4.055   0.200   8.546 -3.0550  3.6487 -1.7723
 7089SOL     OW32899   2.631   0.131   9.417 -0.4953 -0.1650 -0.4599
 7089SOL    HW132900   2.680   0.208   9.446 -1.3792  1.1617 -2.4889
 7089SOL    HW232901   2.689   0.102   9.347  0.5591  0.5371  0.1235
 7090SOL     OW32902   3.113   1.707   9.512  0.3368 -0.0453  0.1304
 7090SOL    HW132903   3.019   1.724   9.513 -0.3720 -3.9816 -0.4949
 7090SOL    HW232904   3.136   1.725   9.603 -1.5186 -1.3365  0.8435
 7091SOL     OW32905   2.753   1.515   9.193  0.0091 -0.1501 -0.0665
 7091SOL    HW132906   2.812   1.480   9.260  0.7161 -0.5281 -0.8873
 7091SOL    HW232907   2.770   1.607   9.175  1.3371 -0.8379 -2.3696
 7092SOL     OW32908   4.589   4.475  13.749  0.4679  0.6743  0.2093
 7092SOL    HW132909   4.547   4.553  13.785 -1.8768  0.1587 -1.3952
 7092SOL    HW232910   4.529   4.442  13.682  0.2052  0.0751  0.7410
 7093SOL     OW32911   2.640   0.047   6.062  0.3830  1.0724 -0.2407
 7093SOL    HW132912   2.616   4.723   6.131 -0.6875  1.6307 -0.1129
 7093SOL    HW232913   2.603   0.003   5.985 -1.4890 -0.9778  1.8050
 7094SOL     OW32914   2.035   3.699   0.331 -0.3045  0.1591  0.2410
 7094SOL    HW132915   2.079   3.639   0.391 -0.8899  0.1745  0.6877
 7094SOL    HW232916   2.093   3.774   0.323 -2.2767  1.5948 -0.7261
 7095SOL     OW32917   2.208   1.601   3.900 -0.1220  0.0989 -0.0393
 7095SOL    HW132918   2.191   1.508   3.884 -3.1123  0.6339 -0.0490
 7095SOL    HW232919   2.291   1.595   3.946 -0.5699 -2.3569  0.4395
 7096SOL     OW32920   0.079   0.699  13.415  0.1984  0.1555 -0.1243
 7096SOL    HW132921   0.109   0.610  13.431 -0.6896 -0.0694  0.2617
 7096SOL    HW232922   0.156   0.748  13.444 -0.9408  1.6878  0.2836
 7097SOL     OW32923   1.900   0.871   4.637 -0.0811 -0.3924  0.2326
 7097SOL    HW132924   1.844   0.945   4.614  1.4157  0.7184  0.1340
 7097SOL    HW232925   1.911   0.850   4.544 -1.7993 -3.1159  0.6591
 7098SOL     OW32926   2.320   2.402  12.394  0.2369  0.1256  0.3444
 7098SOL    HW132927   2.357   2.321  12.360  2.4199  0.7481  1.2271
 7098SOL    HW232928   2.385   2.443  12.451  0.9371  0.2928 -0.5819
 7099SOL     OW32929   0.778   4.524   4.547  0.8292 -0.5153 -1.0484
 7099SOL    HW132930   0.697   4.512   4.596 -0.9510 -0.7947 -4.0555
 7099SOL    HW232931   0.754   4.609   4.508 -0.5531  1.2560  3.6524
 7100SOL     OW32932   1.695   1.506   5.318  0.2700  0.5470  0.5773
 7100SOL    HW132933   1.638   1.436   5.350  1.4621  0.3268  2.2347
 7100SOL    HW232934   1.703   1.556   5.399  0.5568  2.1475 -0.4380
 7101SOL     OW32935   2.494   2.151   5.697 -0.2380 -0.1850 -0.1576
 7101SOL    HW132936   2.457   2.117   5.779  1.6887 -2.6218 -0.3282
 7101SOL    HW232937   2.483   2.071   5.646 -2.0198  0.9722 -1.5988
 7102SOL     OW32938   1.432   2.033   7.889 -0.3764  0.4292 -0.6089
 7102SOL    HW132939   1.526   2.040   7.872 -0.2244 -2.2230 -0.8657
 7102SOL    HW232940   1.394   2.085   7.819 -0.6049  0.2577 -0.6129
 7103SOL     OW32941   3.788   3.935   1.024  0.9042  0.4975  0.3026
 7103SOL    HW132942   3.865   3.992   1.024 -0.2235  1.9974 -1.4767
 7103SOL    HW232943   3.725   3.999   1.058 -1.6504 -0.8999 -1.8404
 7104SOL     OW32944   3.283   2.963   3.427 -0.1117 -0.8176 -0.1485
 7104SOL    HW132945   3.327   3.041   3.461 -1.5941  0.0856 -0.3263
 7104SOL    HW232946   3.264   2.989   3.337 -0.5662 -1.7188 -0.3195
 7105SOL     OW32947   3.759   4.161  12.714 -0.5234  0.1305 -0.6539
 7105SOL    HW132948   3.761   4.254  12.691 -0.4391 -0.6299 -3.6744
 7105SOL    HW232949   3.665   4.153  12.729 -0.9716  1.9418 -2.4477
 7106SOL     OW32950   0.167   4.154   7.752 -0.3054 -0.2674 -0.2622
 7106SOL    HW132951   0.226   4.080   7.770  0.7068  0.4702 -0.5675
 7106SOL    HW232952   0.214   4.206   7.687 -0.5562  0.0670 -0.1708
 7107SOL     OW32953   4.194   3.136   5.055  0.5153  0.0900 -0.0897
 7107SOL    HW132954   4.173   3.055   5.008 -0.2563  1.1227 -1.5311
 7107SOL    HW232955   4.161   3.119   5.143  0.4440 -0.7530 -0.2799
 7108SOL     OW32956   3.112   0.726   7.482  0.1783 -0.0626 -0.3920
 7108SOL    HW132957   3.172   0.794   7.451  3.3264 -2.4073  0.5596
 7108SOL    HW232958   3.105   0.746   7.575 -1.4336  0.3558 -0.6013
 7109SOL     OW32959   0.567   0.465  12.804 -0.2148 -0.7241  0.2336
 7109SOL    HW132960   0.616   0.404  12.860  0.8589 -1.8496 -1.9446
 7109SOL    HW232961   0.613   0.547  12.823  0.1076 -0.4336 -1.8944
 7110SOL     OW32962   1.914   1.154  12.053  0.1662 -0.2972 -0.0954
 7110SOL    HW132963   1.964   1.074  12.039  0.3030  0.0835 -1.7974
 7110SOL    HW232964   1.826   1.121  12.069  0.8679 -1.5065  1.2301
 7111SOL     OW32965   0.970   2.223   3.472  0.4612 -0.0840  0.0105
 7111SOL    HW132966   0.964   2.274   3.392 -0.0702 -3.1417 -1.9171
 7111SOL    HW232967   0.965   2.134   3.436  1.2472  0.1705 -0.7187
 7112SOL     OW32968   0.041   3.587  14.867  0.7282 -0.0893  0.2076
 7112SOL    HW132969   0.085   3.671  14.880 -1.3536  0.5740  2.9418
 7112SOL    HW232970   0.003   3.564  14.951  1.5227 -0.7694  0.3753
 7113SOL     OW32971   4.426   2.704   6.259 -0.3138 -0.5911 -0.1078
 7113SOL    HW132972   4.355   2.765   6.241 -0.6626 -1.3227 -1.1942
 7113SOL    HW232973   4.376   2.642   6.313 -0.9937  1.9539  2.1253
 7114SOL     OW32974   2.468   2.675   7.702  0.0644  0.0925  0.2657
 7114SOL    HW132975   2.483   2.613   7.630  2.9236 -1.5243  2.2534
 7114SOL    HW232976   2.537   2.741   7.692  0.7018 -0.5417  0.5176
 7115SOL     OW32977   2.992   2.557   4.691 -0.2567 -0.2851 -0.4889
 7115SOL    HW132978   3.016   2.543   4.600  0.7213 -1.8551  0.0172
 7115SOL    HW232979   2.940   2.634   4.671  0.3259  0.4215  0.7585
 7116SOL     OW32980   2.162   4.403   0.462 -0.3975  0.4800 -0.1580
 7116SOL    HW132981   2.233   4.356   0.418 -1.2062 -0.2083 -0.7148
 7116SOL    HW232982   2.169   4.377   0.554 -1.3893 -0.3788 -0.3252
 7117SOL     OW32983   3.628   0.089  15.227  0.3169  0.9437  0.2772
 7117SOL    HW132984   3.590   0.023  15.170  1.0949  0.8913 -0.1919
 7117SOL    HW232985   3.701   0.041  15.266  0.5262  1.0043 -0.0382
 7118SOL     OW32986   1.733   3.761   5.054  0.2041 -0.0417  0.4379
 7118SOL    HW132987   1.821   3.779   5.088 -0.2439  1.3065  0.8752
 7118SOL    HW232988   1.679   3.767   5.133 -1.0191  0.1707 -0.4122
 7119SOL     OW32989   4.540   4.027   3.424 -0.3004  0.3517  0.4768
 7119SOL    HW132990   4.618   4.063   3.383  0.1213  1.3460  2.1557
 7119SOL    HW232991   4.472   4.073   3.375  0.1552  0.7643  0.2420
 7120SOL     OW32992   0.378   0.192   1.287  0.1158  0.3902 -0.3774
 7120SOL    HW132993   0.438   0.266   1.292 -1.4999  1.6976 -0.1547
 7120SOL    HW232994   0.340   0.197   1.199 -1.4198  1.8730  0.3733
 7121SOL     OW32995   1.406   4.349   2.307 -0.2617 -0.6402 -0.0253
 7121SOL    HW132996   1.325   4.324   2.352 -1.5358  1.4737 -1.1690
 7121SOL    HW232997   1.375   4.414   2.244  1.4840  0.5498  0.3172
 7122SOL     OW32998   4.637   1.269   4.898  0.1525  0.0872  0.4210
 7122SOL    HW132999   4.564   1.295   4.956 -2.6490 -2.4267 -1.9970
 7122SOL    HW233000   4.697   1.343   4.910 -0.8620  1.2200 -1.5505
 7123SOL     OW33001   4.558   2.093   2.869  0.2932 -0.1128  0.1937
 7123SOL    HW133002   4.647   2.084   2.904 -0.6289 -2.6202  1.9671
 7123SOL    HW233003   4.502   2.036   2.923 -0.7748  0.0302 -0.7639
 7124SOL     OW33004   1.640   0.499   7.685 -0.0901  0.2518  0.2943
 7124SOL    HW133005   1.631   0.455   7.769  0.1149  1.3187  0.8735
 7124SOL    HW233006   1.621   0.427   7.625 -1.8678  1.3583 -0.4922
 7125SOL     OW33007   2.623   3.770   1.624  0.1126  0.1332  0.0952
 7125SOL    HW133008   2.704   3.790   1.578  0.9088  0.9941  1.8448
 7125SOL    HW233009   2.615   3.844   1.685 -1.4577  0.7701 -0.8465
 7126SOL     OW33010   3.897   2.382  12.206  0.3887 -0.3474  0.1432
 7126SOL    HW133011   3.810   2.366  12.169  0.2014  1.0677 -0.0169
 7126SOL    HW233012   3.922   2.466  12.168 -2.5699  0.1708 -0.6837
 7127SOL     OW33013   4.695   1.918  14.701 -0.6680  0.1356  0.6465
 7127SOL    HW133014   0.026   1.976  14.669  0.5073 -0.3146  2.3623
 7127SOL    HW233015   4.621   1.938  14.643 -0.6266  0.4296  0.6999
 7128SOL     OW33016   3.534   0.285   7.282  0.4622  0.2526 -0.2050
 7128SOL    HW133017   3.470   0.272   7.212 -0.0992 -1.3687  0.6217
 7128SOL    HW233018   3.510   0.236   7.361 -0.4071 -1.6319 -1.6430
 7129SOL     OW33019   2.794   0.980   3.118 -0.1263  0.1501  0.4078
 7129SOL    HW133020   2.769   0.969   3.026 -0.6297  3.8499  0.1110
 7129SOL    HW233021   2.717   0.953   3.168 -0.0441  2.9303  2.0202
 7130SOL     OW33022   2.240   1.307   3.870  0.1889  0.5529  0.2219
 7130SOL    HW133023   2.311   1.264   3.918  2.2450  0.6619 -2.6874
 7130SOL    HW233024   2.182   1.316   3.945  0.7801 -2.2824  1.0202
 7131SOL     OW33025   0.774   1.256   3.602 -0.2687  0.0409  0.6638
 7131SOL    HW133026   0.714   1.330   3.607  1.3947  1.5045 -1.7692
 7131SOL    HW233027   0.847   1.269   3.662  1.4726  0.7647 -1.6322
 7132SOL     OW33028   3.838   2.472   3.109  0.0738 -0.2527 -0.1610
 7132SOL    HW133029   3.789   2.554   3.116 -0.2981 -0.3740 -1.3361
 7132SOL    HW233030   3.777   2.419   3.058  0.2738 -1.5105  0.9162
 7133SOL     OW33031   1.366   2.160   4.629  0.4285  0.2991 -0.7411
 7133SOL    HW133032   1.379   2.068   4.606 -0.0653 -0.1372  0.7787
 7133SOL    HW233033   1.273   2.167   4.611  0.4621 -0.9610 -1.4323
 7134SOL     OW33034   2.347   3.983   3.219  0.1208 -0.0627  0.0022
 7134SOL    HW133035   2.347   3.932   3.138  1.6031  0.5293 -0.3736
 7134SOL    HW233036   2.441   3.994   3.238  0.2920 -1.4545 -0.0488
 7135SOL     OW33037   0.624   0.365  12.295 -0.3368 -0.6085 -0.1906
 7135SOL    HW133038   0.644   0.283  12.250  0.6407 -0.1044 -0.6756
 7135SOL    HW233039   0.683   0.365  12.370  1.4505  1.8166 -1.6250
 7136SOL     OW33040   4.180   4.685   0.569 -0.1151 -0.1669  0.1289
 7136SOL    HW133041   4.228   4.684   0.486 -3.0256  2.5585 -1.5978
 7136SOL    HW233042   4.182   0.041   0.588  0.3159  0.7633 -4.3899
 7137SOL     OW33043   0.972   4.098   3.084  0.1027 -0.7107 -0.2314
 7137SOL    HW133044   0.936   4.018   3.121 -1.6618 -0.3164 -1.0985
 7137SOL    HW233045   0.919   4.112   3.005  0.1840  0.5141 -0.0744
 7138SOL     OW33046   4.004   0.082   4.514 -0.5629  0.2621 -0.5138
 7138SOL    HW133047   4.016   0.157   4.457  2.8284 -0.0099 -0.1610
 7138SOL    HW233048   4.070   0.109   4.578  0.3798  1.2486 -1.8978
 7139SOL     OW33049   4.456   3.640   6.043  0.1130 -0.0630  0.2966
 7139SOL    HW133050   4.487   3.725   6.013 -0.5624  0.4000  0.9422
 7139SOL    HW233051   4.500   3.579   5.983  0.2839  0.6573 -0.3120
 7140SOL     OW33052   4.567   4.125  11.468  0.2848 -0.7334 -0.2511
 7140SOL    HW133053   4.562   4.087  11.555  1.4044 -2.1316 -0.8079
 7140SOL    HW233054   4.615   4.206  11.489  1.3524 -1.3747 -0.2010
 7141SOL     OW33055   3.373   2.870  10.084 -0.2304 -0.4349 -0.1722
 7141SOL    HW133056   3.277   2.867  10.079 -0.1216  0.7128 -3.1301
 7141SOL    HW233057   3.389   2.798  10.145 -1.6230  0.3376  1.1016
 7142SOL     OW33058   3.530   2.540  11.896 -0.1923 -0.0678  1.2499
 7142SOL    HW133059   3.533   2.478  11.969 -1.3700 -1.0928  0.4271
 7142SOL    HW233060   3.620   2.527  11.867 -1.7297  0.8387 -3.8185
 7143SOL     OW33061   1.795   1.078   8.857  0.2661 -0.0530 -0.1822
 7143SOL    HW133062   1.796   0.983   8.870 -3.8722  0.0819  0.9945
 7143SOL    HW233063   1.875   1.102   8.905  0.6233  0.6142 -1.1043
 7144SOL     OW33064   1.365   3.723   3.734 -0.2527  0.2784  0.4447
 7144SOL    HW133065   1.326   3.753   3.817  0.4251  1.5766  0.2898
 7144SOL    HW233066   1.340   3.631   3.743  0.9447  0.0407  1.2909
 7145SOL     OW33067   1.978   4.545   2.576 -0.5111  0.0502 -0.1557
 7145SOL    HW133068   1.985   4.489   2.499  1.6991 -1.0810  0.8945
 7145SOL    HW233069   1.957   4.473   2.636 -0.5734  0.3817  0.2227
 7146SOL     OW33070   4.693   4.415   5.344  1.0045  0.0675  0.3138
 7146SOL    HW133071   0.001   4.376   5.270 -1.3156  0.5235 -1.3201
 7146SOL    HW233072   4.723   4.505   5.329 -1.8257  0.8693 -0.4429
 7147SOL     OW33073   0.549   1.165  17.463  0.5664  0.3301 -0.2352
 7147SOL    HW133074   0.549   1.074  17.495 -0.3231 -0.4880 -2.5530
 7147SOL    HW233075   0.637   1.203  17.468  2.5789 -4.4696  1.3806
 7148SOL     OW33076   2.454   1.502   9.712 -0.2327 -0.2239 -0.3576
 7148SOL    HW133077   2.370   1.483   9.753  0.9509  2.0541  3.1351
 7148SOL    HW233078   2.441   1.575   9.650  1.3766  1.1272  0.9093
 7149SOL     OW33079   2.679   0.701   4.087 -0.4652  0.5316  0.9806
 7149SOL    HW133080   2.717   0.642   4.151 -0.9317 -1.2109 -0.3498
 7149SOL    HW233081   2.741   0.684   4.016 -0.9807 -0.4429  0.7621
 7150SOL     OW33082   1.925   0.158   4.016 -0.3321 -0.3977  0.1539
 7150SOL    HW133083   2.000   0.175   3.959  1.1898  2.5954  3.0539
 7150SOL    HW233084   1.973   0.150   4.098 -1.4956 -2.2432  0.6466
 7151SOL     OW33085   3.154   2.271  13.824 -0.0169  0.2810  0.6443
 7151SOL    HW133086   3.101   2.203  13.865  0.2512  1.3353  2.7611
 7151SOL    HW233087   3.138   2.247  13.733  2.7832  2.6267 -0.4961
 7152SOL     OW33088   0.945   3.374  10.555  0.1298  0.7244 -0.3266
 7152SOL    HW133089   1.009   3.347  10.489  1.1126 -2.6439  2.0384
 7152SOL    HW233090   0.995   3.451  10.583 -1.0053  2.0637 -1.9334
 7153SOL     OW33091   3.497   4.185   6.610 -0.5148 -0.3428 -0.8399
 7153SOL    HW133092   3.408   4.219   6.619 -0.1178  0.4971 -0.0884
 7153SOL    HW233093   3.558   4.258   6.623 -2.5296  1.0360  0.9293
 7154SOL     OW33094   2.547   2.040   2.722  0.3311  0.6352 -0.0721
 7154SOL    HW133095   2.498   2.103   2.775 -1.4748 -0.2201 -0.7349
 7154SOL    HW233096   2.565   1.961   2.773 -1.9984  0.6150  0.7084
 7155SOL     OW33097   2.172   1.650   2.408  0.0843  0.1329 -0.0592
 7155SOL    HW133098   2.207   1.702   2.480  3.1102 -1.3511 -0.4318
 7155SOL    HW233099   2.181   1.712   2.335  0.7161 -1.5331 -1.4093
 7156SOL     OW33100   2.326   4.541   6.488 -0.7421 -0.3357  0.1813
 7156SOL    HW133101   2.331   4.542   6.392 -0.0004 -3.7901  0.1541
 7156SOL    HW233102   2.321   4.446   6.498 -1.6527 -0.3808 -0.7086
 7157SOL     OW33103   2.916   1.121   8.220 -0.0859 -0.3253 -0.6287
 7157SOL    HW133104   2.935   1.090   8.309 -2.3190  2.4838  0.8364
 7157SOL    HW233105   2.960   1.059   8.162  1.7935 -0.2163  0.6873
 7158SOL     OW33106   2.211   0.894   3.178 -0.4817  0.6065  0.0044
 7158SOL    HW133107   2.294   0.917   3.136  1.3964 -2.5908  1.9047
 7158SOL    HW233108   2.239   0.803   3.192  0.2351  1.2593  2.9093
 7159SOL     OW33109   0.986   1.122  13.105 -0.0690  0.3241 -0.2144
 7159SOL    HW133110   1.000   1.073  13.024 -1.8251  0.9632 -0.9090
 7159SOL    HW233111   1.045   1.196  13.089 -0.0259  0.0183 -1.4883
 7160SOL     OW33112   0.687   2.272   3.020  0.4018 -0.5664  0.1766
 7160SOL    HW133113   0.661   2.286   2.929 -0.0554  0.1052  0.4106
 7160SOL    HW233114   0.766   2.220   3.006  1.3944  1.6964 -2.6569
 7161SOL     OW33115   0.280   3.271   6.709  0.1886 -0.4946  0.3837
 7161SOL    HW133116   0.280   3.286   6.615 -1.1741  0.8406  0.5950
 7161SOL    HW233117   0.304   3.355   6.749  0.0579 -0.1300 -0.3093
 7162SOL     OW33118   2.030   2.231  12.917  0.2908  0.1345 -0.5368
 7162SOL    HW133119   2.003   2.322  12.910  0.9094  0.2902 -0.8948
 7162SOL    HW233120   2.057   2.227  13.009  3.3675  1.3413 -1.4025
 7163SOL     OW33121   0.104   4.434   3.265 -0.1719  0.4712  0.1196
 7163SOL    HW133122   0.195   4.422   3.237 -0.2227  0.5283 -0.0682
 7163SOL    HW233123   0.075   4.520   3.236 -1.4987  0.9401  2.8747
 7164SOL     OW33124   2.590   0.019   9.775 -0.1433 -0.2680 -0.4661
 7164SOL    HW133125   2.511   0.007   9.828 -0.3275  0.5502 -0.5590
 7164SOL    HW233126   2.656   0.060   9.831 -0.0858 -0.3140 -0.4993
 7165SOL     OW33127   3.488   0.008   1.123  0.1594 -0.0194 -0.4592
 7165SOL    HW133128   3.575   4.708   1.130  0.6652  0.9671 -1.4444
 7165SOL    HW233129   3.502   0.094   1.082 -0.4851  0.4439  0.2862
 7166SOL     OW33130   4.655   4.594   2.763 -0.1420 -0.0936 -0.3553
 7166SOL    HW133131   4.588   4.657   2.789  0.1048 -0.9678  2.3929
 7166SOL    HW233132   4.635   4.578   2.670  1.0665 -0.8273 -0.4914
 7167SOL     OW33133   0.091   4.626   2.265 -0.1295  0.1824  0.3612
 7167SOL    HW133134   0.022   4.619   2.200  0.3236 -0.5601 -0.0449
 7167SOL    HW233135   0.048   4.603   2.348  0.4754 -1.9266  0.0908
 7168SOL     OW33136   0.320   3.003   7.513 -0.5855 -0.1285 -0.5501
 7168SOL    HW133137   0.232   3.036   7.499 -0.3552  0.0734 -1.5504
 7168SOL    HW233138   0.364   3.058   7.449  0.4990 -2.3010 -1.6901
 7169SOL     OW33139   4.729   2.321  15.557  0.8678 -0.5937 -0.2987
 7169SOL    HW133140   0.025   2.408  15.578  1.0769 -0.8077  0.2567
 7169SOL    HW233141   0.069   2.271  15.584  1.0872 -0.0900  0.0021
 7170SOL     OW33142   2.847   0.357   5.570  0.0083  0.3882  0.3639
 7170SOL    HW133143   2.897   0.394   5.643 -0.3845  0.3949  0.6318
 7170SOL    HW233144   2.817   0.272   5.602 -3.4478  1.3146 -0.3900
 7171SOL     OW33145   0.953   0.287   6.866 -0.1569  0.1023  0.5258
 7171SOL    HW133146   0.958   0.238   6.784 -0.1528 -0.9296  1.1438
 7171SOL    HW233147   0.863   0.289   6.898 -0.0211  0.1623  0.9028
 7172SOL     OW33148   2.631   1.827   5.886  0.7582 -0.1140 -0.2155
 7172SOL    HW133149   2.621   1.787   5.973  3.1532 -0.4853 -0.1015
 7172SOL    HW233150   2.569   1.900   5.886  1.6795  0.6727 -1.1412
 7173SOL     OW33151   0.384   0.433   7.591  0.0091 -0.2854 -0.6050
 7173SOL    HW133152   0.331   0.512   7.601  0.4034 -0.6025  3.7115
 7173SOL    HW233153   0.460   0.459   7.642 -0.6436  1.3434 -0.4430
 7174SOL     OW33154   1.496   1.667  12.628 -0.4378  0.1940 -0.1806
 7174SOL    HW133155   1.545   1.746  12.652  0.7505 -0.4105 -0.6476
 7174SOL    HW233156   1.559   1.615  12.579 -0.4094 -0.6798  0.8016
 7175SOL     OW33157   1.955   4.400  10.709  0.3681 -0.2050  0.4513
 7175SOL    HW133158   1.963   4.387  10.804  0.1320  0.9842  0.6351
 7175SOL    HW233159   2.041   4.440  10.696  0.6741 -0.5648  1.3235
 7176SOL     OW33160   1.598   0.743   6.937 -0.1064  0.3744 -0.2203
 7176SOL    HW133161   1.589   0.800   6.860 -1.6732 -1.2337 -1.2394
 7176SOL    HW233162   1.632   0.667   6.891  1.4742  1.0506 -0.1592
 7177SOL     OW33163   0.923   4.135  16.035 -0.8563 -0.8231 -0.0384
 7177SOL    HW133164   1.018   4.128  16.020 -0.5700  1.5108  0.6504
 7177SOL    HW233165   0.930   4.148  16.129  0.0953 -1.4113 -0.0296
 7178SOL     OW33166   1.124   4.373   1.974 -0.1204  0.1722  0.4849
 7178SOL    HW133167   1.076   4.392   1.894  0.6860  0.1719 -0.0064
 7178SOL    HW233168   1.193   4.440   1.976 -2.2966  2.3584  1.6394
 7179SOL     OW33169   3.879   4.723   4.121  0.0002  0.7374  0.2353
 7179SOL    HW133170   3.939   4.675   4.178 -0.7008 -0.2051  0.1803
 7179SOL    HW233171   3.929   4.719   4.039 -0.9456  1.6117 -0.3819
 7180SOL     OW33172   1.541   1.554   3.656 -0.4307 -0.3524  0.5840
 7180SOL    HW133173   1.450   1.545   3.629 -0.4598 -0.3606  0.6884
 7180SOL    HW233174   1.550   1.483   3.719 -2.2234  0.9832  2.3241
 7181SOL     OW33175   0.885   1.520  11.635 -0.5969  0.1587 -0.5246
 7181SOL    HW133176   0.971   1.563  11.641  0.0904 -1.5356  1.5276
 7181SOL    HW233177   0.899   1.430  11.662  2.3887 -0.1928 -3.2016
 7182SOL     OW33178   3.289   2.798   0.455 -0.0017 -0.3107  0.0172
 7182SOL    HW133179   3.369   2.746   0.464 -0.1666 -0.3567  1.2544
 7182SOL    HW233180   3.239   2.745   0.517  0.0861 -1.0011 -0.5002
 7183SOL     OW33181   2.760   2.447   7.574 -0.2857  0.0787 -0.0307
 7183SOL    HW133182   2.774   2.385   7.502  0.6055 -1.2507  1.2882
 7183SOL    HW233183   2.666   2.461   7.564 -0.4715  0.0123  1.7121
 7184SOL     OW33184   4.638   4.486   8.236 -0.2439 -0.3756  0.2432
 7184SOL    HW133185   4.607   4.551   8.300  0.7092  0.4961 -0.1763
 7184SOL    HW233186   4.724   4.518   8.207 -0.1470 -0.7154  0.1647
 7185SOL     OW33187   4.162   0.193  12.187  0.2747 -0.0024  0.1070
 7185SOL    HW133188   4.147   0.141  12.108  0.1632 -0.0080  0.1313
 7185SOL    HW233189   4.147   0.284  12.162 -1.7482 -0.0393  1.1942
 7186SOL     OW33190   1.111   2.928   1.654  0.2470 -0.2381  0.2191
 7186SOL    HW133191   1.105   2.848   1.602  2.1870  0.7106 -1.4654
 7186SOL    HW233192   1.059   2.894   1.727 -0.4308  1.7257  0.6376
 7187SOL     OW33193   4.682   1.313   3.092 -0.1675  0.2255  0.3185
 7187SOL    HW133194   4.681   1.351   3.180 -2.4724  1.4274 -0.2119
 7187SOL    HW233195   4.700   1.224   3.121  0.1229 -0.0309 -0.6508
 7188SOL     OW33196   0.840   1.366   8.498 -0.4289 -0.3507  0.4033
 7188SOL    HW133197   0.915   1.356   8.440 -0.3067  1.6031  0.2290
 7188SOL    HW233198   0.826   1.273   8.519 -0.5714 -0.3848  0.1607
 7189SOL     OW33199   0.125   4.493   8.987  0.5070  0.0021 -0.1588
 7189SOL    HW133200   0.056   4.451   9.038 -1.3188  0.1592 -2.5250
 7189SOL    HW233201   0.098   4.458   8.903  0.1886 -0.4611  0.1365
 7190SOL     OW33202   4.686   2.111   2.216 -0.1600  0.1170 -0.1008
 7190SOL    HW133203   4.599   2.129   2.252 -1.1034 -2.0128 -1.2961
 7190SOL    HW233204   0.005   2.170   2.267 -2.1849  0.2535  1.9984
 7191SOL     OW33205   0.569   3.575   5.421 -0.0007  0.2334  0.4057
 7191SOL    HW133206   0.618   3.563   5.503 -0.8510  1.0496  1.0372
 7191SOL    HW233207   0.480   3.577   5.456 -0.3918  2.1825 -0.7074
 7192SOL     OW33208   4.177   2.487   6.630  0.0042 -0.4834  0.3371
 7192SOL    HW133209   4.126   2.565   6.608 -0.5230 -1.4601 -1.8712
 7192SOL    HW233210   4.212   2.471   6.542  2.1055  0.8122  0.9398
 7193SOL     OW33211   0.769   0.249   0.144  0.4265  0.0386  0.5190
 7193SOL    HW133212   0.718   0.252   0.224  0.0408  0.1917  0.2685
 7193SOL    HW233213   0.859   0.238   0.174  0.8837 -0.6048 -1.0619
 7194SOL     OW33214   1.200   1.858  11.118  0.1551 -0.5546 -0.3988
 7194SOL    HW133215   1.183   1.920  11.189  2.6171  1.5057 -1.5940
 7194SOL    HW233216   1.249   1.906  11.051  1.0848 -1.9079 -0.6930
 7195SOL     OW33217   3.712   3.264  13.209  0.1076 -0.0345  0.2665
 7195SOL    HW133218   3.657   3.237  13.282  0.1797 -1.5168 -0.2219
 7195SOL    HW233219   3.735   3.352  13.238  3.2244 -0.9388  0.5947
 7196SOL     OW33220   4.089   0.637  17.544 -0.1247  0.5267 -0.2320
 7196SOL    HW133221   4.069   0.582  17.620 -0.2551  1.2340  0.2411
 7196SOL    HW233222   4.168   0.691  17.551 -0.2612  0.8126 -0.9399
 7197SOL     OW33223   1.671   1.055  12.185  0.6411 -0.3956 -0.1032
 7197SOL    HW133224   1.632   0.979  12.228  0.8060  0.0664  0.8621
 7197SOL    HW233225   1.675   1.114  12.260 -0.0917 -0.7227  0.1946
 7198SOL     OW33226   4.207   4.625  12.767 -0.0189  0.5127 -0.2224
 7198SOL    HW133227   4.240   4.634  12.856  2.0004 -0.3866 -0.8822
 7198SOL    HW233228   4.248   4.545  12.734  0.2936  0.4238  0.3852
 7199SOL     OW33229   1.731   0.577  11.723  0.1010  0.1537 -0.4283
 7199SOL    HW133230   1.652   0.533  11.693  0.8130  0.1683 -2.3296
 7199SOL    HW233231   1.790   0.502  11.715  1.9728  1.6717 -1.1392
 7200SOL     OW33232   3.710   4.730   0.051  0.7545  0.1083 -0.3479
 7200SOL    HW133233   3.789   0.037   0.023  1.0196  0.0085  0.2415
 7200SOL    HW233234   3.688   4.688  17.717  1.6224  0.3144 -0.6679
 7201SOL     OW33235   3.560   1.993   5.667 -0.1277 -0.6168 -0.5881
 7201SOL    HW133236   3.489   2.039   5.711 -1.0459 -2.9600  0.3720
 7201SOL    HW233237   3.519   1.916   5.628  0.3207 -1.1451 -0.0126
 7202SOL     OW33238   0.901   0.404   3.728 -0.8722 -0.1880 -0.2415
 7202SOL    HW133239   0.924   0.311   3.725 -0.7121 -0.1206 -1.1420
 7202SOL    HW233240   0.967   0.439   3.789 -0.3700  0.3346 -1.0833
 7203SOL     OW33241   0.650   4.330   3.932  0.4085  0.0242  0.4571
 7203SOL    HW133242   0.561   4.316   3.965  1.1210  0.5861  2.6380
 7203SOL    HW233243   0.689   4.392   3.994 -1.5106  0.2298  1.4649
 7204SOL     OW33244   1.690   1.507   7.551 -0.2304  0.0675  0.1750
 7204SOL    HW133245   1.654   1.593   7.531  2.4849  1.5168  1.5785
 7204SOL    HW233246   1.690   1.510   7.646  2.2484  1.6768  0.1214
 7205SOL     OW33247   1.615   3.847   1.550  0.4880  0.1850  0.0798
 7205SOL    HW133248   1.646   3.821   1.637  0.5914  1.4039  0.4119
 7205SOL    HW233249   1.542   3.785   1.547  0.3601  0.2613  1.2671
 7206SOL     OW33250   0.401   3.564   3.143  0.1233 -0.4048 -0.4135
 7206SOL    HW133251   0.483   3.590   3.185  0.2056 -1.1004 -0.1389
 7206SOL    HW233252   0.428   3.525   3.060 -1.8378 -0.2641 -1.0971
 7207SOL     OW33253   1.130   3.575   5.439 -0.2019 -0.1303  0.5014
 7207SOL    HW133254   1.213   3.540   5.406 -0.8125 -0.3857 -0.7691
 7207SOL    HW233255   1.150   3.591   5.531 -1.6734 -0.6218  0.9009
 7208SOL     OW33256   0.521   1.170   2.236  0.0798 -0.5450 -0.2576
 7208SOL    HW133257   0.530   1.087   2.191 -0.8427 -1.3412  1.0120
 7208SOL    HW233258   0.439   1.148   2.281 -1.0605  1.8212 -1.1186
 7209SOL     OW33259   4.481   0.324   3.244 -0.1092  0.2237  0.2113
 7209SOL    HW133260   4.420   0.291   3.179 -0.5411  1.4632 -0.0196
 7209SOL    HW233261   4.457   0.282   3.326  2.4394  1.0813  1.4129
 7210SOL     OW33262   2.123   4.344   2.974  0.3235  0.5920 -0.3117
 7210SOL    HW133263   2.189   4.307   3.032  0.6172  0.4365 -0.7374
 7210SOL    HW233264   2.128   4.434   3.007  2.1547  0.6449 -0.7397
 7211SOL     OW33265   2.959   4.127   2.489 -0.1683 -0.2449  0.0532
 7211SOL    HW133266   2.945   4.221   2.478 -0.2565 -0.6328 -3.1328
 7211SOL    HW233267   2.894   4.096   2.425  0.8030 -0.6745 -0.7360
 7212SOL     OW33268   0.690   0.336   0.877  0.0270  0.3628  0.1098
 7212SOL    HW133269   0.704   0.429   0.860  0.5935 -0.0874 -1.8981
 7212SOL    HW233270   0.601   0.331   0.909 -0.1007  0.3537 -0.2401
 7213SOL     OW33271   0.868   2.172   8.825  0.1813  0.0500  0.0646
 7213SOL    HW133272   0.866   2.077   8.839 -1.7147  0.0915  0.0575
 7213SOL    HW233273   0.838   2.209   8.907  0.2021 -0.8021  0.4540
 7214SOL     OW33274   3.749   3.992  14.636  0.8223 -0.0423  0.6280
 7214SOL    HW133275   3.836   4.014  14.669  0.2352  2.8796  0.2005
 7214SOL    HW233276   3.743   3.898  14.654 -3.3883  0.4483  1.7130
 7215SOL     OW33277   0.064   0.776   7.348  0.2573 -0.4182  0.3271
 7215SOL    HW133278   0.151   0.794   7.313  0.6067 -1.9530  0.4222
 7215SOL    HW233279   0.087   0.766   7.441  0.6967 -0.6004  0.1957
 7216SOL     OW33280   3.992   3.333  14.403  0.3132 -0.2875 -0.2912
 7216SOL    HW133281   4.004   3.281  14.482 -0.3153 -1.0202 -0.6871
 7216SOL    HW233282   4.080   3.349  14.369  0.3014 -2.1189 -1.1463
 7217SOL     OW33283   4.396   4.657   1.861  0.3309  0.6184  0.4349
 7217SOL    HW133284   4.393   4.588   1.795  2.1960  0.8246  0.1331
 7217SOL    HW233285   4.303   4.662   1.880  0.5010  1.0967  1.1291
 7218SOL     OW33286   0.783   3.265   2.824 -0.1140  0.1093 -0.2086
 7218SOL    HW133287   0.861   3.247   2.772  0.1358  0.7724 -0.0553
 7218SOL    HW233288   0.786   3.190   2.884 -1.5135 -0.7828 -1.2739
 7219SOL     OW33289   3.403   3.243   8.226 -0.0954  0.2762 -0.1171
 7219SOL    HW133290   3.346   3.180   8.182 -0.8273 -0.2227  1.5423
 7219SOL    HW233291   3.447   3.277   8.148 -0.0188  0.2356 -0.0907
 7220SOL     OW33292   2.226   1.557   5.815  0.0781  0.7603  0.0322
 7220SOL    HW133293   2.258   1.591   5.731 -0.1921  1.2474  0.1231
 7220SOL    HW233294   2.307   1.518   5.847 -0.8058  0.4420  1.8386
 7221SOL     OW33295   1.303   2.031   3.952 -0.1778 -0.2762 -0.1570
 7221SOL    HW133296   1.349   2.109   3.921  0.6268 -0.2037  1.2458
 7221SOL    HW233297   1.245   2.074   4.015  1.1708  1.8756 -0.3681
 7222SOL     OW33298   4.410   1.089   4.366 -0.0050  0.3466  0.1678
 7222SOL    HW133299   4.331   1.036   4.373 -2.1740  3.8389  2.6003
 7222SOL    HW233300   4.363   1.169   4.341 -0.5317  0.2143  0.7318
 7223SOL     OW33301   4.040   3.632  13.789  0.5531  1.2740  0.1024
 7223SOL    HW133302   4.042   3.676  13.703  1.8173  0.5588 -0.2462
 7223SOL    HW233303   3.972   3.679  13.837  0.3180 -1.3140  2.2831
 7224SOL     OW33304   0.449   4.230   6.528  0.2589 -0.5950  0.1269
 7224SOL    HW133305   0.358   4.222   6.499  0.5497 -1.2409 -0.6366
 7224SOL    HW233306   0.444   4.294   6.598  1.1799 -0.2088 -0.1586
 7225SOL     OW33307   2.637   2.841   7.173  1.1791  0.1176  0.0607
 7225SOL    HW133308   2.647   2.759   7.126  0.6683  0.9468 -1.4959
 7225SOL    HW233309   2.594   2.885   7.100  0.6030  2.8861  2.0491
 7226SOL     OW33310   4.371   0.930  12.683  0.5017 -0.1825 -0.2306
 7226SOL    HW133311   4.389   0.843  12.647  0.1849  0.5996 -2.2680
 7226SOL    HW233312   4.435   0.981  12.636 -1.0391 -0.3741 -2.5337
 7227SOL     OW33313   1.487   0.678   2.654  0.4601 -0.3423 -0.1298
 7227SOL    HW133314   1.504   0.742   2.722 -0.3122 -1.3248  0.9995
 7227SOL    HW233315   1.499   0.731   2.575 -2.4306  1.5797  0.7246
 7228SOL     OW33316   3.777   4.734  14.670  0.1359 -0.2307  0.3010
 7228SOL    HW133317   3.809   4.674  14.738 -2.7077 -0.1475  1.7115
 7228SOL    HW233318   3.787   0.078  14.719 -0.8484  1.0444 -1.6531
 7229SOL     OW33319   2.784   0.191   7.885  0.1835 -0.0653  0.3110
 7229SOL    HW133320   2.877   0.200   7.861  0.1712  0.7234  0.5746
 7229SOL    HW233321   2.784   0.208   7.979 -0.3699  2.6346 -0.1784
 7230SOL     OW33322   1.119   1.807   8.979 -0.0301  0.0886 -0.3114
 7230SOL    HW133323   1.056   1.745   9.015 -0.0530 -0.9085 -2.1023
 7230SOL    HW233324   1.125   1.870   9.051  0.4499 -2.9865  2.3384
 7231SOL     OW33325   2.161   3.016   8.560  0.5791  0.2391 -0.1006
 7231SOL    HW133326   2.166   2.964   8.480  1.1158 -0.0602  0.1268
 7231SOL    HW233327   2.220   2.969   8.619 -0.2320  0.1118  0.6130
 7232SOL     OW33328   4.518   1.218   5.832 -0.4113  0.2218 -0.2883
 7232SOL    HW133329   4.600   1.262   5.856  0.1879 -1.6869  1.2016
 7232SOL    HW233330   4.483   1.189   5.917  2.5986  0.6073  1.0905
 7233SOL     OW33331   4.177   0.127   9.593  0.4566  0.1377 -0.1669
 7233SOL    HW133332   4.188   0.052   9.652  0.8834 -0.1362 -0.5954
 7233SOL    HW233333   4.125   0.089   9.522  1.0847  0.9719 -1.0739
 7234SOL     OW33334   0.177   2.995   4.839 -0.3396 -0.2643  0.1322
 7234SOL    HW133335   0.202   2.905   4.821  1.7503 -0.0973  2.1728
 7234SOL    HW233336   0.112   3.014   4.772 -1.5317  0.0835  1.3926
 7235SOL     OW33337   2.522   2.560   1.757  0.1408 -0.2245  0.4918
 7235SOL    HW133338   2.558   2.599   1.838 -1.1798 -2.2169  2.0252
 7235SOL    HW233339   2.500   2.641   1.711 -1.7070  0.2517  2.2165
 7236SOL     OW33340   4.240   0.646   7.643 -0.1165  0.1659  0.0969
 7236SOL    HW133341   4.156   0.676   7.679  0.6352 -0.9437  2.7957
 7236SOL    HW233342   4.303   0.675   7.708 -1.4541  1.4625  0.8278
 7237SOL     OW33343   1.990   1.296  11.245  0.2368  0.1335  0.3685
 7237SOL    HW133344   1.978   1.228  11.311  0.5354 -2.2832 -2.0732
 7237SOL    HW233345   2.051   1.259  11.181  0.0512  1.2629 -0.4618
 7238SOL     OW33346   0.630   2.610  16.574 -0.0196 -0.0930 -0.3139
 7238SOL    HW133347   0.599   2.699  16.556 -0.1446 -0.2156 -0.7151
 7238SOL    HW233348   0.680   2.631  16.652 -1.3956  1.0472  0.2536
 7239SOL     OW33349   4.029   1.463   2.700 -0.1602  0.5302 -0.5601
 7239SOL    HW133350   3.977   1.383   2.708 -2.9186  2.4164  0.4703
 7239SOL    HW233351   4.109   1.434   2.743 -0.3653 -0.7496 -1.0589
 7240SOL     OW33352   1.394   4.423  16.132 -0.4384  0.2348  0.9893
 7240SOL    HW133353   1.354   4.484  16.070 -0.5140 -1.6518 -0.8464
 7240SOL    HW233354   1.444   4.371  16.070 -0.7267  2.1980 -0.9084
 7241SOL     OW33355   0.328   1.381  12.044  0.2511  0.1812 -0.2175
 7241SOL    HW133356   0.355   1.320  11.975 -1.7346  0.6914 -1.4317
 7241SOL    HW233357   0.340   1.316  12.114  0.2579 -0.5819 -0.9195
 7242SOL     OW33358   3.690   2.924  14.025  0.1361  0.4038  0.2916
 7242SOL    HW133359   3.712   3.007  13.983 -1.8846  1.3660  1.1355
 7242SOL    HW233360   3.598   2.930  14.052  0.2011  0.6794  0.4543
 7243SOL     OW33361   2.037   0.247   6.046  0.4851 -0.2605 -0.7657
 7243SOL    HW133362   2.030   0.262   5.952  1.8000 -1.8487 -1.1102
 7243SOL    HW233363   2.119   0.297   6.053 -0.7049  1.7081 -1.0140
 7244SOL     OW33364   0.096   0.662   4.049  0.4749  0.4243 -0.0620
 7244SOL    HW133365   0.101   0.757   4.056  0.0142  0.3541  1.1542
 7244SOL    HW233366   0.121   0.652   3.957 -0.5766  2.2549 -0.5567
 7245SOL     OW33367   0.735   2.673  10.918  0.0668  0.1127  0.7370
 7245SOL    HW133368   0.698   2.748  10.872  0.6242  0.0708  0.2168
 7245SOL    HW233369   0.791   2.719  10.980  0.0775 -0.8642  1.4483
 7246SOL     OW33370   0.732   0.079   5.436  0.2816  0.2940  0.2299
 7246SOL    HW133371   0.746   0.016   5.506  0.2794 -0.4527 -0.4420
 7246SOL    HW233372   0.759   0.157   5.485  0.9931  0.1758  0.0262
 7247SOL     OW33373   2.159   3.314   6.412 -0.5518 -0.3057 -0.4491
 7247SOL    HW133374   2.146   3.262   6.491 -1.2989 -0.0875 -0.4237
 7247SOL    HW233375   2.161   3.239   6.353  0.4336 -0.0295 -0.7549
 7248SOL     OW33376   0.408   2.229   8.111 -0.3470 -0.1604  0.1378
 7248SOL    HW133377   0.341   2.163   8.094  0.3042 -1.1509  1.4994
 7248SOL    HW233378   0.420   2.284   8.034  2.8533 -0.9084  0.1260
 7249SOL     OW33379   3.596   2.679   2.464 -0.8669  0.1143  0.3940
 7249SOL    HW133380   3.586   2.612   2.532 -0.9273  1.2146  1.4739
 7249SOL    HW233381   3.636   2.752   2.513 -2.7046  1.2243  0.2473
 7250SOL     OW33382   2.098   1.146   2.165 -0.8411 -0.1266  0.5049
 7250SOL    HW133383   2.145   1.090   2.226 -1.2013 -1.3218 -0.3226
 7250SOL    HW233384   2.015   1.106   2.139  0.5391 -2.7667  0.2009
 7251SOL     OW33385   3.014   0.221   7.598 -0.1339 -0.3354  0.3782
 7251SOL    HW133386   3.025   0.133   7.633 -1.9004 -0.6181  0.2618
 7251SOL    HW233387   2.921   0.218   7.575  0.3203  1.2152 -1.7017
 7252SOL     OW33388   0.860   4.179   4.703 -0.6609 -0.1896 -0.4812
 7252SOL    HW133389   0.915   4.249   4.666  0.2801  0.3392  1.9195
 7252SOL    HW233390   0.774   4.219   4.690 -0.6637 -0.2835 -0.7684
 7253SOL     OW33391   2.935   0.844   3.842  0.3393  0.3503 -0.4817
 7253SOL    HW133392   2.903   0.758   3.813 -0.6050  0.4371  0.3066
 7253SOL    HW233393   2.893   0.899   3.776  0.7455 -0.0857 -1.1080
 7254SOL     OW33394   3.833   0.240   4.049 -0.3134 -0.2124 -0.5491
 7254SOL    HW133395   3.822   0.207   3.960 -2.1026 -0.1348 -0.3489
 7254SOL    HW233396   3.845   0.154   4.089  1.9015  0.2901 -0.1586
 7255SOL     OW33397   0.858   2.252   6.298  0.5380 -1.0413 -0.4686
 7255SOL    HW133398   0.889   2.335   6.263 -0.1369 -0.0166  1.3601
 7255SOL    HW233399   0.788   2.224   6.238 -0.6780 -0.2041  0.5582
 7256SOL     OW33400   1.552   4.349   8.514  0.7492  0.2305 -0.6026
 7256SOL    HW133401   1.584   4.289   8.581  0.9630 -2.1066 -2.7812
 7256SOL    HW233402   1.600   4.327   8.434 -1.4406 -0.0012 -1.8774
 7257SOL     OW33403   4.266   3.847  15.795  0.7615 -0.7832 -0.2435
 7257SOL    HW133404   4.266   3.932  15.751 -1.3612 -0.2516  0.8047
 7257SOL    HW233405   4.251   3.880  15.884  0.2087 -1.5382 -0.0593
 7258SOL     OW33406   3.544   2.542   1.294  0.2034 -0.0492 -0.2209
 7258SOL    HW133407   3.529   2.556   1.387  0.5244 -1.0631 -0.0194
 7258SOL    HW233408   3.458   2.509   1.265  0.9972 -0.9309 -1.5878
 7259SOL     OW33409   3.429   4.717  17.083 -0.2640  0.2925  0.0903
 7259SOL    HW133410   3.479   0.057  17.060 -0.7254  0.2365 -1.0718
 7259SOL    HW233411   3.352   4.728  17.027  0.6393 -0.6165 -1.3155
 7260SOL     OW33412   1.911   3.407   0.277 -0.2890 -0.1117 -0.2492
 7260SOL    HW133413   1.832   3.437   0.232 -0.5402 -1.1104 -0.4783
 7260SOL    HW233414   1.978   3.457   0.231  1.2740 -4.0879 -2.2935
 7261SOL     OW33415   2.511   4.219   1.345 -0.7558 -0.2936 -0.3219
 7261SOL    HW133416   2.585   4.163   1.369 -0.1875  1.0128  0.9491
 7261SOL    HW233417   2.467   4.227   1.430 -0.1696 -2.7220  0.2351
 7262SOL     OW33418   1.720   2.671  13.758  0.1926 -0.4588 -0.1594
 7262SOL    HW133419   1.752   2.674  13.848 -1.6876  0.7898  0.4680
 7262SOL    HW233420   1.701   2.578  13.752  0.7835 -0.6494  0.8990
 7263SOL     OW33421   0.011   1.881   2.115  0.2694 -0.2331  0.8765
 7263SOL    HW133422   4.676   1.831   2.078 -0.6144  1.4353  0.3767
 7263SOL    HW233423   4.711   1.967   2.132  0.2549  0.3259 -1.9199
 7264SOL     OW33424   1.649   3.231   1.451 -0.4741 -0.5110 -0.4024
 7264SOL    HW133425   1.742   3.252   1.460 -1.0710  1.7314  0.7523
 7264SOL    HW233426   1.655   3.195   1.362  1.2611  0.2465 -0.5768
 7265SOL     OW33427   0.505   3.535   8.900  0.0915  0.0001  0.2828
 7265SOL    HW133428   0.517   3.454   8.850  0.4800 -1.6329  3.0345
 7265SOL    HW233429   0.559   3.593   8.847 -1.4049  2.1024  1.0428
 7266SOL     OW33430   1.321   1.615  16.446  0.0245 -0.4082 -0.1103
 7266SOL    HW133431   1.344   1.541  16.390  0.8359 -0.4865  0.3374
 7266SOL    HW233432   1.237   1.586  16.482  0.4435 -1.0768  0.3187
 7267SOL     OW33433   3.168   4.396   7.207 -0.2647 -0.3387  0.2706
 7267SOL    HW133434   3.214   4.359   7.282  0.0274  0.8172  0.6679
 7267SOL    HW233435   3.205   4.333   7.145 -1.5703 -0.9440  0.1156
 7268SOL     OW33436   3.886   0.997   4.046 -0.0981 -0.4080 -0.8720
 7268SOL    HW133437   3.911   0.918   3.998  1.2116  0.6008 -1.8667
 7268SOL    HW233438   3.846   0.967   4.127  0.8693 -0.8784 -0.5765
 7269SOL     OW33439   0.570   1.119   8.198 -0.0785  0.2737  0.3194
 7269SOL    HW133440   0.560   1.032   8.160 -0.6318  0.4669  0.0258
 7269SOL    HW233441   0.587   1.100   8.291  1.3188 -0.8378 -0.1574
 7270SOL     OW33442   1.435   2.945  11.768  0.4788  0.4840 -0.3656
 7270SOL    HW133443   1.500   2.878  11.792 -0.5604 -0.3890 -0.0029
 7270SOL    HW233444   1.378   2.949  11.844  0.8607 -1.4828  0.0171
 7271SOL     OW33445   2.279   2.038   7.461  0.1127 -0.4029  0.0044
 7271SOL    HW133446   2.207   2.043   7.398  1.6411  2.0408 -1.5461
 7271SOL    HW233447   2.356   2.011   7.411  1.0155  2.0681  0.0374
 7272SOL     OW33448   3.604   0.526   5.178 -0.5262 -0.2857  0.1154
 7272SOL    HW133449   3.625   0.437   5.150  1.4031 -0.4696  2.0927
 7272SOL    HW233450   3.675   0.564   5.230 -0.1933 -0.4205 -0.2383
 7273SOL     OW33451   1.930   1.100   7.578 -0.1153 -0.0179 -0.1203
 7273SOL    HW133452   1.944   1.160   7.651  0.5528 -1.6708  1.0841
 7273SOL    HW233453   2.010   1.048   7.583 -0.4463 -0.4421  0.6770
 7274SOL     OW33454   3.224   1.007   5.339 -0.1575  0.1625  0.2365
 7274SOL    HW133455   3.203   0.917   5.365 -0.0402  0.3017  0.8263
 7274SOL    HW233456   3.270   1.020   5.422 -1.9730  1.3582  1.0392
 7275SOL     OW33457   0.794   4.296   7.514  0.8018  0.2770  0.2855
 7275SOL    HW133458   0.819   4.388   7.513  2.4382 -0.1392  1.4366
 7275SOL    HW233459   0.863   4.247   7.559  0.8878  0.0077 -0.1440
 7276SOL     OW33460   1.201   1.474   7.205  0.4839  0.0509  0.2089
 7276SOL    HW133461   1.229   1.403   7.262 -0.1557 -0.2955  0.0967
 7276SOL    HW233462   1.243   1.549   7.247 -0.2811  0.3238  0.4818
 7277SOL     OW33463   2.567   2.224   3.897  0.4374 -0.5386 -0.0242
 7277SOL    HW133464   2.567   2.238   3.992 -2.5332 -1.3011  0.0857
 7277SOL    HW233465   2.636   2.160   3.884 -0.6893 -1.7218 -0.2452
 7278SOL     OW33466   3.682   4.080   8.131 -0.0545 -0.3690  0.3082
 7278SOL    HW133467   3.613   4.043   8.076  1.7339  0.5911 -2.5357
 7278SOL    HW233468   3.658   4.172   8.126  3.0052  0.3484 -0.6921
 7279SOL     OW33469   2.382   2.892  15.197  0.1079 -0.4444 -0.0408
 7279SOL    HW133470   2.389   2.950  15.273 -1.8154  0.5345 -0.5927
 7279SOL    HW233471   2.468   2.851  15.190  0.5890  0.2071  1.9480
 7280SOL     OW33472   2.722   4.537  14.834  0.1025  0.2425  0.1087
 7280SOL    HW133473   2.816   4.538  14.817  0.5462 -0.1893  2.6136
 7280SOL    HW233474   2.679   4.550  14.749 -1.0711  3.0512  1.1581
 7281SOL     OW33475   1.737   3.113   8.979  0.1827 -0.1863 -0.1771
 7281SOL    HW133476   1.695   3.029   8.959 -0.2447 -0.3719  1.5100
 7281SOL    HW233477   1.805   3.098   9.045  1.1959  0.0339 -1.1664
 7282SOL     OW33478   0.452   0.347   3.618 -0.3138 -0.8657 -0.3198
 7282SOL    HW133479   0.450   0.337   3.522  1.4014 -1.6464 -0.2715
 7282SOL    HW233480   0.363   0.316   3.632 -0.2781 -0.8788 -0.1279
 7283SOL     OW33481   1.918   1.093   3.671  0.5827  0.4054  0.7941
 7283SOL    HW133482   1.944   1.179   3.638 -2.0110  1.4280  1.3876
 7283SOL    HW233483   1.949   1.035   3.602 -0.0254 -0.8253  1.5541
 7284SOL     OW33484   4.061   2.825   9.389  0.0375  0.4658  0.2626
 7284SOL    HW133485   3.990   2.876   9.350 -1.1795 -1.3133  0.1307
 7284SOL    HW233486   4.068   2.859   9.478  1.2826 -0.4763  0.5248
 7285SOL     OW33487   0.339   3.515   4.813  0.5017 -0.5952 -0.5527
 7285SOL    HW133488   0.302   3.453   4.749  3.0185  0.9786 -3.4948
 7285SOL    HW233489   0.294   3.593   4.781  0.4712  0.2236  1.4971
 7286SOL     OW33490   1.623   0.554   3.576  0.2597  0.0030 -0.5915
 7286SOL    HW133491   1.703   0.530   3.528 -1.5171 -0.2106 -3.4258
 7286SOL    HW233492   1.642   0.644   3.603 -1.6097  0.3730 -0.5327
 7287SOL     OW33493   4.617   2.450   5.631  0.5706 -0.2699  0.1591
 7287SOL    HW133494   4.536   2.501   5.626  1.1994  0.9736  2.5903
 7287SOL    HW233495   4.582   2.372   5.588  0.6301 -1.9366  3.1329
 7288SOL     OW33496   1.895   2.068   9.601  0.0395 -0.0187 -1.1953
 7288SOL    HW133497   1.862   1.986   9.639  1.7772 -1.0390 -1.9248
 7288SOL    HW233498   1.909   2.125   9.677 -0.0321  1.0543 -1.9906
 7289SOL     OW33499   3.471   0.578   6.388  0.0467  0.0727 -0.1159
 7289SOL    HW133500   3.483   0.671   6.410 -2.0042  0.2026  0.5154
 7289SOL    HW233501   3.471   0.540   6.476  1.5381 -0.9786 -0.5839
 7290SOL     OW33502   0.625   0.173   7.202  0.0079  0.5182 -0.5731
 7290SOL    HW133503   0.567   0.101   7.178 -2.9236  1.5538  3.3100
 7290SOL    HW233504   0.594   0.180   7.293 -2.7753 -1.0791 -1.4118
 7291SOL     OW33505   2.714   2.967   7.956 -0.2053 -0.3751  0.2894
 7291SOL    HW133506   2.809   2.957   7.963 -0.1048  1.6681  2.0895
 7291SOL    HW233507   2.687   2.877   7.974 -2.1205 -0.2743 -2.1573
 7292SOL     OW33508   2.158   0.831   7.870  0.3844 -0.3015  0.6164
 7292SOL    HW133509   2.149   0.738   7.853 -0.0039 -1.0027  4.9126
 7292SOL    HW233510   2.105   0.832   7.949 -0.3260 -0.2154  0.1379
 7293SOL     OW33511   1.061   1.521   2.099  0.5277 -0.4468 -0.5980
 7293SOL    HW133512   1.096   1.572   2.026 -0.1906  0.8143 -0.0667
 7293SOL    HW233513   1.042   1.585   2.168  1.3941  0.3210 -1.0702
 7294SOL     OW33514   0.862   0.709   2.647 -0.1955  0.2715  0.0538
 7294SOL    HW133515   0.812   0.784   2.679  3.2431  3.2270 -1.5559
 7294SOL    HW233516   0.872   0.658   2.728 -1.5354  4.4795  2.8582
 7295SOL     OW33517   3.309   2.575   6.675  0.2781 -0.5468  0.0954
 7295SOL    HW133518   3.248   2.632   6.721 -1.0368 -1.9638  0.1086
 7295SOL    HW233519   3.339   2.632   6.604 -0.6701  1.1663  1.0718
 7296SOL     OW33520   0.671   0.701   7.367 -0.4664 -0.1632  0.5517
 7296SOL    HW133521   0.717   0.696   7.451 -0.6461 -0.7486  0.6092
 7296SOL    HW233522   0.673   0.609   7.342 -3.2653 -0.5415  1.6562
 7297SOL     OW33523   4.241   1.920  11.912 -0.3318 -0.2447 -0.0380
 7297SOL    HW133524   4.238   1.927  12.007  3.5375 -2.1092  0.2429
 7297SOL    HW233525   4.203   2.004  11.889 -2.2136 -0.4169  2.4316
 7298SOL     OW33526   2.535   2.254  14.356 -0.2916 -0.0992 -0.4224
 7298SOL    HW133527   2.593   2.291  14.422 -2.4896  1.1531  0.7773
 7298SOL    HW233528   2.458   2.228  14.406 -1.5560 -0.1425 -2.3964
 7299SOL     OW33529   2.871   3.246   5.029 -0.2271  0.2335  0.1677
 7299SOL    HW133530   2.874   3.302   5.107  0.8773  1.1143 -0.5081
 7299SOL    HW233531   2.852   3.162   5.072  2.0051 -0.5334 -0.3410
 7300SOL     OW33532   3.655   0.286  15.501 -0.6604 -0.4181 -0.4381
 7300SOL    HW133533   3.726   0.245  15.451 -0.0789  0.9855 -0.7593
 7300SOL    HW233534   3.614   0.339  15.433  1.5516  1.4170 -0.3117
 7301SOL     OW33535   2.594   4.095   4.037 -0.0208  0.2213 -0.9798
 7301SOL    HW133536   2.541   4.174   4.027  0.2126  0.4059 -0.7792
 7301SOL    HW233537   2.589   4.055   3.951 -2.7524 -0.5842 -0.4484
 7302SOL     OW33538   2.983   0.334   4.037 -0.6499  0.6886 -0.0453
 7302SOL    HW133539   2.927   0.331   3.960 -0.9208  0.0305  0.1786
 7302SOL    HW233540   3.059   0.381   4.002  1.3082 -2.1987  0.3709
 7303SOL     OW33541   0.626   0.706  17.727  0.2460  0.0358 -0.2166
 7303SOL    HW133542   0.682   0.724  17.651  2.0272 -0.7769  0.8907
 7303SOL    HW233543   0.666   0.626   0.014  0.1841  0.5035  0.8750
 7304SOL     OW33544   1.507   1.216   5.845 -0.2766  0.3041 -0.0805
 7304SOL    HW133545   1.424   1.168   5.836 -0.8448  1.0202  1.3857
 7304SOL    HW233546   1.550   1.147   5.895  1.3100  1.0788 -0.3891
 7305SOL     OW33547   3.733   1.867  10.063  0.3040  0.6637 -0.5150
 7305SOL    HW133548   3.746   1.837  10.153 -0.2852  1.2836 -0.2255
 7305SOL    HW233549   3.638   1.861  10.065  0.4400 -1.3129 -0.1116
 7306SOL     OW33550   3.122   3.988   7.373 -0.1618  0.2255 -0.3289
 7306SOL    HW133551   3.093   4.076   7.395  0.3084  0.0449  1.0626
 7306SOL    HW233552   3.201   3.985   7.427  0.3612 -0.4425 -1.1306
 7307SOL     OW33553   2.746   1.738  10.129 -0.1159 -0.0572  0.9014
 7307SOL    HW133554   2.745   1.682  10.051 -2.9198 -1.5194  1.9720
 7307SOL    HW233555   2.749   1.677  10.203  2.4507 -0.4064  0.5052
 7308SOL     OW33556   1.969   2.368  12.547 -0.2067 -0.3941 -0.5707
 7308SOL    HW133557   1.984   2.462  12.542  0.8983 -0.4983  0.9123
 7308SOL    HW233558   1.912   2.358  12.623 -0.5221  1.7340 -0.5403
 7309SOL     OW33559   3.545   1.316  16.428 -0.1497  0.3310  0.2882
 7309SOL    HW133560   3.573   1.348  16.342 -0.2402 -2.4507 -0.7614
 7309SOL    HW233561   3.590   1.236  16.454 -0.0436  0.2817 -0.0526
 7310SOL     OW33562   4.345   1.641   5.243  0.8780 -0.3257  0.1028
 7310SOL    HW133563   4.265   1.684   5.212  2.5700  1.7472 -1.3894
 7310SOL    HW233564   4.348   1.674   5.333  1.7483  2.0931 -0.8069
 7311SOL     OW33565   1.417   1.380  10.328  0.8693 -0.0925 -0.0271
 7311SOL    HW133566   1.424   1.325  10.406  0.3965  0.4380  0.3913
 7311SOL    HW233567   1.439   1.314  10.262  3.9520  0.2883  0.5737
 7312SOL     OW33568   1.254   2.794  13.407 -0.0209 -0.0007  0.0283
 7312SOL    HW133569   1.316   2.842  13.461  1.6545 -1.7162 -0.3761
 7312SOL    HW233570   1.218   2.742  13.479  0.3304 -0.3981 -0.0795
 7313SOL     OW33571   3.446   3.154   5.863  0.5724 -0.4318  0.1977
 7313SOL    HW133572   3.415   3.069   5.895  0.3718 -0.1598  0.7298
 7313SOL    HW233573   3.537   3.144   5.892  0.4877  1.1576  1.0117
 7314SOL     OW33574   2.339   2.150  12.226  0.1121 -0.2870  0.6866
 7314SOL    HW133575   2.415   2.099  12.253  0.5377 -1.0375 -1.9047
 7314SOL    HW233576   2.285   2.123  12.301 -1.0264  0.7036  0.2134
 7315SOL     OW33577   1.531   0.008   2.237  0.3749 -0.7288  0.1072
 7315SOL    HW133578   1.577   0.029   2.156  0.4070 -0.7262  0.1258
 7315SOL    HW233579   1.607   0.020   2.295  0.8161 -2.3191 -0.1185
 7316SOL     OW33580   1.380   3.332   7.558 -0.2355 -0.4540 -0.6437
 7316SOL    HW133581   1.345   3.315   7.646  1.9264 -0.1781  0.2535
 7316SOL    HW233582   1.462   3.283   7.563  1.0950  1.9181  0.3420
 7317SOL     OW33583   0.869   3.020   9.373  0.2759 -0.2270  0.2245
 7317SOL    HW133584   0.773   3.014   9.379  0.2206 -1.3396 -1.8186
 7317SOL    HW233585   0.903   2.931   9.362  3.1405  0.8740  0.3317
 7318SOL     OW33586   3.801   4.324   0.853 -0.1088  0.4393 -0.0973
 7318SOL    HW133587   3.886   4.280   0.845  1.1351  2.8317 -0.1007
 7318SOL    HW233588   3.775   4.341   0.762  1.2619 -0.0216 -0.5859
 7319SOL     OW33589   2.163   1.630   6.549 -0.2878  0.0909 -0.4931
 7319SOL    HW133590   2.161   1.535   6.551  0.1809  0.1844  4.0342
 7319SOL    HW233591   2.150   1.652   6.641 -1.5979 -1.0839 -0.4139
 7320SOL     OW33592   0.008   1.872  17.278 -0.5987  0.1422 -0.6766
 7320SOL    HW133593   0.041   1.796  17.325  0.0554  1.3706  0.8515
 7320SOL    HW233594   0.087   1.905  17.235  0.4895 -1.3101  0.2418
 7321SOL     OW33595   2.957   4.373   2.807 -0.6177 -0.4772  0.5306
 7321SOL    HW133596   2.905   4.400   2.730 -2.4437 -1.2174  1.5172
 7321SOL    HW233597   2.941   4.279   2.800 -1.5940 -0.1979 -1.1261
 7322SOL     OW33598   3.669   3.601   1.406 -0.3215  0.2419  0.1535
 7322SOL    HW133599   3.677   3.512   1.442 -1.5760  0.6632  1.4659
 7322SOL    HW233600   3.760   3.631   1.402 -0.3072  0.1738 -0.0165
 7323SOL     OW33601   0.746   1.761   4.449 -0.2398 -0.1062 -0.8421
 7323SOL    HW133602   0.667   1.731   4.405 -0.0237 -1.6142 -0.2029
 7323SOL    HW233603   0.765   1.689   4.509 -0.5471  1.0142  0.6181
 7324SOL     OW33604   3.207   3.945   4.903  0.5553 -0.1556 -0.5985
 7324SOL    HW133605   3.203   4.034   4.869  1.5982  0.0209 -0.2427
 7324SOL    HW233606   3.287   3.951   4.955 -0.5819  0.6924  1.0630
 7325SOL     OW33607   4.669   4.037  12.038  0.2416  0.3687 -0.5487
 7325SOL    HW133608   4.735   4.077  12.093  1.5259 -0.8212 -1.2212
 7325SOL    HW233609   4.592   4.041  12.095  0.5600  0.0011 -0.0906
 7326SOL     OW33610   1.927   4.246   1.515  0.3765 -0.0101 -0.8784
 7326SOL    HW133611   1.836   4.224   1.530  0.5607  0.0068  0.2656
 7326SOL    HW233612   1.957   4.261   1.605  0.0390 -1.2045 -0.5724
 7327SOL     OW33613   3.849   3.580   6.897  0.4294 -1.0363  0.3171
 7327SOL    HW133614   3.916   3.512   6.907  3.1017  1.7444  1.7234
 7327SOL    HW233615   3.773   3.525   6.883  0.7213 -1.4518  0.3720
 7328SOL     OW33616   1.303   4.639  17.037 -0.4552 -0.7953  0.8045
 7328SOL    HW133617   1.258   4.714  17.075  0.5070  1.1398 -1.8663
 7328SOL    HW233618   1.376   4.626  17.097  0.2685  1.7804  0.4802
 7329SOL     OW33619   2.916   2.117  10.747 -0.0172 -0.4529 -0.5929
 7329SOL    HW133620   2.825   2.110  10.721 -0.6516 -2.2845  2.1072
 7329SOL    HW233621   2.934   2.023  10.745 -0.3239 -0.5293  0.3000
 7330SOL     OW33622   0.441   4.082   7.184 -0.1665  0.4555 -0.4937
 7330SOL    HW133623   0.395   4.137   7.121 -0.1717  1.0421  0.0244
 7330SOL    HW233624   0.458   4.141   7.257  0.5249  0.4675 -0.6671
 7331SOL     OW33625   4.476   2.640   5.381  0.1396  0.0113  0.0098
 7331SOL    HW133626   4.429   2.600   5.454 -0.0935 -0.2636 -0.2935
 7331SOL    HW233627   4.469   2.566   5.320 -0.4908  0.7988 -0.8716
 7332SOL     OW33628   3.607   4.148   3.913 -0.3245 -0.2042 -0.5575
 7332SOL    HW133629   3.560   4.148   3.996  0.4325  0.9203 -0.1211
 7332SOL    HW233630   3.692   4.170   3.952 -1.0238  1.4637  0.0185
 7333SOL     OW33631   0.393   4.304   4.055  0.3648  0.4241  0.1353
 7333SOL    HW133632   0.382   4.211   4.040 -1.0006  1.1410 -3.2374
 7333SOL    HW233633   0.309   4.334   4.090  1.0010  2.2649  0.0955
 7334SOL     OW33634   1.368   3.986   7.494  0.7651 -0.9222 -0.1289
 7334SOL    HW133635   1.409   3.984   7.408 -0.3026  1.5306 -0.6793
 7334SOL    HW233636   1.295   3.926   7.482  1.4062 -1.8151  0.3493
 7335SOL     OW33637   0.609   0.743   1.816 -0.2313  0.1128 -0.1568
 7335SOL    HW133638   0.626   0.671   1.876 -1.1439  0.5366  0.6040
 7335SOL    HW233639   0.516   0.721   1.815 -0.4502  1.0047  0.2580
 7336SOL     OW33640   4.653   4.519  11.308  0.6651 -0.1008  0.3333
 7336SOL    HW133641   4.691   4.606  11.292  2.6152 -0.4194  3.3890
 7336SOL    HW233642   4.692   4.486  11.389  0.4418  2.3394  1.4557
 7337SOL     OW33643   2.250   3.915   9.622  0.1476 -0.4313 -0.2792
 7337SOL    HW133644   2.298   3.971   9.683  0.0561  0.3026 -0.8772
 7337SOL    HW233645   2.190   3.866   9.678  0.0196  0.1178  0.0657
 7338SOL     OW33646   2.593   4.704   5.002  0.3390  0.0018 -0.0562
 7338SOL    HW133647   2.646   4.636   5.044 -0.7885 -0.5752  0.4224
 7338SOL    HW233648   2.527   4.646   4.965 -1.9230  3.9011 -2.1538
 7339SOL     OW33649   1.706   3.607   9.883  0.2041 -0.5660  0.5090
 7339SOL    HW133650   1.661   3.689   9.868  1.4300 -0.2760 -1.6329
 7339SOL    HW233651   1.676   3.551   9.812 -2.8337  0.1046  1.2852
 7340SOL     OW33652   3.526   0.292  13.984 -0.0699  0.2890  0.1013
 7340SOL    HW133653   3.515   0.370  14.038 -0.1881  1.8446 -2.2021
 7340SOL    HW233654   3.468   0.228  14.027  0.8403 -0.3470  0.3878
 7341SOL     OW33655   1.129   0.974   4.293  0.2995  0.2733 -0.3704
 7341SOL    HW133656   1.055   1.027   4.264 -1.3047 -0.1074  2.9888
 7341SOL    HW233657   1.198   1.038   4.281  1.7089 -0.9165  1.3513
 7342SOL     OW33658   0.151   4.711   6.367 -0.1665 -0.1768 -0.4456
 7342SOL    HW133659   0.135   4.652   6.440  0.2319  0.2979  0.0273
 7342SOL    HW233660   0.062   4.726   6.334 -1.0834 -1.5771  1.4115
 7343SOL     OW33661   0.775   0.349   5.578  0.5436 -0.2109 -0.4406
 7343SOL    HW133662   0.703   0.397   5.538 -0.0882  0.4085  1.4863
 7343SOL    HW233663   0.757   0.367   5.670 -0.1346 -1.8518 -0.2456
 7344SOL     OW33664   3.028   0.656   1.237  0.1948 -0.1512 -0.0834
 7344SOL    HW133665   3.013   0.750   1.230 -1.4939 -0.4676 -0.6380
 7344SOL    HW233666   2.985   0.635   1.320  1.9446 -0.4761  0.7445
 7345SOL     OW33667   3.817   1.694   1.816 -0.4844  0.3201  0.2536
 7345SOL    HW133668   3.722   1.708   1.814 -0.6809 -1.0953 -0.3309
 7345SOL    HW233669   3.845   1.748   1.742  1.4198 -2.0944 -0.7693
 7346SOL     OW33670   1.038   0.397  15.308 -0.0007 -0.4422 -0.2436
 7346SOL    HW133671   1.001   0.325  15.360 -0.4410  0.7107  1.0346
 7346SOL    HW233672   1.113   0.362  15.261  0.3740  1.6284 -1.1683
 7347SOL     OW33673   1.227   3.927   2.406  0.4935 -0.4086 -0.2629
 7347SOL    HW133674   1.288   3.953   2.338  1.3040  0.2318  0.7128
 7347SOL    HW233675   1.270   3.854   2.450  0.3600 -0.9138 -0.9707
 7348SOL     OW33676   1.843   2.340  12.320 -0.3621 -0.1328  0.0447
 7348SOL    HW133677   1.762   2.301  12.354 -0.8552 -0.0545 -1.0513
 7348SOL    HW233678   1.888   2.346  12.405  1.7500 -1.3715 -0.9928
 7349SOL     OW33679   4.338   3.975   8.538 -0.0917 -0.0718  0.2273
 7349SOL    HW133680   4.335   3.886   8.505  1.4252  0.5300 -1.4952
 7349SOL    HW233681   4.253   3.978   8.582 -0.4426  0.4844 -0.4931
 7350SOL     OW33682   4.180   3.646  17.319 -0.1943  0.3331  0.3056
 7350SOL    HW133683   4.138   3.579  17.373 -0.9887  0.4801 -0.1254
 7350SOL    HW233684   4.103   3.687  17.280  0.7346  3.1466  1.4809
 7351SOL     OW33685   0.197   1.384   5.549  0.3673 -0.1241 -0.0967
 7351SOL    HW133686   0.289   1.366   5.567  0.2642 -2.0261 -1.5515
 7351SOL    HW233687   0.154   1.299   5.539  3.1830 -1.6743  1.0180
 7352SOL     OW33688   0.028   3.089   4.444  0.0440  0.1673 -0.3172
 7352SOL    HW133689   0.028   3.120   4.535 -1.0097 -3.1372  0.8165
 7352SOL    HW233690   4.674   3.061   4.438 -0.4686  2.0786 -1.4109
 7353SOL     OW33691   1.529   0.086   3.477 -0.2713 -0.2182 -0.0164
 7353SOL    HW133692   1.605   0.133   3.510  1.2186 -1.1350 -2.1238
 7353SOL    HW233693   1.506   0.031   3.552  1.4609 -2.2210 -0.9611
 7354SOL     OW33694   4.373   2.754   6.605 -0.4714  0.4578  0.2178
 7354SOL    HW133695   4.311   2.718   6.668 -1.7097  1.1759 -0.5796
 7354SOL    HW233696   4.320   2.804   6.542 -1.6494  0.0029  0.8577
 7355SOL     OW33697   0.480   0.212  17.240  0.0365  0.1970  0.1682
 7355SOL    HW133698   0.571   0.240  17.252 -0.0054  0.9468 -1.3885
 7355SOL    HW233699   0.452   0.293  17.198 -3.3412  0.1146  2.2800
 7356SOL     OW33700   1.219   1.326   3.444 -0.0765 -0.2669  0.2672
 7356SOL    HW133701   1.144   1.279   3.409  0.4096  0.7125 -2.1300
 7356SOL    HW233702   1.286   1.257   3.447  2.9741  2.6548  0.3941
 7357SOL     OW33703   3.496   0.525   3.912 -0.6074  0.1580 -0.1289
 7357SOL    HW133704   3.481   0.438   3.874 -2.0459  0.7541 -0.9515
 7357SOL    HW233705   3.555   0.506   3.985  0.3357  0.9383 -0.6842
 7358SOL     OW33706   4.286   3.967  13.834  0.0069  0.7878  0.3302
 7358SOL    HW133707   4.378   3.944  13.816 -0.2608 -0.3597  0.3943
 7358SOL    HW233708   4.264   3.927  13.918  2.9383 -0.2162  0.6340
 7359SOL     OW33709   4.356   0.257  13.829  0.0194  0.2859 -0.2793
 7359SOL    HW133710   4.334   0.323  13.894 -1.1915 -0.7380  0.3527
 7359SOL    HW233711   4.303   0.277  13.752 -0.2181 -0.5337 -0.3292
 7360SOL     OW33712   4.226   2.299   3.161 -0.4267 -0.6299  0.2215
 7360SOL    HW133713   4.175   2.312   3.241  0.6734 -2.3570  1.1865
 7360SOL    HW233714   4.172   2.335   3.090  0.3186  0.4835  0.2177
 7361SOL     OW33715   4.463   4.103   6.631  0.0711  0.5094  0.2931
 7361SOL    HW133716   4.398   4.108   6.701 -0.3376  0.8281 -0.1125
 7361SOL    HW233717   4.516   4.027   6.657  1.6596  0.9291 -1.7288
 7362SOL     OW33718   1.066   0.889   1.833 -0.3071  0.2183 -0.8011
 7362SOL    HW133719   0.978   0.926   1.836  0.3416  1.7252 -0.4750
 7362SOL    HW233720   1.076   0.849   1.919  0.9407  1.1244 -0.5191
 7363SOL     OW33721   3.037   2.789   6.548  0.6766  0.8010 -0.0495
 7363SOL    HW133722   3.063   2.697   6.546 -1.4603  0.0803  3.8764
 7363SOL    HW233723   3.054   2.801   6.642  1.2403  1.1806 -0.2001
 7364SOL     OW33724   4.507   3.338  12.898  0.8590 -0.1220 -0.4720
 7364SOL    HW133725   4.485   3.432  12.897  1.7718  0.0915 -0.5162
 7364SOL    HW233726   4.554   3.336  12.982  1.3075 -2.2906 -0.7751
 7365SOL     OW33727   4.381   4.567   5.500  0.3833 -0.5267 -0.2239
 7365SOL    HW133728   4.365   4.642   5.443  0.3991  0.7681  1.4509
 7365SOL    HW233729   4.461   4.596   5.543  0.1298 -0.3160  0.1087
 7366SOL     OW33730   2.986   3.183   5.506  0.0767 -0.1192 -0.2808
 7366SOL    HW133731   3.031   3.213   5.427 -0.2147 -3.0069 -1.5315
 7366SOL    HW233732   2.901   3.164   5.467  0.0274 -3.3395  1.4322
 7367SOL     OW33733   2.203   3.944   4.543  0.1098  0.0035 -0.2051
 7367SOL    HW133734   2.254   3.865   4.561  2.5461  1.7976  0.6478
 7367SOL    HW233735   2.130   3.901   4.497 -0.5506  1.2426 -0.3224
 7368SOL     OW33736   0.603   0.395   2.520  0.4150 -0.8058  0.4647
 7368SOL    HW133737   0.678   0.447   2.492 -0.1996 -0.3086 -0.2779
 7368SOL    HW233738   0.653   0.317   2.545  0.1768 -0.7736  1.0405
 7369SOL     OW33739   2.961   0.415   4.931 -0.3156  0.3073 -0.6933
 7369SOL    HW133740   2.954   0.395   4.838 -0.1046  0.3695 -0.7240
 7369SOL    HW233741   2.879   0.377   4.961  1.2375 -2.5202 -0.0134
 7370SOL     OW33742   2.666   0.297   2.443 -0.0654 -0.4078  0.3912
 7370SOL    HW133743   2.612   0.234   2.396  0.0375  0.6745 -1.1573
 7370SOL    HW233744   2.733   0.230   2.457  1.3500  1.1234  0.8679
 7371SOL     OW33745   2.991   2.801   5.908  0.1947 -0.7277 -0.6332
 7371SOL    HW133746   2.981   2.737   5.838  0.7673 -1.3926 -0.1049
 7371SOL    HW233747   2.900   2.823   5.926  0.3538  1.4171 -2.4266
 7372SOL     OW33748   2.184   4.177   7.339 -0.0146  0.3528 -0.1655
 7372SOL    HW133749   2.118   4.110   7.362  0.9021 -0.2411  0.7289
 7372SOL    HW233750   2.259   4.126   7.370 -0.4162 -0.6152 -0.7601
 7373SOL     OW33751   0.986   0.352  12.687 -0.2791 -0.5378 -0.0152
 7373SOL    HW133752   0.993   0.403  12.767  1.7521 -2.7550  1.1952
 7373SOL    HW233753   0.923   0.395  12.629 -1.5106  0.7648  2.3003
 7374SOL     OW33754   0.541   4.055   9.118 -0.2773 -0.3407 -0.0914
 7374SOL    HW133755   0.504   4.141   9.098 -2.2101 -0.3828  3.3920
 7374SOL    HW233756   0.544   4.043   9.213  0.7076  0.3005 -0.0346
 7375SOL     OW33757   3.617   3.419  12.963 -0.2688  0.0784 -0.3688
 7375SOL    HW133758   3.524   3.439  12.962 -0.2695  0.1835  2.2012
 7375SOL    HW233759   3.645   3.470  13.039  0.2243 -1.5603  0.5506
 7376SOL     OW33760   1.006   0.843   6.149 -0.0236 -0.1439 -0.4822
 7376SOL    HW133761   1.054   0.841   6.232 -1.1773 -2.0808  0.1557
 7376SOL    HW233762   1.078   0.847   6.086 -0.0117 -1.0353 -0.5320
 7377SOL     OW33763   1.969   3.895  16.881 -0.0574  0.6930  0.1816
 7377SOL    HW133764   1.917   3.933  16.952  0.5453 -1.5238  1.8231
 7377SOL    HW233765   2.012   3.827  16.933 -0.2137  0.1938 -0.3404
 7378SOL     OW33766   1.164   0.327   3.922  0.3225 -0.3150  0.0464
 7378SOL    HW133767   1.251   0.295   3.944  0.3691  0.5918  1.1921
 7378SOL    HW233768   1.157   0.298   3.832 -1.7897 -3.1127  1.1292
 7379SOL     OW33769   3.760   4.593   0.330 -0.5873 -0.4835  0.1376
 7379SOL    HW133770   3.764   4.672   0.385 -0.8415  0.5742 -1.3749
 7379SOL    HW233771   3.704   4.622   0.259  2.3004 -2.0606 -2.7884
 7380SOL     OW33772   1.624   1.227   7.870  0.4476  0.0542  0.3733
 7380SOL    HW133773   1.665   1.189   7.792 -0.7594 -1.0403  0.2770
 7380SOL    HW233774   1.565   1.295   7.839  1.3587  0.1750 -1.1137
 7381SOL     OW33775   0.265   4.536  13.657  0.4737  0.0850 -0.5946
 7381SOL    HW133776   0.202   4.541  13.729  0.3267  2.9094 -0.8918
 7381SOL    HW233777   0.266   4.628  13.629  0.5508  0.2910  0.0910
 7382SOL     OW33778   3.166   1.491   5.098 -0.6351 -0.3085 -0.7441
 7382SOL    HW133779   3.202   1.558   5.155  0.3702  0.3090 -2.1033
 7382SOL    HW233780   3.104   1.435   5.145 -0.7873 -0.9030 -1.6297
 7383SOL     OW33781   1.564   0.169   9.120 -0.0731  0.3939 -0.3507
 7383SOL    HW133782   1.544   0.092   9.067 -1.2576  0.1537  0.4534
 7383SOL    HW233783   1.659   0.162   9.129  0.0045  0.7491 -0.8823
 7384SOL     OW33784   0.717   3.671  12.693  0.3674 -0.8494 -0.5307
 7384SOL    HW133785   0.643   3.681  12.633  1.3226 -2.0900 -1.8971
 7384SOL    HW233786   0.777   3.625  12.634  1.4477  0.0882 -0.1433
 7385SOL     OW33787   0.447   4.520   9.426 -0.2959 -0.4129  0.7726
 7385SOL    HW133788   0.452   4.611   9.396  0.6736 -1.0260 -1.0010
 7385SOL    HW233789   0.353   4.505   9.423 -0.1088 -1.4135 -0.5629
 7386SOL     OW33790   0.634   0.550   8.932 -0.3834  0.3645 -0.3693
 7386SOL    HW133791   0.577   0.623   8.909 -0.1083  0.2116 -1.5250
 7386SOL    HW233792   0.585   0.485   8.982  2.1269  1.2960  3.2823
 7387SOL     OW33793   1.400   3.111  13.440  0.1658 -0.4697 -0.1887
 7387SOL    HW133794   1.321   3.163  13.427  0.2425  0.3746  2.6491
 7387SOL    HW233795   1.463   3.181  13.422 -0.6498  0.6388  1.2554
 7388SOL     OW33796   2.128   0.765   5.678  0.5663  0.4611  0.0797
 7388SOL    HW133797   2.083   0.712   5.612  1.1701  1.2479 -0.9619
 7388SOL    HW233798   2.220   0.739   5.667  0.9726  1.8180  0.2800
 7389SOL     OW33799   2.796   4.107   4.331  0.7593  0.3829 -0.2485
 7389SOL    HW133800   2.834   4.027   4.296  0.4379 -0.3679  1.1089
 7389SOL    HW233801   2.852   4.106   4.409 -2.2202 -0.0997  1.9156
 7390SOL     OW33802   1.622   1.999   4.588  0.5469 -0.2777  0.1705
 7390SOL    HW133803   1.650   2.017   4.498 -1.0477 -0.1812 -0.3054
 7390SOL    HW233804   1.616   1.905   4.577 -0.6815 -0.5263  3.1580
 7391SOL     OW33805   3.703   3.186  11.872 -0.5024  0.8704  0.0700
 7391SOL    HW133806   3.608   3.177  11.865 -0.4579  0.2306  0.2929
 7391SOL    HW233807   3.732   3.192  11.781 -1.0847  1.0412 -0.1007
 7392SOL     OW33808   2.487   2.999   9.265  0.0013  0.0236 -0.0780
 7392SOL    HW133809   2.421   3.011   9.333 -1.6451 -0.5975 -1.5725
 7392SOL    HW233810   2.458   3.063   9.200  0.3713 -0.8505 -1.0998
 7393SOL     OW33811   2.202   3.034   3.628 -1.3397  0.1529 -0.1606
 7393SOL    HW133812   2.119   3.025   3.676 -0.9237 -1.5129  0.2332
 7393SOL    HW233813   2.260   3.001   3.695  1.0806  1.4598 -1.6122
 7394SOL     OW33814   2.069   4.159  16.715  0.4115 -0.3666 -0.1462
 7394SOL    HW133815   2.136   4.090  16.712  1.1160  0.3709 -1.4178
 7394SOL    HW233816   2.010   4.123  16.781 -0.2847 -2.0184 -1.6534
 7395SOL     OW33817   2.559   1.232   9.846 -0.4124  0.7702  0.2348
 7395SOL    HW133818   2.636   1.199   9.799 -1.1901  0.2462 -0.6747
 7395SOL    HW233819   2.543   1.319   9.811 -0.4506 -0.1407 -2.0465
 7396SOL     OW33820   1.745   0.296   3.873  0.0090 -0.6242  0.3943
 7396SOL    HW133821   1.678   0.327   3.933  1.2455  2.4341  0.1706
 7396SOL    HW233822   1.783   0.232   3.933  0.0932 -1.3979 -0.4668
 7397SOL     OW33823   3.788   3.582   3.339 -0.3614 -0.1583 -0.4689
 7397SOL    HW133824   3.722   3.646   3.313  1.2853  1.4295 -0.7400
 7397SOL    HW233825   3.746   3.551   3.420  0.7448  1.5112  0.7414
 7398SOL     OW33826   3.366   4.393  16.175 -0.0308  0.3162 -0.2999
 7398SOL    HW133827   3.415   4.338  16.236  0.4176  1.9183  0.7941
 7398SOL    HW233828   3.443   4.430  16.132 -0.5476  2.4348  0.6064
 7399SOL     OW33829   0.552   4.688   4.350  0.0035  0.2821 -0.1271
 7399SOL    HW133830   0.531   4.659   4.261 -0.5690 -1.1641  0.4730
 7399SOL    HW233831   0.495   4.624   4.393 -0.5378  0.3539 -0.7283
 7400SOL     OW33832   4.334   3.583  15.359 -0.4638 -0.4252  0.1343
 7400SOL    HW133833   4.349   3.606  15.450 -1.6567  4.3612 -0.8566
 7400SOL    HW233834   4.413   3.619  15.318  0.4007  0.1634  2.3158
 7401SOL     OW33835   0.178   2.893   4.337 -0.0947  0.8275  0.4987
 7401SOL    HW133836   0.135   2.969   4.377  0.1214  0.0279  2.2536
 7401SOL    HW233837   0.100   2.854   4.298  0.2901  1.8469 -1.3094
 7402SOL     OW33838   3.448   4.328   5.820 -0.2760 -0.0312  0.3937
 7402SOL    HW133839   3.391   4.404   5.808 -0.3642 -0.1428  0.1137
 7402SOL    HW233840   3.531   4.365   5.789 -0.7142 -1.6224 -2.6770
 7403SOL     OW33841   3.649   4.173  11.184  0.4535 -0.2635  0.7737
 7403SOL    HW133842   3.693   4.143  11.264  0.0037 -2.6889  0.1074
 7403SOL    HW233843   3.623   4.093  11.138 -2.0766  0.7409  0.4944
 7404SOL     OW33844   1.859   1.698   4.534 -0.1114 -0.4041  0.0793
 7404SOL    HW133845   1.818   1.750   4.465 -2.9438  0.6246  2.5551
 7404SOL    HW233846   1.949   1.682   4.504 -0.4023  1.3602 -1.6554
 7405SOL     OW33847   0.014   0.889   6.604 -0.4430  0.0726  0.2824
 7405SOL    HW133848   4.701   0.926   6.677 -2.3708 -0.0758 -0.9841
 7405SOL    HW233849   0.079   0.959   6.605 -0.1019 -0.2295 -0.6895
 7406SOL     OW33850   2.031   0.925   2.966 -0.0007 -0.2595  0.0649
 7406SOL    HW133851   2.095   0.963   3.026  0.5940  1.9290 -1.9774
 7406SOL    HW233852   2.010   0.848   3.020 -1.2205 -0.7745 -1.1407
 7407SOL     OW33853   2.389   2.781  10.943 -0.0963 -0.2239 -0.1948
 7407SOL    HW133854   2.309   2.834  10.945  0.1256  0.0956  0.2617
 7407SOL    HW233855   2.460   2.838  10.974 -1.1516  0.7376  0.4520
 7408SOL     OW33856   1.070   3.479   2.955 -0.9632  0.4775 -0.0746
 7408SOL    HW133857   1.004   3.494   2.888 -1.5135 -0.1384  0.3419
 7408SOL    HW233858   1.044   3.506   3.044 -0.5759  1.5482 -0.2794
 7409SOL     OW33859   4.157   1.108   4.968 -0.0089  0.0731  0.1257
 7409SOL    HW133860   4.223   1.163   4.927  0.5966  1.1677  2.5725
 7409SOL    HW233861   4.133   1.166   5.041  0.7326  1.7504 -0.9747
 7410SOL     OW33862   4.656   2.462   3.503 -0.7487 -0.8831  0.0482
 7410SOL    HW133863   4.668   2.518   3.578  0.2196  0.8395 -1.4004
 7410SOL    HW233864   4.655   2.509   3.419 -0.0052 -0.0536  0.5053
 7411SOL     OW33865   2.205   4.217  11.440  0.1211  0.4262 -0.4753
 7411SOL    HW133866   2.253   4.146  11.483  1.4068  1.8440  0.4358
 7411SOL    HW233867   2.123   4.173  11.417  0.5777 -0.2998 -0.6831
 7412SOL     OW33868   2.191   1.962   8.419 -0.4317  0.1322 -0.2523
 7412SOL    HW133869   2.199   1.868   8.437 -1.0689 -0.0142 -0.7368
 7412SOL    HW233870   2.195   1.997   8.508 -0.4995  0.2588 -0.2991
 7413SOL     OW33871   3.687   0.101   0.931 -0.3068  0.1154  0.4687
 7413SOL    HW133872   3.724   0.147   0.856  1.1650 -1.5619  0.1984
 7413SOL    HW233873   3.714   0.011   0.944  3.1422  1.1806  0.6224
 7414SOL     OW33874   2.442   4.620   4.737  0.0970  0.5912  0.4088
 7414SOL    HW133875   2.397   4.594   4.657  1.0808  1.0961 -0.3023
 7414SOL    HW233876   2.365   4.647   4.787 -1.2631 -1.0161 -0.8263
 7415SOL     OW33877   0.384   3.279   3.625 -0.2580 -0.2760 -0.0775
 7415SOL    HW133878   0.317   3.347   3.628  0.3672  0.3703 -1.2203
 7415SOL    HW233879   0.423   3.290   3.712  0.1354  2.1671 -0.5761
 7416SOL     OW33880   4.433   4.651   9.441  0.3126 -0.4501 -0.1367
 7416SOL    HW133881   4.435   4.585   9.511 -2.0507 -0.1253  0.2350
 7416SOL    HW233882   4.340   4.674   9.451 -0.1332 -3.1511  1.9398
 7417SOL     OW33883   4.282   1.687   9.075  0.3693 -0.1504 -0.1339
 7417SOL    HW133884   4.208   1.746   9.087 -0.9606 -1.5463 -1.3113
 7417SOL    HW233885   4.280   1.654   8.985 -1.8165 -1.4486  0.3761
 7418SOL     OW33886   0.339   2.751   4.514 -0.9957 -0.0513 -0.0165
 7418SOL    HW133887   0.257   2.723   4.471 -1.7696  2.4682 -0.1720
 7418SOL    HW233888   0.364   2.822   4.454 -2.0520  0.0735 -0.3166
 7419SOL     OW33889   0.164   4.285   6.633  0.0321  0.4245 -1.1083
 7419SOL    HW133890   0.191   4.363   6.680 -1.1866  2.2004 -3.3570
 7419SOL    HW233891   0.077   4.268   6.670  0.2907  1.1919 -0.1610
 7420SOL     OW33892   1.022   3.425   3.245 -0.7126  0.7454 -0.2143
 7420SOL    HW133893   1.079   3.408   3.320 -1.2891  4.2341  1.0235
 7420SOL    HW233894   0.941   3.382   3.270 -1.1961  1.7882  0.0080
 7421SOL     OW33895   3.152   4.734   1.437 -0.2744  0.0096 -0.9105
 7421SOL    HW133896   3.065   0.025   1.462  0.4352  1.5350 -0.1566
 7421SOL    HW233897   3.143   4.659   1.379 -0.8358 -0.8904  0.3324
 7422SOL     OW33898   3.408   3.544   6.365  0.2515 -0.1002  0.3309
 7422SOL    HW133899   3.382   3.468   6.418 -0.5112 -0.3946 -0.4691
 7422SOL    HW233900   3.500   3.558   6.387 -0.5918  3.5642  1.3674
 7423SOL     OW33901   1.974   3.019   3.747 -0.4528  0.1320 -0.4152
 7423SOL    HW133902   1.896   2.980   3.707 -0.5569 -0.8950  0.8038
 7423SOL    HW233903   1.956   2.986   3.835  0.6819  1.1217  0.1804
 7424SOL     OW33904   2.388   3.058  17.120 -0.0417  0.0506 -0.0802
 7424SOL    HW133905   2.311   3.105  17.089 -1.0507 -0.1744  2.1007
 7424SOL    HW233906   2.348   2.998  17.182 -0.3936  2.1130  1.6682
 7425SOL     OW33907   2.844   0.326  13.725  0.3021 -0.1823  0.0379
 7425SOL    HW133908   2.893   0.266  13.668  3.6313  3.1526 -0.6704
 7425SOL    HW233909   2.768   0.273  13.748  0.0756  0.0629 -0.1398
 7426SOL     OW33910   0.931   0.033   1.670  0.0535  0.8628 -0.3779
 7426SOL    HW133911   0.870   4.718   1.722  0.3044 -0.9947 -1.9576
 7426SOL    HW233912   0.894   0.028   1.582 -1.7145  1.5857  0.3310
 7427SOL     OW33913   2.905   0.489  16.668 -0.0780  0.1946 -0.3632
 7427SOL    HW133914   2.871   0.572  16.703  0.6470  1.2232 -2.0956
 7427SOL    HW233915   2.895   0.437  16.748 -0.4349  2.2646  0.9636
 7428SOL     OW33916   4.273   4.009  16.028 -0.1417  0.2423  0.4551
 7428SOL    HW133917   4.367   4.025  16.037  0.0451  0.8449 -2.9040
 7428SOL    HW233918   4.244   4.062  16.102 -1.5843 -0.5295  0.4280
 7429SOL     OW33919   1.259   4.619  17.572 -0.2352 -0.3027 -0.1323
 7429SOL    HW133920   1.245   4.533  17.532  0.2149 -0.2022 -0.5140
 7429SOL    HW233921   1.335   4.651  17.523 -0.0204  0.7968  0.9314
 7430SOL     OW33922   2.197   4.371   5.074 -0.3374  0.0423 -0.2037
 7430SOL    HW133923   2.173   4.292   5.124  0.1329  0.4767  0.7053
 7430SOL    HW233924   2.170   4.432   5.142 -1.5219 -0.9127  0.1883
 7431SOL     OW33925   1.641   0.720  10.252  0.0691  0.2090 -0.4067
 7431SOL    HW133926   1.670   0.781  10.320 -0.3013 -0.7053  0.5709
 7431SOL    HW233927   1.557   0.757  10.226 -0.3367 -0.6423 -0.3087
 7432SOL     OW33928   4.071   2.565   7.545  0.3096 -0.1678  0.0883
 7432SOL    HW133929   4.053   2.650   7.586 -2.1789 -1.1928  1.1536
 7432SOL    HW233930   4.035   2.582   7.457 -0.3403 -0.8660  0.2240
 7433SOL     OW33931   0.637   3.269   5.076  0.0691  0.0619  0.2132
 7433SOL    HW133932   0.550   3.230   5.072 -0.1203  0.6132 -0.7973
 7433SOL    HW233933   0.614   3.360   5.094 -1.1967 -0.1617 -0.3276
 7434SOL     OW33934   3.156   4.685   4.237  0.6283 -0.0519 -0.4018
 7434SOL    HW133935   3.081   4.647   4.190 -0.6325  0.1747  1.3992
 7434SOL    HW233936   3.193   4.605   4.276  2.1882  1.1530  0.5721
 7435SOL     OW33937   2.777   2.317   1.951 -0.2766  0.1028 -0.2164
 7435SOL    HW133938   2.751   2.368   2.028  0.0836  0.1980 -0.1574
 7435SOL    HW233939   2.854   2.367   1.925 -0.6735  1.9002  2.0195
 7436SOL     OW33940   3.894   1.436   7.548  0.3213 -0.6986 -0.0864
 7436SOL    HW133941   3.932   1.409   7.632 -0.2757  1.9606  1.0616
 7436SOL    HW233942   3.960   1.502   7.526  1.5330 -1.6074  0.8600
 7437SOL     OW33943   2.229   0.861   4.678 -0.2019 -0.4087  0.3174
 7437SOL    HW133944   2.167   0.790   4.664  1.0887 -1.7826  1.5824
 7437SOL    HW233945   2.311   0.815   4.663 -0.7516 -0.5849 -2.0580
 7438SOL     OW33946   0.531   2.515   6.060 -0.4610  0.4529  0.1487
 7438SOL    HW133947   0.481   2.491   5.982 -0.2130 -0.9494  0.4300
 7438SOL    HW233948   0.610   2.561   6.033 -0.4447 -1.4575 -3.0270
 7439SOL     OW33949   3.898   4.575  17.097 -0.5556  0.1368 -0.0608
 7439SOL    HW133950   3.957   4.574  17.172 -2.0731  0.4119  1.1513
 7439SOL    HW233951   3.885   4.670  17.089  0.5327  0.3650  0.8366
 7440SOL     OW33952   3.653   4.180   1.016  0.0797  0.0842  0.1755
 7440SOL    HW133953   3.607   4.234   1.080 -1.6020 -2.4899  1.1094
 7440SOL    HW233954   3.706   4.237   0.960  0.0022 -0.1312 -0.1179
 7441SOL     OW33955   4.127   1.265   6.007 -0.1926 -0.9230 -0.1789
 7441SOL    HW133956   4.072   1.342   5.994  2.4281  0.7217 -1.4615
 7441SOL    HW233957   4.211   1.308   5.988  0.4507 -0.6561  3.2931
 7442SOL     OW33958   1.144   0.321   5.088  0.0488 -0.4473 -0.0775
 7442SOL    HW133959   1.228   0.366   5.074  0.6506 -1.9235 -1.2258
 7442SOL    HW233960   1.086   0.357   5.021 -0.2284 -0.0398  0.3902
 7443SOL     OW33961   3.283   1.394  16.450 -0.1880  0.1030  0.6978
 7443SOL    HW133962   3.376   1.375  16.444  0.0910  1.2570  1.4744
 7443SOL    HW233963   3.280   1.488  16.463  0.1962  0.4403 -1.6799
 7444SOL     OW33964   3.649   3.122  14.217 -0.9280 -0.0554  0.6809
 7444SOL    HW133965   3.626   3.212  14.196  0.5351  0.4529  1.2135
 7444SOL    HW233966   3.568   3.077  14.194 -1.3830  1.6949 -1.1541
 7445SOL     OW33967   0.538   3.903   7.641 -0.8660 -0.3027 -0.0333
 7445SOL    HW133968   0.617   3.850   7.647 -0.5587  0.0956 -0.5582
 7445SOL    HW233969   0.536   3.922   7.547 -0.1698  0.3928  0.0963
 7446SOL     OW33970   4.034   4.019   4.601 -0.4172  0.4069 -0.0994
 7446SOL    HW133971   4.009   4.080   4.671  0.0149  0.4602  0.0081
 7446SOL    HW233972   3.959   3.964   4.580  0.5131 -0.6208 -0.7482
 7447SOL     OW33973   0.716   2.410  10.830  0.3326 -0.0406 -0.5470
 7447SOL    HW133974   0.805   2.390  10.858 -0.1071 -2.8571 -1.2134
 7447SOL    HW233975   0.704   2.500  10.862  0.0224 -0.9608  1.9351
 7448SOL     OW33976   4.548   4.060   6.199  0.2828  0.2140  0.2733
 7448SOL    HW133977   4.574   4.089   6.112  0.7772 -1.9859 -0.2914
 7448SOL    HW233978   4.552   3.965   6.192  1.0703  0.1900  1.0980
 7449SOL     OW33979   1.683   1.050   7.661  0.1933  0.1831  0.6980
 7449SOL    HW133980   1.770   1.072   7.628 -0.5161  1.6637 -0.1741
 7449SOL    HW233981   1.702   0.961   7.692 -0.1863 -0.3302 -0.5401
 7450SOL     OW33982   0.706   2.024  15.811  0.5306  0.4291 -0.2612
 7450SOL    HW133983   0.773   1.957  15.825  0.5277  0.1165 -1.7783
 7450SOL    HW233984   0.698   2.072  15.894 -1.3201  0.7912 -0.6593
 7451SOL     OW33985   0.330   0.599   6.307  0.0736 -1.1315  0.3656
 7451SOL    HW133986   0.360   0.540   6.238  0.6215  0.2090 -0.5587
 7451SOL    HW233987   0.408   0.605   6.362  1.8375  0.2747 -2.2509
 7452SOL     OW33988   3.035   3.119   8.172 -0.9450 -0.5470  0.2224
 7452SOL    HW133989   2.960   3.091   8.224 -1.6735  1.0275 -0.0101
 7452SOL    HW233990   3.099   3.107   8.243  2.1706  3.0953 -1.9599
 7453SOL     OW33991   1.636   0.510   1.660 -0.7115  0.0312 -0.6659
 7453SOL    HW133992   1.644   0.555   1.576  0.5637 -1.7806 -1.5151
 7453SOL    HW233993   1.677   0.571   1.721  1.3660 -2.2133  0.1926
 7454SOL     OW33994   0.231   3.629   7.236  0.2197 -0.4894 -0.5610
 7454SOL    HW133995   0.279   3.679   7.303  0.7213  0.7768 -1.8708
 7454SOL    HW233996   0.169   3.697   7.210  0.1603  0.0224  0.8845
 7455SOL     OW33997   1.597   3.441   9.673 -0.0615 -0.1041 -0.8078
 7455SOL    HW133998   1.664   3.378   9.644 -0.3701  0.0628 -1.8991
 7455SOL    HW233999   1.532   3.392   9.722 -1.8141  0.1466 -2.8770
 7456SOL     OW34000   2.881   1.177   6.205  0.1859  0.0394 -0.1275
 7456SOL    HW134001   2.975   1.158   6.210  0.2594  0.1329 -1.1106
 7456SOL    HW234002   2.855   1.157   6.295 -0.1241  1.9869  0.2088
 7457SOL     OW34003   0.851   1.668  10.074  0.5505 -0.5328  0.0164
 7457SOL    HW134004   0.880   1.657  10.165  0.7179 -0.7419 -0.0641
 7457SOL    HW234005   0.906   1.739  10.042  0.8551 -1.1302 -0.7808
 7458SOL     OW34006   2.456   2.661  15.687  0.7817 -0.4020 -0.0874
 7458SOL    HW134007   2.493   2.736  15.641  0.7794  0.3302  1.0987
 7458SOL    HW234008   2.380   2.642  15.632  1.1516  0.1565 -0.7934
 7459SOL     OW34009   2.605   2.471  17.247 -0.1412 -0.8327 -0.3541
 7459SOL    HW134010   2.516   2.502  17.231 -0.2133 -0.1312  1.4099
 7459SOL    HW234011   2.630   2.522  17.324 -0.5889 -2.3060  0.7748
 7460SOL     OW34012   3.275   3.525   3.336  0.4834 -0.5883 -0.4600
 7460SOL    HW134013   3.253   3.584   3.265  1.6112 -0.0399 -0.3598
 7460SOL    HW234014   3.356   3.569   3.361  0.2479  0.9502 -2.4619
 7461SOL     OW34015   0.244   3.743   4.991  0.1155  0.6357  0.6620
 7461SOL    HW134016   0.299   3.710   5.062  0.0295  0.6981  0.7563
 7461SOL    HW234017   0.165   3.689   4.995  0.9777 -0.9310 -2.7864
 7462SOL     OW34018   1.346   4.576   2.130  0.3772 -0.0992  0.0382
 7462SOL    HW134019   1.334   4.582   2.035 -0.3450  1.7720  0.2516
 7462SOL    HW234020   1.420   4.634   2.147  1.6363 -1.2986 -1.3737
 7463SOL     OW34021   0.672   3.693   1.866 -0.0328  0.1441  0.0771
 7463SOL    HW134022   0.594   3.696   1.921 -0.5641  1.1546 -0.7260
 7463SOL    HW234023   0.739   3.710   1.931  0.5338 -0.3481 -0.3797
 7464SOL     OW34024   0.950   2.679  17.407 -0.8262 -0.1368  0.2412
 7464SOL    HW134025   0.966   2.751  17.468 -3.4724  3.4908 -3.3654
 7464SOL    HW234026   0.937   2.607  17.469 -1.1475  0.9520  1.4410
 7465SOL     OW34027   1.394   0.478   4.958 -0.0684 -0.3645 -0.3794
 7465SOL    HW134028   1.336   0.526   4.898 -0.7415  0.8483  1.2427
 7465SOL    HW234029   1.394   0.392   4.918  1.6918 -0.9241  0.8195
 7466SOL     OW34030   3.960   0.996   0.699 -0.1084  0.1729  0.1830
 7466SOL    HW134031   3.977   0.961   0.611  0.0521 -0.8740  0.6385
 7466SOL    HW234032   3.922   0.923   0.748  1.0525 -1.8595 -1.9328
 7467SOL     OW34033   2.074   3.637   3.749  0.1641 -0.1240  0.9746
 7467SOL    HW134034   2.072   3.575   3.676  1.9294  0.3477  0.5270
 7467SOL    HW234035   2.085   3.718   3.700  0.2894 -0.6533  0.1339
 7468SOL     OW34036   1.199   0.853  14.321 -0.0855 -0.0938  0.2397
 7468SOL    HW134037   1.165   0.830  14.235  1.8269 -0.1752 -0.5026
 7468SOL    HW234038   1.117   0.874  14.367 -0.8614  1.0510 -1.6619
 7469SOL     OW34039   1.806   4.207  10.270  0.2473 -0.0924  0.1819
 7469SOL    HW134040   1.873   4.168  10.327  0.9467  1.0183  0.1101
 7469SOL    HW234041   1.785   4.135  10.211 -0.1054  2.3421 -2.6575
 7470SOL     OW34042   2.762   3.330   3.540 -0.6135 -0.6020  0.1110
 7470SOL    HW134043   2.735   3.256   3.595 -2.2022  0.3257  0.5658
 7470SOL    HW234044   2.694   3.327   3.473  2.0500 -0.3287 -2.5981
 7471SOL     OW34045   4.316   3.218   7.031  0.7480  0.8831 -0.1925
 7471SOL    HW134046   4.311   3.309   7.059  2.1234  0.5832  1.0178
 7471SOL    HW234047   4.351   3.231   6.943 -1.2353  1.1832 -0.9434
 7472SOL     OW34048   0.258   3.997  14.769  0.0753  0.0431  0.3053
 7472SOL    HW134049   0.353   3.997  14.765 -0.0266  1.4319 -2.3378
 7472SOL    HW234050   0.238   3.976  14.677 -2.8986 -0.9201  1.1579
 7473SOL     OW34051   3.281   3.976   4.260 -0.3095  0.0945  0.4184
 7473SOL    HW134052   3.271   3.918   4.185 -2.0251 -0.2485  0.9269
 7473SOL    HW234053   3.303   4.056   4.212 -0.1502  0.7962  1.6668
 7474SOL     OW34054   0.509   2.569   5.087  0.2500  0.3034  0.7054
 7474SOL    HW134055   0.456   2.644   5.115 -1.7521 -1.2723  1.1199
 7474SOL    HW234056   0.462   2.535   5.011 -0.9219  1.9872  0.6827
 7475SOL     OW34057   1.558   3.048   9.714 -0.0663 -0.0012 -0.2855
 7475SOL    HW134058   1.486   3.111   9.706 -0.1289 -0.3168 -2.2075
 7475SOL    HW234059   1.555   3.039   9.809  1.8570 -0.5131 -0.2679
 7476SOL     OW34060   0.046   4.588   6.062 -0.0950 -0.4648 -0.3616
 7476SOL    HW134061   4.730   4.522   6.018 -0.3800 -0.1600 -0.4721
 7476SOL    HW234062   0.094   4.628   5.990  1.2327  1.0238  1.3437
 7477SOL     OW34063   1.334   1.673   6.192 -0.0371 -0.4759 -0.1229
 7477SOL    HW134064   1.299   1.586   6.172  0.9021 -0.3974 -2.0591
 7477SOL    HW234065   1.313   1.665   6.285 -0.1215  0.1159 -0.0882
 7478SOL     OW34066   2.232   1.127   4.567 -0.4305  1.0001  0.7887
 7478SOL    HW134067   2.139   1.149   4.569 -0.0393  2.4835  2.8307
 7478SOL    HW234068   2.233   1.053   4.628  0.2027  0.3962  0.0403
 7479SOL     OW34069   3.155   1.853  14.214 -0.1918  0.3909 -0.1498
 7479SOL    HW134070   3.201   1.874  14.134  2.4161 -1.5196  0.8337
 7479SOL    HW234071   3.063   1.853  14.186 -0.6647  2.0595  1.4069
 7480SOL     OW34072   0.661   3.337   2.097 -0.1887  0.2885 -0.4285
 7480SOL    HW134073   0.640   3.248   2.071 -0.8983  0.8055 -1.6399
 7480SOL    HW234074   0.736   3.354   2.040 -0.1868 -1.0343 -0.8161
 7481SOL     OW34075   0.202   1.368   9.322 -0.0856 -0.2138  0.2525
 7481SOL    HW134076   0.253   1.300   9.366  1.1448  1.9862  2.2164
 7481SOL    HW234077   0.227   1.451   9.363  1.0142 -0.8925  0.9628
 7482SOL     OW34078   0.195   0.123   4.793  0.0963 -0.2697  0.3628
 7482SOL    HW134079   0.272   0.160   4.834  0.6451 -1.3915  0.3491
 7482SOL    HW234080   0.131   0.194   4.799 -0.7349 -1.1886  2.1522
 7483SOL     OW34081   0.102   1.694   3.119  0.3524  0.2644  0.1145
 7483SOL    HW134082   0.165   1.765   3.105  2.9400 -2.4150 -1.7020
 7483SOL    HW234083   0.025   1.745   3.146  0.0885  0.5120 -1.1143
 7484SOL     OW34084   1.794   0.775  12.553  0.7967 -0.1992  0.2437
 7484SOL    HW134085   1.875   0.816  12.584  0.4573  0.1356  0.6896
 7484SOL    HW234086   1.819   0.688  12.523 -0.0529 -0.8168  1.3828
 7485SOL     OW34087   1.609   2.296   4.644 -0.3536 -0.3824 -0.5344
 7485SOL    HW134088   1.602   2.203   4.621 -0.5042 -0.0048 -2.0448
 7485SOL    HW234089   1.517   2.321   4.650 -0.8726 -2.1329 -1.2374
 7486SOL     OW34090   4.379   4.145   5.167 -0.5183 -0.4591  0.1228
 7486SOL    HW134091   4.449   4.090   5.202 -1.2485 -1.7835 -0.5279
 7486SOL    HW234092   4.381   4.221   5.226 -0.3256 -1.4261  1.3545
 7487SOL     OW34093   1.063   2.008   5.876  0.9752 -0.4198 -0.3493
 7487SOL    HW134094   1.156   2.023   5.859  1.1255 -2.5415 -1.3812
 7487SOL    HW234095   1.057   1.955   5.955 -0.0208  1.6021  0.9308
 7488SOL     OW34096   4.133   1.548   6.425  0.6870 -0.4646  0.4057
 7488SOL    HW134097   4.074   1.484   6.387  1.7036 -1.1646  0.0128
 7488SOL    HW234098   4.121   1.544   6.520  1.1438  1.0934  0.5309
 7489SOL     OW34099   2.536   3.848  14.138  0.0605  0.8713 -0.3458
 7489SOL    HW134100   2.467   3.894  14.187  0.6947 -0.3376  1.6764
 7489SOL    HW234101   2.521   3.851  14.044 -0.9483 -0.7613 -0.2196
 7490SOL     OW34102   0.826   3.014   5.799 -0.3214 -0.7006 -0.2703
 7490SOL    HW134103   0.840   2.972   5.714 -0.6994 -2.4267  0.5188
 7490SOL    HW234104   0.894   2.967   5.849  0.0420  0.2670  0.1365
 7491SOL     OW34105   2.293   0.765   0.674 -0.5508 -0.5053  0.0211
 7491SOL    HW134106   2.260   0.811   0.597  1.3000  2.3768  0.9330
 7491SOL    HW234107   2.251   0.680   0.663 -1.1076 -0.1081 -0.8708
 7492SOL     OW34108   1.735   1.311  16.098 -0.0204  0.3961 -0.9387
 7492SOL    HW134109   1.697   1.240  16.149  0.6086 -0.3893 -1.5823
 7492SOL    HW234110   1.686   1.390  16.122  2.5688  2.5130 -2.6285
 7493SOL     OW34111   1.910   2.543  12.913 -0.0867  0.0337  0.6565
 7493SOL    HW134112   1.981   2.562  12.852 -2.1123  0.7794 -1.4711
 7493SOL    HW234113   1.839   2.595  12.875  1.3840  1.2962 -0.3863
 7494SOL     OW34114   4.135   1.197   3.753  0.2675 -0.3230 -0.0150
 7494SOL    HW134115   4.148   1.108   3.788  0.6951  0.2408  1.2530
 7494SOL    HW234116   4.096   1.172   3.670  0.2007 -1.7306  0.4269
 7495SOL     OW34117   4.547   1.522  17.151  0.3356 -0.6184  0.1046
 7495SOL    HW134118   4.621   1.465  17.131 -1.1903 -2.3100 -0.7238
 7495SOL    HW234119   4.481   1.457  17.176 -1.0366  0.8869  0.4202
 7496SOL     OW34120   2.303   3.870   6.142  0.0628  0.5470 -0.6657
 7496SOL    HW134121   2.255   3.830   6.070 -3.9594  2.2004  1.0904
 7496SOL    HW234122   2.233   3.909   6.195 -1.0204 -0.3663 -1.4353
 7497SOL     OW34123   3.994   3.861   4.088 -0.6780 -0.0099  0.1333
 7497SOL    HW134124   3.929   3.868   4.158 -1.4686  2.4638 -0.8517
 7497SOL    HW234125   4.033   3.777   4.114  0.9650  0.0569 -2.1591
 7498SOL     OW34126   1.583   4.375  15.523 -0.7725 -0.1499  0.3273
 7498SOL    HW134127   1.601   4.285  15.550 -0.4515 -0.1785  0.0188
 7498SOL    HW234128   1.509   4.380  15.462 -0.3259 -1.7002 -0.3532
 7499SOL     OW34129   4.140   1.135   2.773  0.3957 -0.1897 -0.1441
 7499SOL    HW134130   4.131   1.177   2.688 -0.6346  0.6420  0.3727
 7499SOL    HW234131   4.202   1.066   2.749  3.1030  2.1335  0.1602
 7500SOL     OW34132   0.313   2.238   3.048 -0.0526  0.4718  0.1329
 7500SOL    HW134133   0.328   2.326   3.081 -0.1076  0.4420  0.2372
 7500SOL    HW234134   0.382   2.189   3.091 -0.4883  0.4145  0.7606
 7501SOL     OW34135   2.280   2.708   5.635 -0.0079  0.3180  0.1081
 7501SOL    HW134136   2.358   2.758   5.611  0.5478  0.3834  1.9865
 7501SOL    HW234137   2.230   2.713   5.554 -1.6300  0.3668  1.0949
 7502SOL     OW34138   4.521   1.955  15.366 -0.2003 -0.1700 -0.3665
 7502SOL    HW134139   4.514   1.937  15.272 -0.8729  0.2734 -0.4026
 7502SOL    HW234140   4.527   2.051  15.358  1.1265 -0.2776 -0.6820
 7503SOL     OW34141   1.144   0.508  16.701 -0.0519  0.2474  0.0875
 7503SOL    HW134142   1.213   0.461  16.749  1.3231  1.1784 -0.9698
 7503SOL    HW234143   1.194   0.571  16.648 -1.5385  1.3960  0.0798
 7504SOL     OW34144   3.386   2.723   6.477 -0.2691 -0.1501 -0.6143
 7504SOL    HW134145   3.325   2.764   6.415 -0.9306 -3.3003 -2.0490
 7504SOL    HW234146   3.433   2.802   6.502  1.4305 -0.9150 -1.4007
 7505SOL     OW34147   3.230   2.490   5.490 -0.3224 -0.3544 -0.2286
 7505SOL    HW134148   3.255   2.426   5.557  0.2015  0.4197  0.3206
 7505SOL    HW234149   3.300   2.463   5.431 -0.8963 -2.2122 -0.0724
 7506SOL     OW34150   4.480   0.461   7.972  0.1381  0.3839  0.0488
 7506SOL    HW134151   4.540   0.460   8.047 -0.3493  2.5051  0.4929
 7506SOL    HW234152   4.531   0.429   7.898 -2.3827 -0.3565 -1.3732
 7507SOL     OW34153   1.607   1.612  16.730  0.1036 -0.0463  0.1420
 7507SOL    HW134154   1.699   1.637  16.727  0.1405 -0.4638 -1.7388
 7507SOL    HW234155   1.610   1.544  16.797  1.5130 -0.3692 -0.2627
 7508SOL     OW34156   0.501   4.570   5.766  0.5916  0.1612  1.0784
 7508SOL    HW134157   0.514   4.663   5.785 -0.9279  0.6703 -0.3453
 7508SOL    HW234158   0.508   4.566   5.670 -1.2462 -2.1072  1.0524
 7509SOL     OW34159   3.684   3.500   2.733  0.4742  0.1395  0.3442
 7509SOL    HW134160   3.765   3.482   2.685 -1.3524  1.0321 -3.0835
 7509SOL    HW234161   3.694   3.594   2.718 -0.7964  0.7787  3.3747
 7510SOL     OW34162   4.645   2.088   5.752 -0.3878  0.0387 -0.2235
 7510SOL    HW134163   4.719   2.036   5.721 -1.1537 -1.9467  1.2521
 7510SOL    HW234164   4.567   2.032   5.745  1.0876 -1.7998 -2.2566
 7511SOL     OW34165   2.510   3.442   0.877 -0.3792  0.1159 -0.8771
 7511SOL    HW134166   2.506   3.383   0.802  1.4250  2.3566 -2.7353
 7511SOL    HW234167   2.429   3.420   0.923  0.1210  1.6544  0.7760
 7512SOL     OW34168   1.492   3.010  16.783  0.5335  0.0166  0.0161
 7512SOL    HW134169   1.573   3.059  16.772  0.4420 -0.3291 -2.3298
 7512SOL    HW234170   1.482   2.957  16.703 -0.5796 -1.2338  0.9775
 7513SOL     OW34171   2.294   2.540   2.294  0.5549  0.5666  0.0282
 7513SOL    HW134172   2.329   2.515   2.209  1.7681  1.6003  0.2240
 7513SOL    HW234173   2.349   2.614   2.319  1.5796  0.4758 -1.9542
 7514SOL     OW34174   2.078   1.226   6.196  0.0405 -0.3195 -0.0115
 7514SOL    HW134175   2.035   1.309   6.177 -1.6569 -0.8102  1.6804
 7514SOL    HW234176   2.040   1.192   6.277  0.4163 -0.6594  0.0215
 7515SOL     OW34177   1.192   2.681   8.700  0.0043 -0.5877  0.9170
 7515SOL    HW134178   1.107   2.638   8.710 -0.9242  1.0407  0.1063
 7515SOL    HW234179   1.207   2.676   8.606  0.6028  1.3895  0.9055
 7516SOL     OW34180   1.474   0.661  17.146 -0.1337 -0.1275 -0.8657
 7516SOL    HW134181   1.518   0.620  17.220 -0.4821  0.9560 -0.0688
 7516SOL    HW234182   1.396   0.703  17.181 -0.9811 -0.8218 -1.9030
 7517SOL     OW34183   4.054   2.154   4.128 -0.2061  0.2485  0.0085
 7517SOL    HW134184   4.044   2.068   4.087  2.8625  0.4280 -1.1070
 7517SOL    HW234185   4.017   2.142   4.215  0.9161 -1.0996  0.2937
 7518SOL     OW34186   0.497   4.088   1.354 -0.1017  0.1430 -0.2201
 7518SOL    HW134187   0.582   4.107   1.393  0.4572  0.6146 -1.6376
 7518SOL    HW234188   0.446   4.132   1.422  1.6125 -4.1141  3.7737
 7519SOL     OW34189   3.361   2.977  12.823  0.0594 -0.1440 -0.3472
 7519SOL    HW134190   3.369   3.013  12.735  1.3874  1.3447  0.3856
 7519SOL    HW234191   3.299   2.907  12.802 -1.4405  0.2829  2.7352
 7520SOL     OW34192   1.146   2.135   6.835 -0.3038 -0.6950  0.0644
 7520SOL    HW134193   1.217   2.154   6.896 -1.3563 -0.6160  1.2622
 7520SOL    HW234194   1.141   2.040   6.837  1.7460 -0.7789  0.3550
 7521SOL     OW34195   4.600   4.120   1.538  0.2643  0.4023 -0.1831
 7521SOL    HW134196   4.581   4.112   1.631 -1.6897 -0.9210 -0.7047
 7521SOL    HW234197   4.555   4.197   1.505  0.3175  0.9884  1.1003
 7522SOL     OW34198   4.694   0.284  15.966 -0.0224 -0.4667  0.1396
 7522SOL    HW134199   4.635   0.291  15.891  1.8487  0.2481 -1.2521
 7522SOL    HW234200   0.026   0.345  15.943 -0.5163 -0.1516 -0.5396
 7523SOL     OW34201   4.082   0.718   3.806 -0.4209 -0.2726 -0.0714
 7523SOL    HW134202   4.130   0.635   3.804 -1.6355 -1.0350  2.6003
 7523SOL    HW234203   4.157   0.776   3.798 -1.7610  1.4617 -0.0360
 7524SOL     OW34204   4.615   3.070  16.933 -0.3100  0.0009  0.2428
 7524SOL    HW134205   4.629   3.008  17.004 -1.0082 -0.8103 -0.3323
 7524SOL    HW234206   4.648   3.148  16.978 -0.0500  1.2253 -2.0264
 7525SOL     OW34207   2.440   4.303  15.906 -0.2445 -0.2565 -0.4713
 7525SOL    HW134208   2.382   4.369  15.867  0.2838 -0.7762 -2.1251
 7525SOL    HW234209   2.477   4.345  15.984 -1.8595 -0.6396  0.4904
 7526SOL     OW34210   0.113   2.762  17.460  0.2011 -0.2569 -0.0717
 7526SOL    HW134211   0.177   2.789  17.526  0.5996 -3.2765  0.7801
 7526SOL    HW234212   0.125   2.836  17.401 -0.8760  1.0755  1.3589
 7527SOL     OW34213   0.972   2.452  16.781  0.2798 -0.0124  0.5192
 7527SOL    HW134214   0.940   2.538  16.754 -2.1613 -0.4110  2.1509
 7527SOL    HW234215   1.028   2.482  16.852  0.7432  0.5392 -0.0847
 7528SOL     OW34216   3.403   3.486   2.821  0.2790  0.1142 -0.0920
 7528SOL    HW134217   3.496   3.491   2.844  0.6455  0.9109 -1.7528
 7528SOL    HW234218   3.397   3.430   2.744 -1.2867  0.1733 -0.0127
 7529SOL     OW34219   2.311   4.437   3.619 -0.0359 -0.2490 -0.2783
 7529SOL    HW134220   2.232   4.401   3.659  0.9884 -2.0514  0.1291
 7529SOL    HW234221   2.346   4.373   3.557 -1.4899 -0.3720 -0.9604
 7530SOL     OW34222   0.169   0.829   6.302 -0.5822 -0.6143 -0.7069
 7530SOL    HW134223   0.227   0.756   6.324  0.1915 -0.0836 -0.9641
 7530SOL    HW234224   0.167   0.819   6.206  0.1980  2.4741 -1.0774
 7531SOL     OW34225   0.184   3.798   5.947 -0.1971  0.3809  0.1468
 7531SOL    HW134226   0.209   3.708   5.926 -0.2889  0.1636  0.9651
 7531SOL    HW234227   0.245   3.817   6.018  2.0532 -1.4658 -1.2953
 7532SOL     OW34228   1.301   2.703   3.899 -0.0350 -0.3642 -0.1839
 7532SOL    HW134229   1.218   2.730   3.938 -0.3431 -1.0984 -0.3344
 7532SOL    HW234230   1.267   2.627   3.852 -2.5522  0.3846  0.4132
 7533SOL     OW34231   3.889   3.987   6.773  0.2807  0.9358 -0.3012
 7533SOL    HW134232   3.837   3.916   6.736 -1.2680  2.3402 -0.8244
 7533SOL    HW234233   3.871   3.973   6.866  3.1520  3.4133  0.6378
 7534SOL     OW34234   1.199   3.418   7.816  0.5969  0.3385  0.4057
 7534SOL    HW134235   1.133   3.350   7.805  0.8947  0.2646 -0.8723
 7534SOL    HW234236   1.160   3.460   7.893  0.4036  1.5487 -0.3519
 7535SOL     OW34237   4.333   4.492   0.175  0.0538  0.0356  0.2339
 7535SOL    HW134238   4.314   4.405   0.140 -0.5549 -0.4339  1.7497
 7535SOL    HW234239   4.255   4.544   0.154 -1.3760 -1.6576  1.3870
 7536SOL     OW34240   4.352   0.954   2.717  0.2887  0.6415  0.5225
 7536SOL    HW134241   4.445   0.971   2.703  0.0499  1.4810 -0.0082
 7536SOL    HW234242   4.360   0.859   2.732  0.7764  0.0839 -3.1755
 7537SOL     OW34243   3.834   4.524   8.596 -0.9661  0.3071 -0.1300
 7537SOL    HW134244   3.759   4.470   8.619  0.6537 -1.0180  2.1010
 7537SOL    HW234245   3.781   4.602   8.585 -0.0764  0.7530 -1.2750
 7538SOL     OW34246   1.626   0.542   6.323 -0.2911 -0.1986  0.0174
 7538SOL    HW134247   1.584   0.625   6.347  0.1518  0.1386 -0.3905
 7538SOL    HW234248   1.714   0.568   6.295  0.0773 -0.0727  1.2945
 7539SOL     OW34249   1.674   2.667  12.796  0.2756  0.3747 -0.5719
 7539SOL    HW134250   1.633   2.642  12.713  0.0847 -1.7226  0.1660
 7539SOL    HW234251   1.598   2.680  12.854 -0.0959  0.2731 -1.0352
 7540SOL     OW34252   1.272   2.510  16.510  0.6171  0.2688  0.1573
 7540SOL    HW134253   1.253   2.561  16.589  0.4193  1.9985 -1.0136
 7540SOL    HW234254   1.267   2.569  16.436  0.0918  2.2000  1.7299
 7541SOL     OW34255   2.361   3.071   8.276 -0.1600  0.4553  0.2992
 7541SOL    HW134256   2.295   3.003   8.290  0.7640 -1.0094 -2.6034
 7541SOL    HW234257   2.332   3.146   8.328  2.1904 -0.1741  2.4880
 7542SOL     OW34258   0.992   0.761   5.779 -0.2876  0.2417 -0.3596
 7542SOL    HW134259   1.068   0.791   5.827 -0.6680 -0.5163  0.7053
 7542SOL    HW234260   0.918   0.815   5.807 -1.0955 -1.3206  0.5030
 7543SOL     OW34261   1.478   2.886   3.777  0.1283 -0.0079 -0.6903
 7543SOL    HW134262   1.510   2.943   3.846 -0.3215  0.7928 -1.1427
 7543SOL    HW234263   1.427   2.825   3.831 -1.7154 -0.3029 -2.7559
 7544SOL     OW34264   3.174   0.712   4.755  0.0554  0.1397 -0.7102
 7544SOL    HW134265   3.231   0.781   4.721 -2.1932  1.7136 -1.3062
 7544SOL    HW234266   3.237   0.662   4.807 -0.7115 -0.7878 -0.6745
 7545SOL     OW34267   2.858   2.197  11.001  1.0247  0.1155  0.3897
 7545SOL    HW134268   2.921   2.252  11.047 -1.6263  1.7303  2.0641
 7545SOL    HW234269   2.903   2.189  10.917  0.0847 -0.0400 -0.0943
 7546SOL     OW34270   3.969   0.441   6.575  0.0420  0.0156 -0.5270
 7546SOL    HW134271   3.971   0.515   6.514 -4.0218 -1.0503 -1.9151
 7546SOL    HW234272   4.016   0.380   6.518 -1.4652 -0.9284 -0.7513
 7547SOL     OW34273   3.922   1.385   2.298 -0.1746 -0.1069 -0.2910
 7547SOL    HW134274   3.913   1.419   2.209  0.6997 -1.2947 -0.8340
 7547SOL    HW234275   3.840   1.396   2.346  0.4696  1.5541  0.4534
 7548SOL     OW34276   1.705   0.757   3.039 -0.5630 -0.2093  0.1518
 7548SOL    HW134277   1.627   0.791   3.082 -1.0704 -0.3774 -0.6354
 7548SOL    HW234278   1.765   0.739   3.112 -1.0449  0.6017  0.7407
 7549SOL     OW34279   3.152   0.167   5.814 -0.3950  0.0662 -0.0674
 7549SOL    HW134280   3.164   0.230   5.886 -1.6278 -1.4111  1.4288
 7549SOL    HW234281   3.063   0.136   5.831 -0.9200  1.9496  0.6173
 7550SOL     OW34282   2.186   2.097   3.514 -1.0015 -0.4412 -0.4443
 7550SOL    HW134283   2.280   2.107   3.531 -1.1235  2.2810 -1.2273
 7550SOL    HW234284   2.174   2.084   3.420 -1.2476  2.0658 -0.7788
 7551SOL     OW34285   0.501   1.068   4.326  0.0070  0.1817  0.0308
 7551SOL    HW134286   0.588   1.032   4.343 -0.7160 -0.3221  2.6187
 7551SOL    HW234287   0.477   1.003   4.260  0.3410  0.6809 -0.5824
 7552SOL     OW34288   2.569   3.580   5.142  0.2777  0.4709  0.4286
 7552SOL    HW134289   2.632   3.509   5.154  1.0720  0.9801 -0.8198
 7552SOL    HW234290   2.523   3.580   5.226 -0.5561 -2.2108 -0.0589
 7553SOL     OW34291   2.117   2.736   9.640 -0.6228 -0.6663  0.1171
 7553SOL    HW134292   2.114   2.640   9.646  1.4742 -0.6995  0.3203
 7553SOL    HW234293   2.028   2.767   9.656 -0.0356  0.7351  0.6099
 7554SOL     OW34294   0.224   2.970  17.308 -0.2032  0.0328  0.6013
 7554SOL    HW134295   0.181   2.941  17.227  0.5610  1.9187 -0.4824
 7554SOL    HW234296   0.300   3.024  17.284  0.4215 -1.1348 -0.0397
 7555SOL     OW34297   0.406   0.847   0.138 -0.1576 -0.0151 -0.0860
 7555SOL    HW134298   0.441   0.924   0.093  0.9850  0.2312  1.2292
 7555SOL    HW234299   0.465   0.846   0.213  0.9930  1.4347 -0.9697
 7556SOL     OW34300   0.738   2.903   3.888 -0.3082 -0.2277  0.1020
 7556SOL    HW134301   0.763   2.821   3.846  1.5938  0.2894  0.2601
 7556SOL    HW234302   0.725   2.954   3.808 -0.2785 -0.3693  0.0076
 7557SOL     OW34303   2.954   2.411  12.008 -0.3373 -0.3737 -0.0014
 7557SOL    HW134304   3.006   2.490  12.021 -0.9506 -0.3501  2.3180
 7557SOL    HW234305   3.004   2.349  11.954 -0.1086 -0.2726  0.0952
 7558SOL     OW34306   2.001   3.828   4.190 -0.0758 -0.1599 -0.4283
 7558SOL    HW134307   2.082   3.789   4.224  1.0393  1.4753 -1.1813
 7558SOL    HW234308   2.030   3.909   4.147  2.5746  0.0317  1.7172
 7559SOL     OW34309   3.933   0.175   0.215  1.0509 -0.2542 -0.0756
 7559SOL    HW134310   3.954   0.107   0.152 -0.0706 -0.6607 -0.0235
 7559SOL    HW234311   3.943   0.131   0.299 -1.3947  4.9808  3.0011
 7560SOL     OW34312   2.590   2.680   5.749 -0.3327 -0.2998 -0.2062
 7560SOL    HW134313   2.670   2.654   5.795 -0.7934 -2.5336 -0.6568
 7560SOL    HW234314   2.562   2.596   5.712 -1.1913 -0.9244  1.8325
 7561SOL     OW34315   0.350   2.754   4.171  0.1878  0.1080  0.0488
 7561SOL    HW134316   0.307   2.805   4.240  0.1239 -1.1665  0.9491
 7561SOL    HW234317   0.314   2.670   4.200  0.4405 -0.4552 -1.3146
 7562SOL     OW34318   3.145   3.447   8.618 -0.1692 -0.2842 -0.0115
 7562SOL    HW134319   3.075   3.493   8.571  0.4843  1.1151  0.3853
 7562SOL    HW234320   3.204   3.411   8.552 -0.0128  1.7760 -1.0121
 7563SOL     OW34321   3.436   4.096   1.443  0.4121  0.2893 -0.2757
 7563SOL    HW134322   3.484   4.014   1.438  2.5207  1.3379  2.2105
 7563SOL    HW234323   3.372   4.072   1.377  1.6173 -0.7070 -1.0746
 7564SOL     OW34324   2.404   3.934  10.696  0.7445  0.2759 -0.2120
 7564SOL    HW134325   2.420   3.991  10.621  0.9634 -1.5085 -1.5096
 7564SOL    HW234326   2.443   3.982  10.769  1.9457 -0.7623 -0.1880
 7565SOL     OW34327   1.282   1.834   5.633 -0.5561  0.8607  0.5070
 7565SOL    HW134328   1.318   1.834   5.722 -1.6072 -1.4678  0.9437
 7565SOL    HW234329   1.354   1.797   5.583 -2.6427 -0.4400 -1.5723
 7566SOL     OW34330   0.627   2.218   7.460 -0.4883 -0.5752  0.0906
 7566SOL    HW134331   0.637   2.124   7.447  2.8521 -0.5415  2.4088
 7566SOL    HW234332   0.578   2.226   7.542 -0.0746 -1.8306  0.4624
 7567SOL     OW34333   4.265   0.159   3.100 -0.2622 -0.5332 -0.6654
 7567SOL    HW134334   4.272   0.234   3.041 -3.5529  0.7229  0.5825
 7567SOL    HW234335   4.223   0.089   3.050 -1.2990  0.1505 -0.7483
 7568SOL     OW34336   2.266   4.467   2.606  0.3203 -0.4327 -0.0718
 7568SOL    HW134337   2.223   4.550   2.587  2.5395  1.2311  2.1791
 7568SOL    HW234338   2.210   4.405   2.559  1.7082  0.1925 -2.5374
 7569SOL     OW34339   3.265   1.423   4.589  0.3746 -0.3912  0.3797
 7569SOL    HW134340   3.301   1.340   4.559  0.0308  0.4824 -2.5172
 7569SOL    HW234341   3.347   1.468   4.609  0.4916 -0.0560 -0.8057
 7570SOL     OW34342   1.434   3.099   0.732 -0.4759 -0.1580  0.0606
 7570SOL    HW134343   1.527   3.078   0.727  0.0441  2.0364  0.6655
 7570SOL    HW234344   1.417   3.097   0.826 -2.8129  1.4941 -0.3247
 7571SOL     OW34345   1.061   4.123   9.582  0.5646 -0.2104  0.6564
 7571SOL    HW134346   1.058   4.028   9.571  2.3340  0.2875 -4.0127
 7571SOL    HW234347   0.991   4.159   9.527 -0.3073 -3.6336 -0.5313
 7572SOL     OW34348   3.920   3.036   8.429 -0.0750  0.2710 -0.3011
 7572SOL    HW134349   3.826   3.045   8.443 -0.2636  0.3421 -1.5587
 7572SOL    HW234350   3.928   2.969   8.497 -0.8680  1.5142  1.0181
 7573SOL     OW34351   0.795   0.006  15.595  0.0790 -0.2144  0.1858
 7573SOL    HW134352   0.729   4.677  15.575 -0.3401 -0.1268  1.2783
 7573SOL    HW234353   0.804   4.724  15.688  0.5983  1.1712  0.4260
 7574SOL     OW34354   0.017   1.189   4.653 -0.7482  0.1046  0.0831
 7574SOL    HW134355   4.735   1.098   4.675 -1.5409  0.2891  0.1337
 7574SOL    HW234356   4.727   1.230   4.735 -0.2947  0.9015 -0.1550
 7575SOL     OW34357   1.277   1.979   2.223 -0.4351  0.1599 -0.1094
 7575SOL    HW134358   1.200   1.996   2.170  0.1693 -0.4273 -1.1817
 7575SOL    HW234359   1.322   2.064   2.224 -0.7611  0.3288 -0.0122
 7576SOL     OW34360   4.251   3.591  14.678  0.3569 -0.2987  0.0801
 7576SOL    HW134361   4.177   3.540  14.710 -0.1982  0.5891  0.2083
 7576SOL    HW234362   4.318   3.528  14.652  1.3246  0.9679 -0.4624
 7577SOL     OW34363   3.520   2.756   7.117  0.2188 -0.4945  0.1750
 7577SOL    HW134364   3.517   2.745   7.212 -1.4908  1.3307  0.3369
 7577SOL    HW234365   3.609   2.791   7.105  0.1761 -1.1608 -2.1504
 7578SOL     OW34366   1.572   1.638  10.266 -0.1638  0.5582  0.0221
 7578SOL    HW134367   1.562   1.671  10.355  3.6810 -1.7901  1.3251
 7578SOL    HW234368   1.559   1.544  10.274 -0.0623  0.3793 -1.7771
 7579SOL     OW34369   1.110   3.624   8.714 -0.0054  0.0079 -0.1098
 7579SOL    HW134370   1.069   3.706   8.745  0.5731  0.5422 -0.7722
 7579SOL    HW234371   1.078   3.631   8.624  1.3552  1.1261 -0.4991
 7580SOL     OW34372   3.637   4.720   3.603  0.6856 -0.0888 -0.4143
 7580SOL    HW134373   3.633   0.017   3.692  1.8739  1.4301 -0.9598
 7580SOL    HW234374   3.602   4.632   3.617  1.3466  0.0571  1.9899
 7581SOL     OW34375   0.229   3.513   3.712 -0.3690 -0.6557 -0.1675
 7581SOL    HW134376   0.275   3.595   3.695 -0.4493 -0.4545  0.5865
 7581SOL    HW234377   0.186   3.534   3.795  1.0182  2.2944 -0.2134
 7582SOL     OW34378   1.903   1.410   8.334 -0.6577 -0.0750  0.2310
 7582SOL    HW134379   1.838   1.427   8.402  1.5293  0.6969  2.1397
 7582SOL    HW234380   1.851   1.372   8.263 -1.3146  2.6789 -0.7620
 7583SOL     OW34381   2.854   1.205  16.512 -0.0453 -0.0514  0.1840
 7583SOL    HW134382   2.816   1.155  16.440  0.2126 -0.1447  0.1108
 7583SOL    HW234383   2.937   1.216  16.465  0.9772 -0.2828  1.9175
 7584SOL     OW34384   0.671   3.596   9.343  0.3807 -0.0694 -0.2907
 7584SOL    HW134385   0.586   3.600   9.389  0.9318  2.0349  0.5275
 7584SOL    HW234386   0.654   3.529   9.276 -1.1791  0.7050 -0.6804
 7585SOL     OW34387   1.298   2.092   8.105  1.0635  0.5232 -0.3685
 7585SOL    HW134388   1.251   2.162   8.059 -0.2057 -0.7886 -1.0768
 7585SOL    HW234389   1.363   2.063   8.041  1.5708  0.8850 -0.0104
 7586SOL     OW34390   3.633   3.160  12.766  0.8996  0.2013 -0.0605
 7586SOL    HW134391   3.585   3.115  12.696  0.5130  0.7091 -0.1178
 7586SOL    HW234392   3.612   3.249  12.738 -1.4815  0.0054  1.0717
 7587SOL     OW34393   0.858   1.710   2.690 -0.2089 -0.8173  0.3767
 7587SOL    HW134394   0.787   1.653   2.658 -2.4065  1.2559  1.5491
 7587SOL    HW234395   0.930   1.677   2.637 -1.1679 -2.1009 -0.1425
 7588SOL     OW34396   2.399   3.174   6.591 -0.1116  0.7030  0.0458
 7588SOL    HW134397   2.385   3.240   6.524  2.1042  1.5474  0.4287
 7588SOL    HW234398   2.321   3.191   6.644 -1.2566  0.3836 -1.5346
 7589SOL     OW34399   2.045   2.510   5.975  0.5759  0.3166 -0.6491
 7589SOL    HW134400   1.996   2.466   5.905 -0.1016  1.8859 -1.1530
 7589SOL    HW234401   2.057   2.442   6.040 -2.3370  0.5088  0.0533
 7590SOL     OW34402   2.760   3.414   5.274  0.2046  0.1977  0.0116
 7590SOL    HW134403   2.728   3.440   5.361  0.7066 -0.4427  0.3917
 7590SOL    HW234404   2.757   3.320   5.291  0.2458  0.4442  1.4430
 7591SOL     OW34405   3.021   0.962   5.827  0.3980  0.1910  0.3907
 7591SOL    HW134406   2.965   0.941   5.753  0.8623 -0.1651  0.1406
 7591SOL    HW234407   3.014   1.057   5.817  0.6013  0.4059  2.3362
 7592SOL     OW34408   3.930   2.672   2.056  0.1291  0.3217 -0.3832
 7592SOL    HW134409   3.845   2.633   2.036  0.2172  0.1440 -0.4162
 7592SOL    HW234410   3.942   2.657   2.149 -0.2897 -0.0902 -0.3982
 7593SOL     OW34411   1.984   1.588   9.519  0.7988  0.2220 -0.6105
 7593SOL    HW134412   1.938   1.583   9.603 -0.5876  1.7369 -1.2837
 7593SOL    HW234413   1.916   1.586   9.452  0.3064 -0.6736 -0.0815
 7594SOL     OW34414   2.016   0.887  12.061  0.1146  0.0425 -0.0839
 7594SOL    HW134415   2.020   0.919  12.151  1.4571 -0.5833  0.0788
 7594SOL    HW234416   1.971   0.805  12.080  2.1482 -0.4067  2.7781
 7595SOL     OW34417   0.385   4.586   8.931  0.0239 -0.3799 -0.1768
 7595SOL    HW134418   0.308   4.593   8.987 -0.8828 -1.1132 -1.3151
 7595SOL    HW234419   0.411   4.678   8.921  0.3684 -0.2449  2.0077
 7596SOL     OW34420   1.448   4.667   2.697  0.1761 -0.2889  0.9232
 7596SOL    HW134421   1.527   4.683   2.748 -0.3909  0.8633  1.4383
 7596SOL    HW234422   1.435   0.017   2.662  2.8658 -0.7803 -1.2683
 7597SOL     OW34423   0.827   3.456   2.318  0.0409 -0.6756  0.4746
 7597SOL    HW134424   0.761   3.427   2.255  0.1534 -1.6683  0.8162
 7597SOL    HW234425   0.869   3.370   2.323 -2.3530 -1.8556  0.0410
 7598SOL     OW34426   4.140   0.870   4.870  0.1132 -0.3464  0.4421
 7598SOL    HW134427   4.141   0.961   4.898 -0.2173 -0.3986  0.6260
 7598SOL    HW234428   4.063   0.839   4.917  1.1709 -0.4859  2.0827
 7599SOL     OW34429   4.668   2.064  15.073  0.3394 -0.1080  0.7808
 7599SOL    HW134430   4.678   2.091  15.164  0.9701  0.1992  0.6235
 7599SOL    HW234431   4.593   2.117  15.049  1.5030  1.1031 -0.1966
 7600SOL     OW34432   3.445   3.760  17.406 -0.4762 -0.0778  0.2770
 7600SOL    HW134433   3.410   3.786  17.321  1.8536 -1.2753 -1.0257
 7600SOL    HW234434   3.412   3.671  17.416 -1.7207  0.3223 -0.2217
 7601SOL     OW34435   3.172   3.810   0.870 -0.5314  0.1611  0.2847
 7601SOL    HW134436   3.212   3.885   0.913 -1.4744 -0.4151  2.2077
 7601SOL    HW234437   3.156   3.762   0.952 -0.5454  0.2509  0.3348
 7602SOL     OW34438   4.167   2.918   6.766  0.1056 -0.3854 -0.2628
 7602SOL    HW134439   4.218   2.920   6.846  0.0809  0.7911 -0.2828
 7602SOL    HW234440   4.135   3.006   6.749  0.3213 -0.4042 -0.7639
 7603SOL     OW34441   0.445   2.985   3.449 -0.1126 -0.0756  0.0572
 7603SOL    HW134442   0.376   2.993   3.383 -0.5947 -0.8143  0.4661
 7603SOL    HW234443   0.485   3.067   3.420 -1.1865  0.0490 -1.0804
 7604SOL     OW34444   0.923   1.050  17.642 -0.0500 -0.3374 -0.3325
 7604SOL    HW134445   0.863   1.124  17.651  0.7746  0.4333 -1.1816
 7604SOL    HW234446   0.961   1.052  17.555  1.1592  2.2885  0.2619
 7605SOL     OW34447   0.321   0.349  13.958 -0.8455 -0.1179 -0.1525
 7605SOL    HW134448   0.370   0.344  13.875  1.6046 -0.1673  1.2869
 7605SOL    HW234449   0.248   0.400  13.923 -0.9598 -0.2133 -0.0489
 7606SOL     OW34450   1.665   4.007  12.111  0.4764 -0.2144  0.4733
 7606SOL    HW134451   1.631   3.999  12.022 -1.4902  0.9259  1.1193
 7606SOL    HW234452   1.600   4.063  12.155 -0.4016 -0.0740 -1.0222
 7607SOL     OW34453   2.703   0.661   7.202 -0.0967 -1.0480 -0.3466
 7607SOL    HW134454   2.764   0.724   7.242 -0.1259 -2.5482  2.0682
 7607SOL    HW234455   2.740   0.647   7.114  0.4143  0.0736 -0.3053
 7608SOL     OW34456   3.141   1.636   3.915 -0.4950 -0.2256 -0.1353
 7608SOL    HW134457   3.212   1.573   3.902 -1.3943 -1.6291  1.5634
 7608SOL    HW234458   3.125   1.673   3.829  0.5014  0.2979 -0.0911
 7609SOL     OW34459   4.323   3.351   0.614 -0.0380  0.0757 -0.6907
 7609SOL    HW134460   4.406   3.394   0.634 -1.0012  1.1890  0.9382
 7609SOL    HW234461   4.273   3.412   0.667 -0.7346 -0.9111 -0.2025
 7610SOL     OW34462   2.769   0.857   7.949  0.1269 -0.1293  0.3192
 7610SOL    HW134463   2.834   0.852   7.879  0.2005  1.1112  0.3085
 7610SOL    HW234464   2.731   0.769   7.946 -2.8152  1.1266  0.6639
 7611SOL     OW34465   1.782   0.018   8.057  0.2126 -0.1976 -0.3202
 7611SOL    HW134466   1.851   0.083   8.068  1.5564 -1.8290  1.0210
 7611SOL    HW234467   1.836   4.693   8.009  0.4342  0.0405 -0.3802
 7612SOL     OW34468   0.224   1.579   6.634 -0.0734 -0.6028 -0.2000
 7612SOL    HW134469   0.302   1.528   6.655 -1.1297 -1.7036  1.0327
 7612SOL    HW234470   0.191   1.600   6.721  2.3371  1.7159  0.1144
 7613SOL     OW34471   2.957   4.521   7.405  0.2011 -0.0092 -0.3803
 7613SOL    HW134472   3.048   4.512   7.377  0.1422  1.6926 -1.1486
 7613SOL    HW234473   2.966   4.581   7.479  0.3540  0.4144 -0.7436
 7614SOL     OW34474   4.521   3.793   9.245  0.0542  0.8069 -0.4809
 7614SOL    HW134475   4.608   3.818   9.214  0.3869  1.1234  0.7219
 7614SOL    HW234476   4.514   3.832   9.332  2.1450  0.1636 -0.0205
 7615SOL     OW34477   3.216   4.196   7.024 -0.0718  0.1949  0.0336
 7615SOL    HW134478   3.210   4.197   6.929 -0.5797  0.2144  0.0666
 7615SOL    HW234479   3.161   4.118   7.037 -2.3185  1.9902  1.3126
 7616SOL     OW34480   2.054   3.046   5.698 -0.6358 -0.6100 -0.5454
 7616SOL    HW134481   2.145   3.059   5.671 -0.1934  0.2261  1.3237
 7616SOL    HW234482   2.042   3.108   5.770 -1.4430  1.0713 -2.1250
 7617SOL     OW34483   2.214   2.141   5.377 -0.0078 -0.3069 -0.1416
 7617SOL    HW134484   2.127   2.167   5.346  0.4690  0.1929 -1.0429
 7617SOL    HW234485   2.189   2.104   5.462 -1.7810 -0.5623 -0.7622
 7618SOL     OW34486   1.637   0.717  16.931 -0.3822 -0.1273 -0.4094
 7618SOL    HW134487   1.625   0.810  16.910 -1.2654 -0.2733 -0.5285
 7618SOL    HW234488   1.583   0.716  17.010 -0.5723  0.1879 -0.5371
 7619SOL     OW34489   1.510   2.295   3.334 -0.0708 -0.5896  0.9027
 7619SOL    HW134490   1.509   2.201   3.316  1.5954 -0.7513  1.6940
 7619SOL    HW234491   1.420   2.317   3.358 -0.0053 -0.0037  0.6055
 7620SOL     OW34492   2.427   0.737   9.943 -0.4545 -0.2158  0.0222
 7620SOL    HW134493   2.452   0.798   9.873 -1.7927  0.7324  0.3690
 7620SOL    HW234494   2.367   0.683   9.891 -0.3268 -1.7205  1.4648
 7621SOL     OW34495   2.114   4.715  11.526 -0.3622  0.1649 -0.1493
 7621SOL    HW134496   2.195   4.664  11.525 -1.4220 -1.4962 -0.6512
 7621SOL    HW234497   2.147   0.064  11.547 -0.1889 -0.1616  0.9151
 7622SOL     OW34498   4.715   4.308   4.551  0.5488  1.0977 -0.2415
 7622SOL    HW134499   4.716   4.221   4.590  0.2815  1.1549 -0.1078
 7622SOL    HW234500   4.626   4.331   4.576 -0.0669 -1.5562 -0.0041
 7623SOL     OW34501   3.713   4.305   5.104 -0.5783  0.0157  0.2075
 7623SOL    HW134502   3.741   4.355   5.028  0.0030  0.4466  0.7075
 7623SOL    HW234503   3.771   4.336   5.174  0.3168 -0.2343 -0.4316
 7624SOL     OW34504   2.477   0.377   9.186 -0.4590  0.2407 -0.2879
 7624SOL    HW134505   2.412   0.339   9.246 -0.2109  0.9329  0.4132
 7624SOL    HW234506   2.510   0.443   9.247  2.0355 -0.0335 -1.3644
 7625SOL     OW34507   1.383   1.614   3.955 -0.0893  0.0304  0.1225
 7625SOL    HW134508   1.418   1.526   3.940 -2.0032 -0.3132 -2.3192
 7625SOL    HW234509   1.371   1.650   3.868  0.5901  4.1161  1.7358
 7626SOL     OW34510   0.038   2.040   8.826 -0.1967 -0.1075 -0.0155
 7626SOL    HW134511   0.089   1.997   8.894  0.5594  1.5167  0.4410
 7626SOL    HW234512   0.016   1.964   8.772 -2.1103 -0.1184  0.7860
 7627SOL     OW34513   0.460   0.358   9.100 -0.0848 -0.3154  0.4422
 7627SOL    HW134514   0.366   0.372   9.093 -0.0738 -0.6348 -0.4349
 7627SOL    HW234515   0.468   0.361   9.195  0.6645 -0.2940  0.3813
 7628SOL     OW34516   2.438   0.710  13.080 -0.3140  0.5689  0.0218
 7628SOL    HW134517   2.462   0.765  13.006  2.7729  0.2980  0.8149
 7628SOL    HW234518   2.357   0.669  13.049  1.6280 -2.2318 -1.2926
 7629SOL     OW34519   0.638   4.032   5.008  0.9691 -0.0548  0.2299
 7629SOL    HW134520   0.716   4.010   4.958  0.6827 -0.2870 -0.1106
 7629SOL    HW234521   0.645   3.985   5.091 -0.1877  0.1784  0.4582
 7630SOL     OW34522   0.829   0.922  12.740 -0.1606 -0.4129  0.4337
 7630SOL    HW134523   0.894   0.947  12.805 -0.7714  3.4349 -0.4257
 7630SOL    HW234524   0.875   0.951  12.661  0.0864  1.5976  1.3359
 7631SOL     OW34525   3.103   2.780   3.791  0.6874 -0.2774 -0.1117
 7631SOL    HW134526   3.097   2.720   3.717 -2.2119  0.8669 -0.7889
 7631SOL    HW234527   3.129   2.862   3.749 -0.2772  1.2895  2.3472
 7632SOL     OW34528   0.586   3.154   5.595 -0.4349  0.1049 -0.1059
 7632SOL    HW134529   0.655   3.211   5.562 -0.1558  0.0282  0.3543
 7632SOL    HW234530   0.517   3.177   5.532 -0.9702  1.0066  0.8206
 7633SOL     OW34531   4.120   2.596  13.505  0.0487  0.3773  0.2003
 7633SOL    HW134532   4.097   2.685  13.481  0.8438  0.6178  0.3259
 7633SOL    HW234533   4.103   2.593  13.599  1.3688 -0.7818  0.4100
 7634SOL     OW34534   1.534   3.300   6.766  0.3582 -0.0101 -0.6030
 7634SOL    HW134535   1.604   3.284   6.829 -0.6863 -1.2130  0.2555
 7634SOL    HW234536   1.535   3.216   6.719  0.8869 -1.4629  2.0120
 7635SOL     OW34537   2.026   0.323   8.817  0.3450  0.6409 -0.5784
 7635SOL    HW134538   2.025   0.261   8.743  2.1152  0.0982 -0.1522
 7635SOL    HW234539   2.117   0.321   8.846 -0.5995 -0.8000  2.3253
 7636SOL     OW34540   4.614   0.793   3.543  0.3242  0.4060  0.3249
 7636SOL    HW134541   4.687   0.808   3.602  1.1129 -0.1264 -0.5153
 7636SOL    HW234542   4.599   0.883   3.515  0.3101  0.6743  1.2139
 7637SOL     OW34543   1.602   1.228   0.603  0.6745 -0.0731 -0.7196
 7637SOL    HW134544   1.572   1.147   0.563 -0.0034 -0.3457  0.3700
 7637SOL    HW234545   1.634   1.275   0.525  0.4457 -0.0220 -0.7813
 7638SOL     OW34546   2.644   2.378   9.703  0.7585 -0.3262  0.5094
 7638SOL    HW134547   2.576   2.357   9.639  0.5929 -1.7436  1.1663
 7638SOL    HW234548   2.631   2.309   9.768  1.0794  0.1145  1.0503
 7639SOL     OW34549   2.870   0.496  14.425  0.0293  0.3940 -0.4846
 7639SOL    HW134550   2.929   0.531  14.358 -0.1451  0.8326 -0.4071
 7639SOL    HW234551   2.887   0.556  14.498  0.6154 -0.2475 -0.0883
 7640SOL     OW34552   1.443   3.636  10.058 -0.1857  0.4472  0.3971
 7640SOL    HW134553   1.410   3.724  10.041 -0.6740 -0.1137 -1.5347
 7640SOL    HW234554   1.535   3.644  10.034 -0.5370  0.4490 -0.9257
 7641SOL     OW34555   1.210   0.590   3.400  0.1273 -0.6331 -0.2570
 7641SOL    HW134556   1.259   0.581   3.318  0.8393  0.9307 -0.0035
 7641SOL    HW234557   1.171   0.502   3.401 -2.0065  0.3101  0.3838
 7642SOL     OW34558   1.931   2.705   8.623  0.3878  0.1463  0.0553
 7642SOL    HW134559   1.943   2.800   8.617  0.4547  0.0371 -1.3419
 7642SOL    HW234560   2.013   2.680   8.667  0.4621  0.9997  0.4225
 7643SOL     OW34561   3.677   3.519  17.587 -0.3285  0.0624  0.7029
 7643SOL    HW134562   3.642   3.437  17.552  1.0860  0.3103 -1.3191
 7643SOL    HW234563   3.697   3.501  17.678  1.7780 -2.3208 -0.2241
 7644SOL     OW34564   0.965   2.352   3.234  0.8417  0.9824 -0.0187
 7644SOL    HW134565   0.900   2.420   3.212  1.4736  1.1190 -1.5184
 7644SOL    HW234566   0.991   2.326   3.145  2.0262 -0.1827  0.6834
 7645SOL     OW34567   1.612   2.055   6.418 -0.5662  0.1796 -0.3279
 7645SOL    HW134568   1.595   2.044   6.512  0.1309 -1.9685 -0.4479
 7645SOL    HW234569   1.641   1.966   6.399  0.4543  0.2947  0.6547
 7646SOL     OW34570   0.776   3.442   4.085 -0.0007 -0.3680 -0.1067
 7646SOL    HW134571   0.696   3.450   4.138  0.3915 -2.6356  0.8432
 7646SOL    HW234572   0.794   3.349   4.094 -2.8129 -0.9818 -0.6472
 7647SOL     OW34573   3.342   0.231   6.246  0.1019  0.5394 -0.2459
 7647SOL    HW134574   3.420   0.285   6.235  1.1500 -1.0492 -0.5658
 7647SOL    HW234575   3.287   0.275   6.181 -0.9001  0.6067  0.6305
 7648SOL     OW34576   3.144   1.744   7.849  0.5410 -0.1620 -0.0460
 7648SOL    HW134577   3.216   1.748   7.786  0.6922  3.0817  0.3340
 7648SOL    HW234578   3.085   1.807   7.808  0.7888  0.8619  1.1439
 7649SOL     OW34579   1.409   0.233   4.849  0.3670 -0.7362 -0.1484
 7649SOL    HW134580   1.395   0.154   4.797 -0.2735 -2.8769  3.2809
 7649SOL    HW234581   1.336   0.279   4.809  0.4541 -1.7618 -1.4879
 7650SOL     OW34582   0.471   2.149  10.615  0.2370 -0.1362  0.9713
 7650SOL    HW134583   0.550   2.133  10.667 -0.1937 -1.9333  1.0830
 7650SOL    HW234584   0.416   2.201  10.674 -1.2343 -2.4323  1.5985
 7651SOL     OW34585   1.936   2.832   5.937  0.1697  0.0898  0.5250
 7651SOL    HW134586   2.015   2.828   5.883 -0.0331 -1.5063  0.3325
 7651SOL    HW234587   1.974   2.835   6.024  0.5700  2.4538  0.2607
 7652SOL     OW34588   2.862   3.960  12.639 -0.0033  0.8577  0.3357
 7652SOL    HW134589   2.933   3.926  12.693 -1.1793 -2.6610 -0.3082
 7652SOL    HW234590   2.897   4.046  12.619  0.2305  0.4114 -1.1913
 7653SOL     OW34591   2.886   3.491   1.133 -0.1538  0.0888 -0.3474
 7653SOL    HW134592   2.831   3.442   1.072 -0.1287 -1.0884  0.5659
 7653SOL    HW234593   2.968   3.445   1.113  0.1059  0.3292  0.1650
 7654SOL     OW34594   3.667   1.585   6.390 -0.7120 -0.1831  0.4140
 7654SOL    HW134595   3.637   1.640   6.462  1.8841  1.6524  0.0884
 7654SOL    HW234596   3.734   1.647   6.362 -0.1063 -2.8025 -3.9689
 7655SOL     OW34597   0.017   3.112   5.040 -1.2039  0.5205 -0.0234
 7655SOL    HW134598   4.662   3.090   5.038 -0.9570 -0.6236  1.5260
 7655SOL    HW234599   0.053   3.063   4.966 -2.7738 -0.9742  0.2165
 7656SOL     OW34600   1.281   4.529   3.474  0.0792  0.1742 -0.1224
 7656SOL    HW134601   1.324   4.497   3.553  0.5960  1.1725  0.0030
 7656SOL    HW234602   1.329   4.478   3.409 -0.6735 -0.6248 -0.0539
 7657SOL     OW34603   4.569   2.506  10.149 -0.1858 -0.3506  0.0531
 7657SOL    HW134604   4.592   2.414  10.138  0.3740  0.1410 -2.8740
 7657SOL    HW234605   4.474   2.506  10.131 -0.1742 -0.3319 -0.0083
 7658SOL     OW34606   3.183   2.782   8.197  0.4393 -0.3938 -0.1972
 7658SOL    HW134607   3.145   2.769   8.284 -1.3406  1.8375 -0.6417
 7658SOL    HW234608   3.101   2.779   8.146 -0.0636 -0.4056  0.6090
 7659SOL     OW34609   1.825   2.749   1.420  0.0169 -0.0506 -0.4033
 7659SOL    HW134610   1.880   2.784   1.350 -0.2412  0.1234 -0.5167
 7659SOL    HW234611   1.841   2.820   1.482  1.4361 -1.1771  0.5157
 7660SOL     OW34612   0.413   1.285   9.900 -0.0668 -0.5555 -0.2338
 7660SOL    HW134613   0.378   1.283   9.989  1.8928  3.2292  0.6074
 7660SOL    HW234614   0.504   1.290   9.928 -0.5816 -1.7969  1.6614
 7661SOL     OW34615   3.451   0.331  15.665 -0.3441  0.1872  0.1160
 7661SOL    HW134616   3.435   0.423  15.642 -0.1198  0.2026  0.0233
 7661SOL    HW234617   3.535   0.315  15.621 -1.3524 -0.6381 -1.4891
 7662SOL     OW34618   3.917   4.408   1.178  0.0726 -0.5738  0.9755
 7662SOL    HW134619   3.858   4.345   1.219 -0.4469 -3.4743 -4.2518
 7662SOL    HW234620   3.995   4.376   1.222  0.7645  0.6350  0.6540
 7663SOL     OW34621   1.167   4.699   2.787 -0.1103  0.1863 -0.0867
 7663SOL    HW134622   1.257   4.680   2.762 -0.0258 -1.2970  1.3701
 7663SOL    HW234623   1.177   0.046   2.828  0.8490  0.1922 -0.3310
 7664SOL     OW34624   2.962   0.171  13.562 -0.2107  0.1818  0.0535
 7664SOL    HW134625   2.970   0.078  13.542 -1.9707  0.1304 -0.4180
 7664SOL    HW234626   3.043   0.207  13.528 -0.2876 -1.6698 -2.1295
 7665SOL     OW34627   4.180   4.724  10.044  0.8118  0.3240 -0.3219
 7665SOL    HW134628   4.165   4.660  10.114  1.2687  3.0404  2.2607
 7665SOL    HW234629   4.268   0.014  10.069  0.6334 -0.9868  1.7537
 7666SOL     OW34630   2.099   0.895  11.513 -0.1380  0.2972 -0.4549
 7666SOL    HW134631   2.039   0.832  11.554 -0.2014 -0.5584 -1.8669
 7666SOL    HW234632   2.148   0.842  11.451  0.5917 -0.3681  0.6989
 7667SOL     OW34633   4.487   3.429  17.240 -0.8750  0.0096  0.0561
 7667SOL    HW134634   4.562   3.404  17.185 -1.5054 -0.4763 -0.5785
 7667SOL    HW234635   4.459   3.341  17.267 -2.9490  1.2990  2.0622
 7668SOL     OW34636   4.094   1.748   5.218 -0.1067 -0.2382  0.1572
 7668SOL    HW134637   4.012   1.774   5.175  0.7528  1.3721 -0.5009
 7668SOL    HW234638   4.061   1.671   5.265  0.0783 -1.4470 -1.6922
 7669SOL     OW34639   3.790   4.311  17.718 -0.2303 -0.2231 -0.1593
 7669SOL    HW134640   3.715   4.294   0.025  1.3814 -1.3105  1.6647
 7669SOL    HW234641   3.856   4.318   0.038  0.7016 -0.5876 -1.0160
 7670SOL     OW34642   0.271   0.594   8.560 -0.2835 -0.7240  0.3383
 7670SOL    HW134643   0.235   0.662   8.504 -1.1705 -2.0260 -0.6922
 7670SOL    HW234644   0.337   0.566   8.496  1.0985 -0.7302  1.7672
 7671SOL     OW34645   1.741   1.911  16.265  0.3054  0.2900 -0.3070
 7671SOL    HW134646   1.729   1.836  16.323 -0.7947 -0.9440 -2.1572
 7671SOL    HW234647   1.735   1.979  16.332 -0.8076  0.8728 -0.9969
 7672SOL     OW34648   0.814   2.164  15.608  0.0111 -0.8971 -0.0945
 7672SOL    HW134649   0.809   2.251  15.648 -2.7563 -1.3990  0.6469
 7672SOL    HW234650   0.766   2.116  15.676  1.3711 -1.3690  0.5342
 7673SOL     OW34651   2.698   0.501  12.453 -0.1421  0.1647 -0.0437
 7673SOL    HW134652   2.750   0.529  12.379  0.7606  1.0822  0.9436
 7673SOL    HW234653   2.769   0.471  12.510  0.8792 -1.2996 -2.0666
 7674SOL     OW34654   2.090   3.088   1.978  0.6652  0.7595 -0.1517
 7674SOL    HW134655   2.090   3.181   2.000  0.3087  0.8916 -0.7024
 7674SOL    HW234656   2.012   3.086   1.923  0.6812  0.0590 -0.1519
 7675SOL     OW34657   0.409   2.393  14.941 -0.2427  0.3445  0.3354
 7675SOL    HW134658   0.423   2.298  14.942 -1.7070  0.1420  0.9774
 7675SOL    HW234659   0.348   2.398  14.867 -1.1888 -1.0746  1.0113
 7676SOL     OW34660   0.543   3.054   0.787  0.6360 -0.0286  0.2284
 7676SOL    HW134661   0.631   3.062   0.824  0.9188  1.2742 -0.7080
 7676SOL    HW234662   0.564   3.045   0.694  0.2972  0.5787  0.0912
 7677SOL     OW34663   3.668   2.883   5.389  0.2398  0.6917  0.5451
 7677SOL    HW134664   3.602   2.952   5.398 -1.3556 -0.8955  0.8975
 7677SOL    HW234665   3.612   2.807   5.380  0.2739  0.6216  0.9099
 7678SOL     OW34666   1.327   3.461   6.273 -0.6245 -0.2333  0.5297
 7678SOL    HW134667   1.324   3.546   6.317 -0.0937  0.4778 -0.8136
 7678SOL    HW234668   1.313   3.490   6.183  2.7052 -0.8760 -0.1838
 7679SOL     OW34669   2.405   1.743   0.342  0.1121  0.1293 -0.2951
 7679SOL    HW134670   2.436   1.667   0.293 -2.5224 -0.9489 -0.2434
 7679SOL    HW234671   2.315   1.721   0.365 -0.3165  0.0661 -2.0446
 7680SOL     OW34672   4.721   1.354   6.223 -0.0329 -0.0780  0.1180
 7680SOL    HW134673   4.681   1.405   6.294  0.0657  0.0050  0.1149
 7680SOL    HW234674   0.023   1.285   6.276 -0.3787 -1.6501 -1.6653
 7681SOL     OW34675   1.012   4.206   5.289  0.1275 -0.0439  0.1157
 7681SOL    HW134676   1.016   4.180   5.197 -3.8960 -0.5660  0.1037
 7681SOL    HW234677   1.022   4.300   5.274  2.0888 -0.6846 -2.6709
 7682SOL     OW34678   1.344   4.220   6.747 -0.3760  0.4088 -0.0646
 7682SOL    HW134679   1.357   4.168   6.668  1.5951 -0.1212  0.6036
 7682SOL    HW234680   1.369   4.310   6.727  0.2971 -0.0458 -1.2022
 7683SOL     OW34681   4.711   2.229   8.288 -0.4828 -0.2085 -0.2600
 7683SOL    HW134682   0.020   2.163   8.237  1.0392  1.2899 -0.8230
 7683SOL    HW234683   4.670   2.277   8.216  1.9054  1.9899 -0.1743
 7684SOL     OW34684   1.130   2.335   4.574 -0.8041  0.6829 -0.4374
 7684SOL    HW134685   1.154   2.371   4.489 -1.3155  3.3101  0.5277
 7684SOL    HW234686   1.089   2.252   4.547 -1.5326  0.7850  0.3316
 7685SOL     OW34687   4.072   1.808   4.651  0.2072 -0.7662  0.1033
 7685SOL    HW134688   4.080   1.836   4.560 -0.6334  1.5710  0.7273
 7685SOL    HW234689   4.046   1.885   4.702 -0.6678 -0.1430 -1.3004
 7686SOL     OW34690   3.916   1.870   2.259  0.2354 -0.5272 -0.0523
 7686SOL    HW134691   3.961   1.785   2.266  0.4072 -0.2885  1.7632
 7686SOL    HW234692   3.862   1.851   2.182  2.5345 -2.2810 -1.2693
 7687SOL     OW34693   4.185   2.198   5.269  0.2166  0.2378 -0.1821
 7687SOL    HW134694   4.101   2.160   5.297  0.9966 -1.4648 -0.1552
 7687SOL    HW234695   4.151   2.249   5.195  0.5074  3.5566  1.9511
 7688SOL     OW34696   3.672   2.931   2.537 -0.5457 -0.1651  0.8457
 7688SOL    HW134697   3.671   3.008   2.480 -1.9614 -1.4654 -0.8608
 7688SOL    HW234698   3.762   2.934   2.569 -0.4762 -0.6079  0.6879
 7689SOL     OW34699   2.013   3.752   7.035 -0.6571  0.2023  0.4927
 7689SOL    HW134700   2.012   3.683   7.101  0.8571 -0.0988  0.2052
 7689SOL    HW234701   1.921   3.774   7.021 -0.6072 -1.8608 -2.9704
 7690SOL     OW34702   3.506   1.059   6.756 -0.9141 -0.1873 -0.2579
 7690SOL    HW134703   3.576   1.052   6.690 -0.1402 -2.2840  0.7993
 7690SOL    HW234704   3.552   1.012   6.825 -0.1521  2.0761  0.7582
 7691SOL     OW34705   2.705   1.662   6.801 -0.2268  0.0256 -0.6712
 7691SOL    HW134706   2.789   1.650   6.756  0.1186  2.0011 -0.5443
 7691SOL    HW234707   2.720   1.609   6.879 -0.7575 -0.8580 -1.1668
 7692SOL     OW34708   3.030   0.755   3.315  0.2134 -0.2086 -0.0947
 7692SOL    HW134709   2.946   0.711   3.331 -0.7401  1.0365 -1.6342
 7692SOL    HW234710   3.076   0.755   3.398  0.1798  2.3826 -0.0811
 7693SOL     OW34711   1.546   2.469  12.324  0.0878  0.0690  0.5047
 7693SOL    HW134712   1.459   2.464  12.285 -0.2560 -0.0840  1.2824
 7693SOL    HW234713   1.558   2.375  12.336 -1.6737 -0.2353 -0.0562
 7694SOL     OW34714   2.550   0.898   2.095  0.1270 -0.1179 -0.3028
 7694SOL    HW134715   2.578   0.868   2.008  2.0324  2.2571 -0.5095
 7694SOL    HW234716   2.463   0.856   2.095  0.4255 -0.7366 -0.5832
 7695SOL     OW34717   3.264   2.616   7.266  0.1394  0.1933  0.1437
 7695SOL    HW134718   3.351   2.613   7.307  0.5582  0.0709 -0.7509
 7695SOL    HW234719   3.250   2.524   7.244  3.3812  0.0448 -1.2878
 7696SOL     OW34720   0.403   1.435   2.220 -0.9561 -0.2963  0.3861
 7696SOL    HW134721   0.450   1.356   2.249 -2.2381 -1.5678 -1.0164
 7696SOL    HW234722   0.389   1.405   2.130  1.8376  0.0202 -0.1697
 7697SOL     OW34723   4.099   0.090   8.768  0.6439  0.1600 -0.6842
 7697SOL    HW134724   4.192   0.077   8.747  0.6084 -1.4354  0.1152
 7697SOL    HW234725   4.081   4.734   8.780  2.8409 -0.4688 -2.1599
 7698SOL     OW34726   3.080   4.550   7.847 -0.1710 -0.0971 -0.0602
 7698SOL    HW134727   3.016   4.487   7.880 -1.2740  0.2670 -1.4765
 7698SOL    HW234728   3.068   4.611   7.920 -1.8958 -1.2236  0.5918
 7699SOL     OW34729   4.511   0.034   7.250 -0.2054  0.2759  0.4325
 7699SOL    HW134730   4.534   0.085   7.172  0.4937  0.1966  0.5918
 7699SOL    HW234731   4.570   0.067   7.318 -3.0669 -0.6033  3.3771
 7700SOL     OW34732   2.623   0.045   4.260 -0.0672  0.3583 -0.0066
 7700SOL    HW134733   2.626   4.710   4.198  0.1168  2.0401 -1.9582
 7700SOL    HW234734   2.712   0.074   4.242  0.8081 -0.9238  2.2916
 7701SOL     OW34735   3.061   4.189   1.599 -0.4055  0.0545 -0.0957
 7701SOL    HW134736   3.116   4.258   1.560  0.6292 -0.3457  0.6525
 7701SOL    HW234737   3.072   4.122   1.531  0.6852  0.0883  0.0357
 7702SOL     OW34738   3.671   3.768   0.835  0.3440 -0.0158 -0.8093
 7702SOL    HW134739   3.717   3.835   0.886  1.6610  0.0228 -2.0309
 7702SOL    HW234740   3.642   3.824   0.762  0.8374 -1.6671 -2.2730
 7703SOL     OW34741   0.531   1.970   7.108 -0.0028  0.2568 -1.0167
 7703SOL    HW134742   0.472   1.994   7.179  2.0347  0.4689  0.6017
 7703SOL    HW234743   0.534   2.055   7.063  2.2645 -0.1167 -1.5758
 7704SOL     OW34744   3.380   0.237   3.883  0.1809 -0.3500 -0.5205
 7704SOL    HW134745   3.311   0.244   3.817  0.1733 -0.1380 -0.4917
 7704SOL    HW234746   3.334   0.223   3.966  0.2309  0.8508 -0.2829
 7705SOL     OW34747   1.890   2.987   1.231  0.4159  0.5011 -0.4209
 7705SOL    HW134748   1.954   3.052   1.258 -0.9495  0.5233  2.7402
 7705SOL    HW234749   1.883   2.991   1.135  0.5949 -0.8913 -0.4931
 7706SOL     OW34750   1.624   4.352   7.352  0.6671  0.3312  0.8942
 7706SOL    HW134751   1.696   4.323   7.296  0.7189  0.1631  1.0488
 7706SOL    HW234752   1.559   4.365   7.283  2.1698  0.6361 -0.4638
 7707SOL     OW34753   4.228   2.980   2.329 -0.3448  0.0453 -0.3397
 7707SOL    HW134754   4.306   2.927   2.342 -1.1254 -0.9122  0.3710
 7707SOL    HW234755   4.267   3.065   2.354 -0.0367 -0.1558 -0.1287
 7708SOL     OW34756   3.168   2.032   4.023  0.3152  0.3083 -0.2140
 7708SOL    HW134757   3.170   2.048   3.929  2.0318 -0.2224 -0.2673
 7708SOL    HW234758   3.075   2.009   4.030  0.4373 -0.8715 -2.6967
 7709SOL     OW34759   4.510   1.444   5.320 -0.1171  0.9959 -0.4654
 7709SOL    HW134760   4.474   1.526   5.286  0.5693  0.8710 -1.4997
 7709SOL    HW234761   4.575   1.477   5.382 -1.1023  2.5766 -0.2821
 7710SOL     OW34762   3.744   1.697   0.228 -0.1475  0.3161 -0.0923
 7710SOL    HW134763   3.656   1.686   0.264 -0.4427  1.7331 -0.3920
 7710SOL    HW234764   3.783   1.639   0.294 -0.1090  1.1420  0.6121
 7711SOL     OW34765   2.721   0.265   1.619  0.3740 -0.2665  0.2990
 7711SOL    HW134766   2.695   0.311   1.539  0.2185 -0.2953  0.3335
 7711SOL    HW234767   2.644   0.213   1.643 -0.7190  0.5059 -1.5059
 7712SOL     OW34768   2.643   2.759   2.566 -0.0829  0.2452 -1.1046
 7712SOL    HW134769   2.578   2.823   2.539  0.3026  0.4614 -1.5339
 7712SOL    HW234770   2.730   2.799   2.563  0.5335 -0.9432  1.0617
 7713SOL     OW34771   4.655   0.552   6.725  0.2315  0.1091 -0.0781
 7713SOL    HW134772   4.730   0.495   6.703 -0.1194  0.5685 -2.3946
 7713SOL    HW234773   4.655   0.612   6.651  0.2772  0.3001  0.0751
 7714SOL     OW34774   1.094   4.669  12.077  0.3568 -0.4431  0.3783
 7714SOL    HW134775   1.089   4.576  12.103 -0.4036 -0.3021  0.7413
 7714SOL    HW234776   1.105   4.703  12.166  1.3327  1.2859 -0.4149
 7715SOL     OW34777   1.775   2.361  16.646  0.2862 -0.3695 -0.0568
 7715SOL    HW134778   1.797   2.349  16.553 -0.3716  0.6092 -0.3447
 7715SOL    HW234779   1.683   2.386  16.636  0.7792  1.6792  0.4953
 7716SOL     OW34780   3.227   1.881   3.230  0.2729 -0.3972 -0.2523
 7716SOL    HW134781   3.131   1.885   3.223  0.2264  1.6578  1.4607
 7716SOL    HW234782   3.241   1.793   3.264  0.9761 -0.1436  0.1041
 7717SOL     OW34783   2.375   4.655   5.558  0.2478  0.6080 -0.0812
 7717SOL    HW134784   2.443   4.681   5.621  0.6970  0.7115 -0.6081
 7717SOL    HW234785   2.340   0.002   5.530 -0.3032  0.9842  1.7303
 7718SOL     OW34786   1.415   0.048   1.182  0.1842 -0.3949  0.6006
 7718SOL    HW134787   1.417   0.029   1.088 -2.4158 -0.3798  0.5656
 7718SOL    HW234788   1.486   0.113   1.181  0.1493 -0.3560  0.6787
 7719SOL     OW34789   0.323   3.721   5.543 -0.5587  0.3739  0.7082
 7719SOL    HW134790   0.249   3.782   5.534  1.1047  2.1009 -1.3556
 7719SOL    HW234791   0.384   3.770   5.598 -0.0773 -0.8703  1.2622
 7720SOL     OW34792   3.175   2.970  13.662  0.3009 -0.1820 -0.6209
 7720SOL    HW134793   3.254   2.938  13.705  0.5369  0.1907 -0.7779
 7720SOL    HW234794   3.107   2.919  13.706 -0.2580 -0.4969 -1.8677
 7721SOL     OW34795   1.718   3.296   5.706 -0.4181  0.1605 -0.4553
 7721SOL    HW134796   1.799   3.281   5.657  0.0096  2.5159 -0.5007
 7721SOL    HW234797   1.720   3.388   5.734  0.2519  0.0322 -0.0672
 7722SOL     OW34798   0.197   1.791   4.436  0.0938  1.0460  0.1458
 7722SOL    HW134799   0.155   1.813   4.519  0.2260  2.9457 -0.2948
 7722SOL    HW234800   0.123   1.743   4.398  1.1529  1.7308 -2.7932
 7723SOL     OW34801   0.974   4.392  16.465  0.4080  0.3395  0.1847
 7723SOL    HW134802   0.977   4.439  16.548  0.1713 -0.5723  0.7063
 7723SOL    HW234803   0.980   4.473  16.413 -0.0216 -0.1161 -0.5804
 7724SOL     OW34804   4.587   3.776   4.186 -0.0604 -0.0925  0.2270
 7724SOL    HW134805   4.576   3.865   4.152 -1.4105  0.1717  1.3560
 7724SOL    HW234806   4.583   3.797   4.280  1.1615  0.6070  0.1232
 7725SOL     OW34807   3.249   0.689  15.194 -0.0649  0.1841  0.6537
 7725SOL    HW134808   3.178   0.753  15.201  0.6497  1.0669 -0.1381
 7725SOL    HW234809   3.317   0.746  15.159 -2.3520  0.4879 -3.2538
 7726SOL     OW34810   3.849   4.440  14.863 -0.9231 -0.1954 -0.7184
 7726SOL    HW134811   3.930   4.434  14.812 -1.0790  0.4577 -1.0316
 7726SOL    HW234812   3.846   4.348  14.892 -1.4075 -0.8735 -2.9629
 7727SOL     OW34813   0.007   3.562   3.328  0.2185  0.2072  0.3939
 7727SOL    HW134814   4.733   3.510   3.407  0.1823  1.6480  1.3276
 7727SOL    HW234815   0.085   3.611   3.356  1.5437 -0.6149 -1.8679
 7728SOL     OW34816   1.369   2.825   5.672  0.0265 -0.6683  0.1304
 7728SOL    HW134817   1.359   2.757   5.606 -0.4345 -3.1150  2.7193
 7728SOL    HW234818   1.295   2.881   5.650 -0.5305 -0.6494  2.0209
 7729SOL     OW34819   1.797   2.643   8.346  0.2336  0.0205  0.1366
 7729SOL    HW134820   1.819   2.631   8.438 -1.3882  2.0245  0.7742
 7729SOL    HW234821   1.752   2.561   8.325 -1.7759  1.2888 -0.5108
 7730SOL     OW34822   3.480   3.938  17.021  0.4675  0.3291 -0.3426
 7730SOL    HW134823   3.465   3.960  16.929  0.0630 -0.6923 -0.5161
 7730SOL    HW234824   3.575   3.926  17.022  0.1188 -2.6387 -1.6961
 7731SOL     OW34825   4.599   2.749   6.473 -0.8369 -0.1217  0.6475
 7731SOL    HW134826   4.564   2.724   6.387  0.3380 -2.6097  0.8898
 7731SOL    HW234827   4.521   2.770   6.524 -0.5064  1.3624  0.5525
 7732SOL     OW34828   0.281   4.657  12.074  0.5248 -0.2486 -0.2308
 7732SOL    HW134829   0.289   4.563  12.059  3.1984 -0.1613  0.6099
 7732SOL    HW234830   0.185   4.663  12.074  0.4525 -1.4675 -0.0662
 7733SOL     OW34831   1.735   0.617   9.117  0.1436  0.1171 -0.1701
 7733SOL    HW134832   1.753   0.530   9.083  1.5165 -0.1551  1.2902
 7733SOL    HW234833   1.659   0.599   9.173  0.2131  3.0373  0.8727
 7734SOL     OW34834   2.799   1.405  16.719  0.5391 -0.3195 -0.1296
 7734SOL    HW134835   2.825   1.336  16.659  2.9863  1.9705 -1.6913
 7734SOL    HW234836   2.882   1.445  16.745 -0.2933  0.5639  1.1781
 7735SOL     OW34837   2.223   1.330   1.627  0.1485 -0.3489 -0.7012
 7735SOL    HW134838   2.234   1.310   1.534 -1.0710 -1.9323 -0.5085
 7735SOL    HW234839   2.282   1.404   1.639  0.6041 -0.6401 -1.1654
 7736SOL     OW34840   0.667   2.424   3.669 -0.1002  0.5203 -0.2720
 7736SOL    HW134841   0.696   2.335   3.686 -1.5373  0.0814 -0.1060
 7736SOL    HW234842   0.683   2.436   3.576 -0.3467  0.4059 -0.3292
 7737SOL     OW34843   2.590   2.623   4.583  0.0575  0.4079 -0.4078
 7737SOL    HW134844   2.569   2.716   4.569 -1.0454  0.2738  0.2940
 7737SOL    HW234845   2.542   2.581   4.511  0.5477 -2.4677  0.9549
 7738SOL     OW34846   0.275   2.131   2.380 -0.4634  0.0489 -0.8671
 7738SOL    HW134847   0.257   2.045   2.343 -0.3697 -1.4689  2.5786
 7738SOL    HW234848   0.188   2.169   2.391  0.1980  0.9724  1.1259
 7739SOL     OW34849   3.479   0.887   2.085 -0.2716 -0.2952  0.1913
 7739SOL    HW134850   3.528   0.933   2.153  0.7461  0.4943 -1.0664
 7739SOL    HW234851   3.398   0.938   2.092 -0.3767 -0.2618 -1.2788
 7740SOL     OW34852   3.272   2.240   1.164  0.1378 -0.2644  0.3877
 7740SOL    HW134853   3.199   2.179   1.172 -0.6645  0.7282  0.4862
 7740SOL    HW234854   3.307   2.225   1.077  0.2881  0.9113  0.2456
 7741SOL     OW34855   2.088   1.531   0.622 -0.4539 -1.2122 -0.3111
 7741SOL    HW134856   2.151   1.460   0.631 -0.0780 -0.8030  0.2860
 7741SOL    HW234857   2.032   1.493   0.554  0.1971 -1.9744 -0.4180
 7742SOL     OW34858   4.180   3.174   3.104  0.2981 -0.2375 -0.1961
 7742SOL    HW134859   4.166   3.228   3.027 -0.4557 -0.2427 -0.0633
 7742SOL    HW234860   4.089   3.173   3.136  0.7123  0.3532  1.0205
 7743SOL     OW34861   1.858   1.580   5.675 -0.5751  0.1947 -0.2270
 7743SOL    HW134862   1.944   1.620   5.661 -0.6429  0.6010  0.5286
 7743SOL    HW234863   1.875   1.487   5.659 -0.6275  0.4064 -1.5040
 7744SOL     OW34864   2.398   0.560   8.044  0.2655 -0.5480  0.2956
 7744SOL    HW134865   2.371   0.637   8.093  2.1131  1.0255 -1.1925
 7744SOL    HW234866   2.315   0.542   8.001  1.4557  0.8539 -2.5561
 7745SOL     OW34867   0.349   1.620  11.848  0.2317 -0.2107  0.2867
 7745SOL    HW134868   0.380   1.557  11.913 -1.1525 -0.6321  0.5430
 7745SOL    HW234869   0.326   1.699  11.897  0.3178 -0.4903  0.7823
 7746SOL     OW34870   1.455   2.277   4.978 -0.2086  0.3353 -0.6888
 7746SOL    HW134871   1.460   2.345   4.912 -2.3955  0.0495 -1.1527
 7746SOL    HW234872   1.361   2.260   4.987 -0.0077  1.4613  3.6176
 7747SOL     OW34873   2.753   1.882  16.346  0.0387 -0.0060 -0.0864
 7747SOL    HW134874   2.737   1.956  16.288 -0.7184 -0.0407  0.0845
 7747SOL    HW234875   2.665   1.874  16.383 -0.1888  2.3739 -0.1642
 7748SOL     OW34876   4.359   1.324  17.204  0.1071  0.0336  0.4296
 7748SOL    HW134877   4.350   1.280  17.119  2.8049  1.2716 -0.4979
 7748SOL    HW234878   4.282   1.288  17.247  0.2359  2.1244  2.4400
 7749SOL     OW34879   0.156   4.158   6.182  1.0022 -0.0114 -0.5646
 7749SOL    HW134880   0.122   4.221   6.245  0.7806 -0.2525 -0.4389
 7749SOL    HW234881   0.251   4.168   6.187  0.9641 -0.1941  0.6443
 7750SOL     OW34882   0.667   0.212  12.940  0.4442 -0.0605  0.0580
 7750SOL    HW134883   0.746   0.168  12.971 -0.7192 -1.0445  1.6233
 7750SOL    HW234884   0.599   0.155  12.976  0.0410 -0.8735 -2.0221
 7751SOL     OW34885   0.795   1.005   9.643  0.2302 -0.1899  0.3105
 7751SOL    HW134886   0.888   1.011   9.662  0.5110 -1.2968 -0.7165
 7751SOL    HW234887   0.771   1.097   9.652  1.3561  0.0370  0.9158
 7752SOL     OW34888   2.090   2.036   7.700 -0.0637 -0.4562 -0.2269
 7752SOL    HW134889   2.154   2.027   7.630  0.8142  1.3811  0.3407
 7752SOL    HW234890   2.070   2.129   7.691 -0.9914 -0.6094  0.1681
 7753SOL     OW34891   3.611   0.288   3.278 -0.4908 -0.2901 -0.0736
 7753SOL    HW134892   3.596   0.361   3.337  1.6864  1.1429 -1.2862
 7753SOL    HW234893   3.681   0.237   3.320  0.1901  0.7823  0.0860
 7754SOL     OW34894   0.397   3.899  17.290  0.4226  0.2867  0.6148
 7754SOL    HW134895   0.307   3.868  17.303  1.0168 -1.0656  1.5177
 7754SOL    HW234896   0.410   3.883  17.197  0.6494  0.6358  0.5878
 7755SOL     OW34897   1.693   3.132   0.794 -0.0477  0.1481  0.8105
 7755SOL    HW134898   1.750   3.084   0.854  1.5665 -0.1930 -1.0104
 7755SOL    HW234899   1.753   3.148   0.721 -2.5729  2.5380 -0.7505
 7756SOL     OW34900   1.722   2.501  15.750  0.3109 -0.7913  0.0542
 7756SOL    HW134901   1.760   2.587  15.731  0.3156 -0.5177  1.2927
 7756SOL    HW234902   1.796   2.448  15.720  1.9408  1.2042  0.4879
 7757SOL     OW34903   4.083   4.579   3.652 -0.0399 -0.0879 -0.4170
 7757SOL    HW134904   4.168   4.535   3.646 -1.3940 -2.4571 -2.2816
 7757SOL    HW234905   4.025   4.510   3.619 -0.5327  0.8595 -1.5309
 7758SOL     OW34906   1.413   0.913  11.242 -0.3254 -0.0869 -0.2798
 7758SOL    HW134907   1.369   0.834  11.210 -2.9224  0.2597  2.4044
 7758SOL    HW234908   1.339   0.973  11.250 -0.5876 -0.9535  3.7819
 7759SOL     OW34909   3.733   4.649  12.025 -0.1453  0.2854 -0.4880
 7759SOL    HW134910   3.695   4.580  11.971  0.0543  0.1364 -0.4380
 7759SOL    HW234911   3.725   4.720  11.961 -1.4420 -1.5252 -2.3118
 7760SOL     OW34912   1.162   2.397   6.359 -0.0458  0.1045  0.5112
 7760SOL    HW134913   1.094   2.383   6.424 -1.6404  1.8366 -0.8046
 7760SOL    HW234914   1.111   2.434   6.287  0.0577 -0.1017  0.3301
 7761SOL     OW34915   1.260   3.665   4.856 -0.7642  0.9262  0.0826
 7761SOL    HW134916   1.228   3.673   4.946  0.7404 -0.4523  0.7314
 7761SOL    HW234917   1.180   3.643   4.807  1.1434 -1.6763 -1.8926
 7762SOL     OW34918   0.578   1.619   5.916  0.4776  0.8177  0.1216
 7762SOL    HW134919   0.594   1.672   5.839  1.3937 -0.9518 -0.9007
 7762SOL    HW234920   0.535   1.687   5.969  0.7318  2.8221 -2.2622
 7763SOL     OW34921   2.215   2.912  17.284 -0.0185 -0.3812 -0.0090
 7763SOL    HW134922   2.131   2.935  17.323 -0.6117  0.9198 -2.0645
 7763SOL    HW234923   2.254   2.893  17.370  1.8554 -1.0098 -1.0056
 7764SOL     OW34924   0.988   1.729   6.483  0.4503 -0.0037  0.2294
 7764SOL    HW134925   0.912   1.781   6.459 -0.8028 -0.9995  2.0523
 7764SOL    HW234926   1.005   1.678   6.404  0.9190 -0.7066  0.7849
 7765SOL     OW34927   0.998   3.774   4.944 -0.2691  0.0399 -0.5737
 7765SOL    HW134928   0.987   3.853   4.892  1.9840  1.2944  0.8196
 7765SOL    HW234929   1.073   3.798   4.999 -0.2775  1.6199 -1.2556
 7766SOL     OW34930   0.520   2.386   8.827  0.2352  0.0157 -0.1483
 7766SOL    HW134931   0.597   2.442   8.830  1.5890 -1.6213 -4.1569
 7766SOL    HW234932   0.472   2.435   8.894 -1.8348  1.7794 -2.9348
 7767SOL     OW34933   1.309   3.203   3.945  0.1210  0.2487 -0.6598
 7767SOL    HW134934   1.379   3.267   3.944 -2.0261  2.6011 -1.7549
 7767SOL    HW234935   1.359   3.122   3.937  0.9165  0.8113 -1.2911
 7768SOL     OW34936   1.962   1.336   0.453 -0.7899  0.4597 -0.2840
 7768SOL    HW134937   1.869   1.351   0.437 -0.6077  0.9190 -0.9302
 7768SOL    HW234938   1.971   1.251   0.410 -0.5197 -0.1540  1.0014
 7769SOL     OW34939   0.657   2.522   8.064  0.2968  0.0732  0.0157
 7769SOL    HW134940   0.664   2.590   7.998  2.0401  1.0593  1.1883
 7769SOL    HW234941   0.580   2.468   8.048  1.7017 -1.1139 -2.7616
 7770SOL     OW34942   0.858   1.821  11.637 -0.5586  0.3518 -0.4668
 7770SOL    HW134943   0.797   1.862  11.699  1.7225 -1.1350  2.7280
 7770SOL    HW234944   0.805   1.755  11.591 -0.9904 -0.2119  0.8412
 7771SOL     OW34945   1.834   3.874   2.310  0.1549 -0.1785  0.4180
 7771SOL    HW134946   1.793   3.880   2.397 -0.1890 -0.7450  0.3003
 7771SOL    HW234947   1.776   3.808   2.272  0.0517  0.8135 -1.1320
 7772SOL     OW34948   4.733   1.482  16.619  0.4336  0.2249  0.0352
 7772SOL    HW134949   0.064   1.536  16.579  0.6264  1.1643  1.6214
 7772SOL    HW234950   4.654   1.536  16.609 -0.4519 -0.6053  2.4860
 7773SOL     OW34951   0.295   0.457   4.568 -0.3397  0.2110 -0.1988
 7773SOL    HW134952   0.212   0.410   4.581 -0.6239  1.2311  1.6316
 7773SOL    HW234953   0.288   0.483   4.476  0.9878 -0.4564 -0.4802
 7774SOL     OW34954   1.195   3.299   5.929 -0.1138 -0.5597 -0.3490
 7774SOL    HW134955   1.174   3.207   5.917  1.5196 -0.9270 -0.3948
 7774SOL    HW234956   1.195   3.302   6.025 -1.4707  2.0641 -0.4085
 7775SOL     OW34957   2.629   3.217   7.965 -0.1675  0.7263 -0.1021
 7775SOL    HW134958   2.646   3.123   7.960 -0.6072  0.6542 -0.2967
 7775SOL    HW234959   2.717   3.250   7.980 -0.1490  0.0341  1.2710
 7776SOL     OW34960   3.349   2.400   1.706  0.4336  0.2502 -0.5373
 7776SOL    HW134961   3.429   2.359   1.738 -0.2527  0.1170  1.0553
 7776SOL    HW234962   3.279   2.381   1.769 -0.0569 -2.7483 -1.9983
 7777SOL     OW34963   4.359   0.336   9.320  0.1951 -0.3138  0.2169
 7777SOL    HW134964   4.290   0.279   9.284  0.6068  0.9262 -2.5565
 7777SOL    HW234965   4.429   0.270   9.322 -0.8890 -1.4905 -0.3186
 7778SOL     OW34966   0.284   2.946   8.941 -0.0097 -0.1790 -0.4753
 7778SOL    HW134967   0.349   2.924   9.007 -1.3002  0.9485  1.1517
 7778SOL    HW234968   0.207   2.914   8.987  0.2979  0.0658  0.1991
 7779SOL     OW34969   0.058   0.039   2.527 -0.7777  0.6598  0.6052
 7779SOL    HW134970   0.114   0.111   2.497  0.0845 -0.4517 -0.4222
 7779SOL    HW234971   0.089   0.028   2.617  0.4857 -1.7259 -0.1335
 7780SOL     OW34972   0.812   1.406  14.421  0.0773  0.8478 -0.3740
 7780SOL    HW134973   0.743   1.438  14.479 -2.1373 -0.8430 -2.0875
 7780SOL    HW234974   0.886   1.459  14.450  1.0198 -0.0768 -1.0801
 7781SOL     OW34975   2.129   0.560   2.804  0.2823 -0.1740 -0.3109
 7781SOL    HW134976   2.161   0.650   2.799 -0.8753  0.3724  2.2560
 7781SOL    HW234977   2.038   0.566   2.834  0.7047 -1.4967  1.2651
 7782SOL     OW34978   0.634   1.466  14.889 -0.0312  0.9094 -0.0317
 7782SOL    HW134979   0.608   1.556  14.911 -1.2040  0.4802  0.3512
 7782SOL    HW234980   0.674   1.447  14.974 -0.3325 -2.5069 -0.6545
 7783SOL     OW34981   3.920   0.393   0.787 -0.4738 -0.5762 -0.5704
 7783SOL    HW134982   3.851   0.421   0.848  0.1428 -1.6317  0.6124
 7783SOL    HW234983   3.993   0.388   0.849  0.3934 -0.9865 -1.6234
 7784SOL     OW34984   4.700   2.727  10.022 -0.1547 -0.7215 -1.0341
 7784SOL    HW134985   4.637   2.675  10.073  1.3113 -0.2796  1.2330
 7784SOL    HW234986   0.048   2.692  10.047 -1.2738 -3.6013 -1.1287
 7785SOL     OW34987   1.006   4.345   4.519 -0.0902 -0.0932  0.2564
 7785SOL    HW134988   0.962   4.286   4.457  1.7384 -1.8615  0.6319
 7785SOL    HW234989   0.944   4.413   4.544 -0.4686  0.4523 -2.0831
 7786SOL     OW34990   2.598   2.662  11.914 -0.0289  0.2328 -0.4235
 7786SOL    HW134991   2.581   2.752  11.883  0.2854  1.1709  2.1675
 7786SOL    HW234992   2.526   2.639  11.972 -1.0351  4.6863  0.1073
 7787SOL     OW34993   2.955   3.202  14.634  0.5888  0.0807  0.7513
 7787SOL    HW134994   2.922   3.225  14.547 -0.1161 -1.8524  0.5149
 7787SOL    HW234995   2.965   3.287  14.678 -1.8335 -0.0080  1.4915
 7788SOL     OW34996   3.265   3.994  17.556  0.4612 -0.3149  0.2351
 7788SOL    HW134997   3.209   4.065  17.587 -1.4628 -1.7038 -0.0655
 7788SOL    HW234998   3.350   4.039  17.551  0.2736  0.0442  0.2784
 7789SOL     OW34999   0.995   1.280  13.457  0.4116 -0.3347 -0.2090
 7789SOL    HW135000   1.008   1.368  13.423  1.3283 -0.7762 -0.9928
 7789SOL    HW235001   0.913   1.286  13.506 -0.1898 -0.5470 -1.1819
 7790SOL     OW35002   1.753   4.030   4.802  0.0794  0.1533  0.4429
 7790SOL    HW135003   1.753   4.057   4.710 -1.8686  1.5884  0.8654
 7790SOL    HW235004   1.838   4.060   4.835 -0.1500  1.1161  0.1685
 7791SOL     OW35005   3.311   0.269   2.340 -0.5151  0.1646  0.0119
 7791SOL    HW135006   3.381   0.216   2.378  0.3043 -0.0125 -1.7403
 7791SOL    HW235007   3.234   0.257   2.396 -0.8042  1.5098 -0.1123
 7792SOL     OW35008   4.094   0.998   4.495  0.4431  0.5094 -0.3251
 7792SOL    HW135009   4.152   0.948   4.552 -0.7230 -3.3564 -2.5374
 7792SOL    HW235010   4.109   0.967   4.405 -2.0294 -1.1588 -0.1546
 7793SOL     OW35011   4.147   2.409  16.690  0.3834 -0.2181  0.0291
 7793SOL    HW135012   4.141   2.325  16.644 -0.5748 -0.8164  1.2868
 7793SOL    HW235013   4.176   2.466  16.618 -0.3217  0.0666 -0.0262
 7794SOL     OW35014   2.550   1.296   2.855 -0.0943  0.2751  0.0508
 7794SOL    HW135015   2.572   1.361   2.788 -0.5593 -0.8025 -1.1533
 7794SOL    HW235016   2.610   1.222   2.843  0.9804  1.1836 -0.1735
 7795SOL     OW35017   0.105   3.161   3.657  0.5610  0.2681 -0.6637
 7795SOL    HW135018   0.125   3.075   3.694  0.4743  1.0186  1.1266
 7795SOL    HW235019   0.195   3.192   3.659  0.3502  0.9055 -0.7431
 7796SOL     OW35020   0.310   2.176   5.533  0.3139  0.2317 -0.0928
 7796SOL    HW135021   0.318   2.212   5.445 -3.3184  1.1937 -0.0328
 7796SOL    HW235022   0.258   2.248   5.570 -0.7251  0.4983 -2.0734
 7797SOL     OW35023   1.476   3.560  11.087  0.0707  0.3954  0.5285
 7797SOL    HW135024   1.405   3.530  11.143  1.4317  0.2273  2.1783
 7797SOL    HW235025   1.539   3.515  11.144 -1.0801 -0.3766  1.1830
 7798SOL     OW35026   3.075   4.627   2.594  0.4423  0.4824  0.1842
 7798SOL    HW135027   3.050   4.587   2.677 -1.7893 -0.2385 -0.8539
 7798SOL    HW235028   3.133   4.562   2.553  0.9166  1.3166 -0.4585
 7799SOL     OW35029   4.044   3.495   2.806 -0.0059 -0.1941  0.7395
 7799SOL    HW135030   4.005   3.421   2.853 -2.9061  0.2226 -0.9743
 7799SOL    HW235031   4.057   3.455   2.720  0.3736  2.5006 -0.4484
 7800SOL     OW35032   0.040   3.871  12.355  0.4651 -0.4590  0.2238
 7800SOL    HW135033   4.727   3.824  12.422 -2.1156 -0.6894 -1.8829
 7800SOL    HW235034   4.718   3.931  12.310 -0.1692 -1.3540 -0.1364
 7801SOL     OW35035   2.196   2.786   4.748 -0.9486  0.1900  0.1566
 7801SOL    HW135036   2.289   2.762   4.748 -0.8290  0.6431 -0.1035
 7801SOL    HW235037   2.215   2.879   4.760 -2.1026  0.2297  1.6120
 7802SOL     OW35038   0.727   1.069  13.187 -0.0845  0.2362 -0.3636
 7802SOL    HW135039   0.707   1.126  13.114  0.4804  3.4258  1.9741
 7802SOL    HW235040   0.822   1.076  13.185 -0.2929  2.9424 -0.1870
 7803SOL     OW35041   2.746   1.477   8.255 -0.5598 -0.3102 -0.0957
 7803SOL    HW135042   2.653   1.490   8.239 -0.4424 -1.0380 -1.4025
 7803SOL    HW235043   2.783   1.471   8.166 -0.9816 -0.8688 -0.2320
 7804SOL     OW35044   3.514   0.283   3.016 -0.3881  0.2565 -0.1296
 7804SOL    HW135045   3.584   0.340   2.984  2.0719 -1.7876  1.5885
 7804SOL    HW235046   3.541   0.258   3.105 -0.2752  0.2371 -0.1687
 7805SOL     OW35047   3.612   4.542   2.704  0.3066 -0.7750 -0.1776
 7805SOL    HW135048   3.684   4.506   2.756 -3.0649 -0.3027  4.8419
 7805SOL    HW235049   3.554   4.466   2.703  1.0745 -1.3924  2.1856
 7806SOL     OW35050   1.289   1.519  10.124  0.0543 -0.2579  0.3859
 7806SOL    HW135051   1.298   1.479  10.211  2.4851 -0.4112  0.0695
 7806SOL    HW235052   1.364   1.479  10.079  0.4931 -0.1025  0.9633
 7807SOL     OW35053   3.742   2.016   6.042 -0.7259  0.2860  0.1674
 7807SOL    HW135054   3.680   2.029   6.114  1.2414  1.9342  1.5917
 7807SOL    HW235055   3.778   2.105   6.034  0.5717 -0.1841  0.7410
 7808SOL     OW35056   2.083   0.697   0.455  0.2862  0.1820  0.2287
 7808SOL    HW135057   1.989   0.701   0.434 -0.5090  0.4224  3.8229
 7808SOL    HW235058   2.070   0.633   0.525  2.0218  1.3298  1.5936
 7809SOL     OW35059   1.456   0.152   2.555  0.2696 -0.0243  0.1168
 7809SOL    HW135060   1.542   0.187   2.535  0.3816 -1.8156 -2.5638
 7809SOL    HW235061   1.406   0.218   2.505  0.4479  0.0183 -0.0053
 7810SOL     OW35062   0.997   1.332  15.242 -0.3531  0.2095  0.3993
 7810SOL    HW135063   1.062   1.375  15.185  0.1170 -0.4864  0.4148
 7810SOL    HW235064   0.952   1.287  15.171 -0.9959  1.3338  0.0908
 7811SOL     OW35065   1.126   3.631  14.129  0.3113 -0.0130  0.2084
 7811SOL    HW135066   1.042   3.669  14.153  0.2115  0.9440 -1.6268
 7811SOL    HW235067   1.176   3.709  14.104 -0.5135  0.2078 -0.7559
 7812SOL     OW35068   2.802   3.370   0.684 -0.5995  0.1123  0.2035
 7812SOL    HW135069   2.881   3.316   0.692 -1.3239 -0.7723  1.3689
 7812SOL    HW235070   2.773   3.362   0.775 -1.1945  1.1127  0.1067
 7813SOL     OW35071   4.700   4.361  11.530  0.4378 -0.0722  0.3142
 7813SOL    HW135072   4.640   4.422  11.573 -1.1957 -0.6680 -1.1243
 7813SOL    HW235073   0.043   4.377  11.578  0.8506 -1.4788  0.0883
 7814SOL     OW35074   0.230   1.894   2.266  0.6400  0.2032 -0.1404
 7814SOL    HW135075   0.139   1.897   2.235 -0.0512  0.5542  1.8833
 7814SOL    HW235076   0.274   1.929   2.190  0.7282 -2.3966 -1.2776
 7815SOL     OW35077   4.260   3.886   4.466  0.0097 -0.6483  0.5670
 7815SOL    HW135078   4.252   3.928   4.381  1.9651  1.2207  1.3185
 7815SOL    HW235079   4.183   3.919   4.513 -0.2879  2.2498 -2.0066
 7816SOL     OW35080   3.276   1.010  17.166  0.2251  0.3523  0.2345
 7816SOL    HW135081   3.303   1.101  17.161  1.5447 -0.1922 -2.6462
 7816SOL    HW235082   3.260   0.999  17.073 -0.5675  0.0351  0.4031
 7817SOL     OW35083   0.455   1.372   2.994  0.0955 -0.0604  0.8094
 7817SOL    HW135084   0.427   1.282   2.978 -0.1618 -0.3865  3.0730
 7817SOL    HW235085   0.388   1.415   2.941  1.9664  0.8475 -0.8366
 7818SOL     OW35086   0.373   4.695  17.241 -0.3942  0.5653  0.2026
 7818SOL    HW135087   0.410   0.045  17.248 -0.9369  0.8718 -0.8425
 7818SOL    HW235088   0.447   4.638  17.260  0.2487  1.3665  0.0843
 7819SOL     OW35089   3.907   3.106   5.817  0.0039  0.0203  0.8822
 7819SOL    HW135090   3.859   3.181   5.781  0.2501 -0.1911  0.1115
 7819SOL    HW235091   3.965   3.147   5.880 -0.8515  0.4695  1.3847
 7820SOL     OW35092   2.691   0.239  12.046 -0.2619 -0.1495 -0.0688
 7820SOL    HW135093   2.603   0.238  12.008  0.4949 -0.2387 -1.8080
 7820SOL    HW235094   2.662   0.246  12.137 -1.4836  0.6218 -0.5155
 7821SOL     OW35095   2.215   4.621  11.208 -0.3608 -0.6471  0.3282
 7821SOL    HW135096   2.131   4.599  11.249 -0.5457 -0.5417  0.0001
 7821SOL    HW235097   2.239   4.684  11.276 -1.6917 -1.2631  1.3725
 7822SOL     OW35098   3.463   0.779   8.548 -0.2835  0.3295  0.3622
 7822SOL    HW135099   3.459   0.862   8.595  1.7161  1.1705 -0.9769
 7822SOL    HW235100   3.518   0.730   8.609  2.8752  1.5445 -1.4892
 7823SOL     OW35101   0.235   0.254   2.595 -0.3357  0.1091 -0.0597
 7823SOL    HW135102   0.276   0.338   2.614 -0.4740  0.0273  0.5969
 7823SOL    HW235103   0.312   0.198   2.583  0.0656 -0.0745  3.4258
 7824SOL     OW35104   3.956   2.323  15.178  0.3735  0.1311  0.5040
 7824SOL    HW135105   3.865   2.294  15.189  0.7580 -0.7966  1.1904
 7824SOL    HW235106   3.935   2.403  15.129 -0.6342  0.3601  1.3023
 7825SOL     OW35107   1.189   0.603   6.688  0.0676  0.1628  0.0934
 7825SOL    HW135108   1.098   0.632   6.681  0.8043  2.9158  2.1905
 7825SOL    HW235109   1.197   0.560   6.602 -1.7440 -1.9911  0.9910
 7826SOL     OW35110   0.565   4.125  13.162  0.2870 -0.0933  0.3238
 7826SOL    HW135111   0.474   4.103  13.181  0.6933 -0.1637  2.2063
 7826SOL    HW235112   0.604   4.038  13.159 -0.4612 -0.4307  0.2693
 7827SOL     OW35113   4.152   0.866   3.233 -0.2033  0.0689 -0.3784
 7827SOL    HW135114   4.245   0.847   3.234 -0.4920 -1.3412  1.3021
 7827SOL    HW235115   4.138   0.876   3.139  0.2115  0.1176 -0.4337
 7828SOL     OW35116   4.103   1.544  17.278 -0.2680  0.0057  0.8215
 7828SOL    HW135117   4.141   1.460  17.304 -2.3500 -1.0797  0.3808
 7828SOL    HW235118   4.092   1.524  17.185  1.3657  0.4023  0.5375
 7829SOL     OW35119   4.717   0.824   6.079  0.2703  0.0540 -0.1984
 7829SOL    HW135120   4.719   0.836   5.984  1.1946  0.7793 -0.0987
 7829SOL    HW235121   4.636   0.860   6.114 -0.0790  1.9603 -2.9215
 7830SOL     OW35122   3.266   0.240   1.401  0.4048  0.1600 -0.3244
 7830SOL    HW135123   3.251   0.231   1.307  1.2043 -1.1652 -0.3199
 7830SOL    HW235124   3.230   0.155   1.425 -0.7995  0.1666 -2.0649
 7831SOL     OW35125   2.211   0.863  11.767  0.0163  0.1963 -0.6013
 7831SOL    HW135126   2.198   0.845  11.674 -0.0000  0.4628 -0.6510
 7831SOL    HW235127   2.126   0.902  11.787  1.0995  1.2389  2.0372
 7832SOL     OW35128   3.954   4.207   5.507  0.6754  0.1112  0.2861
 7832SOL    HW135129   3.936   4.115   5.528  1.9725 -0.4245 -0.9208
 7832SOL    HW235130   4.039   4.197   5.464  0.7520  2.2603 -0.0590
 7833SOL     OW35131   3.654   3.664  12.487  0.5052  0.0788  0.0219
 7833SOL    HW135132   3.729   3.608  12.467  2.8152  3.5069 -0.8991
 7833SOL    HW235133   3.697   3.737  12.531  0.2775  1.1936 -1.5753
 7834SOL     OW35134   2.303   0.707   5.061  0.1213 -0.8500  0.2565
 7834SOL    HW135135   2.290   0.646   4.988 -0.3001 -1.1243  0.5605
 7834SOL    HW235136   2.317   0.788   5.013  2.9418 -1.0335  0.8036
 7835SOL     OW35137   2.379   3.400  11.830  0.5509  0.1655  0.2162
 7835SOL    HW135138   2.468   3.420  11.859 -0.3656 -1.0362  3.9626
 7835SOL    HW235139   2.340   3.486  11.823 -0.0405 -0.0324  1.0075
 7836SOL     OW35140   2.176   0.521   7.926 -0.2494 -0.4073 -0.0635
 7836SOL    HW135141   2.170   0.519   7.830  0.0452  0.7158 -0.1023
 7836SOL    HW235142   2.095   0.476   7.952  0.1573 -1.0551  0.0772
 7837SOL     OW35143   4.326   1.311   3.509 -0.5572  0.2112 -0.0988
 7837SOL    HW135144   4.351   1.347   3.424 -0.1229 -1.1321 -0.5429
 7837SOL    HW235145   4.231   1.321   3.508 -0.7018 -1.0576  1.1575
 7838SOL     OW35146   3.831   1.297  13.032 -0.0386  0.1006  0.4515
 7838SOL    HW135147   3.881   1.353  13.091  1.0935 -2.0043  1.4957
 7838SOL    HW235148   3.766   1.358  12.997 -2.3582 -2.6375 -0.0811
 7839SOL     OW35149   2.142   2.413   7.311  0.0820 -0.2661 -0.0188
 7839SOL    HW135150   2.151   2.383   7.402  3.1776 -3.5838 -1.4638
 7839SOL    HW235151   2.066   2.471   7.316  0.0466 -0.4158  1.3647
 7840SOL     OW35152   0.615   3.460   9.745  0.0443 -0.3233 -0.0602
 7840SOL    HW135153   0.551   3.462   9.674  0.0332 -0.8125 -0.0641
 7840SOL    HW235154   0.689   3.483   9.689 -0.0696  0.3898  0.0879
 7841SOL     OW35155   0.676   1.987   9.660 -0.0352 -0.6908 -0.3367
 7841SOL    HW135156   0.719   1.906   9.632  2.1402  0.0607  0.7839
 7841SOL    HW235157   0.695   1.994   9.754  0.4518 -0.2883 -0.4664
 7842SOL     OW35158   3.719   0.260   4.415  0.6470  0.1556 -0.1832
 7842SOL    HW135159   3.808   0.292   4.400  0.1736  1.1605 -0.8438
 7842SOL    HW235160   3.719   0.245   4.509  0.1006 -1.5833 -0.4602
 7843SOL     OW35161   4.298   4.638  14.142  0.4177 -0.9570  0.4503
 7843SOL    HW135162   4.346   4.559  14.117  0.7309  0.1570 -2.4963
 7843SOL    HW235163   4.358   4.709  14.118  2.4059 -3.4519 -1.8864
 7844SOL     OW35164   2.670   3.176   2.142  0.1446  0.1011  0.0853
 7844SOL    HW135165   2.734   3.244   2.121  1.6660 -1.3841 -0.0608
 7844SOL    HW235166   2.657   3.193   2.235  0.9023  1.0022  0.0274
 7845SOL     OW35167   3.574   1.789  15.210 -0.3186 -0.1743 -0.1109
 7845SOL    HW135168   3.627   1.867  15.195 -0.3934 -0.3510 -1.2423
 7845SOL    HW235169   3.534   1.774  15.125 -1.0933 -1.5859  0.5021
 7846SOL     OW35170   3.902   4.136  17.200  0.2158 -0.3755 -0.6871
 7846SOL    HW135171   3.965   4.180  17.143  1.0205 -1.0641 -0.3209
 7846SOL    HW235172   3.826   4.194  17.190 -0.4296 -1.3271 -1.3091
 7847SOL     OW35173   2.852   1.929   8.971 -0.6400  0.9375  0.1758
 7847SOL    HW135174   2.895   1.921   8.886  1.1781  1.1487  1.0679
 7847SOL    HW235175   2.762   1.947   8.945 -1.5688 -0.8365  2.1875
 7848SOL     OW35176   1.731   0.712   8.321  0.6023 -0.0922  0.1968
 7848SOL    HW135177   1.810   0.765   8.308  1.0400 -0.6554  0.5698
 7848SOL    HW235178   1.707   0.755   8.403 -0.2548  0.8588 -0.5433
 7849SOL     OW35179   3.188   0.334   2.732 -0.0300  0.0942 -0.1249
 7849SOL    HW135180   3.173   0.428   2.739  1.5568  0.2216  1.4824
 7849SOL    HW235181   3.132   0.313   2.657  1.3630 -2.2099 -0.5179
 7850SOL     OW35182   2.671   0.711   8.850 -0.2323  0.3417 -0.3972
 7850SOL    HW135183   2.749   0.738   8.898 -0.0352 -0.7858 -0.0792
 7850SOL    HW235184   2.709   0.664   8.775 -2.6124  0.3484 -1.6305
 7851SOL     OW35185   0.919   1.680   9.307  0.4189 -0.1919 -0.8232
 7851SOL    HW135186   0.897   1.671   9.215  1.9313  0.1701 -1.2206
 7851SOL    HW235187   1.002   1.725   9.289  0.1410  1.0565  0.9798
 7852SOL     OW35188   3.216   1.850   2.632 -0.3036  0.2961 -0.1292
 7852SOL    HW135189   3.244   1.760   2.650 -1.5949 -0.0959 -0.0807
 7852SOL    HW235190   3.130   1.822   2.601 -0.3816  0.1500  0.2143
 7853SOL     OW35191   2.599   3.883   4.263  0.7549  0.2689 -0.1924
 7853SOL    HW135192   2.564   3.804   4.221 -1.0842  1.3348 -0.6675
 7853SOL    HW235193   2.624   3.933   4.186 -0.2585  0.9235 -0.1023
 7854SOL     OW35194   0.610   0.857   8.048 -0.2128 -0.1929 -0.3824
 7854SOL    HW135195   0.583   0.768   8.027  1.8101 -0.5289 -1.6436
 7854SOL    HW235196   0.697   0.858   8.008  0.8013 -0.2508  1.8539
 7855SOL     OW35197   0.586   3.620  12.923 -0.0527  0.2664  0.5436
 7855SOL    HW135198   0.504   3.602  12.876 -0.8426  1.4848  1.4816
 7855SOL    HW235199   0.649   3.633  12.852 -1.2118 -0.5256 -0.6573
 7856SOL     OW35200   2.645   0.606   4.711  0.3152 -0.1297  0.4513
 7856SOL    HW135201   2.681   0.677   4.765 -1.6288  0.5882  0.7897
 7856SOL    HW235202   2.704   0.594   4.637  0.8715 -1.3698  1.1010
 7857SOL     OW35203   0.062   4.658   5.251 -0.0037 -0.7005 -0.5734
 7857SOL    HW135204   0.154   4.665   5.227  0.2643 -0.3569  0.5691
 7857SOL    HW235205   0.023   4.722   5.190  0.0765 -0.9111 -0.8474
 7858SOL     OW35206   2.405   2.013   0.268  0.3176  0.2816 -0.4693
 7858SOL    HW135207   2.376   1.922   0.272 -2.1491  0.9929 -2.1936
 7858SOL    HW235208   2.445   2.029   0.353 -2.2577 -2.3789  1.2456
 7859SOL     OW35209   3.276   1.055   2.114 -0.0292 -0.1826  0.2617
 7859SOL    HW135210   3.249   1.136   2.157  3.1789  0.9692  0.0658
 7859SOL    HW235211   3.199   1.000   2.128  1.4792 -2.6225 -0.9633
 7860SOL     OW35212   0.652   0.541   3.682 -0.2123 -0.2251 -0.1232
 7860SOL    HW135213   0.722   0.475   3.679  1.8229  1.8525  1.3135
 7860SOL    HW235214   0.580   0.486   3.651 -0.7033  1.1325 -1.3844
 7861SOL     OW35215   0.747   0.151   1.118  0.4749 -0.0429 -0.0806
 7861SOL    HW135216   0.664   0.112   1.090 -0.4638  1.7738  0.1091
 7861SOL    HW235217   0.722   0.236   1.154  0.0993 -0.6729  1.1430
 7862SOL     OW35218   3.421   4.659  14.563 -0.4821 -0.2512  0.0157
 7862SOL    HW135219   3.508   4.630  14.535  0.1248  1.2245  0.4125
 7862SOL    HW235220   3.361   4.613  14.503 -0.6671  0.0259 -0.0102
 7863SOL     OW35221   0.986   1.714   2.285 -0.1070  0.1159 -0.0967
 7863SOL    HW135222   0.912   1.759   2.327  1.0715  1.1410  0.8568
 7863SOL    HW235223   1.062   1.758   2.323  0.7882 -0.1262 -1.6033
 7864SOL     OW35224   4.724   1.385   7.325 -0.4093  0.7819 -0.6026
 7864SOL    HW135225   0.066   1.371   7.273  0.3024  0.4883  0.5763
 7864SOL    HW235226   4.681   1.443   7.262 -1.6497  0.3326 -0.1692
 7865SOL     OW35227   1.827   2.448   7.160 -0.2479  0.4673 -0.4724
 7865SOL    HW135228   1.859   2.486   7.242 -1.5644  0.6744 -0.0608
 7865SOL    HW235229   1.752   2.398   7.190  1.1832 -1.8751 -0.7888
 7866SOL     OW35230   4.226   1.375   2.880  0.6418 -0.0786 -0.0331
 7866SOL    HW135231   4.236   1.284   2.852 -1.8623 -0.1528 -0.7723
 7866SOL    HW235232   4.308   1.417   2.906  0.5652  0.6492 -0.9602
 7867SOL     OW35233   4.384   0.053   7.538 -0.1041 -0.4408 -0.5947
 7867SOL    HW135234   4.441   4.715   7.525 -0.0754 -0.5810  0.3729
 7867SOL    HW235235   4.302   0.003   7.532 -0.9888  0.8934  0.2670
 7868SOL     OW35236   0.661   0.077  16.168  0.4202  0.6646  0.0947
 7868SOL    HW135237   0.734   0.128  16.203  0.3797 -0.2497  1.4967
 7868SOL    HW235238   0.707   4.731  16.161 -0.6991 -0.0736  1.7767
 7869SOL     OW35239   2.610   1.712   3.872  0.0779 -0.3015 -0.0200
 7869SOL    HW135240   2.611   1.780   3.805 -0.0088  1.5876  1.9064
 7869SOL    HW235241   2.656   1.643   3.824  0.7114 -0.1579  0.3665
 7870SOL     OW35242   2.410   2.583   4.788 -0.2660 -0.1160  0.0688
 7870SOL    HW135243   2.439   2.502   4.830 -1.2285 -0.3628  0.2498
 7870SOL    HW235244   2.481   2.612   4.731 -0.6923  1.5075  0.3632
 7871SOL     OW35245   2.367   4.313   5.598 -0.5602  0.2290 -0.5768
 7871SOL    HW135246   2.362   4.334   5.504  0.6590  0.5287 -0.5754
 7871SOL    HW235247   2.295   4.361   5.638  0.5149 -0.1234  1.7549
 7872SOL     OW35248   0.539   0.889   0.385  0.4644  0.3152 -0.4785
 7872SOL    HW135249   0.515   0.970   0.430 -2.9233 -0.1931 -1.3626
 7872SOL    HW235250   0.528   0.835   0.463  1.6877 -0.0588 -0.5714
 7873SOL     OW35251   0.215   4.621  12.590 -0.1517 -0.2077 -0.0861
 7873SOL    HW135252   0.211   4.578  12.505 -1.2872 -1.8107  0.7792
 7873SOL    HW235253   0.123   4.625  12.615 -0.2299 -0.8694 -0.2706
 7874SOL     OW35254   3.292   3.711   0.351  0.6067 -0.1928 -0.2556
 7874SOL    HW135255   3.372   3.690   0.398  0.1443  1.1563  1.1386
 7874SOL    HW235256   3.255   3.776   0.411 -0.9392 -0.2364 -1.1482
 7875SOL     OW35257   4.550   4.461  10.619 -0.2824  0.0046 -0.3496
 7875SOL    HW135258   4.575   4.415  10.538  1.0612  2.2565 -1.2102
 7875SOL    HW235259   4.491   4.396  10.655  0.0787  0.2994  0.7728
 7876SOL     OW35260   3.311   3.012   2.263  0.3684 -0.1412  0.2353
 7876SOL    HW135261   3.373   2.939   2.268 -1.9319 -2.0171  1.1722
 7876SOL    HW235262   3.351   3.050   2.341 -2.1592  0.7108  1.1081
 7877SOL     OW35263   0.958   1.632   6.748  0.3460 -0.1649 -0.2932
 7877SOL    HW135264   1.043   1.590   6.736  0.8051  0.6455  0.0821
 7877SOL    HW235265   0.964   1.690   6.672 -0.2766  1.7137  1.0989
 7878SOL     OW35266   1.404   2.869   8.713  0.3475  0.2383 -0.5711
 7878SOL    HW135267   1.370   2.939   8.768  1.4488  0.6731 -0.4499
 7878SOL    HW235268   1.330   2.808   8.712  1.6483 -1.3495 -1.1741
 7879SOL     OW35269   1.506   3.995   4.951  0.3048  0.3707 -0.3442
 7879SOL    HW135270   1.585   4.034   4.915  0.8815 -0.4245  0.0583
 7879SOL    HW235271   1.534   3.904   4.955  0.2498  0.4800  2.9381
 7880SOL     OW35272   4.202   2.778  11.273 -0.6133 -0.8246 -0.0256
 7880SOL    HW135273   4.290   2.778  11.310  0.0015 -0.1212 -1.4620
 7880SOL    HW235274   4.232   2.730  11.195  1.2892 -0.6670  0.6235
 7881SOL     OW35275   2.641   3.567   1.941  0.3791 -0.3073  0.3808
 7881SOL    HW135276   2.710   3.543   2.003  2.2177  1.3525 -1.0085
 7881SOL    HW235277   2.641   3.478   1.905  1.7733  0.3333 -1.1972
 7882SOL     OW35278   3.393   0.668   5.271  0.2503  0.4378 -0.2337
 7882SOL    HW135279   3.440   0.605   5.215  0.3262 -0.9684  1.4146
 7882SOL    HW235280   3.401   0.749   5.221 -0.5600  0.8088  0.2572
 7883SOL     OW35281   0.477   1.948   7.737 -0.2015 -0.2084  0.1513
 7883SOL    HW135282   0.500   1.921   7.826  2.8584 -0.1989 -0.6538
 7883SOL    HW235283   0.498   2.041   7.740 -1.3224 -0.0085  2.1880
 7884SOL     OW35284   0.077   3.108   7.451  0.2048 -0.1508  0.6805
 7884SOL    HW135285   0.028   3.174   7.499  2.0566  1.6738  0.0877
 7884SOL    HW235286   0.008   3.042   7.445  1.6097 -1.4852 -1.1432
 7885SOL     OW35287   3.905   1.233   1.765  0.3253  0.1678  0.4362
 7885SOL    HW135288   3.897   1.326   1.742 -0.6514 -0.7504 -2.8701
 7885SOL    HW235289   3.994   1.241   1.798  0.4375  0.5812  0.0409
 7886SOL     OW35290   2.986   2.005   8.213  0.1868  0.3625 -0.2689
 7886SOL    HW135291   2.920   2.032   8.276  1.1033  0.5218  0.6260
 7886SOL    HW235292   2.977   1.910   8.211 -0.3580  0.4408 -1.6402
 7887SOL     OW35293   1.170   1.270   4.919  0.3129  0.4257  0.2190
 7887SOL    HW135294   1.083   1.256   4.957 -0.4771  3.8133 -0.3218
 7887SOL    HW235295   1.145   1.310   4.836  2.4386 -0.5438 -0.8918
 7888SOL     OW35296   1.190   1.942   5.379  0.3566 -0.5747 -0.0057
 7888SOL    HW135297   1.241   1.921   5.301  0.5027 -3.2362  0.8289
 7888SOL    HW235298   1.246   1.904   5.447  0.4452 -0.6183 -0.1029
 7889SOL     OW35299   1.022   4.111   3.414 -0.3454  0.6768 -1.3366
 7889SOL    HW135300   1.090   4.088   3.478 -2.4575 -1.5103  0.1213
 7889SOL    HW235301   0.971   4.030   3.416 -1.6180  1.4653 -1.6962
 7890SOL     OW35302   0.286   2.671   8.520  0.0015 -0.0055 -0.3687
 7890SOL    HW135303   0.359   2.614   8.544  0.8889  0.9253 -0.8412
 7890SOL    HW235304   0.215   2.613   8.545  0.0525 -0.7756 -1.9962
 7891SOL     OW35305   2.105   1.344   4.095 -0.1633  0.5318  0.3143
 7891SOL    HW135306   2.099   1.275   4.161  0.4814  1.4606  1.3382
 7891SOL    HW235307   2.015   1.377   4.093  0.2916  1.7439 -0.2411
 7892SOL     OW35308   3.903   0.948  13.728  0.2860 -0.7950 -0.1880
 7892SOL    HW135309   3.928   0.966  13.638 -0.0867  0.4342 -0.0558
 7892SOL    HW235310   3.809   0.939  13.716  0.0428  0.1603  0.9726
 7893SOL     OW35311   4.047   3.647   4.709  0.0558  0.1380  0.3404
 7893SOL    HW135312   3.977   3.676   4.767  0.0178  0.3154  0.2052
 7893SOL    HW235313   4.010   3.573   4.660  0.2964  0.9614 -1.0868
 7894SOL     OW35314   3.438   0.758  10.271  0.8326  0.0065 -0.8532
 7894SOL    HW135315   3.349   0.725  10.281  0.7883  0.3876 -0.0193
 7894SOL    HW235316   3.464   0.716  10.189 -0.5747 -0.9622 -0.7919
 7895SOL     OW35317   0.357   2.670   8.270 -0.3226  0.9256  0.0720
 7895SOL    HW135318   0.305   2.589   8.276  1.0545  0.0875  0.6871
 7895SOL    HW235319   0.339   2.709   8.355 -3.0935  0.7839 -0.4279
 7896SOL     OW35320   1.636   1.165   6.971  0.5054 -0.6234 -0.5489
 7896SOL    HW135321   1.548   1.174   6.934 -0.3070 -1.3671  1.2362
 7896SOL    HW235322   1.645   1.247   7.019  2.5922 -1.0397 -0.2371
 7897SOL     OW35323   1.776   4.021   2.793  0.3285  0.1808  0.2579
 7897SOL    HW135324   1.736   4.095   2.838  0.0036 -0.2225  0.6336
 7897SOL    HW235325   1.840   3.987   2.856  1.3669 -0.0434 -0.9089
 7898SOL     OW35326   2.086   3.291   4.765 -0.4797  0.0177  0.7289
 7898SOL    HW135327   2.012   3.276   4.705 -0.1602  1.6712 -0.0865
 7898SOL    HW235328   2.034   3.302   4.845  3.1030 -0.2134  3.0447
 7899SOL     OW35329   4.715   1.512   6.492  0.2695 -0.2015  0.2888
 7899SOL    HW135330   4.678   1.596   6.519 -1.2350 -0.9734  0.6236
 7899SOL    HW235331   0.061   1.505   6.538  0.2975  1.1131  0.4281
 7900SOL     OW35332   1.059   4.688   2.542 -0.4223  0.1257 -0.1518
 7900SOL    HW135333   1.078   4.687   2.636 -1.1730  1.7928  0.0149
 7900SOL    HW235334   1.039   0.042   2.522  1.1489  0.3915 -0.4614
 7901SOL     OW35335   0.942   2.869  15.138  0.5428 -0.4581  0.0988
 7901SOL    HW135336   0.901   2.795  15.095  0.0190 -0.9604  1.4650
 7901SOL    HW235337   0.950   2.927  15.062  0.3358  0.4103  0.7269
 7902SOL     OW35338   2.648   1.224  13.883  0.0069 -0.2130  0.4940
 7902SOL    HW135339   2.599   1.163  13.828  0.4370  0.4961 -0.6872
 7902SOL    HW235340   2.590   1.238  13.957  0.0376  0.7000  0.3370
 7903SOL     OW35341   4.199   3.884  12.223 -0.0953 -0.4599 -0.6793
 7903SOL    HW135342   4.130   3.823  12.248  0.1900 -0.6290 -0.2986
 7903SOL    HW235343   4.221   3.866  12.132 -1.4445  0.1455 -1.1218
 7904SOL     OW35344   1.058   3.522   4.133  0.3915 -0.0185  0.2714
 7904SOL    HW135345   1.089   3.471   4.208 -1.3570 -1.7287 -0.1795
 7904SOL    HW235346   0.968   3.491   4.126  0.9470 -1.5335 -0.2307
 7905SOL     OW35347   0.474   1.191   8.982 -0.1907  0.2292 -0.2401
 7905SOL    HW135348   0.487   1.178   9.076  0.2249 -0.2332 -0.3681
 7905SOL    HW235349   0.401   1.253   8.976  0.2472  0.9078  1.1980
 7906SOL     OW35350   3.665   3.431   8.480  0.2234  0.3687  0.0114
 7906SOL    HW135351   3.592   3.489   8.460  0.8631  2.0883  2.8028
 7906SOL    HW235352   3.654   3.428   8.575 -1.2441 -0.5143 -0.1742
 7907SOL     OW35353   3.200   2.001   3.738 -0.1960  0.0372  0.4768
 7907SOL    HW135354   3.264   1.943   3.696 -2.0059 -0.6572 -1.3312
 7907SOL    HW235355   3.240   2.077   3.696 -1.9944  1.4033  1.2282
 7908SOL     OW35356   1.240   1.503  15.473 -0.4656 -0.2786 -0.0215
 7908SOL    HW135357   1.154   1.462  15.464  0.3415 -1.8800 -0.5195
 7908SOL    HW235358   1.234   1.575  15.410  2.3189 -0.1728 -0.1440
 7909SOL     OW35359   0.190   1.409   8.644  0.0538 -0.2778  0.5911
 7909SOL    HW135360   0.282   1.406   8.670 -0.1895 -1.8653  1.3153
 7909SOL    HW235361   0.165   1.326   8.685 -0.7879 -0.3066  0.0225
 7910SOL     OW35362   0.604   0.674   3.451  0.4870 -0.0773  0.3983
 7910SOL    HW135363   0.694   0.703   3.433  0.0513  1.0478  0.0740
 7910SOL    HW235364   0.629   0.641   3.537 -1.2723 -2.3318  0.0290
 7911SOL     OW35365   4.314   0.882   3.819  0.0735  0.6092 -0.0841
 7911SOL    HW135366   4.369   0.927   3.882  0.6018  1.4412 -1.1480
 7911SOL    HW235367   4.328   0.950   3.753  0.2867  1.0369  0.4054
 7912SOL     OW35368   2.799   4.628   6.516  0.0125 -0.1630  0.2174
 7912SOL    HW135369   2.861   4.628   6.443 -0.9708  2.1756 -0.6050
 7912SOL    HW235370   2.758   4.542   6.508 -1.8177  0.8404 -0.9525
 7913SOL     OW35371   0.607   2.591  14.948 -0.3572  0.4850  0.5358
 7913SOL    HW135372   0.544   2.523  14.971  0.4678 -0.8795 -1.2696
 7913SOL    HW235373   0.659   2.549  14.880 -0.9652  1.2177 -0.3790
 7914SOL     OW35374   1.857   0.555   4.291 -0.0132  0.2680  0.1059
 7914SOL    HW135375   1.858   0.526   4.382 -2.4599 -1.0557 -0.2736
 7914SOL    HW235376   1.762   0.565   4.291 -0.0652 -0.1591  2.0855
 7915SOL     OW35377   0.513   3.436  14.718 -0.2990  0.1816  0.2870
 7915SOL    HW135378   0.521   3.517  14.667 -2.4175  0.7417  0.8489
 7915SOL    HW235379   0.585   3.443  14.781 -0.8868  2.4856  0.6992
 7916SOL     OW35380   1.547   1.117  13.557  0.4074  0.0790  0.1296
 7916SOL    HW135381   1.586   1.043  13.603  0.3906  0.9695  1.5478
 7916SOL    HW235382   1.456   1.094  13.572  1.1869 -2.4635  0.9287
 7917SOL     OW35383   0.532   4.734   1.387 -0.2433 -0.4699 -0.6400
 7917SOL    HW135384   0.495   0.083   1.372  1.5957  0.7629  2.0507
 7917SOL    HW235385   0.515   4.685   1.306  2.7990 -0.3762 -1.3300
 7918SOL     OW35386   0.840   4.362   3.175 -0.2045  0.0612  0.2771
 7918SOL    HW135387   0.827   4.270   3.150 -0.1711  0.2769 -0.5284
 7918SOL    HW235388   0.833   4.412   3.094 -0.0132 -0.1859  0.1085
 7919SOL     OW35389   2.253   0.697  12.691 -0.1949 -0.4389 -0.2032
 7919SOL    HW135390   2.298   0.642  12.627 -1.4055 -1.2556 -0.3456
 7919SOL    HW235391   2.323   0.712  12.755 -0.1236  1.1609 -0.6523
 7920SOL     OW35392   3.214   2.879   7.493  0.0376 -0.9048 -0.7187
 7920SOL    HW135393   3.130   2.867   7.449 -0.3359  1.9854 -0.8363
 7920SOL    HW235394   3.216   2.807   7.555 -1.5458 -1.6442 -1.5330
 7921SOL     OW35395   1.860   3.521   0.774 -0.1029  0.0821  0.2030
 7921SOL    HW135396   1.878   3.469   0.696  0.3052 -0.7021  0.8255
 7921SOL    HW235397   1.900   3.605   0.750  0.9552 -0.9696 -1.6394
 7922SOL     OW35398   0.388   1.010   7.124 -0.8381 -0.3300  0.6269
 7922SOL    HW135399   0.401   0.948   7.052 -1.4685  3.6129 -2.9657
 7922SOL    HW235400   0.456   0.977   7.182 -1.4452 -0.5179  1.2262
 7923SOL     OW35401   4.374   4.384  14.076 -0.5437 -0.0592 -0.6815
 7923SOL    HW135402   4.460   4.349  14.056  0.8001  2.7760  0.0765
 7923SOL    HW235403   4.353   4.351  14.164 -0.8560  0.7915 -0.4369
 7924SOL     OW35404   2.020   1.071   8.983  0.1875  0.4798 -0.5421
 7924SOL    HW135405   2.071   1.012   8.927 -0.2078  0.2726 -0.6785
 7924SOL    HW235406   2.040   1.040   9.071 -0.8754  1.1491 -0.0648
 7925SOL     OW35407   0.337   0.809   1.932  0.1455 -0.0054  0.3600
 7925SOL    HW135408   0.289   0.765   2.002 -0.3538 -2.3962 -1.4904
 7925SOL    HW235409   0.386   0.873   1.983  1.3282  1.4363 -2.5724
 7926SOL     OW35410   2.034   2.610   1.659  0.4307 -0.1988  0.1303
 7926SOL    HW135411   2.010   2.678   1.722  1.8497 -0.4224  0.9147
 7926SOL    HW235412   2.120   2.580   1.688 -0.0410  0.0130  1.7828
 7927SOL     OW35413   3.557   0.252   6.711 -0.6271 -0.5705 -0.2934
 7927SOL    HW135414   3.546   0.199   6.791  0.9609  0.8700  0.8713
 7927SOL    HW235415   3.623   0.201   6.664  1.7003  0.2051  2.1401
 7928SOL     OW35416   4.648   2.249   5.396  0.3915 -0.2108  0.0454
 7928SOL    HW135417   4.698   2.182   5.444  0.9611  0.3404  0.2229
 7928SOL    HW235418   4.688   2.226   5.312  2.4384  1.0888  0.6582
 7929SOL     OW35419   2.293   3.075   1.470  0.0135 -0.0338  0.3587
 7929SOL    HW135420   2.304   2.981   1.485  0.7406  0.4205  2.6313
 7929SOL    HW235421   2.279   3.083   1.375 -1.5536 -0.6715  0.5377
 7930SOL     OW35422   3.866   2.327   9.193  0.4363  0.0592 -0.4123
 7930SOL    HW135423   3.909   2.380   9.260 -0.3697 -1.5822  1.4065
 7930SOL    HW235424   3.807   2.384   9.143  1.2215 -0.3748 -1.8189
 7931SOL     OW35425   2.029   1.908   6.643  0.7968 -0.3208 -0.1970
 7931SOL    HW135426   2.085   1.985   6.652  0.1607  0.3261 -1.8387
 7931SOL    HW235427   2.075   1.844   6.697 -0.9319 -0.4331  1.1298
 7932SOL     OW35428   3.690   2.387  15.545 -0.4326  0.3554 -0.5072
 7932SOL    HW135429   3.716   2.431  15.626  2.6579 -0.0153 -1.3161
 7932SOL    HW235430   3.748   2.433  15.485  0.3718  1.0624  0.8037
 7933SOL     OW35431   3.167   0.249   3.726  0.1180 -0.1370 -0.0715
 7933SOL    HW135432   3.150   0.157   3.706 -1.2085  0.5787 -2.1604
 7933SOL    HW235433   3.087   0.281   3.768 -0.0290  0.3108 -0.6914
 7934SOL     OW35434   1.052   1.671  16.925 -0.0868  0.3025  0.1154
 7934SOL    HW135435   1.065   1.688  16.831  2.0682  0.0528  0.3625
 7934SOL    HW235436   1.113   1.736  16.961 -0.8860  1.2832 -0.2963
 7935SOL     OW35437   4.704   1.922   3.599  0.2711 -0.5887  0.0246
 7935SOL    HW135438   0.045   1.868   3.587  1.4717  0.7587  1.8010
 7935SOL    HW235439   0.001   2.011   3.605 -1.3017  0.1116 -1.2332
 7936SOL     OW35440   0.960   2.849   3.000 -0.3243 -0.2706  1.2021
 7936SOL    HW135441   1.038   2.873   2.950 -0.0022 -1.8042  0.9815
 7936SOL    HW235442   0.996   2.842   3.088 -0.0189  0.1874  1.1148
 7937SOL     OW35443   1.700   0.557   6.801 -0.1770  0.0282  0.1746
 7937SOL    HW135444   1.694   0.534   6.708 -1.8069 -0.6109  0.4445
 7937SOL    HW235445   1.774   0.501   6.827 -1.3392 -1.2608  0.6872
 7938SOL     OW35446   2.325   1.890  14.108 -0.1255 -0.1120  0.1595
 7938SOL    HW135447   2.403   1.856  14.153 -0.3631 -0.4316  0.3287
 7938SOL    HW235448   2.327   1.837  14.029 -1.2191 -1.0919  0.7930
 7939SOL     OW35449   2.213   1.332   8.051  0.0525 -0.0300 -0.0967
 7939SOL    HW135450   2.250   1.307   8.136  0.2024  0.3946 -0.0362
 7939SOL    HW235451   2.282   1.298   7.994  0.2397 -1.3119  0.8862
 7940SOL     OW35452   3.606   2.295   6.805  0.3248  0.0332  0.2261
 7940SOL    HW135453   3.529   2.244   6.828 -0.7604  1.2049 -0.8127
 7940SOL    HW235454   3.607   2.362   6.874  0.6066  1.8486 -1.5232
 7941SOL     OW35455   2.417   0.310   6.924 -0.6533 -0.2470  0.2450
 7941SOL    HW135456   2.511   0.323   6.908 -0.5862 -2.0956 -0.8140
 7941SOL    HW235457   2.406   0.222   6.960  0.5808 -0.7188 -0.5284
 7942SOL     OW35458   3.298   4.595   1.634  0.3189 -0.3587  0.0340
 7942SOL    HW135459   3.251   4.646   1.568  1.2424 -0.6741 -0.8803
 7942SOL    HW235460   3.368   4.563   1.577  0.9013  0.8497  0.0777
 7943SOL     OW35461   0.616   1.496   3.523 -0.0805 -0.5295  0.0836
 7943SOL    HW135462   0.604   1.553   3.447  1.8552 -1.7764 -1.1726
 7943SOL    HW235463   0.641   1.562   3.587  0.2368 -1.4579  0.9215
 7944SOL     OW35464   0.753   0.913   6.188  0.1720  0.7839 -0.3437
 7944SOL    HW135465   0.840   0.906   6.150 -0.6068  0.3168 -2.0237
 7944SOL    HW235466   0.769   0.911   6.283  0.5788  0.2631 -0.4263
 7945SOL     OW35467   3.197   3.415   3.591  0.6192 -0.2694  0.1321
 7945SOL    HW135468   3.196   3.444   3.499 -1.2701  1.0776  0.5799
 7945SOL    HW235469   3.163   3.496   3.629  0.7779  0.7845 -1.9245
 7946SOL     OW35470   2.865   2.100   5.123 -0.2687 -0.0224  0.7585
 7946SOL    HW135471   2.926   2.072   5.055 -0.0197  2.6471 -0.1040
 7946SOL    HW235472   2.854   2.016   5.169 -1.0631 -0.2777  0.1031
 7947SOL     OW35473   1.087   2.070   4.497 -0.1388  0.1875 -0.0432
 7947SOL    HW135474   1.134   1.997   4.455 -0.5668  0.1022 -0.3762
 7947SOL    HW235475   1.042   2.027   4.570 -1.4490 -0.0966 -1.0011
 7948SOL     OW35476   1.453   3.039  14.375 -0.5262  0.5749 -0.2257
 7948SOL    HW135477   1.504   3.095  14.316  0.0408  0.6235  0.3120
 7948SOL    HW235478   1.398   2.984  14.319  1.2219 -0.7946 -0.6135
 7949SOL     OW35479   4.155   3.443   2.304  0.4172 -0.3357 -0.5763
 7949SOL    HW135480   4.140   3.487   2.220 -0.9189 -0.7442 -0.5618
 7949SOL    HW235481   4.120   3.359   2.276 -0.9227 -0.0773  0.3395
 7950SOL     OW35482   1.186   1.461   6.058 -0.0082  0.3297  0.1665
 7950SOL    HW135483   1.168   1.367   6.060  1.1261  0.1339  1.1931
 7950SOL    HW235484   1.113   1.490   6.003 -0.2432 -0.5480  0.0095
 7951SOL     OW35485   3.910   4.415   6.099 -0.1099  0.3016  0.2432
 7951SOL    HW135486   3.864   4.331   6.102  1.5884 -0.6810 -1.1345
 7951SOL    HW235487   3.853   4.463   6.039 -0.2991  0.5047  0.5856
 7952SOL     OW35488   2.086   0.432  14.044 -0.1273 -0.0238  0.1648
 7952SOL    HW135489   2.135   0.477  14.112  1.5735  1.1451 -1.8178
 7952SOL    HW235490   2.111   0.340  14.054  0.1492  0.0981  0.5551
 7953SOL     OW35491   3.494   0.609  15.621 -0.5999  0.5291  0.0158
 7953SOL    HW135492   3.411   0.641  15.584  0.1772 -0.1773 -2.3234
 7953SOL    HW235493   3.496   0.640  15.711 -1.0046  1.4853 -0.3024
 7954SOL     OW35494   2.037   2.221  15.305  0.0300  0.1581 -0.3196
 7954SOL    HW135495   2.064   2.241  15.395  0.4085  1.3819 -0.7041
 7954SOL    HW235496   2.119   2.204  15.259 -0.9214 -2.2041 -1.1363
 7955SOL     OW35497   2.943   3.730  14.901  0.6318  0.2772 -0.4263
 7955SOL    HW135498   2.989   3.801  14.945 -0.8800  1.8518 -1.3849
 7955SOL    HW235499   2.917   3.682  14.979  1.5059 -1.8942 -1.4792
 7956SOL     OW35500   3.305   2.136  12.824  0.0072 -0.5900 -0.1253
 7956SOL    HW135501   3.264   2.110  12.741  2.3393 -0.5433 -1.3030
 7956SOL    HW235502   3.234   2.131  12.888 -0.3366  0.0232 -0.4631
 7957SOL     OW35503   3.627   1.766  15.959 -0.1344 -0.0837 -0.0345
 7957SOL    HW135504   3.632   1.781  15.864 -0.2591 -2.8226 -0.4774
 7957SOL    HW235505   3.555   1.828  15.971  0.7166  0.8508  0.2259
 7958SOL     OW35506   3.420   2.894  16.055 -0.6290 -0.3387 -0.7102
 7958SOL    HW135507   3.407   2.981  16.093  1.5952 -1.3089  2.2208
 7958SOL    HW235508   3.362   2.893  15.979 -1.0109  0.0657 -0.4288
 7959SOL     OW35509   0.202   1.150   7.510 -0.4735  0.1911  0.1727
 7959SOL    HW135510   0.280   1.204   7.498  0.3502 -1.4619 -2.0571
 7959SOL    HW235511   0.154   1.210   7.567 -1.2889 -0.7753  0.5039
 7960SOL     OW35512   4.414   2.133  12.007 -0.3166  0.0642  0.3318
 7960SOL    HW135513   4.373   2.078  12.073  0.6986 -0.9644  0.1122
 7960SOL    HW235514   4.488   2.077  11.983 -1.4859 -1.9754  1.5328
 7961SOL     OW35515   4.555   1.034   3.423  0.0815  0.0454  0.3603
 7961SOL    HW135516   4.646   1.063   3.417 -0.3566  1.1918 -0.6511
 7961SOL    HW235517   4.531   1.062   3.334 -3.1942 -1.9956  0.5766
 7962SOL     OW35518   1.644   2.681   3.589  0.5358  0.3020  0.0123
 7962SOL    HW135519   1.639   2.648   3.679  2.0106 -2.5599 -0.9412
 7962SOL    HW235520   1.567   2.647   3.543 -0.0733  1.9161 -0.1872
 7963SOL     OW35521   2.947   3.621   6.013 -0.4208 -0.1047  0.4604
 7963SOL    HW135522   2.867   3.613   6.064 -1.4617 -1.4739 -1.4081
 7963SOL    HW235523   2.981   3.533   6.028 -0.6202 -0.2258  0.2152
 7964SOL     OW35524   2.456   2.263   9.513 -0.0816 -0.4861 -0.0285
 7964SOL    HW135525   2.373   2.223   9.536 -1.7757  2.3741 -1.1555
 7964SOL    HW235526   2.481   2.229   9.427  0.6600  1.0387 -0.4312
 7965SOL     OW35527   4.631   3.882   0.945  0.3130  0.0305  0.2963
 7965SOL    HW135528   4.605   3.927   1.025 -2.1571  1.0740 -1.0923
 7965SOL    HW235529   4.716   3.922   0.929  0.7410 -0.3574  1.5663
 7966SOL     OW35530   3.382   4.454   7.852 -0.1736  0.3594  0.7185
 7966SOL    HW135531   3.404   4.488   7.939 -1.3768 -1.4325  1.7335
 7966SOL    HW235532   3.305   4.402   7.878 -0.0940  0.9945  2.2141
 7967SOL     OW35533   2.220   2.139   2.660 -0.3428 -0.1007  0.6007
 7967SOL    HW135534   2.171   2.207   2.613  0.7342  1.3648  1.6047
 7967SOL    HW235535   2.299   2.184   2.691 -0.0468 -1.3829  1.7154
 7968SOL     OW35536   2.211   0.627   1.223 -0.0783  0.9435  0.3006
 7968SOL    HW135537   2.247   0.542   1.246 -1.0793  0.4444  0.0188
 7968SOL    HW235538   2.152   0.648   1.295  1.0685  1.7811  1.0054
 7969SOL     OW35539   1.542   0.519  10.982  0.1777 -0.2333  0.2192
 7969SOL    HW135540   1.553   0.496  10.890  2.7317 -0.2961  0.5418
 7969SOL    HW235541   1.627   0.521  11.026  0.6699 -0.5583 -0.7053
 7970SOL     OW35542   1.810   0.736   7.156 -0.3328  0.2869 -0.3782
 7970SOL    HW135543   1.884   0.723   7.097 -0.4885  0.4989 -0.6209
 7970SOL    HW235544   1.750   0.682   7.105  0.9942 -0.1730 -1.4492
 7971SOL     OW35545   0.414   1.168   9.395  0.1762  0.3429  0.3860
 7971SOL    HW135546   0.466   1.091   9.418  0.0369 -0.2858 -1.3877
 7971SOL    HW235547   0.477   1.227   9.436 -0.2633  0.7004  0.5486
 7972SOL     OW35548   1.018   1.185   4.594 -0.2033  0.2200 -0.7644
 7972SOL    HW135549   1.075   1.256   4.624 -0.9750  0.6097 -0.1822
 7972SOL    HW235550   0.964   1.230   4.529 -0.3897 -0.2059 -0.9049
 7973SOL     OW35551   0.902   0.200   2.034  0.1717 -0.3229  0.3169
 7973SOL    HW135552   0.952   0.276   2.005  1.1587 -0.1989  2.3079
 7973SOL    HW235553   0.811   0.218   2.008  1.4333  3.6418 -1.2940
 7974SOL     OW35554   0.155   0.387   5.118  0.2706 -0.3989 -0.2313
 7974SOL    HW135555   0.230   0.447   5.131 -0.9211  0.8103  1.0506
 7974SOL    HW235556   0.122   0.406   5.206  0.3312 -0.1751 -0.2548
 7975SOL     OW35557   3.552   0.431   8.000  0.3274 -0.1744  0.1191
 7975SOL    HW135558   3.617   0.414   8.067  2.1037  3.2511 -0.7441
 7975SOL    HW235559   3.501   0.500   8.043  1.1004  0.1897  0.4453
 7976SOL     OW35560   1.366   4.661  12.287 -0.1358  0.2001 -0.2316
 7976SOL    HW135561   1.373   4.566  12.288 -1.5438  0.0398 -3.1907
 7976SOL    HW235562   1.418   4.677  12.208 -0.0458  0.2202 -0.1671
 7977SOL     OW35563   3.312   1.159   2.612 -0.2151 -0.2772  0.1600
 7977SOL    HW135564   3.407   1.159   2.619 -0.2633  2.4865  0.8582
 7977SOL    HW235565   3.290   1.066   2.622  0.6499 -0.5587 -0.5822
 7978SOL     OW35566   2.210   2.289  11.554  0.6991  0.0204 -0.1307
 7978SOL    HW135567   2.194   2.196  11.568  0.0417  0.8329  4.3693
 7978SOL    HW235568   2.284   2.285  11.493 -1.0699 -1.1895 -2.1512
 7979SOL     OW35569   3.521   1.431  10.419 -0.7106  0.2113 -0.3788
 7979SOL    HW135570   3.511   1.362  10.485 -0.1761  0.1671 -0.3423
 7979SOL    HW235571   3.488   1.499  10.478 -2.3754  0.5623 -1.7186
 7980SOL     OW35572   4.027   3.241  13.660  0.0377 -0.1731  0.2892
 7980SOL    HW135573   3.977   3.282  13.730 -0.4746 -1.0343  0.4274
 7980SOL    HW235574   4.009   3.298  13.585  1.6808 -0.2155 -0.1363
 7981SOL     OW35575   0.087   2.350   4.069 -0.3287 -0.6178  0.5729
 7981SOL    HW135576   0.094   2.327   3.977  3.9800 -0.3393  0.8260
 7981SOL    HW235577   0.119   2.265   4.101  0.7182  0.2126  1.7282
 7982SOL     OW35578   1.501   3.652   7.115  0.7690 -0.3054 -0.4205
 7982SOL    HW135579   1.525   3.583   7.177 -0.3006  0.8476  1.2815
 7982SOL    HW235580   1.452   3.606   7.048 -0.5808 -0.0350  0.3812
 7983SOL     OW35581   2.081   0.356  10.755 -0.0661 -0.4062  0.4174
 7983SOL    HW135582   2.122   0.271  10.771 -1.7021 -1.3783 -0.5109
 7983SOL    HW235583   1.992   0.321  10.760  0.3530 -0.8554  4.6061
 7984SOL     OW35584   1.131   4.492   3.792  0.3726 -0.2656 -0.1808
 7984SOL    HW135585   1.102   4.575   3.831 -0.9552 -1.1968  0.8189
 7984SOL    HW235586   1.220   4.512   3.761 -0.9453  0.2974 -3.5545
 7985SOL     OW35587   2.742   0.720  16.740  0.0603 -0.1606  0.1206
 7985SOL    HW135588   2.697   0.722  16.824  0.3566 -1.5347  0.3154
 7985SOL    HW235589   2.748   0.810  16.709  2.4172 -0.2370  0.3387
 7986SOL     OW35590   3.878   2.656  12.407 -0.4496  0.5124  0.2687
 7986SOL    HW135591   3.967   2.626  12.424 -0.6626  0.6750  1.7033
 7986SOL    HW235592   3.850   2.686  12.494 -0.6989 -0.9716  0.7027
 7987SOL     OW35593   3.496   1.759  14.915 -0.2600 -0.0185 -1.0914
 7987SOL    HW135594   3.467   1.671  14.937  0.7644  0.0000  0.3652
 7987SOL    HW235595   3.591   1.749  14.921 -0.3353 -0.6085 -0.8513
 7988SOL     OW35596   0.943   1.485   7.167  0.4956  0.5750  0.6656
 7988SOL    HW135597   0.940   1.575   7.202 -2.5331  0.8134 -0.2787
 7988SOL    HW235598   1.037   1.474   7.181  0.4081 -0.5956  0.2850
 7989SOL     OW35599   4.222   0.134   9.169 -0.0318 -0.3625  0.1218
 7989SOL    HW135600   4.252   0.068   9.106 -0.1915 -0.9731  0.6807
 7989SOL    HW235601   4.136   0.095   9.187  0.3017 -0.9863  0.3622
 7990SOL     OW35602   1.711   3.890   8.793 -0.2589  0.1634 -0.4064
 7990SOL    HW135603   1.649   3.924   8.857 -0.9167 -0.5377 -0.6708
 7990SOL    HW235604   1.706   3.797   8.815 -0.1356 -0.1400 -1.6635
 7991SOL     OW35605   0.182   1.600   6.901 -0.2078  0.3284 -0.4280
 7991SOL    HW135606   0.133   1.682   6.914 -0.8610 -0.5930  2.8380
 7991SOL    HW235607   0.247   1.606   6.972 -0.4356  1.5426 -0.3104
 7992SOL     OW35608   0.027   4.059  10.000 -0.2335  0.1244 -0.3431
 7992SOL    HW135609   0.028   4.110  10.081 -0.9355  0.0237 -0.2703
 7992SOL    HW235610   0.113   4.076   9.962 -0.0052  1.5181  0.7838
 7993SOL     OW35611   4.545   1.853  12.162 -0.5495 -0.1490 -0.8041
 7993SOL    HW135612   4.589   1.816  12.238 -1.2336 -1.6400 -1.1102
 7993SOL    HW235613   4.614   1.907  12.123  0.0872 -0.7619 -0.5240
 7994SOL     OW35614   0.880   0.660  12.693  0.8135  0.1520 -0.6502
 7994SOL    HW135615   0.900   0.664  12.787 -1.6934 -1.2130 -0.0447
 7994SOL    HW235616   0.807   0.722  12.692 -0.0970 -0.8942  0.1820
 7995SOL     OW35617   2.930   3.790  16.246 -0.2560 -0.3530  0.4502
 7995SOL    HW135618   2.923   3.704  16.205  0.7026 -0.7584  1.1478
 7995SOL    HW235619   2.909   3.769  16.337  0.8124  1.1926  1.0478
 7996SOL     OW35620   4.079   1.568  15.076  0.3918 -0.3784  0.3784
 7996SOL    HW135621   4.020   1.492  15.075 -1.6947  1.2344  1.6449
 7996SOL    HW235622   4.164   1.524  15.087  2.0297  2.4412 -0.9836
 7997SOL     OW35623   2.149   2.445   5.181  0.3663 -0.2049 -0.4252
 7997SOL    HW135624   2.229   2.495   5.196  1.1564 -0.4472 -3.9269
 7997SOL    HW235625   2.145   2.442   5.085 -2.1008 -0.1889 -0.3395
 7998SOL     OW35626   1.800   2.330   4.309 -0.4640 -0.4483 -0.1886
 7998SOL    HW135627   1.891   2.304   4.320 -0.6561 -0.6978  0.7417
 7998SOL    HW235628   1.811   2.411   4.258 -1.4490 -1.6219 -2.2946
 7999SOL     OW35629   1.221   4.128   5.481 -0.3060  0.0233  0.6533
 7999SOL    HW135630   1.195   4.195   5.418  3.7738 -1.9114 -3.0668
 7999SOL    HW235631   1.170   4.056   5.442 -1.0288  0.3964  0.9080
 8000SOL     OW35632   2.009   1.193   1.731  0.2973  0.8332 -0.0940
 8000SOL    HW135633   2.083   1.241   1.692 -0.0638  0.9800 -0.5883
 8000SOL    HW235634   1.958   1.209   1.651 -1.0032  0.4847  0.6719
 8001SOL     OW35635   1.032   0.597   7.740 -0.1657 -0.4069 -0.5870
 8001SOL    HW135636   1.103   0.648   7.702 -0.2007  0.2208  0.1842
 8001SOL    HW235637   1.050   0.618   7.832  0.7765  1.6492 -1.2323
 8002SOL     OW35638   4.084   0.298   2.212  0.2425  0.0665  0.3831
 8002SOL    HW135639   4.015   0.365   2.209 -0.1711 -0.4216 -0.8586
 8002SOL    HW235640   4.024   0.225   2.200  1.0745 -0.2629 -1.7356
 8003SOL     OW35641   1.346   0.462   0.935 -0.5162 -0.1695 -0.0389
 8003SOL    HW135642   1.268   0.431   0.981 -1.8253  0.8123 -1.6121
 8003SOL    HW235643   1.381   0.381   0.898 -1.4777 -0.3349 -0.5627
 8004SOL     OW35644   4.533   3.989   5.749 -0.3751 -0.2659  0.4349
 8004SOL    HW135645   4.488   3.935   5.684  0.1225 -0.4019  0.1961
 8004SOL    HW235646   4.455   4.024   5.790 -0.3035  0.1953  0.1843
 8005SOL     OW35647   2.217   3.058   7.663 -0.1498  0.5401  0.4349
 8005SOL    HW135648   2.199   2.964   7.670  1.2736  0.1880 -0.6230
 8005SOL    HW235649   2.128   3.089   7.649 -0.8454 -2.1526 -1.0861
 8006SOL     OW35650   4.261   4.190  13.644  0.4630 -0.0144 -0.2278
 8006SOL    HW135651   4.243   4.122  13.709 -1.9261  1.5173  0.7407
 8006SOL    HW235652   4.277   4.264  13.703 -3.0263  1.4862 -1.1411
 8007SOL     OW35653   2.884   2.406   5.580  0.2760  0.5171  0.9472
 8007SOL    HW135654   2.887   2.326   5.632  1.0767  0.8835  1.4669
 8007SOL    HW235655   2.918   2.380   5.495 -0.3309  1.2442  0.4800
 8008SOL     OW35656   0.667   0.500   7.680 -0.1022  0.2106 -0.7203
 8008SOL    HW135657   0.743   0.443   7.667 -0.9126 -0.9708 -0.2891
 8008SOL    HW235658   0.707   0.587   7.668 -1.3180  0.9716  0.8045
 8009SOL     OW35659   2.803   1.438   6.074  0.2858  0.1240 -0.3610
 8009SOL    HW135660   2.837   1.372   6.135  0.9163  2.7135  2.0815
 8009SOL    HW235661   2.851   1.515   6.105 -1.5175  1.5503 -1.1372
 8010SOL     OW35662   0.525   0.650   4.691 -0.0199 -0.5068  0.5683
 8010SOL    HW135663   0.611   0.677   4.658  0.4920 -1.9928  0.7164
 8010SOL    HW235664   0.467   0.644   4.615 -1.2393  1.7176  1.3196
 8011SOL     OW35665   1.530   0.874   8.784 -0.0289 -0.5611  0.8673
 8011SOL    HW135666   1.444   0.863   8.824 -0.5153 -1.7281 -0.5331
 8011SOL    HW235667   1.590   0.896   8.856  0.2023 -0.3802  0.6184
 8012SOL     OW35668   4.257   0.605   5.177 -0.4004 -0.2124 -0.2553
 8012SOL    HW135669   4.303   0.539   5.125 -0.7242 -1.3245  0.8821
 8012SOL    HW235670   4.255   0.557   5.259  1.5679  0.7374  0.3572
 8013SOL     OW35671   0.240   3.927   9.236  0.4953  0.7020  0.2316
 8013SOL    HW135672   0.271   3.919   9.326  0.6975  1.5864  0.2465
 8013SOL    HW235673   0.146   3.915   9.247  0.5063 -0.0041 -0.4821
 8014SOL     OW35674   2.469   0.755   3.754  0.4867 -0.3112  0.0529
 8014SOL    HW135675   2.476   0.790   3.842  0.4172 -1.1700  0.3955
 8014SOL    HW235676   2.376   0.736   3.743  0.1377  0.9751  0.7550
 8015SOL     OW35677   4.013   4.663   3.222 -0.4652 -0.2119  0.1013
 8015SOL    HW135678   3.917   4.670   3.226 -0.4012  0.3353  0.5718
 8015SOL    HW235679   4.023   4.569   3.208 -1.5273 -0.0861 -1.5785
 8016SOL     OW35680   1.815   3.322   8.477 -0.5560  0.3033 -0.3563
 8016SOL    HW135681   1.908   3.327   8.499 -0.4182  0.0557 -0.8796
 8016SOL    HW235682   1.807   3.389   8.408 -1.6295 -0.1842 -0.7038
 8017SOL     OW35683   4.201   1.729  13.173  0.0769  0.1716 -0.7973
 8017SOL    HW135684   4.295   1.747  13.172  0.2405 -0.6965 -0.2948
 8017SOL    HW235685   4.185   1.728  13.079 -0.6421  0.3503 -0.6773
 8018SOL     OW35686   3.963   0.061   1.413 -0.2349 -0.0058 -0.4431
 8018SOL    HW135687   3.905   0.063   1.489  0.9675  0.5050  0.4645
 8018SOL    HW235688   3.930   0.129   1.354  2.1914 -1.1656 -3.1701
 8019SOL     OW35689   4.676   4.515  11.024 -0.1412  0.1469 -0.3000
 8019SOL    HW135690   4.661   4.487  11.114 -0.5597 -1.6246 -0.9045
 8019SOL    HW235691   4.592   4.517  10.979 -0.6138 -0.3632  0.5511
 8020SOL     OW35692   0.536   4.270   7.365  0.2698  0.2473 -0.2839
 8020SOL    HW135693   0.623   4.257   7.402  0.4713  2.1677 -0.0927
 8020SOL    HW235694   0.551   4.359   7.332  0.3365  0.2033 -0.3692
 8021SOL     OW35695   3.065   2.891   1.582 -0.3232  0.2425  0.2520
 8021SOL    HW135696   3.138   2.947   1.609 -0.5301 -0.0139  1.3688
 8021SOL    HW235697   2.993   2.950   1.605  0.9951  1.9181  0.1621
 8022SOL     OW35698   2.179   4.298   8.961  0.1942 -0.1870  0.4852
 8022SOL    HW135699   2.222   4.226   9.007 -2.1758 -0.4290  2.3511
 8022SOL    HW235700   2.101   4.306   9.016 -1.4743  0.7591 -2.0026
 8023SOL     OW35701   2.447   2.790   0.588  0.5459 -0.0591  0.5735
 8023SOL    HW135702   2.423   2.732   0.660  1.4705 -1.3695 -0.1835
 8023SOL    HW235703   2.542   2.793   0.596  0.5522  2.2277 -0.3587
 8024SOL     OW35704   0.543   1.893   8.017  0.6701  0.3948 -0.0087
 8024SOL    HW135705   0.637   1.903   8.034  0.9305 -2.0044 -0.0596
 8024SOL    HW235706   0.521   1.850   8.100  1.4497 -0.8600 -0.4539
 8025SOL     OW35707   2.427   0.505  15.855  0.8140  0.2102 -0.1421
 8025SOL    HW135708   2.378   0.436  15.812  1.5536 -0.4625  0.0991
 8025SOL    HW235709   2.372   0.582  15.840 -1.6952 -1.4927  0.3798
 8026SOL     OW35710   2.571   2.747   8.642  0.1749  0.3913 -0.0035
 8026SOL    HW135711   2.610   2.671   8.598  0.2648 -0.1931  1.0937
 8026SOL    HW235712   2.483   2.714   8.661 -1.0965  1.6899 -3.5811
 8027SOL     OW35713   2.303   2.675   3.825 -0.6010 -0.4000 -0.4344
 8027SOL    HW135714   2.221   2.678   3.775 -0.6860  0.0196 -0.2740
 8027SOL    HW235715   2.277   2.700   3.914 -0.8813  0.2416 -0.6938
 8028SOL     OW35716   3.099   4.375   8.553 -0.1641 -0.2087  0.2727
 8028SOL    HW135717   3.016   4.400   8.512  1.1953  0.0791 -2.2635
 8028SOL    HW235718   3.102   4.282   8.532  0.3279 -0.5513  1.8593
 8029SOL     OW35719   2.985   1.245   7.085 -0.0492  0.0176 -0.0962
 8029SOL    HW135720   2.988   1.280   6.996 -1.7083 -2.0364 -0.9482
 8029SOL    HW235721   3.071   1.278   7.112 -0.4191  2.4872 -2.0306
 8030SOL     OW35722   0.367   0.883   6.871 -0.1579 -0.0086  0.0148
 8030SOL    HW135723   0.365   0.962   6.818 -0.5408 -0.4101 -0.5715
 8030SOL    HW235724   0.275   0.883   6.898 -0.2048  0.9961 -0.1744
 8031SOL     OW35725   2.329   2.449   8.080  0.4033 -0.7100  0.1898
 8031SOL    HW135726   2.363   2.400   8.154  0.3659  0.3716  0.9315
 8031SOL    HW235727   2.235   2.436   8.070  0.1894  1.5085 -0.7929
 8032SOL     OW35728   4.624   2.207   4.246  0.3215  0.0057 -0.3813
 8032SOL    HW135729   4.578   2.245   4.172 -1.2381  1.6753  1.4268
 8032SOL    HW235730   4.553   2.202   4.311 -0.2992  0.4143 -1.0308
 8033SOL     OW35731   0.439   0.393  14.181 -0.3509  0.0600 -0.3629
 8033SOL    HW135732   0.473   0.305  14.199  1.5547  0.6372 -1.1372
 8033SOL    HW235733   0.411   0.386  14.090 -1.2510  1.5593 -0.2054
 8034SOL     OW35734   0.054   4.221  14.822  0.0041 -0.4524 -0.7055
 8034SOL    HW135735   4.723   4.194  14.761 -1.5590  0.4223  0.6754
 8034SOL    HW235736   0.112   4.146  14.809 -1.5047 -1.6465 -0.5598
 8035SOL     OW35737   3.329   4.623  15.889 -0.2971  0.5817  0.2278
 8035SOL    HW135738   3.280   4.692  15.933 -0.2252  0.3883  0.6103
 8035SOL    HW235739   3.405   4.609  15.945 -0.7523 -0.2139  0.6564
 8036SOL     OW35740   2.854   1.872   5.266 -0.6267  0.2352  0.6353
 8036SOL    HW135741   2.905   1.791   5.259  2.1029  2.2068 -1.9593
 8036SOL    HW235742   2.821   1.862   5.355  0.3161 -1.0598  0.8347
 8037SOL     OW35743   2.856   3.360  13.160  0.0906 -0.3048 -0.5343
 8037SOL    HW135744   2.810   3.277  13.144 -1.0961  0.5002 -1.3062
 8037SOL    HW235745   2.787   3.411  13.204  1.8951  1.4748  0.2200
 8038SOL     OW35746   1.112   0.005  16.510  0.9141 -0.7347  1.0060
 8038SOL    HW135747   1.176   0.039  16.573  3.0879 -2.6463 -0.1567
 8038SOL    HW235748   1.152   0.023  16.425 -0.1984  0.8313  0.8145
 8039SOL     OW35749   1.480   2.944   8.107 -0.6541 -0.1979  0.1161
 8039SOL    HW135750   1.508   3.033   8.129  1.1786 -1.1919  1.7983
 8039SOL    HW235751   1.504   2.896   8.186 -3.0949 -0.2209  0.8449
 8040SOL     OW35752   3.808   0.222  11.566 -0.2222 -0.2816 -0.0945
 8040SOL    HW135753   3.759   0.187  11.492  0.1212  2.4296 -1.5811
 8040SOL    HW235754   3.798   0.315  11.545  1.2059 -0.1030  0.0200
 8041SOL     OW35755   0.116   2.955  10.783 -0.1065  0.3591 -0.3528
 8041SOL    HW135756   0.163   2.873  10.798 -2.0670 -1.2539 -3.0621
 8041SOL    HW235757   0.078   2.962  10.871  0.7259  0.9775 -0.0424
 8042SOL     OW35758   0.481   3.530   2.471 -0.0652  0.0915  0.1830
 8042SOL    HW135759   0.560   3.558   2.425  1.2764 -3.8225  0.0930
 8042SOL    HW235760   0.521   3.509   2.556 -0.0760 -0.5746  0.0213
 8043SOL     OW35761   1.588   3.840   9.826 -0.5885  0.1986  0.2681
 8043SOL    HW135762   1.499   3.852   9.860 -0.9901 -1.6015 -0.1673
 8043SOL    HW235763   1.618   3.929   9.847  1.9976 -0.9175  1.2897
 8044SOL     OW35764   3.376   1.126   4.684  0.3669  0.0197  0.2632
 8044SOL    HW135765   3.296   1.101   4.731  0.3072 -0.9053 -0.3391
 8044SOL    HW235766   3.440   1.122   4.755  0.8359  1.5065 -0.0706
 8045SOL     OW35767   0.200   2.453   8.212 -0.2161 -0.0134 -0.0956
 8045SOL    HW135768   0.122   2.475   8.263 -0.1307  0.3024 -0.0999
 8045SOL    HW235769   0.164   2.445   8.123 -1.9421 -1.2691  0.7269
 8046SOL     OW35770   3.187   4.646   7.137  0.3046 -1.0010  0.0104
 8046SOL    HW135771   3.166   4.557   7.167 -0.3981 -0.1763  2.0261
 8046SOL    HW235772   3.191   4.636   7.042  3.1609  4.4769 -0.4904
 8047SOL     OW35773   4.549   2.751   9.123 -0.5089  0.1191 -0.0145
 8047SOL    HW135774   4.477   2.759   9.060 -0.3620 -1.1885 -0.3517
 8047SOL    HW235775   4.500   2.741   9.205 -2.4227  2.3493 -0.8841
 8048SOL     OW35776   0.483   1.302  16.680  0.1641 -0.2092 -0.1385
 8048SOL    HW135777   0.569   1.293  16.639  0.9707  0.3326  1.4239
 8048SOL    HW235778   0.442   1.362  16.617 -0.2654  0.5452  0.8620
 8049SOL     OW35779   2.740   3.075   9.179  0.2863 -0.3550 -0.1100
 8049SOL    HW135780   2.658   3.038   9.212  1.2753 -1.7299  0.8062
 8049SOL    HW235781   2.761   3.131   9.254  2.2660 -2.2227  0.7286
 8050SOL     OW35782   2.748   4.300   4.167  0.3178 -0.5988 -0.5679
 8050SOL    HW135783   2.724   4.220   4.120 -2.6335 -0.7355  1.2026
 8050SOL    HW235784   2.755   4.257   4.252  1.7062  0.6510 -0.0395
 8051SOL     OW35785   2.247   3.992   1.291  0.2948 -0.2726  0.2485
 8051SOL    HW135786   2.221   4.083   1.305  0.1835 -0.3027  0.2386
 8051SOL    HW235787   2.325   3.981   1.345  1.8009 -4.2844 -2.6950
 8052SOL     OW35788   1.142   3.775   2.109  0.5739  0.0759 -0.3967
 8052SOL    HW135789   1.189   3.798   2.189  0.6915  0.7321 -0.6514
 8052SOL    HW235790   1.193   3.706   2.068 -2.7750 -3.2892  1.0777
 8053SOL     OW35791   0.005   2.733   4.691  0.0966 -0.2641 -0.2723
 8053SOL    HW135792   4.700   2.670   4.749  1.8334 -0.5710  0.6684
 8053SOL    HW235793   0.096   2.731   4.720 -0.9757  2.0071  3.2648
 8054SOL     OW35794   2.349   2.678  13.443  0.0973 -0.6035 -0.2880
 8054SOL    HW135795   2.291   2.604  13.465  0.0854 -1.3452 -2.8000
 8054SOL    HW235796   2.386   2.697  13.529 -2.3944  1.2009  0.3761
 8055SOL     OW35797   2.582   0.464   7.319  0.1360  0.4346 -0.6913
 8055SOL    HW135798   2.632   0.484   7.398 -0.4698  0.3592 -0.2913
 8055SOL    HW235799   2.610   0.537   7.265 -0.8396 -0.2436 -2.0990
 8056SOL     OW35800   1.010   1.732   5.353  0.2126 -0.5551  0.1482
 8056SOL    HW135801   1.067   1.696   5.285  0.5249 -1.6138  0.9582
 8056SOL    HW235802   1.066   1.806   5.376 -1.4733  0.5473  0.6839
 8057SOL     OW35803   2.859   3.773   1.530  0.4149  0.1062 -0.3603
 8057SOL    HW135804   2.921   3.749   1.461  0.1800  0.9463 -0.8643
 8057SOL    HW235805   2.863   3.690   1.578  0.1311  0.7799  0.8364
 8058SOL     OW35806   1.472   3.254  12.075 -0.0574  0.2055 -0.3732
 8058SOL    HW135807   1.539   3.322  12.084  0.4932  0.1034 -3.5141
 8058SOL    HW235808   1.516   3.182  12.120  0.9702 -0.0612 -1.7914
 8059SOL     OW35809   2.381   0.329   3.196 -0.9223 -0.0007  0.2452
 8059SOL    HW135810   2.331   0.392   3.249 -2.6660 -0.2002 -1.1549
 8059SOL    HW235811   2.332   0.248   3.208  0.7935 -1.1652 -0.7450
 8060SOL     OW35812   0.862   4.211   8.790  0.3030  0.1944 -0.0213
 8060SOL    HW135813   0.857   4.200   8.695 -1.2794  1.4493 -0.0762
 8060SOL    HW235814   0.866   4.307   8.798 -0.0140  0.1223  0.9993
 8061SOL     OW35815   4.388   3.644   1.350 -0.9131 -0.3783  0.1717
 8061SOL    HW135816   4.317   3.687   1.302  1.1678 -0.0444 -2.6259
 8061SOL    HW235817   4.358   3.558   1.378 -2.6260 -0.0092 -0.5312
 8062SOL     OW35818   2.427   2.281   2.775  0.9695 -0.7279  0.7119
 8062SOL    HW135819   2.435   2.326   2.691  1.7161  0.5512  1.4675
 8062SOL    HW235820   2.460   2.347   2.836 -2.2731 -1.8228  3.6473
 8063SOL     OW35821   3.863   0.038   5.334  0.3518  0.2216 -0.1073
 8063SOL    HW135822   3.847   0.128   5.303  1.7709  1.7047  3.4466
 8063SOL    HW235823   3.926   0.047   5.406  1.0024 -2.3894 -0.3506
 8064SOL     OW35824   2.270   1.108  13.794  0.8023  0.2128  0.3851
 8064SOL    HW135825   2.270   1.101  13.889  0.1578  0.7337  0.4202
 8064SOL    HW235826   2.188   1.068  13.765  1.6245 -0.2219 -1.3802
 8065SOL     OW35827   4.538   2.965   7.770 -0.3216  0.0172 -0.5788
 8065SOL    HW135828   4.528   3.059   7.789 -1.5109 -0.4359  1.0310
 8065SOL    HW235829   4.488   2.915   7.834  2.8109 -0.1897  1.7093
 8066SOL     OW35830   2.369   2.251   3.739 -0.4084 -0.0903 -0.6308
 8066SOL    HW135831   2.445   2.236   3.795 -0.8031 -0.1698 -0.1155
 8066SOL    HW235832   2.394   2.305   3.664  1.6936  0.7389  0.6961
 8067SOL     OW35833   1.200   0.885   5.920  0.0403  0.0262  0.1079
 8067SOL    HW135834   1.282   0.924   5.950  1.4363 -2.9258  0.1492
 8067SOL    HW235835   1.175   0.939   5.845 -1.8816 -2.3462 -0.9923
 8068SOL     OW35836   1.260   0.158   7.219  0.8599  0.3495  0.1060
 8068SOL    HW135837   1.350   0.127   7.208  1.0600  0.6486  0.9414
 8068SOL    HW235838   1.244   0.197   7.133 -1.1903  1.8224  1.1725
 8069SOL     OW35839   0.500   0.268   3.345  0.2254  0.2426  0.4263
 8069SOL    HW135840   0.470   0.193   3.396  0.7385  0.1023  0.5316
 8069SOL    HW235841   0.528   0.222   3.265  0.2174  0.2629  0.4118
 8070SOL     OW35842   2.430   3.864   0.705  0.0500  0.2287  0.1104
 8070SOL    HW135843   2.386   3.908   0.778 -2.0136  0.2169 -1.1206
 8070SOL    HW235844   2.487   3.804   0.754  0.0137  0.2433  0.1700
 8071SOL     OW35845   3.205   4.466   2.891 -0.1757 -0.4022 -0.1632
 8071SOL    HW135846   3.275   4.431   2.836  1.2645  0.5401  1.0682
 8071SOL    HW235847   3.128   4.416   2.864 -0.7345 -1.3341  3.1003
 8072SOL     OW35848   2.870   0.029   5.883 -0.1290  0.4662  0.7662
 8072SOL    HW135849   2.809   0.045   5.955  1.0423 -1.1108  2.1032
 8072SOL    HW235850   2.893   4.676   5.899 -2.2929 -0.2958 -0.5208
 8073SOL     OW35851   4.386   4.611  15.616  0.3843 -0.2459 -0.2483
 8073SOL    HW135852   4.454   4.545  15.603 -0.2836 -0.7494 -1.1399
 8073SOL    HW235853   4.339   4.606  15.533  0.3553  2.1182 -0.3927
 8074SOL     OW35854   2.937   0.544   8.063  0.3096  0.0643 -0.4388
 8074SOL    HW135855   2.913   0.455   8.091 -0.0905  0.6064  0.9051
 8074SOL    HW235856   2.950   0.573   8.153 -0.9763  1.4205 -0.6900
 8075SOL     OW35857   4.615   1.640   5.848 -0.2596  0.4498  0.2038
 8075SOL    HW135858   4.575   1.586   5.780 -0.2348  0.5058  0.1452
 8075SOL    HW235859   4.702   1.601   5.848 -0.0854  0.8329  1.5878
 8076SOL     OW35860   4.071   0.893   0.062 -0.5748 -0.4433  0.1320
 8076SOL    HW135861   4.086   0.957   0.131 -0.7386  0.3063 -0.5290
 8076SOL    HW235862   4.156   0.887   0.017  0.2519  1.7728  1.3724
 8077SOL     OW35863   1.525   1.794   5.203 -0.2238  0.1653  0.3790
 8077SOL    HW135864   1.474   1.718   5.230  0.0970 -0.4486 -0.7456
 8077SOL    HW235865   1.455   1.849   5.167 -2.3278 -2.3148  0.6670
 8078SOL     OW35866   3.282   3.021  12.358 -0.3581 -0.2749  0.2867
 8078SOL    HW135867   3.263   3.081  12.286  1.0189  1.2574  1.1968
 8078SOL    HW235868   3.212   3.028  12.423  0.1133 -3.3625  1.0935
 8079SOL     OW35869   2.428   3.123  17.451  0.1963  0.1336  0.1673
 8079SOL    HW135870   2.347   3.156  17.412  0.9242  1.3034 -0.3440
 8079SOL    HW235871   2.426   3.035  17.414  0.3024 -0.6293  1.9915
 8080SOL     OW35872   0.625   1.764   5.702 -0.0116 -0.0096  0.1161
 8080SOL    HW135873   0.540   1.800   5.679  1.2939  2.3678 -0.9585
 8080SOL    HW235874   0.668   1.792   5.621 -0.0297 -0.1896  0.0444
 8081SOL     OW35875   1.738   0.614   5.663 -0.3804  0.2570 -0.1171
 8081SOL    HW135876   1.821   0.624   5.710  0.2329 -3.5314 -0.3419
 8081SOL    HW235877   1.727   0.522   5.688 -0.0339 -0.5478 -2.8921
 8082SOL     OW35878   3.895   0.779   3.630 -0.1772 -0.4511 -0.3026
 8082SOL    HW135879   3.955   0.757   3.701  0.0077  1.9564  0.2699
 8082SOL    HW235880   3.964   0.803   3.568 -0.0817 -0.9419 -0.3861
 8083SOL     OW35881   3.631   2.344   2.600  1.1086 -0.1848 -0.2786
 8083SOL    HW135882   3.542   2.380   2.593  1.1902  0.0006 -0.3885
 8083SOL    HW235883   3.618   2.270   2.659 -0.7903 -1.5973 -2.4404
 8084SOL     OW35884   2.471   3.579   3.594 -0.5554  0.1813  0.0338
 8084SOL    HW135885   2.497   3.489   3.576  1.0856  0.2711  1.9304
 8084SOL    HW235886   2.399   3.596   3.533  0.6097  1.0302 -1.1136
 8085SOL     OW35887   3.830   3.249  17.414  0.1700  0.4623  0.0022
 8085SOL    HW135888   3.738   3.221  17.423  1.1974 -3.3492 -1.1247
 8085SOL    HW235889   3.834   3.342  17.392 -4.5331  0.6237 -0.2739
 8086SOL     OW35890   3.971   2.849   8.606  0.0842 -0.4865  0.1597
 8086SOL    HW135891   4.011   2.895   8.680  1.4135  0.8878 -1.4226
 8086SOL    HW235892   3.946   2.763   8.638 -0.4828 -0.2811  0.2799
 8087SOL     OW35893   0.919   0.104  11.918 -0.5366  0.0647  0.3442
 8087SOL    HW135894   0.990   0.072  11.974 -0.5137 -1.9684 -0.8505
 8087SOL    HW235895   0.889   0.180  11.967 -2.7478  0.9221 -2.3703
 8088SOL     OW35896   1.959   1.462   6.099  0.1893  0.3029 -0.3687
 8088SOL    HW135897   1.865   1.448   6.092  0.4992 -2.1957  0.5805
 8088SOL    HW235898   1.958   1.533   6.164 -3.5814  0.6518 -0.7911
 8089SOL     OW35899   0.163   3.685   3.930  0.1138 -0.4742 -0.3128
 8089SOL    HW135900   0.233   3.734   3.972 -0.2615 -0.8242  0.7176
 8089SOL    HW235901   0.120   3.645   4.006 -0.6241  1.3179  0.2277
 8090SOL     OW35902   3.678   3.506   3.562  0.7386 -0.0741 -0.3246
 8090SOL    HW135903   3.613   3.567   3.597 -1.4383 -3.1923  1.1496
 8090SOL    HW235904   3.631   3.423   3.575 -0.1304  0.3618 -0.6971
 8091SOL     OW35905   4.458   0.955   8.787  0.7589  0.4433 -0.1807
 8091SOL    HW135906   4.391   0.889   8.768 -0.9603  2.2555 -0.5310
 8091SOL    HW235907   4.429   0.994   8.870 -0.9812 -1.4092  0.0748
 8092SOL     OW35908   3.080   3.204  12.487 -0.3830  0.2246  0.7694
 8092SOL    HW135909   3.020   3.259  12.436 -1.5870 -1.3234  0.5235
 8092SOL    HW235910   3.029   3.197  12.567 -2.8266  1.0230 -0.7112
 8093SOL     OW35911   1.584   2.369   9.007  0.4483 -0.4984 -0.1486
 8093SOL    HW135912   1.585   2.273   9.004  0.4396 -0.4949 -0.2552
 8093SOL    HW235913   1.534   2.390   8.928 -1.7180  0.2480  1.4373
 8094SOL     OW35914   3.980   4.425   7.671  0.6084 -0.4194 -0.1591
 8094SOL    HW135915   3.966   4.515   7.701  1.4200  0.3844 -2.1985
 8094SOL    HW235916   3.887   4.406   7.655  0.3256 -0.2934  1.3361
 8095SOL     OW35917   1.555   4.391   3.112  0.5352 -0.2896  0.2554
 8095SOL    HW135918   1.628   4.434   3.155  0.2745 -1.4695  1.8708
 8095SOL    HW235919   1.490   4.388   3.183  2.2412 -0.5469  1.8063
 8096SOL     OW35920   1.543   1.135   4.251 -1.3486 -0.0747  0.1471
 8096SOL    HW135921   1.452   1.140   4.222 -2.3524 -1.7647  2.9564
 8096SOL    HW235922   1.519   1.126   4.343  0.8397 -1.6854  0.5802
 8097SOL     OW35923   0.198   2.387   5.154 -0.0533  0.3328  0.4111
 8097SOL    HW135924   0.195   2.412   5.062  0.4124  0.2294  0.3689
 8097SOL    HW235925   0.155   2.302   5.159 -0.8054  0.7058  0.1999
 8098SOL     OW35926   3.301   3.222   3.862  0.1689  0.0632 -0.1387
 8098SOL    HW135927   3.304   3.188   3.772 -1.5561 -0.0903 -0.1350
 8098SOL    HW235928   3.297   3.140   3.911 -2.0212  0.2382 -0.0671
 8099SOL     OW35929   0.515   0.378   6.450  0.1023 -0.5113 -0.1200
 8099SOL    HW135930   0.595   0.369   6.398  0.4145  0.4238  0.1862
 8099SOL    HW235931   0.444   0.334   6.404 -0.7812 -0.2190  0.9634
 8100SOL     OW35932   2.592   2.940   8.257 -0.3517  0.3904  0.1968
 8100SOL    HW135933   2.571   2.912   8.346  1.1196 -0.5915  0.2258
 8100SOL    HW235934   2.520   2.993   8.224  1.4238  1.3099 -2.1585
 8101SOL     OW35935   0.840   3.950   6.638 -0.2647  0.0978 -0.7545
 8101SOL    HW135936   0.909   3.992   6.689  0.9191 -2.9631  0.1231
 8101SOL    HW235937   0.873   3.861   6.649 -1.2734 -0.1477  0.3771
 8102SOL     OW35938   2.382   1.660   2.723 -0.4615  0.1958 -0.3380
 8102SOL    HW135939   2.386   1.629   2.633 -0.8848  1.2579 -0.7323
 8102SOL    HW235940   2.293   1.629   2.744 -0.2686  1.0616  1.7974
 8103SOL     OW35941   3.925   4.289   8.048 -0.3144 -0.2915  0.4290
 8103SOL    HW135942   3.843   4.263   8.007 -0.2689  2.1085 -1.1276
 8103SOL    HW235943   3.896   4.360   8.104 -0.4621 -2.0087  2.5537
 8104SOL     OW35944   4.325   3.881   0.381  0.2156  0.2702 -0.2478
 8104SOL    HW135945   4.410   3.886   0.338 -0.2587 -1.7867 -1.4193
 8104SOL    HW235946   4.344   3.815   0.446  0.7116 -0.1129 -0.7856
 8105SOL     OW35947   1.011   1.086  17.339  0.3094 -0.4715 -0.0344
 8105SOL    HW135948   1.028   1.180  17.334  0.0285 -0.5093 -1.6536
 8105SOL    HW235949   1.102   1.056  17.337  0.9792  1.5250  0.0234
 8106SOL     OW35950   4.179   0.871  12.860  0.0551 -0.0153  0.3001
 8106SOL    HW135951   4.138   0.942  12.910  0.3671 -0.6682  1.4712
 8106SOL    HW235952   4.262   0.908  12.829 -0.5271 -1.4860 -2.9647
 8107SOL     OW35953   0.598   1.435  11.806 -0.2377 -0.2328  0.6061
 8107SOL    HW135954   0.658   1.417  11.878 -1.2563 -0.5155  1.3928
 8107SOL    HW235955   0.567   1.347  11.783  1.8941 -0.1326 -2.5802
 8108SOL     OW35956   4.205   3.543   5.355 -0.0929  0.4316  0.0998
 8108SOL    HW135957   4.212   3.448   5.362  3.0840  0.6698  0.2245
 8108SOL    HW235958   4.121   3.567   5.395 -1.3087 -2.7401 -0.5385
 8109SOL     OW35959   3.929   1.251   5.730  0.0877  0.3861 -0.1853
 8109SOL    HW135960   4.010   1.302   5.730 -0.5687  1.4495  2.1921
 8109SOL    HW235961   3.892   1.294   5.653 -2.0652 -0.0260  0.6124
 8110SOL     OW35962   1.139   1.448   7.687 -0.1317 -0.1738  0.1981
 8110SOL    HW135963   1.078   1.436   7.614 -0.5575  0.5047  0.4373
 8110SOL    HW235964   1.139   1.542   7.707  0.8297 -0.5965  2.2477
 8111SOL     OW35965   3.715   3.143   4.851  0.6580 -0.3543  0.0807
 8111SOL    HW135966   3.630   3.168   4.816 -0.3524 -2.8447  0.7739
 8111SOL    HW235967   3.685   3.080   4.917  1.7251 -0.0487  0.8592
 8112SOL     OW35968   0.983   4.273   3.854  0.2651 -0.3661  0.4264
 8112SOL    HW135969   0.975   4.349   3.797 -2.0726 -0.9347 -0.0031
 8112SOL    HW235970   1.078   4.270   3.868  0.3657  0.1245 -0.1698
 8113SOL     OW35971   2.142   1.019   1.479  0.1291  0.4471 -0.0041
 8113SOL    HW135972   2.157   1.039   1.386  0.5962 -0.3930 -0.1074
 8113SOL    HW235973   2.078   1.082   1.512 -0.5270  0.9738 -2.2548
 8114SOL     OW35974   2.987   4.601   6.312 -0.2665  0.3159  0.0752
 8114SOL    HW135975   3.056   4.637   6.367 -0.3354  0.9015 -0.2273
 8114SOL    HW235976   3.024   4.581   6.226 -4.2082  1.8106 -1.9960
 8115SOL     OW35977   3.706   1.089   7.916  0.4742  0.2672 -0.0297
 8115SOL    HW135978   3.667   1.153   7.976 -1.9522 -1.1521 -0.1135
 8115SOL    HW235979   3.787   1.055   7.955  2.1327  0.3057 -3.4198
 8116SOL     OW35980   2.423   0.762  16.375 -0.1309 -0.0296  0.0013
 8116SOL    HW135981   2.488   0.717  16.429  0.5556  0.2266 -0.6264
 8116SOL    HW235982   2.467   0.785  16.294 -0.6970 -1.4243 -0.7104
 8117SOL     OW35983   1.874   2.394  13.486 -0.1575 -0.4940  0.6482
 8117SOL    HW135984   1.902   2.304  13.502 -0.9057 -0.8641 -0.0759
 8117SOL    HW235985   1.829   2.402  13.570  1.8400 -0.7811  1.7461
 8118SOL     OW35986   3.613   1.314   8.063 -0.1390  0.1905 -0.0984
 8118SOL    HW135987   3.681   1.369   8.102  1.3589 -0.4515 -1.8005
 8118SOL    HW235988   3.581   1.268   8.140  1.2792 -1.2117 -0.3399
 8119SOL     OW35989   1.367   1.212   9.059 -0.1736  0.3903  0.3971
 8119SOL    HW135990   1.339   1.125   9.030  1.9917 -0.0524 -0.3623
 8119SOL    HW235991   1.460   1.192   9.067 -0.7873 -3.2033 -1.0532
 8120SOL     OW35992   0.385   1.681   3.857  0.5505 -0.1971 -0.7281
 8120SOL    HW135993   0.293   1.683   3.833  0.8420  1.7066 -1.6503
 8120SOL    HW235994   0.378   1.606   3.916  0.0796  0.7031  0.3564
 8121SOL     OW35995   4.267   2.458   6.368 -0.3235  0.1516  0.3026
 8121SOL    HW135996   4.186   2.442   6.319  1.3527  0.4599 -2.5683
 8121SOL    HW235997   4.324   2.392   6.327  0.1175  0.7414 -0.0232
 8122SOL     OW35998   3.557   3.154   3.163  0.1690 -0.3365  0.3252
 8122SOL    HW135999   3.617   3.218   3.201 -0.4092 -0.3242  1.1968
 8122SOL    HW236000   3.577   3.160   3.069 -1.9679  0.1824 -0.0979
 8123SOL     OW36001   2.454   2.203   7.977 -0.4270  0.7507 -0.3431
 8123SOL    HW136002   2.457   2.153   8.059 -0.1107 -0.7662 -1.2685
 8123SOL    HW236003   2.438   2.289   8.014 -0.0571  0.6357  0.0905
 8124SOL     OW36004   3.712   0.039   8.570  0.8347 -0.1710  0.4804
 8124SOL    HW136005   3.627   0.061   8.609  0.5880 -1.4633  0.6803
 8124SOL    HW236006   3.762   0.115   8.599  0.0264  1.1014 -1.4354
 8125SOL     OW36007   2.940   2.777   7.993  0.2262 -0.6349 -0.1907
 8125SOL    HW136008   2.919   2.715   7.923  0.5679 -0.4108 -0.4896
 8125SOL    HW236009   2.858   2.766   8.040 -1.1925  1.1109 -2.3064
 8126SOL     OW36010   0.568   0.868  13.615 -0.8929 -0.4997 -0.1569
 8126SOL    HW136011   0.548   0.924  13.540  1.3336  2.8901  1.8153
 8126SOL    HW236012   0.580   0.931  13.685  0.3196  0.1069 -0.9271
 8127SOL     OW36013   0.554   4.010   6.680  0.7112  0.5030 -0.5973
 8127SOL    HW136014   0.645   3.985   6.668  0.8861  0.8749 -0.0345
 8127SOL    HW236015   0.546   4.093   6.633 -1.8441  1.4551  1.5636
 8128SOL     OW36016   0.055   0.208  16.809  0.6090  0.2507 -0.1369
 8128SOL    HW136017   0.001   0.160  16.872 -0.2680  1.7820  0.3067
 8128SOL    HW236018   0.027   0.182  16.722  1.2469 -2.8639  0.6174
 8129SOL     OW36019   3.208   3.908   8.859 -0.5465  0.5464 -0.0727
 8129SOL    HW136020   3.195   3.996   8.825 -0.7329  1.1659  1.6117
 8129SOL    HW236021   3.144   3.857   8.809 -0.5023 -0.1767  0.6149
 8130SOL     OW36022   2.423   4.428   6.972 -0.7679 -0.7437 -0.5475
 8130SOL    HW136023   2.449   4.438   7.064 -1.5869  0.8254 -0.4776
 8130SOL    HW236024   2.472   4.357   6.931  2.1397  0.8989  0.1198
 8131SOL     OW36025   1.367   2.389   3.650  0.1453 -0.6676  0.3508
 8131SOL    HW136026   1.365   2.294   3.636 -0.1416 -0.4184 -1.2865
 8131SOL    HW236027   1.448   2.389   3.701  0.6125  0.6409 -0.3999
 8132SOL     OW36028   3.060   1.841  17.748 -0.1023 -0.3150  0.4444
 8132SOL    HW136029   3.144   1.848   0.044  0.1413 -2.9017  0.3981
 8132SOL    HW236030   3.025   1.761   0.037 -0.4402 -0.3461  0.0687
 8133SOL     OW36031   0.489   3.118  11.615 -0.2339  0.3389  0.4972
 8133SOL    HW136032   0.503   3.213  11.623 -1.4791  0.7860 -2.5615
 8133SOL    HW236033   0.496   3.100  11.521  2.4267  0.9035  0.5807
 8134SOL     OW36034   3.427   0.567   4.455  0.6102  0.6245 -0.5296
 8134SOL    HW136035   3.396   0.526   4.374  2.4486 -0.2397 -0.8102
 8134SOL    HW236036   3.519   0.541   4.456  0.6246  0.7106  1.0954
 8135SOL     OW36037   1.516   0.798   6.350  0.0742  0.7416 -0.5108
 8135SOL    HW136038   1.550   0.837   6.431 -0.9846  1.3178 -0.3417
 8135SOL    HW236039   1.543   0.858   6.281  3.0170  1.7965  1.5407
 8136SOL     OW36040   4.434   1.014   5.162  0.2567  0.0092 -0.2324
 8136SOL    HW136041   4.454   0.946   5.097 -1.2925 -0.0051 -0.6952
 8136SOL    HW236042   4.510   1.072   5.166  0.2614 -0.1894  2.5526
 8137SOL     OW36043   4.123   0.296   4.989 -0.1261 -0.5721 -0.3829
 8137SOL    HW136044   4.097   0.304   5.081  2.4224 -0.0263  0.2692
 8137SOL    HW236045   4.158   0.207   4.987  1.7206  0.1469 -0.0693
 8138SOL     OW36046   0.312   0.542   5.464 -0.1875  0.2048  0.3585
 8138SOL    HW136047   0.293   0.549   5.370 -1.6720  1.6851  0.7660
 8138SOL    HW236048   0.223   0.522   5.492 -0.5188 -1.9849 -2.2979
 8139SOL     OW36049   1.676   4.306   2.365 -0.2986 -0.6751 -0.6400
 8139SOL    HW136050   1.686   4.323   2.458  0.1415  0.3660 -0.8812
 8139SOL    HW236051   1.583   4.322   2.352 -0.2844  0.5768  0.8764
 8140SOL     OW36052   1.644   3.981   2.101  0.5870  0.4272  0.6765
 8140SOL    HW136053   1.665   3.888   2.107 -0.6818  0.1075  0.1955
 8140SOL    HW236054   1.729   4.022   2.116  0.7247  1.0242 -1.7548
 8141SOL     OW36055   3.884   4.079   6.499 -0.2179 -0.4653  0.6342
 8141SOL    HW136056   3.916   4.167   6.481 -1.7681  0.0523  0.4477
 8141SOL    HW236057   3.875   4.077   6.594 -1.5842 -2.8168  0.4574
 8142SOL     OW36058   2.427   4.033   7.489  0.1486 -0.5322  0.4281
 8142SOL    HW136059   2.395   4.106   7.543  1.2578  1.8460 -2.0936
 8142SOL    HW236060   2.509   4.073   7.459  1.6740 -4.6272 -0.8484
 8143SOL     OW36061   0.076   1.020  11.905 -0.2769  0.9950 -0.1081
 8143SOL    HW136062   0.125   0.942  11.931 -0.8363  1.0810  1.1766
 8143SOL    HW236063   0.100   1.086  11.970 -0.7194  1.5016 -0.4595
 8144SOL     OW36064   3.009   4.456  13.107 -0.1754  0.2701  0.4386
 8144SOL    HW136065   3.103   4.450  13.123  0.3338 -1.5772 -3.1347
 8144SOL    HW236066   2.991   4.362  13.107 -2.8922  0.7742 -1.2404
 8145SOL     OW36067   2.403   3.713   4.549 -0.3794 -0.0569 -0.2078
 8145SOL    HW136068   2.465   3.641   4.539 -2.1251 -1.5158 -0.3554
 8145SOL    HW236069   2.334   3.660   4.588 -0.0687 -0.7055 -0.5337
 8146SOL     OW36070   1.047   0.211   2.438 -0.0160 -0.1472  0.0210
 8146SOL    HW136071   1.087   0.297   2.449  1.8835 -1.0763  0.5407
 8146SOL    HW236072   1.113   0.158   2.392  0.1250 -1.5231  1.8374
 8147SOL     OW36073   4.492   3.393  10.055  0.1369 -0.0431  0.7588
 8147SOL    HW136074   4.547   3.325  10.092  0.2528  0.3501  1.3144
 8147SOL    HW236075   4.514   3.464  10.116  1.4525  1.8315 -1.8664
 8148SOL     OW36076   4.730   2.629   6.694 -0.0329 -0.1191 -0.0728
 8148SOL    HW136077   4.690   2.666   6.615 -0.2467  1.7671  0.9295
 8148SOL    HW236078   4.687   2.668   6.770 -0.2645  0.6740 -0.6069
 8149SOL     OW36079   2.012   3.580   5.133  0.2047 -0.0149 -0.0849
 8149SOL    HW136080   2.079   3.631   5.177  0.5753 -2.5812  2.3284
 8149SOL    HW236081   1.988   3.505   5.187 -1.1604  0.7409  0.3546
 8150SOL     OW36082   0.532   2.454  14.021 -0.6832 -0.5134  0.2853
 8150SOL    HW136083   0.593   2.464  14.093 -0.2464 -1.0832 -0.0047
 8150SOL    HW236084   0.459   2.510  14.048  0.4524  1.1380 -0.0706
 8151SOL     OW36085   2.378   4.240  14.988  0.0485  0.7238 -0.0022
 8151SOL    HW136086   2.364   4.263  14.897  0.2198 -0.6432 -0.3682
 8151SOL    HW236087   2.468   4.271  14.999  0.1586 -0.2862  1.9401
 8152SOL     OW36088   0.467   0.001  13.853  0.4461  0.0814 -0.4336
 8152SOL    HW136089   0.535   0.016  13.918  1.4484 -2.0226 -0.9957
 8152SOL    HW236090   0.388   0.024  13.902  1.9477  1.0916  1.4851
 8153SOL     OW36091   3.014   4.186  12.841  0.3264 -0.2126 -0.4585
 8153SOL    HW136092   3.005   4.230  12.757 -1.8598 -0.8866 -0.5901
 8153SOL    HW236093   3.107   4.192  12.862 -0.0749 -0.2636  1.4087
 8154SOL     OW36094   1.989   1.429   4.666 -0.1543 -0.3789  0.0576
 8154SOL    HW136095   1.964   1.438   4.574 -1.4393  0.5527  0.4999
 8154SOL    HW236096   2.084   1.431   4.652 -0.5767  3.1600 -2.5181
 8155SOL     OW36097   4.708   1.757   8.783 -0.4292 -0.0595 -0.4459
 8155SOL    HW136098   4.730   1.719   8.868 -1.2504  2.6814  1.0338
 8155SOL    HW236099   4.612   1.750   8.787 -0.5482  2.2812  1.0232
 8156SOL     OW36100   0.769   3.713  16.862  0.0298  0.3154 -0.1045
 8156SOL    HW136101   0.814   3.797  16.864  0.1866  0.2179  0.4724
 8156SOL    HW236102   0.762   3.679  16.951 -0.8353 -0.0877 -0.3278
 8157SOL     OW36103   1.009   1.186   3.328  0.3893 -0.1411 -0.0133
 8157SOL    HW136104   0.922   1.151   3.311 -0.4040  0.8242  2.0820
 8157SOL    HW236105   1.018   1.146   3.415 -1.9806 -1.3685 -0.3387
 8158SOL     OW36106   0.694   0.274   6.956  0.5290  0.1366 -0.4920
 8158SOL    HW136107   0.677   0.242   7.045  0.5419  2.6984  0.4297
 8158SOL    HW236108   0.614   0.324   6.941  0.6427  0.2106 -0.8550
 8159SOL     OW36109   1.991   0.188   7.042 -0.3405  0.2731 -0.1222
 8159SOL    HW136110   1.972   0.244   7.117  1.5938  0.0278  0.5294
 8159SOL    HW236111   2.085   0.172   7.043 -0.2484  1.0436  2.1675
 8160SOL     OW36112   1.369   3.524   6.875  0.1459 -0.0153  0.2531
 8160SOL    HW136113   1.420   3.454   6.835  0.0374  0.1131 -0.1140
 8160SOL    HW236114   1.358   3.588   6.805  0.7284 -1.1481 -0.8678
 8161SOL     OW36115   2.566   3.232   8.925  0.5744  0.1914  0.7125
 8161SOL    HW136116   2.511   3.225   9.003  0.9836  1.6013  1.1424
 8161SOL    HW236117   2.556   3.145   8.888  1.6437  0.4396 -0.1769
 8162SOL     OW36118   1.655   4.101   4.099  0.1237 -0.0012 -0.0440
 8162SOL    HW136119   1.672   4.111   4.193 -1.1951  1.0834  0.0938
 8162SOL    HW236120   1.639   4.007   4.095 -2.1978  0.4210 -1.0676
 8163SOL     OW36121   0.893   4.118  15.706  0.1422  0.3602 -0.3876
 8163SOL    HW136122   0.837   4.069  15.766  1.4731  0.7835  1.2036
 8163SOL    HW236123   0.962   4.059  15.678 -0.1456  0.6414 -1.6957
 8164SOL     OW36124   1.827   3.631   2.542  0.2489  0.0124  0.5133
 8164SOL    HW136125   1.811   3.710   2.595 -0.3172  0.2852 -0.0676
 8164SOL    HW236126   1.739   3.595   2.534  0.2155 -0.1351  1.4790
 8165SOL     OW36127   2.998   0.012   9.505 -0.0941 -0.7447 -0.0962
 8165SOL    HW136128   3.038   4.707   9.429 -0.8352  0.4992 -1.1749
 8165SOL    HW236129   2.962   0.088   9.460  0.1668  0.0600  1.0794
 8166SOL     OW36130   3.046   0.837   0.543 -0.0723 -0.4819  0.5652
 8166SOL    HW136131   3.112   0.904   0.562  0.2632 -0.7995  0.5225
 8166SOL    HW236132   3.101   0.765   0.512 -0.1963  0.1704 -1.1269
 8167SOL     OW36133   4.369   0.285   2.548  0.1423  0.5072 -0.0782
 8167SOL    HW136134   4.306   0.329   2.604 -0.8134 -2.4189  1.1800
 8167SOL    HW236135   4.318   0.209   2.520 -0.5345 -0.5723  3.9969
 8168SOL     OW36136   4.271   3.293   7.799  0.2914  0.2280 -0.9136
 8168SOL    HW136137   4.217   3.265   7.873  0.8275 -1.8375 -1.3171
 8168SOL    HW236138   4.211   3.295   7.724 -0.2254  0.1793 -0.4973
 8169SOL     OW36139   2.323   3.030  10.787  0.0976 -0.0648 -0.8292
 8169SOL    HW136140   2.262   2.972  10.742 -1.7818 -0.2670  1.9868
 8169SOL    HW236141   2.269   3.082  10.847  0.5105 -2.5305  1.6352
 8170SOL     OW36142   2.484   4.467   7.270 -0.0465  0.2298 -0.0821
 8170SOL    HW136143   2.434   4.545   7.295 -1.6525 -1.0364  0.6717
 8170SOL    HW236144   2.574   4.496   7.285  0.1074 -0.6603  0.7011
 8171SOL     OW36145   3.827   3.593   8.875  0.4344 -0.0217 -0.2401
 8171SOL    HW136146   3.815   3.683   8.905  0.2061 -0.8486  2.2216
 8171SOL    HW236147   3.773   3.581   8.797 -0.0781  1.0826 -0.0451
 8172SOL     OW36148   1.944   1.861   6.357 -0.0188 -0.3803  0.6661
 8172SOL    HW136149   1.973   1.892   6.442  0.8251 -1.6871  0.8590
 8172SOL    HW236150   1.914   1.944   6.320 -0.4486 -0.6422  0.4244
 8173SOL     OW36151   3.982   2.632   9.001  0.2370  0.3856  0.1380
 8173SOL    HW136152   3.927   2.691   9.053 -0.3443  1.2812 -1.4978
 8173SOL    HW236153   3.977   2.549   9.049 -2.4605 -0.4663 -1.6329
 8174SOL     OW36154   0.041   4.302   5.123 -0.2743 -0.1633 -0.0354
 8174SOL    HW136155   0.130   4.267   5.117 -0.5832 -0.5280 -2.4044
 8174SOL    HW236156   4.726   4.223   5.121  0.4921 -0.7050  0.7096
 8175SOL     OW36157   2.511   4.134   6.044 -0.2630  0.1033  0.2423
 8175SOL    HW136158   2.489   4.042   6.026 -0.9187  0.0030  1.5445
 8175SOL    HW236159   2.601   4.122   6.073 -0.9974 -3.5389  1.0586
 8176SOL     OW36160   3.429   3.747   1.661 -0.3587 -0.3891 -0.0536
 8176SOL    HW136161   3.395   3.658   1.670 -1.0943  0.0002  1.0105
 8176SOL    HW236162   3.406   3.784   1.575 -0.5231 -0.6505 -0.1197
 8177SOL     OW36163   4.300   3.928   1.154 -0.1117  0.2716  0.5051
 8177SOL    HW136164   4.232   3.874   1.195 -0.7550  0.3709 -0.4223
 8177SOL    HW236165   4.343   3.960   1.234 -1.6697 -0.2072  1.5380
 8178SOL     OW36166   0.857   2.087   5.452 -0.3480  0.7390  0.2028
 8178SOL    HW136167   0.924   2.148   5.483  3.0603 -2.3240 -1.0143
 8178SOL    HW236168   0.876   2.009   5.505 -3.5558 -0.0294  0.2106
 8179SOL     OW36169   3.271   4.731   0.807  0.1962 -0.0644 -0.6225
 8179SOL    HW136170   3.264   0.083   0.841 -0.3090 -0.3349 -0.0169
 8179SOL    HW236171   3.347   4.732   0.749  0.7425  1.2164  0.0981
 8180SOL     OW36172   1.066   0.650   3.835 -0.2403 -0.0194  0.5376
 8180SOL    HW136173   1.138   0.670   3.776 -0.8928 -0.4579 -0.4113
 8180SOL    HW236174   1.106   0.628   3.919 -0.6458  0.0202  0.7452
 8181SOL     OW36175   2.970   3.697   2.265 -0.4645 -0.2053 -0.2314
 8181SOL    HW136176   2.912   3.721   2.337 -1.4088  0.0631 -1.0930
 8181SOL    HW236177   3.021   3.627   2.307 -0.2112  0.2075  0.1440
 8182SOL     OW36178   0.491   4.562   7.317  0.1949  0.1459  0.0373
 8182SOL    HW136179   0.502   4.608   7.234  0.2846  0.1861  0.0727
 8182SOL    HW236180   0.431   4.616   7.368  2.7489  1.1900  1.9043
 8183SOL     OW36181   2.609   3.189  11.120  0.6186  0.4218 -0.1704
 8183SOL    HW136182   2.642   3.234  11.043  0.7107  1.2040  0.3259
 8183SOL    HW236183   2.671   3.214  11.188 -1.6606  1.0450  1.6892
 8184SOL     OW36184   1.079   0.739   5.404 -0.0289 -0.0129  0.2205
 8184SOL    HW136185   1.151   0.779   5.453  1.7547 -0.2695 -2.1911
 8184SOL    HW236186   1.086   0.645   5.423  0.6858 -0.0519 -0.2329
 8185SOL     OW36187   0.076   2.749   6.097 -0.6577  0.7540 -0.8546
 8185SOL    HW136188   0.127   2.805   6.154  0.9908  0.7695 -2.3448
 8185SOL    HW236189   0.103   2.664   6.133  3.1018  2.8137  1.1378
 8186SOL     OW36190   2.020   0.547  12.717 -0.0583 -0.2426  0.0631
 8186SOL    HW136191   2.096   0.605  12.714 -0.2926  0.0984  0.6582
 8186SOL    HW236192   1.985   0.562  12.629 -1.9225 -2.6560  0.3727
 8187SOL     OW36193   0.997   2.607  13.060  0.1504 -0.2349  0.0893
 8187SOL    HW136194   0.907   2.575  13.054  0.3380 -0.9244  0.9744
 8187SOL    HW236195   0.976   2.699  13.041 -0.1996  0.0485  1.8190
 8188SOL     OW36196   0.959   1.733   7.252 -0.0075  0.3453 -0.0396
 8188SOL    HW136197   0.946   1.789   7.329 -1.7520 -0.7459  0.4386
 8188SOL    HW236198   0.895   1.771   7.193  1.5548  1.7239 -0.8577
 8189SOL     OW36199   3.303   0.390  15.247 -0.5920  0.6802  0.1104
 8189SOL    HW136200   3.236   0.380  15.314 -1.1887 -3.1929 -1.0540
 8189SOL    HW236201   3.284   0.478  15.214  2.2474  1.3761  0.2822
 8190SOL     OW36202   2.823   4.352   6.742 -0.7126 -0.0979 -0.0585
 8190SOL    HW136203   2.818   4.291   6.669  0.3323  0.9134 -0.9927
 8190SOL    HW236204   2.752   4.412   6.721  0.2503  1.1151  0.1302
 8191SOL     OW36205   3.947   4.266   2.390  0.0782  0.0001 -0.2810
 8191SOL    HW136206   3.884   4.201   2.357 -0.3359 -0.1943  0.9100
 8191SOL    HW236207   4.004   4.287   2.315 -0.9594  2.0505 -0.4953
 8192SOL     OW36208   1.548   4.263  15.908 -0.0872  0.0395  0.2235
 8192SOL    HW136209   1.606   4.233  15.838  0.4610  0.7720  0.3688
 8192SOL    HW236210   1.583   4.214  15.983  1.7916 -0.0475 -0.7169
 8193SOL     OW36211   4.493   4.424   0.478  0.1635  0.2992 -0.5919
 8193SOL    HW136212   4.408   4.381   0.472 -0.2562  1.0742 -0.1440
 8193SOL    HW236213   4.526   4.402   0.391  0.4139 -0.0012 -0.4214
 8194SOL     OW36214   4.346   2.797  11.030 -0.1095  0.4085  0.0352
 8194SOL    HW136215   4.377   2.878  11.071 -0.5422  0.0357  1.1096
 8194SOL    HW236216   4.397   2.802  10.949 -1.5743  1.1131 -0.8458
 8195SOL     OW36217   3.731   2.785   2.915 -0.2502  0.7412 -0.0728
 8195SOL    HW136218   3.695   2.700   2.940 -0.2661 -0.0565 -2.8055
 8195SOL    HW236219   3.699   2.795   2.825  1.0001  1.1655 -0.4734
 8196SOL     OW36220   1.635   3.485   6.112 -0.5497  0.6090  0.2715
 8196SOL    HW136221   1.554   3.451   6.150 -0.5895  1.6336  1.0891
 8196SOL    HW236222   1.621   3.579   6.115 -3.4461  0.2016 -0.6152
 8197SOL     OW36223   4.293   4.106  17.255  0.0377 -0.1968 -0.5369
 8197SOL    HW136224   4.280   4.061  17.172  1.2159 -0.2296 -0.7050
 8197SOL    HW236225   4.387   4.121  17.259 -0.4621  2.7029  0.6981
 8198SOL     OW36226   3.610   3.583   6.630 -0.0505  0.0663 -0.2531
 8198SOL    HW136227   3.548   3.648   6.663  0.7508 -1.1648  3.6701
 8198SOL    HW236228   3.568   3.499   6.649  1.1541 -0.3735  0.4562
 8199SOL     OW36229   2.253   4.063   0.620 -0.5157 -0.1801  0.8832
 8199SOL    HW136230   2.181   4.047   0.560  0.3705  2.1497 -0.8105
 8199SOL    HW236231   2.244   3.988   0.678  0.8501  0.7823  2.3758
 8200SOL     OW36232   3.536   0.943   5.904  0.0256 -0.0564 -0.2487
 8200SOL    HW136233   3.564   1.020   5.855  1.2380 -1.2639 -1.4580
 8200SOL    HW236234   3.467   0.911   5.846 -1.2335  0.4982  0.9345
 8201SOL     OW36235   2.835   4.126   0.567 -0.2318  0.1519 -0.0529
 8201SOL    HW136236   2.739   4.120   0.568 -0.3850  2.3910 -0.3854
 8201SOL    HW236237   2.863   4.072   0.641 -1.0581 -2.1866 -1.4635
 8202SOL     OW36238   1.309   0.629   1.357 -0.5871  0.6219  0.0282
 8202SOL    HW136239   1.264   0.556   1.314  2.8674 -3.1424  2.7876
 8202SOL    HW236240   1.271   0.705   1.312  1.2632  0.9208 -1.0575
 8203SOL     OW36241   2.593   4.061   1.722  0.1394 -0.3034 -0.2118
 8203SOL    HW136242   2.658   4.097   1.661 -0.1412 -2.6744 -1.8855
 8203SOL    HW236243   2.639   4.049   1.805  2.1470 -0.2033 -1.3151
 8204SOL     OW36244   2.061   0.336  13.597 -0.4737  0.1244  0.3024
 8204SOL    HW136245   2.035   0.365  13.509  1.0217  0.7802  0.0779
 8204SOL    HW236246   2.015   0.253  13.608  1.0675 -0.5909  1.3864
 8205SOL     OW36247   0.383   1.005   5.479  0.1527  0.0837 -0.0663
 8205SOL    HW136248   0.419   0.965   5.559 -1.0411  0.7935  0.8268
 8205SOL    HW236249   0.392   1.100   5.492  1.6916  0.1326 -1.6095
 8206SOL     OW36250   0.228   4.536   2.508 -0.4559 -0.1146 -0.9009
 8206SOL    HW136251   0.206   4.471   2.442 -2.5139  0.2758 -0.5827
 8206SOL    HW236252   0.142   4.574   2.528 -0.2367  0.4449 -1.0228
 8207SOL     OW36253   2.252   0.984   8.831  0.0467  0.5296 -0.2152
 8207SOL    HW136254   2.301   0.903   8.821  1.1957  1.2025 -0.0711
 8207SOL    HW236255   2.321   1.045   8.857  2.4837 -1.6485 -1.5600
 8208SOL     OW36256   0.977   3.996   8.036  0.2118 -0.1285  0.0607
 8208SOL    HW136257   0.943   4.081   8.062  0.9141 -0.1172  0.9200
 8208SOL    HW236258   0.932   3.983   7.952 -1.1615 -1.2950  0.9563
 8209SOL     OW36259   3.226   1.201   7.818 -0.0699 -0.1692  0.5075
 8209SOL    HW136260   3.179   1.119   7.833  1.0241 -0.7419  0.8095
 8209SOL    HW236261   3.313   1.173   7.847 -0.3632 -1.6399 -0.0561
 8210SOL     OW36262   2.222   0.633   5.402  0.0806  0.5248 -0.0638
 8210SOL    HW136263   2.317   0.627   5.411  0.2448  2.5358 -0.3245
 8210SOL    HW236264   2.199   0.544   5.427  0.2139  1.1008  2.0966
 8211SOL     OW36265   4.269   2.953   8.890 -0.0761  0.1376 -0.3319
 8211SOL    HW136266   4.355   2.944   8.849 -0.0198 -0.7901 -0.0187
 8211SOL    HW236267   4.265   2.865   8.929 -1.0784  0.6806  0.7617
 8212SOL     OW36268   0.732   4.401   5.340  0.5691 -0.0136 -0.2196
 8212SOL    HW136269   0.689   4.331   5.390 -0.5262 -0.0213 -1.1731
 8212SOL    HW236270   0.738   4.351   5.258  2.4154 -1.8766  1.0316
 8213SOL     OW36271   0.497   3.879   2.447 -0.1452 -0.0341  0.1513
 8213SOL    HW136272   0.566   3.813   2.457  0.2772  0.4641  0.5181
 8213SOL    HW236273   0.424   3.841   2.496 -1.5561  0.0166 -1.8943
 8214SOL     OW36274   1.150   3.689  13.594 -0.3678 -0.1259  0.0640
 8214SOL    HW136275   1.139   3.714  13.686  0.6092 -1.6757  0.5993
 8214SOL    HW236276   1.200   3.766  13.570  0.4276 -0.8077 -0.4539
 8215SOL     OW36277   3.524   2.653   7.382 -0.1382 -0.2964 -0.0256
 8215SOL    HW136278   3.489   2.668   7.470  1.9225  1.1660  0.5536
 8215SOL    HW236279   3.602   2.708   7.391  0.1498 -0.2076 -2.9196
 8216SOL     OW36280   3.485   1.474   7.872  0.0977  0.4432  0.0574
 8216SOL    HW136281   3.541   1.411   7.917  1.8983  1.8118 -0.2545
 8216SOL    HW236282   3.421   1.485   7.942  3.3688 -1.6314  3.3632
 8217SOL     OW36283   3.308   2.991   7.246 -0.1438 -0.0532  0.6848
 8217SOL    HW136284   3.277   2.969   7.333  0.8629 -1.8084  0.6058
 8217SOL    HW236285   3.250   3.055   7.206  1.7958  1.5259  0.4010
 8218SOL     OW36286   1.412   3.330   8.898 -0.5606 -0.1452 -0.1657
 8218SOL    HW136287   1.439   3.252   8.948  0.4321  1.2122  1.4282
 8218SOL    HW236288   1.414   3.297   8.808 -2.0033 -0.9050  0.0844
 8219SOL     OW36289   1.675   3.261   5.125  0.4780  0.0633  0.7210
 8219SOL    HW136290   1.707   3.216   5.203  0.3523  0.6769  1.1191
 8219SOL    HW236291   1.621   3.187   5.097 -0.9754  1.0436  0.9358
 8220SOL     OW36292   3.769   1.123   7.669 -0.2980 -0.3887  0.2947
 8220SOL    HW136293   3.744   1.215   7.656  0.6815 -0.5476 -2.7377
 8220SOL    HW236294   3.734   1.113   7.757 -0.4882  4.0984  0.7588
 8221SOL     OW36295   1.389   3.019   6.175 -1.0381 -0.0683  0.4103
 8221SOL    HW136296   1.424   2.935   6.147  0.9435  0.9720 -0.3155
 8221SOL    HW236297   1.299   3.003   6.146 -1.2231  1.5793  0.0626
 8222SOL     OW36298   0.388   1.076  17.742 -0.1539 -0.0494 -0.2969
 8222SOL    HW136299   0.340   1.158  17.734 -2.0852 -1.3510 -2.1037
 8222SOL    HW236300   0.322   1.010  17.720 -1.2874  0.9921 -0.0148
 8223SOL     OW36301   3.035   3.127  16.779 -0.1488 -0.4549 -0.0283
 8223SOL    HW136302   3.033   3.049  16.723  3.2220 -1.2132  0.9104
 8223SOL    HW236303   2.940   3.135  16.775 -0.1274 -0.8194 -1.3659
 8224SOL     OW36304   1.682   3.676   7.901 -0.0178 -0.7336 -0.5067
 8224SOL    HW136305   1.761   3.636   7.938  0.6599  2.1895  1.1825
 8224SOL    HW236306   1.700   3.657   7.809  0.4105 -3.4329  0.1223
 8225SOL     OW36307   3.618   0.120   1.840 -0.3100  0.1517  0.3718
 8225SOL    HW136308   3.538   0.076   1.811  0.3321 -0.4182 -0.5261
 8225SOL    HW236309   3.636   0.064   1.916 -1.1798  1.6225  1.6735
 8226SOL     OW36310   4.358   0.274   8.780  0.4420 -0.2350 -0.0151
 8226SOL    HW136311   4.350   0.307   8.870  0.3302 -0.2083 -0.0346
 8226SOL    HW236312   4.451   0.254   8.773  0.3971 -0.8118  0.9349
 8227SOL     OW36313   1.083   3.068   8.128 -0.5247  0.7551 -0.0429
 8227SOL    HW136314   0.997   3.108   8.116 -0.9095  0.5482  1.9564
 8227SOL    HW236315   1.085   3.055   8.223  1.8587 -1.5412 -0.4137
 8228SOL     OW36316   2.904   0.684   4.341  0.3582  0.3877 -0.1787
 8228SOL    HW136317   2.983   0.658   4.295  1.1516 -0.5693  1.6989
 8228SOL    HW236318   2.938   0.739   4.412 -0.0620 -0.1944  0.4824
 8229SOL     OW36319   3.523   0.744   1.859 -0.5896 -0.5670 -0.3014
 8229SOL    HW136320   3.513   0.800   1.936  2.5829  0.2269 -0.4751
 8229SOL    HW236321   3.494   0.659   1.895 -1.1348  0.4682  1.7279
 8230SOL     OW36322   1.332   0.527   3.714 -0.4964 -0.4186  1.1372
 8230SOL    HW136323   1.328   0.432   3.699  0.2180 -0.1770 -0.5961
 8230SOL    HW236324   1.334   0.562   3.625  1.2776 -1.4402  0.7931
 8231SOL     OW36325   3.263   2.052  11.664 -0.2781 -0.0723 -0.3772
 8231SOL    HW136326   3.237   1.965  11.696 -0.8357  0.4703  0.6560
 8231SOL    HW236327   3.172   2.082  11.658 -0.3939 -0.8777 -2.5289
 8232SOL     OW36328   3.550   4.423   9.045  0.2996 -0.0193 -0.3414
 8232SOL    HW136329   3.592   4.388   9.123 -0.3947 -0.2422 -0.0656
 8232SOL    HW236330   3.458   4.400   9.054  0.3584 -0.1121  0.0059
 8233SOL     OW36331   1.003   0.606   9.196  0.3996  0.4710  0.2309
 8233SOL    HW136332   0.937   0.643   9.137 -1.9425  1.3574  3.4002
 8233SOL    HW236333   1.051   0.552   9.134  1.8862  1.4391  0.5445
 8234SOL     OW36334   2.706   3.320   6.429 -0.5338 -0.2725  0.4368
 8234SOL    HW136335   2.627   3.293   6.382  1.3665 -4.4443 -0.3646
 8234SOL    HW236336   2.720   3.248   6.489  0.2069 -0.0328  0.5546
 8235SOL     OW36337   4.240   3.445  14.302 -0.6675 -0.1169 -0.5192
 8235SOL    HW136338   4.334   3.452  14.286 -0.0901 -1.7939  2.1325
 8235SOL    HW236339   4.214   3.465  14.212 -1.6480  0.6064 -0.0771
 8236SOL     OW36340   0.500   2.127  14.950  0.3271 -0.0785  0.5895
 8236SOL    HW136341   0.415   2.095  14.983  1.5808 -3.5953  0.4422
 8236SOL    HW236342   0.548   2.111  15.031 -1.1060  1.1299  1.6685
 8237SOL     OW36343   4.590   4.698   4.669 -0.1545 -0.6418  0.2369
 8237SOL    HW136344   4.561   4.612   4.698  2.3366 -1.4953  0.2146
 8237SOL    HW236345   4.657   4.676   4.604  0.7011 -0.2093  0.9723
 8238SOL     OW36346   3.482   1.710   5.329 -0.4415  0.4661  0.0945
 8238SOL    HW136347   3.468   1.733   5.421 -0.3175  0.3284  0.1465
 8238SOL    HW236348   3.507   1.619   5.342 -0.8362  0.3925  0.3169
 8239SOL     OW36349   3.890   2.647  11.133  0.0589  0.2751 -0.0304
 8239SOL    HW136350   3.962   2.687  11.084  0.5528  0.4485  0.8436
 8239SOL    HW236351   3.808   2.687  11.106 -0.5268 -0.4240  0.7192
 8240SOL     OW36352   1.036   0.255   4.184 -0.3784  0.3194 -0.0551
 8240SOL    HW136353   1.094   0.285   4.115 -2.1434  3.4033 -0.2045
 8240SOL    HW236354   0.949   0.263   4.145 -0.1928  0.2188 -0.4906
 8241SOL     OW36355   0.608   1.551  10.124 -0.3488  0.2040  0.9465
 8241SOL    HW136356   0.678   1.614  10.109 -0.8183  0.5826  0.3472
 8241SOL    HW236357   0.591   1.561  10.218 -1.9481  0.4968  0.6158
 8242SOL     OW36358   3.780   3.556   4.028 -0.0941  0.7712  0.3318
 8242SOL    HW136359   3.739   3.640   4.006  1.0037  0.9680 -0.9529
 8242SOL    HW236360   3.828   3.535   3.949 -1.5576  0.5715 -0.5125
 8243SOL     OW36361   4.451   3.571   8.777  0.2193  1.3688  0.2190
 8243SOL    HW136362   4.424   3.488   8.817  1.6256  1.4970  1.4292
 8243SOL    HW236363   4.475   3.548   8.687  2.3059  0.4820  1.0067
 8244SOL     OW36364   0.127   1.425  13.851  0.0786 -0.4465  0.4786
 8244SOL    HW136365   0.209   1.393  13.888  1.9438 -0.6406 -3.8236
 8244SOL    HW236366   0.062   1.426  13.922  0.4003  1.4240  0.7566
 8245SOL     OW36367   0.391   0.455   2.691 -0.4276 -0.4584  0.3690
 8245SOL    HW136368   0.466   0.441   2.633 -1.6215  3.8210 -2.1810
 8245SOL    HW236369   0.408   0.392   2.762 -0.6038  0.4767  1.2470
 8246SOL     OW36370   3.874   3.554   6.171 -0.9160 -0.1504  0.2620
 8246SOL    HW136371   3.880   3.519   6.082 -0.3457  0.7335 -0.0532
 8246SOL    HW236372   3.794   3.607   6.167 -1.8139 -1.5566 -0.3269
 8247SOL     OW36373   3.728   0.027   3.017 -0.4799 -0.5775  0.1485
 8247SOL    HW136374   3.651   4.724   3.057 -0.4060  1.5698  2.5418
 8247SOL    HW236375   3.694   0.115   2.999  2.3573  0.5386  0.2713
 8248SOL     OW36376   2.702   2.876  13.745 -0.0556 -0.2493  0.3270
 8248SOL    HW136377   2.630   2.890  13.807  0.7590  0.0224  1.1995
 8248SOL    HW236378   2.772   2.916  13.797  1.3466 -1.2013 -0.8441
 8249SOL     OW36379   4.420   1.890   7.619 -0.0442 -0.3452  0.0485
 8249SOL    HW136380   4.335   1.927   7.645  0.6825 -0.2321  2.2806
 8249SOL    HW236381   4.405   1.796   7.611 -0.4882 -0.3339  0.7580
 8250SOL     OW36382   0.777   2.840   1.855 -0.5535  0.6013 -0.2654
 8250SOL    HW136383   0.729   2.760   1.876  0.7221  0.4514  2.0454
 8250SOL    HW236384   0.757   2.846   1.761 -0.4626  3.3194 -0.1101
 8251SOL     OW36385   4.361   4.344   9.328 -0.1739 -0.0568  0.5974
 8251SOL    HW136386   4.454   4.332   9.347 -0.2348  1.5926  2.0008
 8251SOL    HW236387   4.368   4.380   9.239  0.6947  2.0417  1.5121
 8252SOL     OW36388   2.207   2.678   3.444  0.0087  0.4851 -0.9752
 8252SOL    HW136389   2.168   2.594   3.421 -0.2188  0.1862  0.4564
 8252SOL    HW236390   2.176   2.693   3.534 -0.3678 -2.6789 -0.5974
 8253SOL     OW36391   4.150   3.444  17.498  0.7177  0.2142  0.2429
 8253SOL    HW136392   4.092   3.445  17.573 -0.7841 -2.2832 -0.8800
 8253SOL    HW236393   4.217   3.380  17.523  1.5778  1.3658  0.8897
 8254SOL     OW36394   2.872   4.025   2.253 -0.0543  0.4659  0.0712
 8254SOL    HW136395   2.827   3.955   2.301 -1.6252  1.9833  0.8262
 8254SOL    HW236396   2.939   3.976   2.206 -2.3298  0.6291 -3.3011
 8255SOL     OW36397   0.549   2.334   1.871 -0.2143  0.6161 -0.2846
 8255SOL    HW136398   0.455   2.332   1.855  0.1535 -0.4442 -2.2035
 8255SOL    HW236399   0.554   2.425   1.902 -0.3961  0.3868  0.4133
 8256SOL     OW36400   0.819   0.853  11.507  0.4409  0.6972  0.3547
 8256SOL    HW136401   0.770   0.825  11.429 -0.6543  0.0401  1.2818
 8256SOL    HW236402   0.889   0.789  11.515 -0.5411 -0.4256 -0.0644
 8257SOL     OW36403   2.125   3.977   3.392  0.1496 -0.0539  0.8377
 8257SOL    HW136404   2.195   3.979   3.326 -1.1227  0.6403 -0.5126
 8257SOL    HW236405   2.052   3.991   3.332  3.6263  1.4130 -3.0775
 8258SOL     OW36406   3.071   2.039  16.618 -0.3422 -0.2816  0.3253
 8258SOL    HW136407   3.013   2.071  16.687  0.4984 -0.3197  1.0529
 8258SOL    HW236408   3.092   1.949  16.645  1.0019  0.9169  3.1677
 8259SOL     OW36409   3.528   4.186   1.692 -0.0921 -0.6903  0.2365
 8259SOL    HW136410   3.486   4.182   1.606 -1.1064 -0.3421  0.7134
 8259SOL    HW236411   3.620   4.164   1.678 -0.0078  0.2251 -0.6438
 8260SOL     OW36412   3.438   1.808   4.454 -0.2394 -0.7062 -0.3720
 8260SOL    HW136413   3.425   1.883   4.513  1.7828  0.5789 -1.5522
 8260SOL    HW236414   3.381   1.842   4.384 -0.0028 -0.1413 -0.2917
 8261SOL     OW36415   4.310   4.497   7.931 -0.5174 -0.1129  0.3780
 8261SOL    HW136416   4.297   4.486   8.025 -0.7672 -0.7767  0.2635
 8261SOL    HW236417   4.345   4.412   7.906 -0.8798  0.6019 -2.6073
 8262SOL     OW36418   3.748   0.833   5.704  0.7991  0.2437  0.4357
 8262SOL    HW136419   3.793   0.749   5.715  0.2724  0.0364  1.0064
 8262SOL    HW236420   3.720   0.856   5.793 -1.8460 -1.4318  0.0321
 8263SOL     OW36421   2.968   1.834   6.388  0.5097 -0.1396 -0.9344
 8263SOL    HW136422   3.051   1.879   6.406  0.4256 -2.0191  4.1730
 8263SOL    HW236423   2.999   1.785   6.311  2.6708  0.2979 -0.3442
 8264SOL     OW36424   1.064   1.959   6.297  0.0955  0.5872  0.3162
 8264SOL    HW136425   1.096   1.960   6.387 -3.9520 -2.2580  1.8203
 8264SOL    HW236426   0.971   1.970   6.317  0.4097  2.6212  0.6979
 8265SOL     OW36427   1.594   0.476   5.141 -0.4940  0.0525 -0.0149
 8265SOL    HW136428   1.524   0.540   5.154 -0.2009  0.2112  0.7709
 8265SOL    HW236429   1.557   0.429   5.066 -1.0668  1.2703 -0.4985
 8266SOL     OW36430   0.415   3.116  16.439  0.0786 -0.1859  0.1771
 8266SOL    HW136431   0.464   3.185  16.396 -1.3545  1.0490  0.5081
 8266SOL    HW236432   0.340   3.100  16.382 -1.6714 -0.1410  2.4618
 8267SOL     OW36433   3.588   4.625   7.088  0.6639 -0.4419  0.2492
 8267SOL    HW136434   3.642   4.704   7.094 -0.1008 -0.0564  2.1148
 8267SOL    HW236435   3.567   4.596   7.177  0.0701  1.6768  0.8063
 8268SOL     OW36436   3.519   3.368  16.577  0.1481 -0.1781  0.4634
 8268SOL    HW136437   3.548   3.331  16.661 -0.1752  0.2980  0.7894
 8268SOL    HW236438   3.471   3.444  16.611 -1.4885 -0.7940 -0.4766
 8269SOL     OW36439   2.828   1.195   6.481 -0.2870  0.1542 -0.1476
 8269SOL    HW136440   2.809   1.103   6.499 -1.0522  0.4104  0.3499
 8269SOL    HW236441   2.786   1.242   6.553  1.0356 -0.6440  1.1395
 8270SOL     OW36442   0.632   3.219   2.456 -0.1047  0.2350 -0.4884
 8270SOL    HW136443   0.679   3.182   2.530  1.3882 -2.4026 -2.7411
 8270SOL    HW236444   0.559   3.269   2.491  0.2775  1.2184 -1.0985
 8271SOL     OW36445   2.283   2.158   6.313  0.2503  0.6818  0.5713
 8271SOL    HW136446   2.230   2.089   6.272  0.6659  1.0252 -0.5457
 8271SOL    HW236447   2.307   2.207   6.235  0.8872  0.8170  0.8555
 8272SOL     OW36448   0.253   4.291   4.641  0.1622 -0.8145 -0.7802
 8272SOL    HW136449   0.163   4.302   4.609  0.0077 -1.6931 -0.6584
 8272SOL    HW236450   0.286   4.223   4.582  0.0707 -1.5169 -0.0317
 8273SOL     OW36451   3.864   0.226   6.085  0.3439 -0.3273 -0.5002
 8273SOL    HW136452   3.909   0.196   6.007  0.1513 -1.0875 -0.3153
 8273SOL    HW236453   3.812   0.303   6.061  1.1235  0.8375  1.5683
 8274SOL     OW36454   2.512   4.041   8.660  0.0332  0.4368  0.2282
 8274SOL    HW136455   2.453   3.969   8.683 -0.9375  1.6572  1.6264
 8274SOL    HW236456   2.450   4.115   8.663  1.6792  1.8852 -2.0393
 8275SOL     OW36457   1.696   4.589   4.572  0.2730  0.3884 -0.1722
 8275SOL    HW136458   1.739   4.503   4.574 -0.5669 -0.0008  1.1820
 8275SOL    HW236459   1.606   4.557   4.565  0.2320  0.8380 -1.5640
 8276SOL     OW36460   3.258   4.530   0.527 -0.1875 -0.5741  0.1823
 8276SOL    HW136461   3.334   4.489   0.567 -1.3369 -0.3503  2.5847
 8276SOL    HW236462   3.300   4.609   0.493  0.6521 -0.6874  0.9910
 8277SOL     OW36463   0.246   2.874   1.997  0.3466 -0.7257  0.3907
 8277SOL    HW136464   0.182   2.819   1.952  0.9033 -0.0059 -1.2632
 8277SOL    HW236465   0.330   2.836   1.973  1.0503 -0.3008  2.1126
 8278SOL     OW36466   0.123   4.668  11.716 -0.2354 -0.3001 -0.3624
 8278SOL    HW136467   0.057   4.705  11.658 -0.9444 -0.4474  0.3649
 8278SOL    HW236468   0.075   4.666  11.799 -0.4284 -1.2832 -0.4940
 8279SOL     OW36469   2.738   2.591   2.929  0.2990  0.2458 -0.0215
 8279SOL    HW136470   2.723   2.522   2.992  2.5840  1.7013  2.1344
 8279SOL    HW236471   2.779   2.655   2.988  1.1832  0.2001 -0.5784
 8280SOL     OW36472   0.997   3.044   8.390  0.1264  0.0600 -0.2480
 8280SOL    HW136473   0.924   2.983   8.379 -1.5636  1.8704  0.9690
 8280SOL    HW236474   1.033   3.025   8.477 -1.7327 -0.3727  0.4154
 8281SOL     OW36475   0.071   1.092  13.606  0.3285 -0.3282  0.0955
 8281SOL    HW136476   0.031   1.029  13.545 -1.7272 -0.3975  1.5190
 8281SOL    HW236477   0.019   1.097  13.686  1.0585  2.9681  0.3765
 8282SOL     OW36478   2.422   4.054   7.884  0.1425 -0.3316  0.3536
 8282SOL    HW136479   2.434   3.959   7.883  1.2144 -0.1787 -2.5492
 8282SOL    HW236480   2.514   4.077   7.888  0.3691 -1.2402  0.3973
 8283SOL     OW36481   2.244   0.269   4.806 -0.1906 -0.0686  0.0482
 8283SOL    HW136482   2.224   0.350   4.851  0.3027 -0.2694  0.6325
 8283SOL    HW236483   2.340   0.270   4.807 -0.1542  2.3290 -3.1892
 8284SOL     OW36484   2.303   2.919   8.761  0.2427 -0.6687 -0.0358
 8284SOL    HW136485   2.396   2.940   8.766 -0.5988  2.6807  1.7382
 8284SOL    HW236486   2.273   2.949   8.847 -0.6977 -1.0517 -0.2256
 8285SOL     OW36487   0.531   2.639   9.029 -0.6239  0.0729  0.5752
 8285SOL    HW136488   0.479   2.559   9.042 -0.6132 -0.3079 -1.7013
 8285SOL    HW236489   0.616   2.607   9.060 -0.5233  0.4851  0.7254
 8286SOL     OW36490   2.707   4.566   4.765 -0.1309  0.0853 -0.1718
 8286SOL    HW136491   2.754   4.596   4.687  3.4410 -1.3797  1.4220
 8286SOL    HW236492   2.618   4.602   4.757 -1.1247 -2.0673  0.9932
 8287SOL     OW36493   1.936   1.951   2.429  0.0912  0.7405 -0.4004
 8287SOL    HW136494   1.981   1.931   2.511  1.4000  0.4954 -1.1789
 8287SOL    HW236495   1.905   1.869   2.392  0.3407 -0.3218  1.7689
 8288SOL     OW36496   0.999   1.879   8.531  0.1401 -0.4679  0.0181
 8288SOL    HW136497   0.974   1.919   8.447  3.4238  1.3605 -0.0952
 8288SOL    HW236498   1.075   1.831   8.499  0.7498  0.7286 -0.3337
 8289SOL     OW36499   2.849   0.776  15.506  0.1785 -0.3462 -0.0067
 8289SOL    HW136500   2.796   0.794  15.583  1.1578 -0.1123  0.6173
 8289SOL    HW236501   2.845   0.681  15.505 -0.0463 -0.3341 -1.0460
 8290SOL     OW36502   0.505   4.246   4.896 -0.0603  0.5212 -0.1359
 8290SOL    HW136503   0.475   4.212   4.812 -1.1302 -1.9423  1.2369
 8290SOL    HW236504   0.565   4.175   4.921 -0.6912 -0.3328 -1.0739
 8291SOL     OW36505   3.155   2.210   4.609  0.2357  0.0089 -0.0632
 8291SOL    HW136506   3.097   2.211   4.533 -2.6389 -1.9956  2.0575
 8291SOL    HW236507   3.182   2.301   4.614 -1.6710  0.4373  2.4812
 8292SOL     OW36508   1.614   3.199   7.524  0.2276  0.3270 -0.5402
 8292SOL    HW136509   1.688   3.180   7.466 -0.2122  0.8112 -1.2642
 8292SOL    HW236510   1.661   3.176   7.604  1.1164  3.4710 -0.2003
 8293SOL     OW36511   3.915   2.213   6.934  0.2911  0.3373  0.1935
 8293SOL    HW136512   3.833   2.253   6.961  0.6236  1.2921 -0.2103
 8293SOL    HW236513   3.978   2.285   6.939  1.0251 -0.3533  0.8169
 8294SOL     OW36514   4.517   3.708   3.235 -0.6098 -0.6956 -0.2199
 8294SOL    HW136515   4.535   3.741   3.147 -0.5457  2.2901  0.8873
 8294SOL    HW236516   4.589   3.653   3.264 -0.5133 -0.5021 -0.0880
 8295SOL     OW36517   3.281   3.325   7.404  0.0892 -0.0783  0.2203
 8295SOL    HW136518   3.333   3.251   7.437  1.3432  1.8250  2.5657
 8295SOL    HW236519   3.196   3.286   7.424  0.4555  0.1746  2.3247
 8296SOL     OW36520   3.028   4.096   0.218 -0.0467 -0.6441  0.0668
 8296SOL    HW136521   2.971   4.027   0.183  0.2897 -0.9011  0.0299
 8296SOL    HW236522   3.106   4.040   0.218 -0.1798 -0.8341 -0.2193
 8297SOL     OW36523   3.417   3.057   1.569  0.8483 -0.5272  0.0738
 8297SOL    HW136524   3.405   2.972   1.526 -0.3885 -1.1861  1.7192
 8297SOL    HW236525   3.482   3.095   1.509 -0.0311 -0.1009 -0.6292
 8298SOL     OW36526   2.718   2.368   1.653 -0.1814 -0.1390 -0.0389
 8298SOL    HW136527   2.686   2.457   1.667  0.5270 -0.2131  2.0587
 8298SOL    HW236528   2.757   2.340   1.736 -1.2411  0.5155  0.6827
 8299SOL     OW36529   0.134   3.889   5.507  0.0243 -0.1910  0.7594
 8299SOL    HW136530   0.097   3.964   5.554 -0.1850 -0.3456  0.8427
 8299SOL    HW236531   0.082   3.890   5.427 -0.7738 -0.9326  1.2730
 8300SOL     OW36532   1.289   0.158   2.337 -0.3520  0.0284  0.0889
 8300SOL    HW136533   1.313   0.185   2.248 -0.5670 -0.3899 -0.1000
 8300SOL    HW236534   1.346   0.080   2.334 -0.1411  0.1318  1.3297
 8301SOL     OW36535   4.527   3.988  12.283  0.5610 -0.0701 -0.1404
 8301SOL    HW136536   4.538   4.019  12.373 -2.1779 -0.6734  0.3738
 8301SOL    HW236537   4.432   3.988  12.276  0.4804 -3.1082  1.1407
 8302SOL     OW36538   1.759   4.575  11.051  0.4785 -0.7781  0.4827
 8302SOL    HW136539   1.703   4.652  11.045  1.5664  0.1408  2.0723
 8302SOL    HW236540   1.759   4.575  11.147  2.9040 -2.0283  0.4807
 8303SOL     OW36541   0.328   2.190   6.770 -0.3119  0.4759  0.1044
 8303SOL    HW136542   0.299   2.280   6.781 -2.1646 -0.1733  0.5435
 8303SOL    HW236543   0.402   2.185   6.830  0.8110  0.3211 -1.2674
 8304SOL     OW36544   0.282   2.783   6.689  0.0019  0.1642  0.5561
 8304SOL    HW136545   0.364   2.809   6.646 -0.4058 -1.2013 -1.0428
 8304SOL    HW236546   0.223   2.842   6.643  0.9500  0.8244  0.1958
 8305SOL     OW36547   0.885   4.605  14.172 -0.1632  0.0763  0.3387
 8305SOL    HW136548   0.927   4.691  14.166 -1.8390  0.8014 -1.1087
 8305SOL    HW236549   0.960   4.558  14.209  0.8770  0.3629 -1.3857
 8306SOL     OW36550   0.348   2.449   3.791  0.4394 -0.3005  0.3718
 8306SOL    HW136551   0.388   2.432   3.705  2.0164 -2.3821  1.5268
 8306SOL    HW236552   0.253   2.439   3.785  0.5346 -1.1823  0.4456
 8307SOL     OW36553   4.474   1.426   6.884 -0.0161  0.1466  0.7656
 8307SOL    HW136554   4.502   1.507   6.841  0.9870 -0.3797  0.4445
 8307SOL    HW236555   4.424   1.461   6.958  0.5087  0.7192  0.8528
 8308SOL     OW36556   0.672   2.107   8.253 -0.0960  0.7412  0.1698
 8308SOL    HW136557   0.602   2.122   8.191  2.8570  1.0187 -3.1031
 8308SOL    HW236558   0.623   2.062   8.321  1.0253  0.0099  0.5031
 8309SOL     OW36559   1.012   0.078   8.945  0.7709 -0.2821 -0.0490
 8309SOL    HW136560   0.977   0.140   8.881  2.2174  1.2422  0.6395
 8309SOL    HW236561   1.022   0.126   9.028 -0.4892 -0.8615  0.4396
 8310SOL     OW36562   2.357   0.992   1.893  0.0032  0.0076  0.2614
 8310SOL    HW136563   2.333   0.941   1.970  0.2831  3.2343  2.5163
 8310SOL    HW236564   2.281   0.961   1.845 -0.3844 -0.0702  0.9252
 8311SOL     OW36565   2.731   0.995  16.949  0.6699 -0.0182 -0.2921
 8311SOL    HW136566   2.688   1.047  16.881 -2.7188 -2.1715  0.1940
 8311SOL    HW236567   2.792   1.059  16.986  2.4793 -1.0279 -1.5482
 8312SOL     OW36568   0.956   1.077  11.537 -0.1185 -0.1198 -0.0694
 8312SOL    HW136569   0.923   1.121  11.615  2.5983  1.8156 -0.0164
 8312SOL    HW236570   0.887   1.014  11.516  0.2153 -0.8653  1.0577
 8313SOL     OW36571   0.524   0.957  11.066 -0.3667 -0.3913  0.5688
 8313SOL    HW136572   0.584   0.948  10.992  0.3242 -0.2500  1.1128
 8313SOL    HW236573   0.438   0.976  11.028 -0.3409  0.8043  1.0961
 8314SOL     OW36574   3.066   3.922   6.997 -0.4400  0.3095 -0.0858
 8314SOL    HW136575   3.090   3.866   6.923  1.3771 -0.8974  1.3917
 8314SOL    HW236576   3.125   3.893   7.067  0.1956  0.6661 -0.4668
 8315SOL     OW36577   2.239   3.552   6.905 -0.0375  0.7230  0.0485
 8315SOL    HW136578   2.169   3.617   6.913  0.3885  1.3104 -0.9985
 8315SOL    HW236579   2.184   3.477   6.881 -0.0443  1.0015 -0.8049
 8316SOL     OW36580   0.494   0.131  13.596 -0.2928  0.1735  0.2808
 8316SOL    HW136581   0.405   0.107  13.567 -1.0385  0.4997  2.3088
 8316SOL    HW236582   0.498   0.083  13.679 -0.4590  2.0817  1.3827
 8317SOL     OW36583   2.711   4.036  13.894  0.9406  0.2344  0.1493
 8317SOL    HW136584   2.696   4.092  13.818  1.4542 -1.9763 -1.5640
 8317SOL    HW236585   2.646   3.968  13.876  0.9182  0.9962 -2.5814
 8318SOL     OW36586   3.751   2.285   2.076  0.0214  0.2680  0.6838
 8318SOL    HW136587   3.771   2.245   2.160 -2.2508  0.0366  1.1063
 8318SOL    HW236588   3.753   2.379   2.092 -0.7665  0.1996  1.1484
 8319SOL     OW36589   3.196   0.492   5.079 -0.2086 -0.0030 -0.0026
 8319SOL    HW136590   3.172   0.568   5.131  2.6913  1.8677 -1.4212
 8319SOL    HW236591   3.123   0.500   5.017 -1.0766  0.1749  1.0476
 8320SOL     OW36592   2.939   0.084   2.087 -0.8108 -0.2792 -0.1514
 8320SOL    HW136593   3.024   0.127   2.073 -1.1373  0.1137 -0.9736
 8320SOL    HW236594   2.884   0.162   2.089 -0.7815 -0.2154 -1.6290
 8321SOL     OW36595   4.024   0.459   8.461  0.0598  0.2807  0.5127
 8321SOL    HW136596   4.047   0.434   8.371 -1.6755 -0.3548  0.2487
 8321SOL    HW236597   4.106   0.440   8.507 -0.2006  1.2435  1.3687
 8322SOL     OW36598   3.310   0.811   2.879 -0.2349  0.4616 -0.6302
 8322SOL    HW136599   3.345   0.878   2.938  1.9370 -2.3608  1.2592
 8322SOL    HW236600   3.351   0.733   2.915  1.0216  0.9210 -1.0720
 8323SOL     OW36601   1.215   1.933   0.475  0.7899 -0.0931  0.2099
 8323SOL    HW136602   1.226   1.972   0.562  1.7938  1.2524 -0.5096
 8323SOL    HW236603   1.245   2.000   0.413 -3.7806  0.9619 -0.8709
 8324SOL     OW36604   1.595   1.370   7.183  0.1966  0.2223 -0.3679
 8324SOL    HW136605   1.617   1.455   7.223  1.4867 -0.0837 -0.4368
 8324SOL    HW236606   1.603   1.318   7.263 -1.5924  0.8427  0.2165
 8325SOL     OW36607   3.976   0.027   9.153  0.0286 -0.3269 -0.7288
 8325SOL    HW136608   3.886   0.021   9.185 -0.6426  1.2748 -2.2885
 8325SOL    HW236609   3.971   0.093   9.083 -1.0039  1.3375  0.9018
 8326SOL     OW36610   4.057   3.836   3.628 -0.8090 -0.2074  0.1811
 8326SOL    HW136611   4.131   3.796   3.672 -0.7257 -1.5146 -1.1350
 8326SOL    HW236612   4.040   3.780   3.552 -1.0918  0.3342 -0.1523
 8327SOL     OW36613   1.154   3.840   3.072  0.4402  0.0771 -0.1261
 8327SOL    HW136614   1.203   3.919   3.051  0.1836  0.9908  2.6357
 8327SOL    HW236615   1.077   3.853   3.016 -0.0848  1.5409  0.9113
 8328SOL     OW36616   3.013   3.561   2.697 -0.0933  0.2857  0.2038
 8328SOL    HW136617   2.918   3.564   2.686 -0.2798 -1.4433  1.4576
 8328SOL    HW236618   3.031   3.651   2.670  0.2385 -0.4245 -1.9945
 8329SOL     OW36619   3.461   3.881   9.931 -0.6678  0.5345  0.0511
 8329SOL    HW136620   3.430   3.864  10.020 -1.9285  0.0943 -0.4686
 8329SOL    HW236621   3.434   3.800   9.886  1.2543  0.2471 -0.5674
 8330SOL     OW36622   4.501   3.999   5.396  0.3175 -0.3755  0.5494
 8330SOL    HW136623   4.500   4.086   5.436 -0.2173 -0.3130  0.3933
 8330SOL    HW236624   4.406   3.988   5.386  0.4635 -1.9103  0.7496
 8331SOL     OW36625   0.981   1.523  13.759  0.0639  0.0209  0.0771
 8331SOL    HW136626   0.937   1.608  13.758 -0.4239 -0.2439 -0.6334
 8331SOL    HW236627   0.912   1.473  13.801  0.6662 -0.4738  0.4813
 8332SOL     OW36628   1.400   1.123   6.799 -0.4994  0.2738 -0.8986
 8332SOL    HW136629   1.396   1.178   6.721 -1.6438 -1.2297 -1.8823
 8332SOL    HW236630   1.382   1.040   6.756 -1.3253  1.0802 -2.1294
 8333SOL     OW36631   3.325   1.458   3.560  0.3110 -0.3320  0.1977
 8333SOL    HW136632   3.387   1.389   3.582  0.5027  0.1292  1.0738
 8333SOL    HW236633   3.394   1.511   3.521 -0.5155  1.2145  0.8176
 8334SOL     OW36634   3.108   0.168   4.439 -0.6515 -0.4925 -0.2360
 8334SOL    HW136635   3.199   0.183   4.466 -0.6155  1.0682 -1.2449
 8334SOL    HW236636   3.117   0.080   4.403 -0.9941 -0.7532  0.3273
 8335SOL     OW36637   1.416   4.392   1.592  0.3227  0.2904  0.1843
 8335SOL    HW136638   1.479   4.434   1.533  0.5148 -0.8759 -0.4417
 8335SOL    HW236639   1.456   4.427   1.671 -0.4775 -1.2682  1.2672
 8336SOL     OW36640   1.810   3.294  12.618  0.0587  0.1049  0.2688
 8336SOL    HW136641   1.840   3.334  12.536  2.9556 -3.5975 -0.4570
 8336SOL    HW236642   1.834   3.202  12.611 -0.4643 -0.0342  0.2916
 8337SOL     OW36643   0.252   0.292   7.401  0.1772 -0.0062 -0.4592
 8337SOL    HW136644   0.257   0.340   7.318 -0.7707 -0.2983 -0.6824
 8337SOL    HW236645   0.295   0.355   7.458  1.7933 -1.7469  0.2727
 8338SOL     OW36646   2.793   2.955   6.798 -0.0565 -0.1708 -0.0487
 8338SOL    HW136647   2.804   2.877   6.744 -0.6938  0.2175 -0.7580
 8338SOL    HW236648   2.708   2.936   6.838  0.6061  2.6242  2.7021
 8339SOL     OW36649   3.062   4.044   1.833 -0.2914 -0.4280  0.4905
 8339SOL    HW136650   3.139   4.054   1.889  0.5027 -0.4537 -0.5862
 8339SOL    HW236651   3.083   4.092   1.753  1.1214  1.6175  2.1136
 8340SOL     OW36652   2.515   2.866   2.187 -0.4331 -0.1468 -0.2194
 8340SOL    HW136653   2.450   2.853   2.256 -0.6273  0.6331 -0.2476
 8340SOL    HW236654   2.503   2.959   2.167 -1.1767 -0.3458 -0.6923
 8341SOL     OW36655   2.167   2.681   5.401 -0.2165 -0.8451 -0.0645
 8341SOL    HW136656   2.243   2.694   5.344  0.1441  1.3466  0.9274
 8341SOL    HW236657   2.096   2.646   5.347 -0.8763  0.1668  0.1706
 8342SOL     OW36658   3.403   4.155   6.031 -0.4924 -0.4805  0.3760
 8342SOL    HW136659   3.459   4.230   6.011  3.1905 -3.1768  0.5274
 8342SOL    HW236660   3.374   4.193   6.114 -0.5977 -0.1463  0.1855
 8343SOL     OW36661   0.044   1.589  14.727  0.3053  0.2441 -0.3748
 8343SOL    HW136662   0.139   1.582  14.717  0.1054 -0.1385 -2.0356
 8343SOL    HW236663   0.015   1.629  14.645 -1.4934 -0.6363 -0.1644
 8344SOL     OW36664   2.602   2.384  11.056 -0.1797 -0.0835  0.3218
 8344SOL    HW136665   2.621   2.471  11.018  0.4068  0.1229  1.0874
 8344SOL    HW236666   2.619   2.410  11.147  0.2936  0.3229  0.1243
 8345SOL     OW36667   2.864   3.460   3.193  0.0368  0.4811 -0.0639
 8345SOL    HW136668   2.933   3.496   3.138 -1.4889 -1.6447 -3.3454
 8345SOL    HW236669   2.868   3.367   3.174  0.0234  0.8768 -1.9758
 8346SOL     OW36670   2.865   1.132   3.643 -0.0390  0.2215 -0.1427
 8346SOL    HW136671   2.959   1.124   3.628 -0.1800 -0.0755 -0.8426
 8346SOL    HW236672   2.867   1.192   3.718  0.1678 -1.0666  0.8867
 8347SOL     OW36673   2.228   0.078   9.114  0.3068  0.6581  0.0224
 8347SOL    HW136674   2.233   4.726   9.079 -0.1057  0.3352  0.7799
 8347SOL    HW236675   2.220   0.058   9.207  1.6531  2.2839  0.4828
 8348SOL     OW36676   0.671   1.696   0.018  0.0273  0.2397  0.2032
 8348SOL    HW136677   0.739   1.736  17.714  0.7341  0.5861  1.3548
 8348SOL    HW236678   0.720   1.679   0.098  1.5371 -0.5877 -0.9070
 8349SOL     OW36679   3.481   4.693   2.214  0.1220 -0.8093  0.0175
 8349SOL    HW136680   3.390   4.691   2.183  0.3767  0.2225 -0.7892
 8349SOL    HW236681   3.482   4.608   2.259  2.7950  0.3727  2.1786
 8350SOL     OW36682   2.144   0.146  16.849  0.3909 -0.4382  0.1438
 8350SOL    HW136683   2.086   0.202  16.798  2.1162  1.0215 -0.1946
 8350SOL    HW236684   2.137   0.186  16.936 -1.1565 -0.8912  0.2350
 8351SOL     OW36685   3.085   3.850   2.593 -0.0518  0.0129 -0.1563
 8351SOL    HW136686   3.023   3.924   2.586 -2.3960 -1.8219  1.2079
 8351SOL    HW236687   3.139   3.873   2.518  0.2705  0.0373  0.0832
 8352SOL     OW36688   0.401   2.397   9.077 -0.3208  0.2357  0.7635
 8352SOL    HW136689   0.407   2.342   9.155  2.7090  1.6588  1.5068
 8352SOL    HW236690   0.327   2.357   9.031 -0.4959  1.1242  0.2635
 8353SOL     OW36691   2.067   0.005   5.889 -0.1963 -0.6884  0.1155
 8353SOL    HW136692   2.130   0.057   5.838 -0.5019 -0.0666  0.3654
 8353SOL    HW236693   2.079   0.040   5.978 -0.1883  1.4898 -0.7499
 8354SOL     OW36694   3.633   2.925   4.145 -0.2686 -0.2830  0.2939
 8354SOL    HW136695   3.559   2.867   4.163  0.9474 -1.5828  1.1319
 8354SOL    HW236696   3.711   2.868   4.146 -0.5318 -0.6719 -0.9008
 8355SOL     OW36697   2.491   0.017   2.302  0.1342 -0.0986  1.2394
 8355SOL    HW136698   2.475   4.681   2.243  0.7727  1.0505 -0.3668
 8355SOL    HW236699   2.490   4.701   2.381 -0.6062 -1.0556  0.5831
 8356SOL     OW36700   2.748   2.939  11.286 -0.3110 -0.2061  0.3901
 8356SOL    HW136701   2.729   2.935  11.192 -0.4454 -0.8384  0.4436
 8356SOL    HW236702   2.740   2.848  11.314  1.5269 -0.1998  0.9288
 8357SOL     OW36703   3.215   1.114   6.796 -0.5743  0.3320  0.3848
 8357SOL    HW136704   3.302   1.154   6.790 -0.1014 -0.0853  4.0122
 8357SOL    HW236705   3.228   1.041   6.736 -1.2578  1.2716 -0.9027
 8358SOL     OW36706   3.162   3.713   1.120 -0.0138  0.3395  0.0240
 8358SOL    HW136707   3.243   3.661   1.119 -0.3044 -0.0512 -3.2224
 8358SOL    HW236708   3.133   3.709   1.211 -0.1452  0.0510 -0.0274
 8359SOL     OW36709   2.892   3.547   0.376 -0.4643  0.9415 -0.0134
 8359SOL    HW136710   2.923   3.633   0.405  3.0246 -0.2210 -0.2933
 8359SOL    HW236711   2.821   3.533   0.438 -0.8692  0.2472 -0.6448
 8360SOL     OW36712   2.318   2.195   8.784 -0.2458 -0.2323 -0.1069
 8360SOL    HW136713   2.348   2.129   8.846  0.0471 -0.3308 -0.3516
 8360SOL    HW236714   2.246   2.142   8.749  0.5902 -0.6125 -1.2817
 8361SOL     OW36715   0.285   3.280   4.616 -0.1450  0.2981 -0.3371
 8361SOL    HW136716   0.260   3.217   4.683  1.2960  0.1697  0.0668
 8361SOL    HW236717   0.373   3.245   4.601 -1.8134 -3.6019 -0.8753
 8362SOL     OW36718   2.855   0.958   5.616 -0.1746 -0.2049 -0.0365
 8362SOL    HW136719   2.821   1.035   5.570  1.6186  0.4151 -0.3389
 8362SOL    HW236720   2.891   0.912   5.540  0.2587  1.3491 -0.7730
 8363SOL     OW36721   0.549   4.107   6.064  0.6702 -0.6776  0.1201
 8363SOL    HW136722   0.551   4.090   6.159 -2.0585  0.1302  0.2923
 8363SOL    HW236723   0.506   4.191   6.053  0.6217 -0.9532 -1.8006
 8364SOL     OW36724   2.193   3.195   7.084 -0.0443  0.1670  0.4704
 8364SOL    HW136725   2.288   3.200   7.085  0.0109 -0.7515  0.2488
 8364SOL    HW236726   2.177   3.161   7.172  1.1641  1.8525  1.3441
 8365SOL     OW36727   0.168   2.718   2.597 -0.0669  0.4178  0.6452
 8365SOL    HW136728   0.258   2.687   2.600 -0.3467 -0.5092 -0.4951
 8365SOL    HW236729   0.124   2.634   2.609 -1.8675  1.2106 -0.3878
 8366SOL     OW36730   3.502   3.346   4.001  0.6250  0.2066 -0.0517
 8366SOL    HW136731   3.475   3.436   4.019  0.2047 -0.2367  1.5710
 8366SOL    HW236732   3.412   3.315   3.987 -0.1443  2.0261  0.7599
 8367SOL     OW36733   2.194   0.596   8.828  0.2784  0.5500 -0.3284
 8367SOL    HW136734   2.259   0.565   8.765  1.0607 -0.0175  0.7500
 8367SOL    HW236735   2.232   0.561   8.908  1.0320  1.7906 -0.1380
 8368SOL     OW36736   2.800   2.042  17.420 -0.2427  0.0626  0.0640
 8368SOL    HW136737   2.891   2.013  17.420  0.9844  3.9886 -0.6063
 8368SOL    HW236738   2.809   2.129  17.382 -1.3500  0.1812  0.0656
 8369SOL     OW36739   1.632   2.535   7.548  0.6791  0.2449  0.1594
 8369SOL    HW136740   1.668   2.459   7.594  0.6016 -0.8080 -1.5210
 8369SOL    HW236741   1.546   2.505   7.517  0.9180 -0.7017  0.4098
 8370SOL     OW36742   4.112   1.497   0.612  0.3981 -0.0551 -0.6815
 8370SOL    HW136743   4.069   1.494   0.697  1.6191  0.7768 -0.0313
 8370SOL    HW236744   4.085   1.582   0.579 -1.6214 -0.8954 -1.1790
 8371SOL     OW36745   1.591   1.167   0.858 -0.1616  0.1876  0.0967
 8371SOL    HW136746   1.500   1.197   0.861 -0.2646 -0.3648  2.8238
 8371SOL    HW236747   1.609   1.181   0.765  1.5198 -1.4120  0.1680
 8372SOL     OW36748   3.281   0.454  12.251 -0.1620 -0.3344  0.5230
 8372SOL    HW136749   3.236   0.380  12.211  2.3450 -2.3720  1.4697
 8372SOL    HW236750   3.319   0.418  12.331  0.6158  1.9977  1.2054
 8373SOL     OW36751   1.613   4.202   3.627  0.2074 -0.2549 -0.6000
 8373SOL    HW136752   1.586   4.111   3.637 -0.1356 -0.1365 -0.4512
 8373SOL    HW236753   1.625   4.229   3.719 -2.6699  1.6460 -0.7972
 8374SOL     OW36754   4.092   3.649   8.908  0.0696 -0.5821 -0.0193
 8374SOL    HW136755   4.006   3.612   8.892 -0.4149  0.2281  0.7213
 8374SOL    HW236756   4.116   3.698   8.829 -0.0684  0.6039  0.6683
 8375SOL     OW36757   0.935   2.327   8.605  1.1393  0.9369 -0.3501
 8375SOL    HW136758   0.909   2.265   8.673 -1.9608  1.2365 -1.2844
 8375SOL    HW236759   0.962   2.408   8.648 -1.1838  0.1702  2.5339
 8376SOL     OW36760   1.684   0.301   4.830  0.5664  0.1951  0.3182
 8376SOL    HW136761   1.600   0.254   4.829 -0.3119  1.7847 -1.0719
 8376SOL    HW236762   1.749   0.231   4.821  3.7859  2.8135  3.2212
 8377SOL     OW36763   4.259   3.972   3.302  0.1630  0.0639 -0.1918
 8377SOL    HW136764   4.335   3.924   3.336 -0.7446 -1.2700 -0.0943
 8377SOL    HW236765   4.229   3.929   3.223  2.2717 -1.1970 -0.3176
 8378SOL     OW36766   2.626   1.734   3.138 -0.1358  0.1088 -0.8324
 8378SOL    HW136767   2.662   1.656   3.181  0.2385 -0.4327 -2.0972
 8378SOL    HW236768   2.665   1.805   3.189  0.5612 -4.0075  4.3408
 8379SOL     OW36769   2.433   1.843   4.581  0.0204 -0.3041 -0.2619
 8379SOL    HW136770   2.450   1.924   4.533 -1.4332  0.0217 -0.2222
 8379SOL    HW236771   2.493   1.786   4.534  0.3092  0.4015 -0.7587
 8380SOL     OW36772   1.427   4.674  15.557 -0.1481 -0.2309 -0.0108
 8380SOL    HW136773   1.362   4.606  15.571  1.9335 -2.3708 -0.7637
 8380SOL    HW236774   1.409   4.737  15.627 -2.5058 -2.1719  1.1153
 8381SOL     OW36775   0.677   3.894   5.931  0.8233 -0.4170 -1.2228
 8381SOL    HW136776   0.637   3.969   5.975  0.9640  0.4954 -2.6466
 8381SOL    HW236777   0.727   3.935   5.860 -1.1610  1.2058 -1.6824
 8382SOL     OW36778   0.656   3.654   3.306  0.7958 -0.4211  0.1566
 8382SOL    HW136779   0.728   3.716   3.312 -1.5221  2.0236  2.5339
 8382SOL    HW236780   0.622   3.647   3.395 -0.0950  0.1850 -0.1297
 8383SOL     OW36781   2.408   4.316  14.725  0.4900 -0.2673 -0.2341
 8383SOL    HW136782   2.425   4.288  14.635  1.6345 -0.7943  0.1375
 8383SOL    HW236783   2.481   4.374  14.744  0.9794 -0.6786 -0.8375
 8384SOL     OW36784   2.357   4.577   0.938  0.3663  0.3146 -0.5811
 8384SOL    HW136785   2.266   4.566   0.909  0.7358  0.1004 -1.6536
 8384SOL    HW236786   2.363   4.511   1.007 -1.4755  0.7174 -0.0467
 8385SOL     OW36787   1.143   0.429   4.368 -0.3210 -0.4306  0.0261
 8385SOL    HW136788   1.095   0.507   4.393  0.1807 -0.7367  1.9134
 8385SOL    HW236789   1.075   0.373   4.330 -2.5088  1.3129  1.4033
 8386SOL     OW36790   4.437   4.719   7.970 -0.6382  0.2719  0.0650
 8386SOL    HW136791   4.390   4.640   7.944 -0.6716  0.3146 -0.0026
 8386SOL    HW236792   4.483   0.020   7.895  0.6400  0.6274  1.0356
 8387SOL     OW36793   2.960   0.453   3.415 -0.2740 -0.2908 -0.3089
 8387SOL    HW136794   2.938   0.365   3.445  0.5012  0.7888  3.4200
 8387SOL    HW236795   3.053   0.442   3.434  0.2081 -0.6339 -2.8068
 8388SOL     OW36796   2.328   2.502   6.988  0.8226  0.3762 -0.2699
 8388SOL    HW136797   2.234   2.502   6.969  0.9462 -1.3010 -0.9142
 8388SOL    HW236798   2.351   2.422   6.942 -0.7457 -0.5103  0.4765
 8389SOL     OW36799   2.543   3.822   3.430 -0.3336  0.2229 -0.3968
 8389SOL    HW136800   2.569   3.840   3.340 -0.9844  1.9149 -0.2429
 8389SOL    HW236801   2.527   3.728   3.435 -0.6727  0.5103  4.0701
 8390SOL     OW36802   3.437   2.828   1.320 -0.2445 -0.1802 -0.1303
 8390SOL    HW136803   3.478   2.746   1.349 -1.3368 -1.0986 -1.1324
 8390SOL    HW236804   3.510   2.857   1.266 -0.4691  2.3323  0.9520
 8391SOL     OW36805   2.783   1.513   2.013 -1.1518  0.4997  0.2092
 8391SOL    HW136806   2.695   1.552   2.013 -1.0488  0.7402 -0.0099
 8391SOL    HW236807   2.822   1.543   1.930 -0.2188 -0.3365  0.3483
 8392SOL     OW36808   3.642   1.060   5.246 -0.2842 -0.5523  0.3563
 8392SOL    HW136809   3.709   0.991   5.252 -0.6412 -1.0960 -1.7328
 8392SOL    HW236810   3.581   1.006   5.196 -1.1092  0.3964  0.3526
 8393SOL     OW36811   0.878   0.628   1.959  0.1287 -0.5773  0.3881
 8393SOL    HW136812   0.878   0.701   2.020 -0.8528  1.2052 -1.7379
 8393SOL    HW236813   0.804   0.575   1.991 -0.3453  0.3815  0.8620
 8394SOL     OW36814   4.049   3.375   3.927  0.2723 -0.2267  0.3524
 8394SOL    HW136815   4.007   3.417   3.851 -2.2814 -0.9906  1.3585
 8394SOL    HW236816   4.121   3.325   3.888  0.2608 -0.1944  0.2882
 8395SOL     OW36817   2.994   2.344   3.995  0.6302  0.3035 -0.4779
 8395SOL    HW136818   3.075   2.355   3.944 -0.7502  1.1563 -2.4814
 8395SOL    HW236819   2.934   2.361   3.923 -1.4323 -0.6252  1.0219
 8396SOL     OW36820   4.471   1.120   3.189  0.6270 -0.9673  0.1540
 8396SOL    HW136821   4.376   1.130   3.183  1.1278  3.4069 -0.6309
 8396SOL    HW236822   4.487   1.042   3.136  1.8966  0.5775 -1.7195
 8397SOL     OW36823   2.780   1.500   3.282  0.3826  0.3143 -0.0495
 8397SOL    HW136824   2.730   1.512   3.362  0.8534 -0.3094  0.3420
 8397SOL    HW236825   2.757   1.409   3.263 -1.6544  0.4995  1.6086
 8398SOL     OW36826   1.002   2.468   6.164 -0.4166  0.2367  0.3078
 8398SOL    HW136827   0.975   2.554   6.132 -1.1544 -0.8216 -1.8912
 8398SOL    HW236828   0.974   2.418   6.087  0.0967 -0.3244  0.4812
 8399SOL     OW36829   3.092   3.492  15.132  0.5625  0.3965  0.3295
 8399SOL    HW136830   3.016   3.546  15.150  0.9230  1.5066 -1.4864
 8399SOL    HW236831   3.165   3.554  15.135  1.2653 -0.4820  1.5635
 8400SOL     OW36832   4.600   3.388  11.999 -0.0161  0.2590 -0.2483
 8400SOL    HW136833   4.611   3.483  11.987 -1.0983  0.2531 -1.2678
 8400SOL    HW236834   4.517   3.368  11.956  0.0307  0.7710 -0.5813
 8401SOL     OW36835   2.280   3.057   4.471 -0.4002 -0.7231 -0.1672
 8401SOL    HW136836   2.285   3.065   4.566  0.1061 -0.0832 -0.2575
 8401SOL    HW236837   2.371   3.042   4.447 -0.1414  1.9325 -0.8459
 8402SOL     OW36838   2.296   1.350   8.587  0.3435 -0.3815 -0.0938
 8402SOL    HW136839   2.389   1.365   8.571  0.7054 -1.4612  1.0271
 8402SOL    HW236840   2.289   1.258   8.563  2.4143 -0.7683  0.7732
 8403SOL     OW36841   2.134   2.862   7.120  0.2781 -0.3255 -0.1755
 8403SOL    HW136842   2.191   2.797   7.160  1.1175  1.4671  1.5377
 8403SOL    HW236843   2.152   2.933   7.182  2.6958 -0.2818 -0.9193
 8404SOL     OW36844   4.659   4.373   7.777  0.2612  0.7503  0.0915
 8404SOL    HW136845   4.569   4.349   7.756  0.7921 -0.8216 -0.3890
 8404SOL    HW236846   4.700   4.288   7.761  0.1417  0.3025  2.2002
 8405SOL     OW36847   1.341   0.217   9.483  0.8893 -0.0440 -0.2953
 8405SOL    HW136848   1.422   0.267   9.474  0.0124  1.8072  1.9414
 8405SOL    HW236849   1.373   0.127   9.490  0.0265 -0.2050  1.6269
 8406SOL     OW36850   1.289   1.208   4.213  0.0143 -0.2594 -0.0887
 8406SOL    HW136851   1.321   1.285   4.260 -1.0144 -0.0403  0.2490
 8406SOL    HW236852   1.211   1.246   4.173 -0.1861  0.2614  0.7846
 8407SOL     OW36853   3.634   4.475  11.865  0.4407  0.1807 -0.0606
 8407SOL    HW136854   3.620   4.506  11.775  2.5711 -0.1659 -0.5122
 8407SOL    HW236855   3.546   4.479  11.902  0.7341  0.5351  0.5981
 8408SOL     OW36856   3.030   2.417   5.930  0.2396 -0.7559  0.0897
 8408SOL    HW136857   3.055   2.328   5.955 -1.3778 -1.3240 -0.3709
 8408SOL    HW236858   3.080   2.467   5.994  1.2815  0.2135 -1.4698
 8409SOL     OW36859   2.197   0.966   2.370 -0.1157  0.1024  0.3111
 8409SOL    HW136860   2.262   0.901   2.397 -0.1762  0.6794  1.8455
 8409SOL    HW236861   2.256   1.041   2.367 -1.3728  1.0912  0.2419
 8410SOL     OW36862   1.490   4.161  12.277 -0.2575  0.0833  0.1607
 8410SOL    HW136863   1.498   4.233  12.215  0.5064 -2.2500 -2.4483
 8410SOL    HW236864   1.450   4.205  12.352 -1.3674 -1.1903  0.3047
 8411SOL     OW36865   3.580   4.110   7.666 -0.4106  0.2912  0.6800
 8411SOL    HW136866   3.611   4.199   7.682  1.2652 -0.4613  1.6378
 8411SOL    HW236867   3.634   4.062   7.729 -0.9100  1.3011  1.8834
 8412SOL     OW36868   1.437   1.507   9.119 -0.7022  0.2718  0.4383
 8412SOL    HW136869   1.514   1.519   9.064 -0.5160 -0.1928  0.5967
 8412SOL    HW236870   1.398   1.423   9.092 -0.5514  0.1708  0.5351
 8413SOL     OW36871   2.001   3.710  10.426 -0.2185  0.4143  0.2779
 8413SOL    HW136872   2.037   3.687  10.341 -1.1530 -0.8946  0.2380
 8413SOL    HW236873   2.074   3.741  10.479  0.2150 -0.5988  0.2588
 8414SOL     OW36874   2.379   1.543  13.746  0.4289 -0.2919 -0.2593
 8414SOL    HW136875   2.329   1.481  13.692 -0.8427  0.8910 -0.4438
 8414SOL    HW236876   2.464   1.547  13.702 -0.0528  1.7158 -1.0194
 8415SOL     OW36877   3.707   3.407  10.384  0.1947  0.1984  0.8814
 8415SOL    HW136878   3.762   3.484  10.369 -0.2996  0.5972  1.0969
 8415SOL    HW236879   3.756   3.349  10.442 -2.1924 -2.0767  0.6306
 8416SOL     OW36880   0.886   3.315   7.526  0.8662 -0.6266 -0.2943
 8416SOL    HW136881   0.887   3.410   7.524  0.3601 -0.6122  0.0490
 8416SOL    HW236882   0.895   3.293   7.433 -1.9377  2.5330 -1.2972
 8417SOL     OW36883   0.559   1.880   5.168  0.4532  0.3352  0.0686
 8417SOL    HW136884   0.481   1.852   5.120  0.1493  1.7588 -0.2586
 8417SOL    HW236885   0.594   1.936   5.099  2.5713 -0.7168  0.2859
 8418SOL     OW36886   2.255   1.369  13.550  0.5308  0.2457 -0.0837
 8418SOL    HW136887   2.209   1.298  13.504 -0.5071 -0.0442  1.3737
 8418SOL    HW236888   2.272   1.423  13.473  0.1634  0.2662 -0.1515
 8419SOL     OW36889   2.996   2.299   1.014  0.1164  0.4792  0.5445
 8419SOL    HW136890   3.024   2.215   1.052 -1.1148  0.4144  1.3050
 8419SOL    HW236891   2.939   2.328   1.085 -0.4521  2.6961 -0.8168
 8420SOL     OW36892   3.488   2.574   1.561 -0.4542 -0.1040  0.1930
 8420SOL    HW136893   3.510   2.637   1.629 -0.0636 -0.2257  0.1791
 8420SOL    HW236894   3.445   2.510   1.617 -0.7392 -0.3365 -0.2916
 8421SOL     OW36895   4.279   4.375  10.552  0.2767 -0.1499  0.2538
 8421SOL    HW136896   4.329   4.305  10.593  1.2834 -0.1272 -0.9598
 8421SOL    HW236897   4.331   4.394  10.475  2.2910 -0.2545  1.5972
 8422SOL     OW36898   3.966   3.437  10.756 -0.7746 -0.2184  0.6220
 8422SOL    HW136899   3.945   3.531  10.749  1.0328  0.1829  0.5624
 8422SOL    HW236900   3.913   3.402  10.827 -0.4642 -0.2482  0.8392
 8423SOL     OW36901   3.184   1.079   4.075 -0.3935  0.4668 -0.0208
 8423SOL    HW136902   3.221   1.120   3.996 -0.7679 -1.9960 -1.4734
 8423SOL    HW236903   3.247   1.116   4.136 -0.5795  0.9316 -0.1037
 8424SOL     OW36904   1.366   0.400   6.870 -0.3178 -0.8331  0.2498
 8424SOL    HW136905   1.371   0.468   6.937  3.3608  0.1135 -1.0234
 8424SOL    HW236906   1.323   0.452   6.803 -0.0834 -2.0777 -0.8754
 8425SOL     OW36907   2.003   0.463   6.695  0.0111  0.1610  0.2613
 8425SOL    HW136908   2.087   0.431   6.729 -1.3880 -2.3763  1.3003
 8425SOL    HW236909   1.976   0.409   6.620  0.9501  2.7143 -1.9054
 8426SOL     OW36910   2.300   0.378   2.219 -0.0348 -0.0046  0.2071
 8426SOL    HW136911   2.276   0.368   2.311 -1.5443 -1.3003 -0.3468
 8426SOL    HW236912   2.210   0.376   2.186  0.5729  1.1886 -1.5444
 8427SOL     OW36913   3.354   3.482   8.771 -0.0137  0.6884  0.3206
 8427SOL    HW136914   3.376   3.390   8.785 -1.1491  0.3116 -0.3090
 8427SOL    HW236915   3.270   3.479   8.725 -0.4587 -2.4337  1.3751
 8428SOL     OW36916   1.395   3.278   9.805  0.0018  0.5115 -0.3966
 8428SOL    HW136917   1.323   3.341   9.801  0.0153  0.5823  0.4569
 8428SOL    HW236918   1.384   3.253   9.897  1.8761  1.6318  0.1476
 8429SOL     OW36919   4.295   2.453   7.408 -0.3971 -0.4234  0.1952
 8429SOL    HW136920   4.298   2.363   7.441  0.0574 -0.8331 -0.9518
 8429SOL    HW236921   4.252   2.493   7.483 -2.7261  2.5255 -2.6715
 8430SOL     OW36922   1.787   4.039   7.435 -0.2709  0.5238 -0.6135
 8430SOL    HW136923   1.736   3.968   7.396 -1.5403  0.0833  1.8653
 8430SOL    HW236924   1.773   4.028   7.529  0.0455  0.4625 -0.5741
 8431SOL     OW36925   1.843   0.121   9.075 -0.1837 -0.1978  0.0917
 8431SOL    HW136926   1.856   0.215   9.058  0.5662  0.3121  3.5064
 8431SOL    HW236927   1.918   0.084   9.029  0.2286 -0.2068  0.7883
 8432SOL     OW36928   1.073   0.766   4.909  0.2648  0.4282  0.2531
 8432SOL    HW136929   1.012   0.722   4.967 -1.1566 -0.3496 -1.8552
 8432SOL    HW236930   1.014   0.826   4.865  1.1346 -1.0032 -2.8821
 8433SOL     OW36931   1.109   0.694   7.997 -0.5055 -0.4900 -0.6212
 8433SOL    HW136932   1.126   0.624   8.059 -2.2669 -0.7045 -0.3669
 8433SOL    HW236933   1.194   0.736   7.991  0.5957 -1.9589  4.2067
 8434SOL     OW36934   4.509   4.617   8.532  0.0917 -0.3595  0.2495
 8434SOL    HW136935   4.414   4.627   8.533  0.3620  2.3180 -1.2567
 8434SOL    HW236936   4.538   4.708   8.526  0.9641 -0.7575 -1.5672
 8435SOL     OW36937   3.877   2.386  13.207 -0.6817  0.4043 -0.5732
 8435SOL    HW136938   3.892   2.401  13.114  3.6828  3.4924  0.6123
 8435SOL    HW236939   3.782   2.384  13.214 -0.6649  2.1584  0.2531
 8436SOL     OW36940   0.275   0.416   4.076 -0.5531  0.3788 -0.2139
 8436SOL    HW136941   0.237   0.504   4.069 -0.6358  0.4264  0.7719
 8436SOL    HW236942   0.290   0.404   3.982 -1.0367  1.8937 -0.4924
 8437SOL     OW36943   3.348   2.677   0.878 -0.9969  0.5549 -0.4082
 8437SOL    HW136944   3.375   2.767   0.865  0.5599  0.4736  2.3718
 8437SOL    HW236945   3.294   2.658   0.801 -2.1660  0.3052  0.4812
 8438SOL     OW36946   4.512   3.733   8.119  0.1933  0.2569 -0.0593
 8438SOL    HW136947   4.596   3.687   8.121  0.5258  0.8548 -0.1551
 8438SOL    HW236948   4.537   3.826   8.120  0.8913  0.1050 -2.6937
 8439SOL     OW36949   4.135   1.044  12.313  0.4701  0.0351  0.3981
 8439SOL    HW136950   4.219   0.997  12.311  0.9583  0.9047  0.2590
 8439SOL    HW236951   4.163   1.130  12.281 -0.4142  0.5028  0.8896
 8440SOL     OW36952   2.722   2.645  14.936  0.2252  0.0978  0.0050
 8440SOL    HW136953   2.710   2.595  14.856  0.5788  2.0857 -1.3000
 8440SOL    HW236954   2.817   2.642  14.944 -0.0164 -2.5578  1.6260
 8441SOL     OW36955   3.238   3.762  14.112  0.3900 -0.2100 -0.1245
 8441SOL    HW136956   3.232   3.852  14.081 -0.6339 -0.2068  0.0643
 8441SOL    HW236957   3.144   3.744  14.112  0.5045 -0.8120  0.3849
 8442SOL     OW36958   3.508   3.567   2.105 -0.3931  0.4022 -0.7917
 8442SOL    HW136959   3.575   3.510   2.066  0.1765  1.2848 -1.0894
 8442SOL    HW236960   3.453   3.572   2.027 -2.0172  0.0222  0.3166
 8443SOL     OW36961   3.298   2.496   0.442 -0.3758  0.0986  0.7775
 8443SOL    HW136962   3.376   2.536   0.480 -0.5993  0.8910  0.4004
 8443SOL    HW236963   3.295   2.533   0.354  0.6555 -2.5592 -0.3600
 8444SOL     OW36964   0.622   4.008   8.842 -0.1923 -0.0819 -0.5440
 8444SOL    HW136965   0.582   4.007   8.929  1.9739 -2.4653  0.4074
 8444SOL    HW236966   0.682   4.082   8.831 -1.5246  1.1740  0.6928
 8445SOL     OW36967   4.094   3.480   5.045  0.1636 -0.6864 -0.5521
 8445SOL    HW136968   4.084   3.571   5.071 -1.8718 -1.4784  1.4724
 8445SOL    HW236969   4.004   3.453   5.026  0.2611  0.3131 -2.4248
 8446SOL     OW36970   1.436   3.326  16.280  0.6931 -0.1351  0.0288
 8446SOL    HW136971   1.502   3.395  16.279  0.5128  0.0167 -0.7338
 8446SOL    HW236972   1.352   3.367  16.259  0.3203  0.0431  1.7922
 8447SOL     OW36973   2.532   0.027   6.924 -0.1889 -0.5702  0.1040
 8447SOL    HW136974   2.514   0.033   6.830 -0.7016 -0.4717  0.2093
 8447SOL    HW236975   2.445   0.011   6.961 -0.2408 -2.2851 -0.7663
 8448SOL     OW36976   1.953   3.829   4.461 -0.2705  0.4650 -0.3286
 8448SOL    HW136977   1.967   3.737   4.482 -1.1847  0.5694  0.7242
 8448SOL    HW236978   1.949   3.824   4.365 -0.3620  1.7052 -0.3976
 8449SOL     OW36979   3.591   1.702   3.753  0.2734 -0.0796  0.0760
 8449SOL    HW136980   3.519   1.714   3.816  0.9234 -0.2748  0.8554
 8449SOL    HW236981   3.600   1.791   3.719 -1.1618 -0.3228 -0.9402
 8450SOL     OW36982   1.654   4.079   1.806 -0.3214 -0.3432  0.3713
 8450SOL    HW136983   1.596   4.108   1.877  0.2746  2.5885 -0.3311
 8450SOL    HW236984   1.726   4.038   1.852  0.9498 -0.5998 -1.8530
 8451SOL     OW36985   2.784   3.007   5.728  0.3816  0.2884  0.5069
 8451SOL    HW136986   2.800   2.922   5.687  2.7527  1.0994 -0.2777
 8451SOL    HW236987   2.767   2.983   5.819 -0.5323  0.4551  0.3751
 8452SOL     OW36988   3.601   4.415   4.016  0.1094 -0.2018 -0.2104
 8452SOL    HW136989   3.685   4.419   3.970  0.9111 -1.0185  1.1740
 8452SOL    HW236990   3.602   4.507   4.042  1.7914 -0.7200  1.5491
 8453SOL     OW36991   1.691   3.821  15.351  0.4492  0.1136  0.1684
 8453SOL    HW136992   1.696   3.908  15.310  1.0117 -0.3009 -0.6485
 8453SOL    HW236993   1.600   3.803  15.373  0.5097  0.6400  0.8311
 8454SOL     OW36994   0.757   1.484   9.487  0.5693  0.5929 -0.6775
 8454SOL    HW136995   0.823   1.531   9.436  0.3669  1.4454 -0.1368
 8454SOL    HW236996   0.675   1.494   9.439  0.6309 -0.5062 -1.0092
 8455SOL     OW36997   2.476   1.127  10.085  0.5181 -0.0791  0.4088
 8455SOL    HW136998   2.524   1.157  10.008 -0.9144  0.2314 -0.3626
 8455SOL    HW236999   2.528   1.164  10.157 -0.7254 -1.7212  2.1579
 8456SOL     OW37000   0.264   4.664  14.616 -0.4320 -0.2820  0.0111
 8456SOL    HW137001   0.274   0.007  14.666 -1.5540  0.4137 -0.8703
 8456SOL    HW237002   0.229   4.592  14.670  0.0796  0.6322  1.5580
 8457SOL     OW37003   3.687   4.654   7.760  0.2968  0.4055  0.0826
 8457SOL    HW137004   3.743   4.689   7.691  0.2149 -0.3085 -0.3512
 8457SOL    HW237005   3.739   4.680   7.837  0.6379  2.5274 -0.8697
 8458SOL     OW37006   1.597   0.869   6.708 -0.9750 -0.3715  0.1546
 8458SOL    HW137007   1.674   0.825   6.671 -1.8702 -1.6296 -0.2206
 8458SOL    HW237008   1.614   0.960   6.684  1.5199 -1.2814 -1.5057
 8459SOL     OW37009   0.111   0.100   9.239 -0.4457 -0.2162 -0.2362
 8459SOL    HW137010   0.042   0.041   9.207  0.0050  0.0161 -1.6359
 8459SOL    HW237011   0.088   0.092   9.332 -0.6342 -1.0182 -0.3477
 8460SOL     OW37012   2.331   3.969   7.076 -0.1268 -0.2643 -0.1243
 8460SOL    HW137013   2.418   3.988   7.111  0.8652 -1.9696 -1.6299
 8460SOL    HW237014   2.354   3.910   7.004 -1.5274  0.4935 -1.2167
 8461SOL     OW37015   2.002   1.188   2.839  0.5375  0.0867  0.8490
 8461SOL    HW137016   2.043   1.157   2.758 -1.5472  0.9996 -0.5605
 8461SOL    HW237017   2.014   1.109   2.891 -1.1408  0.1915  1.4057
 8462SOL     OW37018   3.502   3.676   8.934 -0.2776  0.3192 -0.8254
 8462SOL    HW137019   3.539   3.620   9.002 -2.3673 -0.2011 -0.1266
 8462SOL    HW237020   3.446   3.616   8.885 -3.7001  1.2004  2.0112
 8463SOL     OW37021   2.803   1.781  14.988  0.5008  0.4786  0.2141
 8463SOL    HW137022   2.882   1.814  14.947  1.5250 -0.7351  1.2135
 8463SOL    HW237023   2.742   1.833  14.935  1.2638 -0.5276 -1.6434
 8464SOL     OW37024   0.258   1.699   7.147 -0.5483  0.1972 -0.0665
 8464SOL    HW137025   0.346   1.721   7.179 -1.6200  1.4308  2.0962
 8464SOL    HW237026   0.214   1.784   7.150 -0.2467  0.3968 -1.4282
 8465SOL     OW37027   1.071   0.225  17.538 -0.6822 -0.2592 -0.3786
 8465SOL    HW137028   1.154   0.259  17.503 -1.6062  0.6081 -1.7635
 8465SOL    HW237029   1.103   0.207  17.626  0.1581  0.9403 -0.4241
 8466SOL     OW37030   2.634   2.008   7.586 -0.8056  0.3495  0.1153
 8466SOL    HW137031   2.608   1.952   7.513  1.6787 -0.8029  0.1239
 8466SOL    HW237032   2.640   1.942   7.655  1.7986 -1.0104 -1.4124
 8467SOL     OW37033   4.013   4.042   1.465  0.3577 -0.0390 -0.2231
 8467SOL    HW137034   4.099   4.044   1.508 -0.0695  0.4845  0.6025
 8467SOL    HW237035   4.040   4.067   1.376  1.1543 -2.8800 -0.7871
 8468SOL     OW37036   1.724   2.720   9.480 -0.3446  0.3392  0.0044
 8468SOL    HW137037   1.707   2.631   9.447  1.4954 -0.1039  0.2443
 8468SOL    HW237038   1.675   2.770   9.414  0.2410  0.3657 -0.4061
 8469SOL     OW37039   0.560   1.957   4.532  0.5444 -0.0391  0.4424
 8469SOL    HW137040   0.629   1.891   4.534  2.1525  1.6212  0.4332
 8469SOL    HW237041   0.606   2.036   4.502 -1.1269  0.3521 -1.0489
 8470SOL     OW37042   3.388   3.188   4.493  0.6020  0.4522 -0.7581
 8470SOL    HW137043   3.356   3.258   4.550  2.2793  1.0682 -0.5475
 8470SOL    HW237044   3.312   3.131   4.485 -0.3908  1.5831  0.5317
 8471SOL     OW37045   2.681   1.290   6.699 -0.3278 -0.2732  0.4145
 8471SOL    HW137046   2.608   1.240   6.735 -0.5882 -0.6435 -0.6254
 8471SOL    HW237047   2.702   1.347   6.773  2.0339 -1.0956  0.3877
 8472SOL     OW37048   3.268   3.602   1.986 -0.1548 -0.1047 -0.2067
 8472SOL    HW137049   3.267   3.512   2.018  1.6505 -0.4616 -1.1139
 8472SOL    HW237050   3.188   3.596   1.933 -0.4727  1.6494  0.0572
 8473SOL     OW37051   0.202   4.293   3.596 -0.0661  0.4161  0.4127
 8473SOL    HW137052   0.288   4.316   3.562 -0.0705  1.8088  1.3173
 8473SOL    HW237053   0.196   4.204   3.560  1.8369  0.8390 -0.9293
 8474SOL     OW37054   3.917   3.673   8.230  0.0571  0.2053 -0.0321
 8474SOL    HW137055   3.942   3.623   8.152 -0.6635 -0.5393  0.2197
 8474SOL    HW237056   3.901   3.761   8.197 -0.5881 -0.5188 -1.6621
 8475SOL     OW37057   4.054   0.394   7.013  0.6999  0.8559  0.1671
 8475SOL    HW137058   4.035   0.300   7.005 -1.6218  1.4694 -1.4022
 8475SOL    HW237059   3.977   0.435   6.975 -0.8554 -0.7242  1.6090
 8476SOL     OW37060   0.417   3.867   6.128 -0.1575  0.1028 -0.0404
 8476SOL    HW137061   0.456   3.804   6.188  2.5894  1.7967 -0.0450
 8476SOL    HW237062   0.452   3.952   6.157  0.2468 -0.1499  0.2221
 8477SOL     OW37063   4.331   3.374   8.285 -0.2819  0.1446 -0.8056
 8477SOL    HW137064   4.252   3.321   8.296  0.3224 -0.8622 -1.2786
 8477SOL    HW237065   4.299   3.462   8.264  1.3349  0.6063 -1.3819
 8478SOL     OW37066   4.523   4.232   6.410  0.5175  0.2968 -0.2444
 8478SOL    HW137067   4.495   4.184   6.488 -0.0994 -0.9612 -1.2487
 8478SOL    HW237068   4.530   4.158   6.349  1.1992 -1.9720  2.6062
 8479SOL     OW37069   3.013   1.811   3.066  0.3743 -0.2782 -0.0737
 8479SOL    HW137070   3.020   1.717   3.081 -3.5941 -0.4096  0.9097
 8479SOL    HW237071   2.958   1.825   2.989 -0.0829  0.8252  0.4541
 8480SOL     OW37072   4.580   2.221  15.327 -0.5410 -0.2220  0.6201
 8480SOL    HW137073   4.512   2.287  15.314 -0.1231 -0.2946 -1.8797
 8480SOL    HW237074   4.630   2.276  15.388 -1.1399 -1.2947  2.0810
 8481SOL     OW37075   1.719   1.887   8.768 -0.0869 -0.3947 -0.2187
 8481SOL    HW137076   1.738   1.902   8.861 -1.6000  1.3659 -0.1975
 8481SOL    HW237077   1.755   1.969   8.734  1.4831 -0.8890  0.2084
 8482SOL     OW37078   0.532   4.300  10.298 -0.3588  0.5037  0.2389
 8482SOL    HW137079   0.522   4.371  10.233  0.4735  0.3516 -0.0503
 8482SOL    HW237080   0.626   4.304  10.312 -0.0973  0.6507 -1.5519
 8483SOL     OW37081   0.288   0.497  13.498  0.0444 -0.0639 -0.2569
 8483SOL    HW137082   0.320   0.430  13.437  0.0221 -1.5814  1.4059
 8483SOL    HW237083   0.348   0.483  13.571  0.4142  2.5827 -0.0673
 8484SOL     OW37084   1.866   3.513  15.020 -0.2591 -0.1610  0.6019
 8484SOL    HW137085   1.856   3.530  15.114 -0.4176  3.6140 -0.0986
 8484SOL    HW237086   1.911   3.429  15.026 -0.0223 -0.1176 -0.5132
 8485SOL     OW37087   4.363   2.329   9.416 -0.8910 -0.3693 -0.4144
 8485SOL    HW137088   4.304   2.363   9.484 -0.2996  0.7386 -0.4505
 8485SOL    HW237089   4.366   2.238   9.443 -3.5035 -0.2002  0.4372
 8486SOL     OW37090   2.224   1.415   5.461 -0.0887 -0.1197 -0.0811
 8486SOL    HW137091   2.147   1.466   5.435 -0.5169 -0.4294  0.5709
 8486SOL    HW237092   2.192   1.331   5.429  0.8594 -1.6432  2.9333
 8487SOL     OW37093   3.666   3.749   2.265 -0.8420 -0.3964  0.1229
 8487SOL    HW137094   3.610   3.685   2.222 -2.4851 -0.0505  1.7703
 8487SOL    HW237095   3.641   3.825   2.212  0.4581 -0.7423 -1.0166
 8488SOL     OW37096   3.326   2.161   9.035  0.2586  0.4801 -0.2533
 8488SOL    HW137097   3.346   2.104   8.961  1.9802 -2.4629  2.4922
 8488SOL    HW237098   3.258   2.107   9.076  0.6984 -0.1343 -0.3378
 8489SOL     OW37099   4.064   2.448   8.352  0.5383 -0.1028 -0.1504
 8489SOL    HW137100   4.074   2.495   8.435 -0.1919 -0.2339  0.0086
 8489SOL    HW237101   4.060   2.358   8.385  1.3466  0.0608  0.3999
 8490SOL     OW37102   0.560   0.178   7.480  0.2401  0.4987  0.5169
 8490SOL    HW137103   0.493   0.241   7.505 -2.3036 -1.6398 -0.9792
 8490SOL    HW237104   0.523   0.093   7.499 -1.0067  0.1413 -3.5657
 8491SOL     OW37105   0.378   0.631  17.596  0.3685 -0.1097  0.5792
 8491SOL    HW137106   0.449   0.592  17.544  0.0259  1.2872 -0.9444
 8491SOL    HW237107   0.416   0.666  17.677  0.7866  0.1498  0.2702
 8492SOL     OW37108   3.055   1.777   1.520 -0.4757 -0.0250  0.1395
 8492SOL    HW137109   3.028   1.835   1.591 -2.9734 -0.4894 -0.4345
 8492SOL    HW237110   3.103   1.830   1.456 -1.2372 -1.5822 -1.7203
 8493SOL     OW37111   0.967   3.554   0.457 -0.1368 -0.2677  0.0062
 8493SOL    HW137112   0.889   3.555   0.513  0.1848  0.0680  0.4465
 8493SOL    HW237113   1.031   3.540   0.527  0.1331 -2.2155 -0.6441
 8494SOL     OW37114   2.958   3.090   0.214 -0.0440 -0.7375  0.0212
 8494SOL    HW137115   2.987   3.174   0.177  1.8468 -1.6125 -0.4684
 8494SOL    HW237116   2.907   3.047   0.145 -1.4530 -1.9917  1.8361
 8495SOL     OW37117   3.963   1.385   0.817 -0.2017  0.1045 -0.5406
 8495SOL    HW137118   4.018   1.417   0.889 -1.3038  1.5676 -0.3571
 8495SOL    HW237119   3.922   1.313   0.866 -1.5134  2.1286  1.3287
 8496SOL     OW37120   1.736   0.496   0.818 -0.2152 -0.0327 -0.0461
 8496SOL    HW137121   1.651   0.540   0.812  0.6050  1.4876 -0.5371
 8496SOL    HW237122   1.752   0.491   0.912  3.6688 -0.9868 -0.7724
 8497SOL     OW37123   2.175   4.295   0.732 -0.0905  0.2709  0.1231
 8497SOL    HW137124   2.099   4.263   0.781 -0.6219  3.0216  1.1039
 8497SOL    HW237125   2.190   4.223   0.670  1.1534 -0.8465  1.7179
 8498SOL     OW37126   4.458   4.505   3.440  0.0117  0.6489  0.1239
 8498SOL    HW137127   4.509   4.559   3.382 -1.5802  2.1042  0.0771
 8498SOL    HW237128   4.384   4.476   3.386  0.3779 -1.4714  0.7278
 8499SOL     OW37129   0.808   1.285  17.493  0.0093 -0.3998 -0.3555
 8499SOL    HW137130   0.861   1.329  17.426  2.4277 -2.1788  0.3725
 8499SOL    HW237131   0.810   1.343  17.570  0.0132 -1.5352  0.4926
 8500SOL     OW37132   2.971   0.365   0.392 -0.1951  0.1594 -0.4057
 8500SOL    HW137133   3.017   0.394   0.313  0.5311 -1.5296 -0.6077
 8500SOL    HW237134   2.892   0.334   0.348  0.5415  1.9957 -3.0927
 8501SOL     OW37135   3.883   4.167   3.988  0.3006  0.1529  0.2037
 8501SOL    HW137136   3.925   4.213   3.915  3.3045 -1.8622  0.6613
 8501SOL    HW237137   3.881   4.077   3.956 -0.9047  0.4487 -0.5572
 8502SOL     OW37138   4.302   2.898   2.678 -0.3096 -0.0999 -0.5735
 8502SOL    HW137139   4.332   2.808   2.665  0.4315  0.2078 -0.9779
 8502SOL    HW237140   4.276   2.934   2.593  0.0801  2.2387  0.2759
 8503SOL     OW37141   0.110   0.994   8.569  0.4059  0.2942 -0.7618
 8503SOL    HW137142   0.178   0.992   8.636 -0.0540 -0.2441 -0.3148
 8503SOL    HW237143   0.139   1.053   8.500 -1.9720  0.9152 -1.2326
 8504SOL     OW37144   3.349   2.240   2.434 -0.2498  0.1468  0.2844
 8504SOL    HW137145   3.341   2.223   2.340  1.8923  1.2593 -0.0918
 8504SOL    HW237146   3.360   2.150   2.464  0.8427 -0.4856 -2.0246
 8505SOL     OW37147   4.525   0.999   1.744  0.1233  0.3243 -0.1175
 8505SOL    HW137148   4.438   1.020   1.710  0.2542  0.5408 -0.3194
 8505SOL    HW237149   4.584   1.035   1.678  0.5916  0.5716  0.4452
 8506SOL     OW37150   0.220   0.312   6.036  0.0472 -0.0563  0.5076
 8506SOL    HW137151   0.305   0.352   6.055  0.7620 -2.5471  2.6165
 8506SOL    HW237152   0.154   0.381   6.041  0.9028  0.7986  0.0506
 8507SOL     OW37153   1.333   2.210   7.706 -0.3944 -0.6747 -0.7230
 8507SOL    HW137154   1.349   2.303   7.689 -1.3482 -0.4784 -0.5112
 8507SOL    HW237155   1.249   2.191   7.664 -1.0948  0.4944  0.1351
 8508SOL     OW37156   4.014   2.381   3.320 -0.0002 -0.4199 -0.2830
 8508SOL    HW137157   3.948   2.324   3.359  1.3735 -2.6862 -1.2828
 8508SOL    HW237158   3.957   2.412   3.249 -0.0944  1.3587  0.5581
 8509SOL     OW37159   1.066   4.017   8.448  0.1813  0.3119 -0.1960
 8509SOL    HW137160   1.152   4.040   8.484  0.4827 -0.1082 -0.6423
 8509SOL    HW237161   1.040   3.964   8.523  2.2006  1.7383  1.4928
 8510SOL     OW37162   0.121   1.326   6.840  0.0443 -0.0506 -0.0282
 8510SOL    HW137163   0.073   1.305   6.920 -1.6152 -1.2965 -1.3539
 8510SOL    HW237164   0.130   1.420   6.855 -2.3470  0.0064  1.0480
 8511SOL     OW37165   0.129   1.064  10.411  0.5266  0.4292 -0.3803
 8511SOL    HW137166   0.210   1.097  10.373  0.5397  1.8272  0.8399
 8511SOL    HW237167   0.116   1.014  10.331 -1.2337  0.6613 -0.2512
 8512SOL     OW37168   3.959   3.064   1.084  0.0174  0.2907 -0.4397
 8512SOL    HW137169   3.919   3.082   1.169  0.7083  3.0446 -0.6981
 8512SOL    HW237170   4.053   3.055   1.103  0.0794 -0.8465 -1.2283
 8513SOL     OW37171   2.268   1.593   5.243  0.3069  0.6978  0.0163
 8513SOL    HW137172   2.175   1.570   5.250  0.7279 -0.6110  1.5293
 8513SOL    HW237173   2.270   1.682   5.208 -1.0946  1.7344  2.5556
 8514SOL     OW37174   3.696   3.206   2.441 -0.6038 -0.4193 -0.5428
 8514SOL    HW137175   3.738   3.192   2.527  1.2618 -0.4547 -1.4490
 8514SOL    HW237176   3.719   3.295   2.414 -0.2358 -0.0195  1.0417
 8515SOL     OW37177   2.326   1.136   2.902  0.0892  0.0051 -0.4781
 8515SOL    HW137178   2.264   1.194   2.858  2.3932  3.3621  0.7734
 8515SOL    HW237179   2.392   1.201   2.926 -0.1104  0.7191 -1.8465
 8516SOL     OW37180   1.626   4.281  11.291 -0.2479 -0.0608  0.0322
 8516SOL    HW137181   1.549   4.338  11.285  1.3037  2.1516  1.0146
 8516SOL    HW237182   1.652   4.281  11.199  0.4494  0.0571  0.2296
 8517SOL     OW37183   4.326   4.631   5.158  0.1471 -0.1638 -0.2398
 8517SOL    HW137184   4.366   4.633   5.071  0.1937 -0.3420 -0.2222
 8517SOL    HW237185   4.288   4.544   5.156 -0.7699  0.2780 -2.2652
 8518SOL     OW37186   1.095   1.368   9.088  0.1134 -0.0645  0.0226
 8518SOL    HW137187   1.047   1.402   9.012 -1.1748 -1.6246  0.1374
 8518SOL    HW237188   1.170   1.317   9.058 -0.6214 -0.6149 -0.8571
 8519SOL     OW37189   0.457   4.037   2.024 -0.2684 -0.3858 -0.3769
 8519SOL    HW137190   0.409   4.027   2.107  1.9881 -1.4695  0.8009
 8519SOL    HW237191   0.542   4.068   2.056 -0.9613 -0.8556  1.9319
 8520SOL     OW37192   1.243   3.225  12.576  0.7471  0.0420  0.0151
 8520SOL    HW137193   1.338   3.236  12.579  0.7246  0.2395 -0.0026
 8520SOL    HW237194   1.223   3.222  12.483  0.2428  1.8206  0.0687
 8521SOL     OW37195   2.777   0.448   5.212 -0.8560  0.0501  0.0330
 8521SOL    HW137196   2.700   0.465   5.267 -0.9868  0.7440 -0.3765
 8521SOL    HW237197   2.770   0.521   5.151  1.3260 -0.7186 -1.1426
 8522SOL     OW37198   1.392   1.044   7.633  0.0895  0.3672 -0.9167
 8522SOL    HW137199   1.471   1.020   7.682  0.5891  0.4702 -1.6856
 8522SOL    HW237200   1.423   1.017   7.547 -0.6282  0.1595 -1.1105
 8523SOL     OW37201   3.829   0.306   5.251 -0.2282 -0.3170  0.0913
 8523SOL    HW137202   3.924   0.296   5.240 -0.3502 -0.2375 -1.0044
 8523SOL    HW237203   3.783   0.267   5.177  0.1312 -0.6410  0.0382
 8524SOL     OW37204   1.064   2.013   9.165 -0.0201  0.1755 -0.0882
 8524SOL    HW137205   0.970   1.994   9.171 -0.2230  1.5833  1.1198
 8524SOL    HW237206   1.076   2.034   9.257  1.0780  0.0391 -0.1982
 8525SOL     OW37207   3.714   4.608  14.431 -0.3580 -0.4581 -0.1433
 8525SOL    HW137208   3.773   4.534  14.440  1.5851  0.9235 -1.4742
 8525SOL    HW237209   3.744   4.663  14.504  1.1941 -1.8996  0.2886
 8526SOL     OW37210   3.308   2.509   2.396  0.0310 -0.7781 -0.0565
 8526SOL    HW137211   3.351   2.510   2.311  0.2473 -0.3579  0.0604
 8526SOL    HW237212   3.309   2.416   2.419  0.2147 -1.1382 -1.5589
 8527SOL     OW37213   4.134   0.163   2.477  0.5423  0.2243  0.1250
 8527SOL    HW137214   4.040   0.177   2.491  0.1069 -2.8260  0.3623
 8527SOL    HW237215   4.153   0.230   2.411 -0.1387  0.4877  0.2017
 8528SOL     OW37216   4.382   1.368   5.063 -0.2740 -0.2943 -0.1939
 8528SOL    HW137217   4.425   1.392   5.146  0.6130  0.1996 -0.8030
 8528SOL    HW237218   4.299   1.338   5.100  0.3275 -0.2449  1.2152
 8529SOL     OW37219   3.980   4.464  16.177  0.6940 -0.2514 -0.0549
 8529SOL    HW137220   3.960   4.463  16.271 -0.4298 -1.5628 -0.3089
 8529SOL    HW237221   4.020   4.378  16.167 -2.7789 -1.6042 -2.0880
 8530SOL     OW37222   0.544   2.028   2.358  0.0784  0.0728  0.2461
 8530SOL    HW137223   0.560   2.027   2.263  1.0987  2.6010  0.4013
 8530SOL    HW237224   0.469   2.086   2.365 -0.9575 -1.1769 -0.5232
 8531SOL     OW37225   1.834   2.642  12.538 -1.2160  0.4319 -0.0536
 8531SOL    HW137226   1.794   2.648  12.624  0.8943 -0.6197  1.0094
 8531SOL    HW237227   1.758   2.663  12.484 -1.5668  0.4598  0.4624
 8532SOL     OW37228   3.932   2.084   9.044  0.3167 -0.6564  0.3282
 8532SOL    HW137229   3.928   2.147   9.116 -0.6954  1.7074 -1.8051
 8532SOL    HW237230   3.869   2.122   8.983 -0.1817  0.9972  1.8881
 8533SOL     OW37231   1.458   2.498  11.502 -0.2878  0.3043 -0.2606
 8533SOL    HW137232   1.551   2.478  11.506 -0.5718 -1.3946 -2.2313
 8533SOL    HW237233   1.463   2.584  11.461 -1.4434  1.5437  2.1569
 8534SOL     OW37234   3.893   3.884   8.067 -0.1126 -0.0878  0.0543
 8534SOL    HW137235   3.835   3.868   7.992 -2.2202  1.9192  1.2462
 8534SOL    HW237236   3.841   3.950   8.114  0.1056  0.3160 -0.2746
 8535SOL     OW37237   3.471   3.756  17.680  0.4717  0.2457 -0.3067
 8535SOL    HW137238   3.465   3.755  17.584 -1.5050 -0.1073 -0.1748
 8535SOL    HW237239   3.498   3.847  17.687  0.9575  0.0832 -0.0959
 8536SOL     OW37240   3.199   2.984   2.783 -0.1248  0.4081  0.0207
 8536SOL    HW137241   3.140   2.910   2.772  2.7261 -1.9372  0.5063
 8536SOL    HW237242   3.262   2.963   2.715  0.4845 -0.8053  0.9664
 8537SOL     OW37243   0.395   2.644  12.106  0.6135 -0.0422  0.2085
 8537SOL    HW137244   0.449   2.675  12.032  0.1209  0.5656  0.1037
 8537SOL    HW237245   0.314   2.693  12.092  0.8069 -0.2253 -1.5875
 8538SOL     OW37246   1.020   1.766   4.363  0.3358 -0.3468  0.5998
 8538SOL    HW137247   0.924   1.777   4.361  0.3532 -0.7298 -2.4056
 8538SOL    HW237248   1.041   1.814   4.283 -0.6319 -0.8995  0.0002
 8539SOL     OW37249   4.220   2.522   7.146  0.2772 -0.0229 -0.1150
 8539SOL    HW137250   4.280   2.507   7.219 -0.2323 -1.9916 -0.1137
 8539SOL    HW237251   4.192   2.612   7.161  0.5110  0.0383 -0.0517
 8540SOL     OW37252   4.624   2.586   7.770  0.0351  0.1147  0.1621
 8540SOL    HW137253   4.570   2.550   7.699  1.6287  0.3578 -1.1879
 8540SOL    HW237254   4.566   2.580   7.846  0.8560 -1.9825  0.6063
 8541SOL     OW37255   0.147   4.443  10.845 -0.2917  0.2024  0.3089
 8541SOL    HW137256   0.138   4.348  10.847  0.4134  0.1391  0.3273
 8541SOL    HW237257   0.065   4.475  10.881  0.5609  2.1974  0.4541
 8542SOL     OW37258   2.048   0.418   8.459 -0.1924  0.5023 -0.2670
 8542SOL    HW137259   2.067   0.329   8.490 -0.4814  0.0055 -1.5111
 8542SOL    HW237260   2.128   0.446   8.415  0.2775 -0.0585  0.2281
 8543SOL     OW37261   1.079   4.302  13.752  0.9224  0.4022  0.2675
 8543SOL    HW137262   1.048   4.378  13.801 -0.2202  0.8540 -1.1829
 8543SOL    HW237263   1.143   4.346  13.696  1.2187 -0.9094 -0.4357
 8544SOL     OW37264   2.931   1.332   3.829  0.2103  0.5329  0.3577
 8544SOL    HW137265   2.877   1.341   3.908  0.6424  0.7495  0.6296
 8544SOL    HW237266   3.013   1.345   3.875 -2.0444 -0.4429  4.6160
 8545SOL     OW37267   4.715   3.902   5.282  0.0654  0.2793 -0.1979
 8545SOL    HW137268   4.643   3.958   5.311  0.4927  1.2113 -0.9217
 8545SOL    HW237269   4.723   3.941   5.195  0.0592  4.2538  1.6071
 8546SOL     OW37270   3.232   3.922   4.531  0.2122  0.5242 -0.2279
 8546SOL    HW137271   3.236   3.945   4.438 -1.5152  2.0732  0.0874
 8546SOL    HW237272   3.322   3.898   4.553 -0.4472  0.4578  2.3894
 8547SOL     OW37273   3.068   3.604   4.863 -0.6053 -0.4292  0.6175
 8547SOL    HW137274   3.038   3.523   4.822  0.4239 -0.2195 -0.5290
 8547SOL    HW237275   3.012   3.615   4.941  0.6717 -0.8204  1.5824
 8548SOL     OW37276   2.606   0.625   7.890 -0.6659 -0.5833 -0.8115
 8548SOL    HW137277   2.532   0.601   7.946 -0.0504  0.3075  0.3880
 8548SOL    HW237278   2.616   0.557   7.824  0.5818  0.8469 -2.0925
 8549SOL     OW37279   4.705   2.193   4.848  0.3958 -0.5925  0.4800
 8549SOL    HW137280   0.036   2.202   4.782 -2.3725  3.1722 -1.8724
 8549SOL    HW237281   4.633   2.151   4.801 -0.6748  0.8838  0.8213
 8550SOL     OW37282   0.297   2.745   3.507 -0.3239 -0.4934 -0.0689
 8550SOL    HW137283   0.312   2.831   3.469  0.9152 -0.0115  1.5033
 8550SOL    HW237284   0.226   2.762   3.568 -0.4710 -0.9610 -0.1107
 8551SOL     OW37285   1.119   1.398  17.043 -0.1033 -0.0408 -0.3620
 8551SOL    HW137286   1.062   1.351  16.982 -2.5215 -0.8554  2.5296
 8551SOL    HW237287   1.083   1.484  17.025  0.5583 -0.0032 -1.5535
 8552SOL     OW37288   3.291   2.507   8.165  0.2046 -0.1300 -0.0052
 8552SOL    HW137289   3.322   2.484   8.252  2.4524 -0.3916 -0.8841
 8552SOL    HW237290   3.237   2.582   8.190 -0.0469 -0.1086 -0.6077
 8553SOL     OW37291   4.029   3.291   0.686 -0.0781 -0.1746  0.0211
 8553SOL    HW137292   4.096   3.248   0.739  0.0059  0.6427  0.5739
 8553SOL    HW237293   3.995   3.368   0.731 -1.0300  0.1231 -1.2134
 8554SOL     OW37294   0.679   4.245  13.408 -0.0364  0.0746  0.7838
 8554SOL    HW137295   0.674   4.336  13.379  1.7210 -0.0894 -0.0402
 8554SOL    HW237296   0.653   4.199  13.329 -1.0633  0.6293  0.8077
 8555SOL     OW37297   3.401   1.485   4.148  0.6851  0.5423  0.9629
 8555SOL    HW137298   3.332   1.536   4.189 -0.1176  0.4246 -0.2260
 8555SOL    HW237299   3.478   1.541   4.162  0.6725  0.7748  0.1068
 8556SOL     OW37300   2.140   3.061  16.698  0.2182 -0.0238  0.0213
 8556SOL    HW137301   2.052   3.053  16.662 -0.3597  1.6966  1.0260
 8556SOL    HW237302   2.120   2.994  16.764 -3.5167 -0.2523 -1.3889
 8557SOL     OW37303   4.055   4.295  17.057 -0.2147 -0.4179  0.3459
 8557SOL    HW137304   4.034   4.259  16.971  1.0054  0.3124 -0.2605
 8557SOL    HW237305   4.063   4.389  17.040  3.4756 -0.8915 -0.3513
 8558SOL     OW37306   1.581   3.385   0.537  0.1469  0.2203 -0.0880
 8558SOL    HW137307   1.595   3.395   0.631 -2.7471  0.7109  0.2766
 8558SOL    HW237308   1.670   3.372   0.504 -1.1118 -2.1116 -2.6252
 8559SOL     OW37309   0.987   4.409   2.538 -0.0078 -0.2284  0.2988
 8559SOL    HW137310   0.959   4.376   2.624  2.4317 -1.8366  0.4845
 8559SOL    HW237311   1.001   4.503   2.550  1.9349 -0.4817 -0.1199
 8560SOL     OW37312   4.370   2.780   7.440 -0.0924  0.5743  0.1389
 8560SOL    HW137313   4.309   2.746   7.375  0.1805 -1.3616  0.8978
 8560SOL    HW237314   4.433   2.826   7.385  0.0623  0.2203  0.0159
 8561SOL     OW37315   1.724   4.292   5.379  0.0103 -0.1592 -0.1326
 8561SOL    HW137316   1.819   4.291   5.377  0.0018  2.1386 -2.0577
 8561SOL    HW237317   1.692   4.220   5.325 -0.6345  0.0955 -0.0999
 8562SOL     OW37318   4.339   2.383  15.220  0.7358 -0.1538 -0.0572
 8562SOL    HW137319   4.271   2.322  15.250  1.0394 -0.0860  0.7954
 8562SOL    HW237320   4.344   2.347  15.132 -1.7333 -1.5769  0.3675
 8563SOL     OW37321   4.156   1.806  15.204 -0.4807  0.4040  0.0128
 8563SOL    HW137322   4.238   1.830  15.159  0.4649  1.0696  2.1216
 8563SOL    HW237323   4.147   1.714  15.181 -0.7926  0.6290 -0.7675
 8564SOL     OW37324   0.533   2.391   7.176 -0.0508 -0.7106  0.5362
 8564SOL    HW137325   0.450   2.343   7.177 -0.7030  0.4314  1.9038
 8564SOL    HW237326   0.586   2.360   7.249 -0.0265 -0.3258  0.6860
 8565SOL     OW37327   2.629   3.460   5.526  0.3221 -0.0064  0.0509
 8565SOL    HW137328   2.552   3.412   5.497  0.2094 -0.8640  1.7533
 8565SOL    HW237329   2.664   3.404   5.595 -1.5516  0.5116  1.4247
 8566SOL     OW37330   4.467   3.337   9.179 -0.0660 -0.2383 -0.4215
 8566SOL    HW137331   4.409   3.279   9.129 -0.7255 -1.7476  2.0900
 8566SOL    HW237332   4.461   3.283   9.258  0.7075  0.6762  0.2490
 8567SOL     OW37333   3.176   1.939   6.578  0.1389  0.6156 -0.1445
 8567SOL    HW137334   3.206   1.851   6.601 -2.7880 -0.7679 -1.7464
 8567SOL    HW237335   3.107   1.960   6.641  1.6602  0.2801  1.6218
 8568SOL     OW37336   3.171   0.005  13.878 -0.2494 -0.7429 -0.5871
 8568SOL    HW137337   3.092   0.006  13.932 -0.4276  2.5363 -0.9630
 8568SOL    HW237338   3.230   0.050  13.937 -0.3435  0.2490 -1.2604
 8569SOL     OW37339   2.060   2.642   4.523  0.2346  0.1111 -0.1180
 8569SOL    HW137340   1.991   2.621   4.587  2.4739 -2.6888  1.3644
 8569SOL    HW237341   2.124   2.689   4.577 -0.6142  1.8931 -0.6685
 8570SOL     OW37342   3.797   0.670   7.605 -0.5951 -0.1276 -0.0530
 8570SOL    HW137343   3.832   0.632   7.525 -1.7685 -1.2215 -0.0467
 8570SOL    HW237344   3.758   0.753   7.575  0.7496  0.7477  0.6266
 8571SOL     OW37345   1.185   1.464   8.217 -0.8956 -0.4888 -0.1654
 8571SOL    HW137346   1.171   1.457   8.123 -1.5370  0.4144 -0.1423
 8571SOL    HW237347   1.274   1.497   8.219 -1.1659  0.3012 -1.4740
 8572SOL     OW37348   3.547   4.040   4.435  0.4665 -0.0659  0.1496
 8572SOL    HW137349   3.546   3.968   4.498 -0.1399  1.7710  2.2176
 8572SOL    HW237350   3.516   4.004   4.352 -0.7595  2.4080 -0.4391
 8573SOL     OW37351   2.583   2.089   6.183  0.1863 -0.7381 -0.1043
 8573SOL    HW137352   2.541   2.109   6.267 -0.3509 -1.2079 -0.2589
 8573SOL    HW237353   2.598   1.995   6.191 -0.8816 -0.9453 -0.4520
 8574SOL     OW37354   2.699   3.262  15.887  1.0635  0.2318  0.3627
 8574SOL    HW137355   2.777   3.279  15.835  0.4869  2.5528  0.2448
 8574SOL    HW237356   2.631   3.300  15.831  1.1279 -0.1528  0.0245
 8575SOL     OW37357   4.708   2.070   9.507 -0.1475  0.1601 -0.2460
 8575SOL    HW137358   0.042   2.131   9.519  0.1497 -0.1448 -0.4788
 8575SOL    HW237359   4.656   2.112   9.438  0.3627  2.7855  0.9576
 8576SOL     OW37360   3.783   3.433   2.081  0.4894  0.0055  0.0518
 8576SOL    HW137361   3.785   3.381   2.001  1.3256  0.7515 -0.4137
 8576SOL    HW237362   3.872   3.466   2.075 -0.6510  2.5399 -2.6777
 8577SOL     OW37363   4.495   0.525   2.495 -0.4647 -0.4679 -0.1365
 8577SOL    HW137364   4.590   0.515   2.485 -0.7718 -3.6000  0.0595
 8577SOL    HW237365   4.466   0.434   2.502  1.0703 -0.8667  1.0416
 8578SOL     OW37366   4.664   4.468   4.911  0.3216 -0.1824 -0.1995
 8578SOL    HW137367   4.738   4.530   4.905 -0.2608  0.2074 -3.4352
 8578SOL    HW237368   4.699   4.421   4.987  1.4522  1.6595  0.4376
 8579SOL     OW37369   2.829   0.173   9.160 -0.7309  0.6128 -0.2250
 8579SOL    HW137370   2.815   0.257   9.117  1.1683  1.8325  1.5409
 8579SOL    HW237371   2.867   0.206   9.241  0.3255 -2.0104  0.3459
 8580SOL     OW37372   0.610   4.640   6.085 -0.0049 -0.5075 -0.3351
 8580SOL    HW137373   0.630   4.712   6.145 -3.2704  0.8150 -0.8394
 8580SOL    HW237374   0.517   4.627   6.104  0.3724  0.9876  2.5966
 8581SOL     OW37375   2.634   3.532  13.122  0.0946 -0.1245 -0.3546
 8581SOL    HW137376   2.571   3.541  13.194  2.3272  2.9886  1.1749
 8581SOL    HW237377   2.575   3.526  13.047  1.9723 -2.8817 -1.6149
 8582SOL     OW37378   1.208   4.320   6.258 -0.0310 -0.1137  0.4495
 8582SOL    HW137379   1.153   4.258   6.211  0.5622 -1.1002  1.0411
 8582SOL    HW237380   1.153   4.398   6.253 -0.6023 -0.5293  0.2688
 8583SOL     OW37381   4.540   3.956   2.598  0.1239 -0.2781 -0.1321
 8583SOL    HW137382   4.471   4.003   2.645  1.6022  0.5174  1.2321
 8583SOL    HW237383   4.607   4.014   2.634 -2.4373  1.4009  1.9688
 8584SOL     OW37384   3.818   2.229   3.413 -0.7678  0.1158  0.8418
 8584SOL    HW137385   3.757   2.161   3.384  1.2131 -0.5934 -1.6377
 8584SOL    HW237386   3.757   2.303   3.405 -0.3269  0.2814 -1.0726
 8585SOL     OW37387   0.911   1.431   4.177 -0.1282 -0.1827 -0.2857
 8585SOL    HW137388   0.901   1.522   4.150  3.7416  0.0405 -0.9156
 8585SOL    HW237389   0.997   1.413   4.140 -0.3612 -1.4813 -0.1899
 8586SOL     OW37390   3.067   3.599   7.607 -0.8906  0.7520 -1.0751
 8586SOL    HW137391   3.001   3.537   7.576 -0.8874  0.1165  0.1899
 8586SOL    HW237392   3.143   3.603   7.550  1.1729 -2.0432  1.4528
 8587SOL     OW37393   3.642   4.470   8.291  0.1979 -0.2801 -0.2052
 8587SOL    HW137394   3.732   4.499   8.306 -0.7183  2.1721  0.6147
 8587SOL    HW237395   3.601   4.469   8.378  2.7227  0.6931  1.0011
 8588SOL     OW37396   2.039   4.105  11.844  0.3774 -0.5756 -0.3263
 8588SOL    HW137397   2.037   4.030  11.784  1.9823 -0.9660  0.1147
 8588SOL    HW237398   2.091   4.163  11.789 -0.1623  1.4937  1.3705
 8589SOL     OW37399   2.910   4.204  14.209 -0.1373  0.4832 -0.2129
 8589SOL    HW137400   2.946   4.221  14.296 -0.5905 -0.1550  0.0982
 8589SOL    HW237401   2.957   4.122  14.193  2.0757  1.3253  1.9094
 8590SOL     OW37402   2.386   1.822   2.233 -0.3460  0.7811  0.4271
 8590SOL    HW137403   2.438   1.902   2.241 -0.7262  1.1185 -0.5047
 8590SOL    HW237404   2.324   1.843   2.163  0.9573 -0.1754 -0.9993
 8591SOL     OW37405   3.244   1.588   4.337 -0.1746  0.3228 -0.3025
 8591SOL    HW137406   3.221   1.565   4.427 -0.6111 -1.0815 -0.7797
 8591SOL    HW237407   3.184   1.657   4.311  1.2205  1.0176 -1.7127
 8592SOL     OW37408   3.185   3.078   6.005  0.0120 -0.5440  0.2237
 8592SOL    HW137409   3.167   3.103   5.914 -1.3501 -1.1840  0.3132
 8592SOL    HW237410   3.201   2.984   5.998  2.0514 -0.1122 -0.7869
 8593SOL     OW37411   2.576   2.697   1.966 -0.4004 -0.1801 -0.4623
 8593SOL    HW137412   2.647   2.762   1.965 -0.6716  0.1584  1.8137
 8593SOL    HW237413   2.519   2.735   2.034  1.9354  1.6834  0.4736
 8594SOL     OW37414   0.729   3.472  17.333  0.5998  0.5918  0.1473
 8594SOL    HW137415   0.779   3.476  17.415 -0.8457 -3.4496  1.2099
 8594SOL    HW237416   0.640   3.494  17.363  0.2604 -0.6383  0.0105
 8595SOL     OW37417   4.242   3.033   5.661 -0.3970  1.0030 -0.2651
 8595SOL    HW137418   4.314   3.085   5.625  0.1074  2.1692  2.4523
 8595SOL    HW237419   4.233   3.079   5.743  0.1688 -0.3097  0.5369
 8596SOL     OW37420   1.040   2.318   6.605 -0.0704 -0.0733 -0.0388
 8596SOL    HW137421   1.080   2.386   6.659 -0.5680 -0.6686  1.0714
 8596SOL    HW237422   1.096   2.246   6.633 -0.3627  0.9585  3.1889
 8597SOL     OW37423   2.524   3.809   6.055 -0.4719  0.0024  0.0093
 8597SOL    HW137424   2.550   3.751   6.127  1.1197  2.1043  1.1244
 8597SOL    HW237425   2.437   3.833   6.085 -1.3496 -2.9919 -0.1824
 8598SOL     OW37426   0.203   2.049   8.059 -0.4032 -0.0177  0.3898
 8598SOL    HW137427   0.123   2.079   8.016  1.2448  0.2885 -2.3918
 8598SOL    HW237428   0.223   1.957   8.038 -1.9957 -0.0470 -1.0555
 8599SOL     OW37429   3.972   1.281   4.217  0.2772 -0.1004 -0.3045
 8599SOL    HW137430   3.886   1.269   4.176 -0.2828 -0.1953  0.9001
 8599SOL    HW237431   3.942   1.329   4.295  1.2190  0.5286 -0.3341
 8600SOL     OW37432   0.314   1.814   5.778  0.5725  0.3175 -0.3208
 8600SOL    HW137433   0.286   1.837   5.866 -0.9232  0.8061 -0.9255
 8600SOL    HW237434   0.340   1.722   5.784  0.3146  0.2466 -0.2924
 8601SOL     OW37435   2.064   0.868  12.567  0.0519 -0.4622  0.2212
 8601SOL    HW137436   2.048   0.957  12.599 -3.3433 -1.3281  1.0134
 8601SOL    HW237437   2.146   0.839  12.606  0.6192  1.1858  0.2703
 8602SOL     OW37438   0.936   3.599   7.480  0.4004 -0.1311  0.0533
 8602SOL    HW137439   1.005   3.618   7.417  0.1240  1.8943  0.3728
 8602SOL    HW237440   0.973   3.639   7.559 -1.7894 -0.4670  1.2588
 8603SOL     OW37441   0.774   3.867   2.227  0.2381  0.0104  0.3865
 8603SOL    HW137442   0.842   3.930   2.248  0.7241 -0.2232 -0.5230
 8603SOL    HW237443   0.705   3.929   2.203 -0.3147 -0.5949  0.4034
 8604SOL     OW37444   1.438   1.497   8.300 -0.4617 -0.5831  0.2209
 8604SOL    HW137445   1.526   1.460   8.289  0.1478  0.8887  0.1834
 8604SOL    HW237446   1.427   1.468   8.391  4.2384 -0.2379  0.9194
 8605SOL     OW37447   0.741   2.289  17.564 -0.1827  0.1283  0.2888
 8605SOL    HW137448   0.808   2.357  17.574  0.1286 -0.1633  0.1626
 8605SOL    HW237449   0.668   2.348  17.582  0.3481  0.8876 -0.0342
 8606SOL     OW37450   3.523   0.718  10.009 -0.2523  0.2265  0.2396
 8606SOL    HW137451   3.441   0.761   9.988 -1.8122 -1.9147  1.8833
 8606SOL    HW237452   3.587   0.789  10.007  0.1519 -0.0977  1.1977
 8607SOL     OW37453   2.229   3.798   1.989 -0.2933  0.0086  0.1004
 8607SOL    HW137454   2.281   3.722   2.015 -0.6811 -0.0839  0.5939
 8607SOL    HW237455   2.182   3.817   2.070  0.4979 -1.0723  0.8162
 8608SOL     OW37456   1.924   4.620   3.908 -0.5043  0.0746  0.4896
 8608SOL    HW137457   1.892   4.710   3.916 -1.3362 -0.1518 -0.3090
 8608SOL    HW237458   1.980   4.605   3.984 -1.0505 -1.1776  0.6439
 8609SOL     OW37459   3.874   3.184  14.694 -0.3529  0.3116  0.4123
 8609SOL    HW137460   3.890   3.097  14.658 -0.6004 -0.2042  1.5542
 8609SOL    HW237461   3.801   3.213  14.639  0.0302 -0.8464 -0.7072
 8610SOL     OW37462   3.451   0.037   6.889 -0.0457  0.0586  0.2195
 8610SOL    HW137463   3.500   4.717   6.948 -1.9391 -1.0092  0.7556
 8610SOL    HW237464   3.436   4.723   6.811 -0.1250 -0.3041  0.4757
 8611SOL     OW37465   0.981   0.454   8.384 -0.4633  0.2915 -0.1225
 8611SOL    HW137466   0.974   0.497   8.470 -2.1604  0.9988 -0.6211
 8611SOL    HW237467   1.029   0.373   8.397  1.6786  1.3943 -1.0706
 8612SOL     OW37468   0.535   0.527   3.230 -0.6131  0.2438 -0.3112
 8612SOL    HW137469   0.509   0.451   3.282 -1.7562 -0.5447 -2.0315
 8612SOL    HW237470   0.579   0.574   3.301  0.2642  1.8181 -1.9023
 8613SOL     OW37471   2.558   2.171   0.876  0.3139 -0.4864  0.1694
 8613SOL    HW137472   2.602   2.244   0.833  0.7308 -0.2970  0.9250
 8613SOL    HW237473   2.488   2.147   0.815  2.0895  2.2367 -2.9395
 8614SOL     OW37474   3.839   3.313   8.954  0.1380 -0.7967  0.0749
 8614SOL    HW137475   3.917   3.287   8.906 -0.3493 -2.6916  0.2995
 8614SOL    HW237476   3.833   3.406   8.931  1.8551 -1.0642 -1.4054
 8615SOL     OW37477   2.067   3.455   3.548 -0.0544 -0.4280  0.3648
 8615SOL    HW137478   2.078   3.526   3.484  2.8130 -3.0572 -2.1000
 8615SOL    HW237479   2.057   3.372   3.501  1.9629 -0.6480  0.3238
 8616SOL     OW37480   2.508   0.534  13.653  0.7204  0.1630 -0.5203
 8616SOL    HW137481   2.443   0.601  13.673  0.3857 -0.7720  1.5450
 8616SOL    HW237482   2.457   0.453  13.649 -2.7178  2.3302  0.3768
 8617SOL     OW37483   4.219   2.289   8.915 -0.1569 -0.2636  0.2367
 8617SOL    HW137484   4.292   2.347   8.893 -1.2760  1.6101  1.4012
 8617SOL    HW237485   4.231   2.285   9.010  1.7848 -2.4156 -0.1164
 8618SOL     OW37486   0.065   4.687   6.852 -0.4985 -0.3666 -0.7786
 8618SOL    HW137487   0.029   4.701   6.939 -1.0090 -0.1589 -1.0225
 8618SOL    HW237488   0.079   0.038   6.817  1.8830 -0.9610 -1.3285
 8619SOL     OW37489   3.829   1.548  11.010  0.0540 -0.0116 -0.5015
 8619SOL    HW137490   3.850   1.579  10.922 -3.7143 -1.4915 -1.9537
 8619SOL    HW237491   3.803   1.460  10.982 -0.3419 -0.6130  1.7133
 8620SOL     OW37492   4.003   3.478   2.528 -0.7590  0.3831  0.1647
 8620SOL    HW137493   4.061   3.466   2.454  1.5210  1.3653  1.7880
 8620SOL    HW237494   3.966   3.561   2.497  2.5107  2.0284  0.6771
 8621SOL     OW37495   3.371   0.922   7.001 -0.4354  0.3490  0.1098
 8621SOL    HW137496   3.448   0.968   7.034 -0.1053  0.1594 -0.3886
 8621SOL    HW237497   3.356   0.968   6.918 -0.8546 -2.3969 -1.3433
 8622SOL     OW37498   4.629   1.664   4.145 -0.3184 -0.3232 -0.2849
 8622SOL    HW137499   4.617   1.752   4.179  1.2053  0.8923 -2.9517
 8622SOL    HW237500   4.647   1.684   4.053  2.1897 -0.9851  0.0508
 8623SOL     OW37501   0.934   1.179  13.787 -0.1050 -0.1575 -0.3554
 8623SOL    HW137502   1.029   1.192  13.791 -0.0754 -0.1406 -1.1327
 8623SOL    HW237503   0.904   1.214  13.703 -1.1337 -0.9835 -0.3302
 8624SOL     OW37504   3.789   4.625   5.105  0.0430  0.0865  0.2624
 8624SOL    HW137505   3.702   4.665   5.105  0.4929  1.0496 -1.8420
 8624SOL    HW237506   3.823   4.665   5.186  0.5470 -0.6209  0.4084
 8625SOL     OW37507   1.019   0.439  14.948  0.2367 -0.4838 -0.3069
 8625SOL    HW137508   0.989   0.500  14.880 -0.2196 -2.0519 -1.5139
 8625SOL    HW237509   1.085   0.491  14.993 -1.0941  2.2392 -1.4844
 8626SOL     OW37510   1.972   0.884  15.498  0.2388 -0.2118 -0.1185
 8626SOL    HW137511   1.929   0.964  15.467 -1.7871 -2.3133 -2.6965
 8626SOL    HW237512   1.998   0.912  15.586 -1.3668 -3.8502  1.5287
 8627SOL     OW37513   2.598   1.476   8.561  0.2355 -0.2991  0.0638
 8627SOL    HW137514   2.581   1.541   8.629 -0.3661  0.5057 -0.8544
 8627SOL    HW237515   2.605   1.534   8.486 -2.0298 -2.3813 -1.7545
 8628SOL     OW37516   1.448   3.104   9.033 -0.1946  0.1968  0.3266
 8628SOL    HW137517   1.448   3.026   9.089 -0.5298  1.1397  1.6576
 8628SOL    HW237518   1.543   3.109   9.023  0.1208 -2.5488  1.7711
 8629SOL     OW37519   2.700   2.984  15.258  0.4225  0.5712 -0.0925
 8629SOL    HW137520   2.731   2.895  15.242 -0.7702  0.4590 -1.8073
 8629SOL    HW237521   2.693   3.028  15.173 -1.8681  0.5574  0.0871
 8630SOL     OW37522   1.131   0.014   3.486  0.5180 -0.0302 -0.4556
 8630SOL    HW137523   1.178   4.670   3.471 -2.6361 -1.8522 -0.4508
 8630SOL    HW237524   1.144   0.046   3.397  0.7501  0.4065 -0.2658
 8631SOL     OW37525   0.315   2.849  17.614  0.2903 -0.2149 -0.2354
 8631SOL    HW137526   0.387   2.832  17.674 -0.2870  1.8603  1.0504
 8631SOL    HW237527   0.334   2.941  17.596 -1.1730  0.1307 -0.0428
 8632SOL     OW37528   2.516   4.101   0.534 -0.0629 -0.1504  0.0593
 8632SOL    HW137529   2.432   4.138   0.560  0.9692  2.4885 -0.4360
 8632SOL    HW237530   2.514   4.017   0.581 -3.0947  0.1461  0.4350
 8633SOL     OW37531   0.242   1.361   9.028 -0.0006 -0.0798  0.6548
 8633SOL    HW137532   0.228   1.454   9.012 -2.4166 -0.5602  0.0470
 8633SOL    HW237533   0.209   1.344   9.117 -0.4046 -4.4370 -0.3040
 8634SOL     OW37534   0.971   2.361   4.225 -0.4920 -0.1039  0.1397
 8634SOL    HW137535   0.890   2.410   4.215  0.8421  1.2480 -4.0057
 8634SOL    HW237536   1.026   2.422   4.274  0.2255 -0.7779  0.1921
 8635SOL     OW37537   3.116   2.890   3.063  0.1139 -0.5513 -0.1886
 8635SOL    HW137538   3.134   2.823   2.998  1.0453  2.0258 -2.5694
 8635SOL    HW237539   3.177   2.958   3.034 -1.1127 -0.6547 -2.9779
 8636SOL     OW37540   0.972   1.590   6.235  0.4484 -0.2393 -0.1014
 8636SOL    HW137541   1.002   1.652   6.169  0.5104 -0.8615 -0.6525
 8636SOL    HW237542   1.019   1.511   6.209  0.6141  0.1274 -0.9297
 8637SOL     OW37543   4.493   3.781   2.091 -0.4441  0.2650  0.6506
 8637SOL    HW137544   4.571   3.725   2.087 -1.7897 -1.6501  1.3819
 8637SOL    HW237545   4.531   3.868   2.107  0.7210  0.1062 -1.2207
 8638SOL     OW37546   3.508   2.398   4.426 -0.1643  0.3603 -0.0054
 8638SOL    HW137547   3.559   2.432   4.353  1.8237 -1.6446  0.4644
 8638SOL    HW237548   3.528   2.306   4.408 -0.6682 -0.0143  1.3700
 8639SOL     OW37549   4.313   3.644  17.569  0.1264 -0.1869  0.0461
 8639SOL    HW137550   4.279   3.690  17.493  1.7328 -0.2712 -0.7082
 8639SOL    HW237551   4.253   3.570  17.561  0.9938 -1.0796  1.7030
 8640SOL     OW37552   4.412   2.364   2.826  0.3574 -0.0933  0.0627
 8640SOL    HW137553   4.440   2.277   2.855  1.5429 -0.0896 -1.0954
 8640SOL    HW237554   4.367   2.341   2.745 -1.4797 -0.1839  1.0996
 8641SOL     OW37555   1.574   4.015  11.855 -0.2747  0.3257 -0.6953
 8641SOL    HW137556   1.481   4.021  11.836 -0.4228 -2.9134 -0.9308
 8641SOL    HW237557   1.608   4.053  11.774 -2.4298  1.4196 -1.0701
 8642SOL     OW37558   2.014   3.642   2.173 -0.7720 -0.0254  0.0197
 8642SOL    HW137559   1.921   3.663   2.183 -0.9066  0.4826 -2.3870
 8642SOL    HW237560   2.002   3.587   2.096  2.4475  0.0591 -0.5592
 8643SOL     OW37561   2.259   1.890   2.538 -0.0438 -0.1879  0.4992
 8643SOL    HW137562   2.351   1.883   2.511  0.2779  0.2014  1.5074
 8643SOL    HW237563   2.251   1.983   2.559  0.8276  0.6037 -2.6381
 8644SOL     OW37564   2.609   2.466   0.881  0.6738 -0.5044 -0.0959
 8644SOL    HW137565   2.660   2.493   0.958  2.2397 -1.3832 -0.8367
 8644SOL    HW237566   2.681   2.455   0.819  0.3645 -3.8116  0.1361
 8645SOL     OW37567   2.325   0.760  14.850  0.1946  0.1924  0.1059
 8645SOL    HW137568   2.236   0.782  14.876  0.9363  0.4013  2.4196
 8645SOL    HW237569   2.316   0.737  14.757 -1.5314 -1.0878  0.6073
 8646SOL     OW37570   1.919   1.313  14.464 -0.3190 -0.4788 -0.0240
 8646SOL    HW137571   1.913   1.403  14.498 -1.4187 -0.3647 -0.5186
 8646SOL    HW237572   1.968   1.273  14.535  0.2917  0.9818  0.3888
 8647SOL     OW37573   1.421   1.315   7.705  0.1943  0.2212 -0.0320
 8647SOL    HW137574   1.395   1.223   7.699  2.0818 -0.2851 -0.4298
 8647SOL    HW237575   1.412   1.350   7.616 -0.2170  1.1361  0.3590
 8648SOL     OW37576   4.548   2.027  16.362  0.5011  0.0367  0.6339
 8648SOL    HW137577   4.608   2.098  16.384 -0.3495  0.4506  1.6242
 8648SOL    HW237578   4.473   2.037  16.420 -0.9194  2.7849 -1.6316
 8649SOL     OW37579   1.823   2.314   3.277 -0.1492 -0.2051 -0.4050
 8649SOL    HW137580   1.762   2.248   3.311 -0.5619 -0.9901 -2.6336
 8649SOL    HW237581   1.899   2.270   3.239  1.0037  0.5456  1.0572
 8650SOL     OW37582   1.649   1.611   8.917  0.1368 -0.3409  0.8470
 8650SOL    HW137583   1.709   1.670   8.962 -1.6601  2.1980 -0.0780
 8650SOL    HW237584   1.611   1.672   8.853 -1.6509 -2.1529  0.1858
 8651SOL     OW37585   0.141   3.115   6.912  0.0156 -0.9373 -0.3057
 8651SOL    HW137586   0.181   3.157   6.835 -2.2630  2.1038  0.1453
 8651SOL    HW237587   0.066   3.174   6.926  0.5987 -0.0241 -1.0074
 8652SOL     OW37588   2.184   3.987   0.135 -0.3046  0.1176 -0.1351
 8652SOL    HW137589   2.247   3.916   0.145 -0.0582  0.5155  1.1335
 8652SOL    HW237590   2.196   4.039   0.215 -1.8207  0.7906 -0.3416
 8653SOL     OW37591   3.323   1.490   8.100 -0.0580 -0.3365  0.0639
 8653SOL    HW137592   3.261   1.563   8.101  0.0890 -0.2203  0.5767
 8653SOL    HW237593   3.275   1.412   8.128 -2.2389  0.2938 -1.8783
 8654SOL     OW37594   0.339   2.914   8.670  0.2793 -0.0887  0.3166
 8654SOL    HW137595   0.318   2.826   8.641 -0.9215 -0.7011  3.0712
 8654SOL    HW237596   0.324   2.910   8.764 -2.7247 -0.7548 -0.1768
 8655SOL     OW37597   1.285   3.253   7.064 -0.2180 -0.2475 -0.1694
 8655SOL    HW137598   1.223   3.186   7.034  1.9046 -1.8402 -0.9437
 8655SOL    HW237599   1.345   3.261   6.990  1.6918 -0.7923  1.3428
 8656SOL     OW37600   3.967   3.468   7.216  0.1043 -0.3193  0.0064
 8656SOL    HW137601   4.003   3.488   7.302  0.0538  1.9268 -0.5021
 8656SOL    HW237602   3.875   3.466   7.243  1.0397 -1.9375  3.0890
 8657SOL     OW37603   2.828   2.255  13.022  0.2721 -0.2803 -0.0432
 8657SOL    HW137604   2.817   2.338  13.069  2.1227  0.1965 -0.4563
 8657SOL    HW237605   2.739   2.218  13.015 -0.0829  0.3760  0.9812
 8658SOL     OW37606   1.222   2.408   2.230 -0.6031 -0.4629  0.1938
 8658SOL    HW137607   1.244   2.497   2.202 -0.3171  0.3627  3.0510
 8658SOL    HW237608   1.142   2.387   2.182 -0.2101 -0.3121 -0.5229
 8659SOL     OW37609   4.369   3.731   8.401 -0.0770 -0.1423 -0.1690
 8659SOL    HW137610   4.394   3.803   8.343  1.6261  0.5452  1.4083
 8659SOL    HW237611   4.458   3.709   8.430 -0.4245 -0.4324  0.6909
 8660SOL     OW37612   4.237   1.650  16.446 -0.0701 -0.1524 -0.1461
 8660SOL    HW137613   4.269   1.737  16.420  2.6011 -1.2676 -0.5816
 8660SOL    HW237614   4.298   1.615  16.511 -0.6329  0.3662  0.6710
 8661SOL     OW37615   0.230   0.448   3.115  0.2985 -0.0547 -0.3592
 8661SOL    HW137616   0.253   0.360   3.146  1.7145  0.8586  1.1717
 8661SOL    HW237617   0.142   0.448   3.152  0.0850  0.4630 -0.8595
 8662SOL     OW37618   1.582   2.935   6.394 -0.3047  0.3703 -0.1848
 8662SOL    HW137619   1.568   3.024   6.362 -2.5758 -0.0249 -0.3006
 8662SOL    HW237620   1.563   2.875   6.322 -0.8088  1.1349 -0.6965
 8663SOL     OW37621   1.037   2.002   3.798  0.4036 -0.6506  0.8219
 8663SOL    HW137622   0.996   1.979   3.882  0.4476 -1.5321  0.5974
 8663SOL    HW237623   1.081   2.082   3.826  1.9273 -1.1859 -0.1017
 8664SOL     OW37624   4.403   4.082  17.648  0.4027 -0.2271  0.0799
 8664SOL    HW137625   4.315   4.045  17.649  0.0820  0.5498  0.2613
 8664SOL    HW237626   4.456   4.019  17.598  0.9112  2.0122 -2.1643
 8665SOL     OW37627   1.197   2.529   6.705 -0.0788  0.2736 -0.0206
 8665SOL    HW137628   1.230   2.618   6.695 -1.0500  0.3455 -2.5281
 8665SOL    HW237629   1.270   2.496   6.758  4.1468  2.7636 -4.2773
 8666SOL     OW37630   2.896   2.834   7.530  0.6548  0.3566 -0.3731
 8666SOL    HW137631   2.946   2.776   7.473 -0.2965  0.9863 -1.8606
 8666SOL    HW237632   2.875   2.906   7.470  0.7566  0.7577  0.0676
 8667SOL     OW37633   1.378   0.943   4.706  0.0599 -0.7540  0.1665
 8667SOL    HW137634   1.374   1.039   4.698 -1.5703 -1.0469 -2.5922
 8667SOL    HW237635   1.366   0.926   4.613 -1.1422 -0.9545  0.3586
 8668SOL     OW37636   0.358   1.679   8.737 -0.4473  0.1384 -0.4761
 8668SOL    HW137637   0.449   1.706   8.723 -0.4370  0.5629  0.3861
 8668SOL    HW237638   0.329   1.625   8.664 -0.8314 -0.8503  0.4027
 8669SOL     OW37639   2.834   2.664   8.468  0.8362  0.0136 -0.2045
 8669SOL    HW137640   2.777   2.588   8.454  1.7359 -0.8625  0.9315
 8669SOL    HW237641   2.853   2.639   8.558 -1.6238 -1.2749 -0.0421
 8670SOL     OW37642   0.057   4.305   6.388 -0.4452 -0.3189 -0.3877
 8670SOL    HW137643   0.096   4.321   6.474  0.9935  1.8082 -1.4306
 8670SOL    HW237644   4.706   4.271   6.398 -0.9872  1.3219  0.2189
 8671SOL     OW37645   3.241   0.722  16.225 -0.6034 -0.4791  0.6386
 8671SOL    HW137646   3.292   0.787  16.273 -0.1848 -0.9179  0.7870
 8671SOL    HW237647   3.196   0.780  16.163 -1.2064 -2.6416 -0.9361
 8672SOL     OW37648   0.512   4.646   6.411  0.1075  0.4664  0.2339
 8672SOL    HW137649   0.536   4.555   6.391  0.7036  0.0219  2.9141
 8672SOL    HW237650   0.426   4.651   6.370  0.1412  2.0768  0.3902
 8673SOL     OW37651   4.609   3.258   4.196  0.0598  0.2921 -0.0236
 8673SOL    HW137652   4.694   3.287   4.228 -0.7468  1.9068  0.6597
 8673SOL    HW237653   4.619   3.164   4.183 -1.3575  0.5133 -2.7070
 8674SOL     OW37654   0.152   1.349  10.723 -0.1586  0.3587 -0.2931
 8674SOL    HW137655   0.235   1.310  10.748 -1.4072 -2.3545 -0.3700
 8674SOL    HW237656   0.097   1.351  10.802  0.2039  0.0212 -0.0375
 8675SOL     OW37657   3.283   0.255  16.757  0.1016 -0.1178  0.2001
 8675SOL    HW137658   3.371   0.292  16.769  0.3249 -0.5591 -0.0936
 8675SOL    HW237659   3.263   0.291  16.671  1.7763  0.7799  0.1756
 8676SOL     OW37660   2.241   3.940  16.644 -0.1119  0.6708  0.3263
 8676SOL    HW137661   2.319   3.926  16.590  0.2489 -1.3860  1.3597
 8676SOL    HW237662   2.180   3.881  16.601 -0.6462  1.8538 -0.5318
 8677SOL     OW37663   3.368   4.388   3.416 -0.6732 -0.3190  0.1924
 8677SOL    HW137664   3.393   4.371   3.326 -2.0688  0.6552 -0.3763
 8677SOL    HW237665   3.311   4.312   3.430 -1.0032  0.1735  1.5889
 8678SOL     OW37666   3.671   1.134   3.342 -0.1162 -0.3232 -0.6242
 8678SOL    HW137667   3.700   1.172   3.424  0.5267  0.7226 -1.3367
 8678SOL    HW237668   3.755   1.107   3.306 -0.2102  2.4509 -2.9851
 8679SOL     OW37669   4.264   4.077  10.039 -0.2152  0.1973 -0.3257
 8679SOL    HW137670   4.224   4.061   9.953 -2.2755  1.5361  0.4033
 8679SOL    HW237671   4.341   4.020  10.030  1.2441  2.4044 -1.9563
 8680SOL     OW37672   2.620   2.937   1.696  0.6249 -0.2323  0.6944
 8680SOL    HW137673   2.555   2.869   1.677 -1.1368  1.2483  1.4842
 8680SOL    HW237674   2.585   2.979   1.774 -1.1605 -2.1382  0.9398
 8681SOL     OW37675   0.422   2.410   5.828 -0.0328 -0.5426 -0.4586
 8681SOL    HW137676   0.401   2.422   5.735  0.1638  0.8585 -0.3156
 8681SOL    HW237677   0.475   2.330   5.819  1.6798  0.5757 -0.3596
 8682SOL     OW37678   1.659   1.265   4.608 -0.1078 -0.2292 -0.3373
 8682SOL    HW137679   1.604   1.306   4.542 -1.0007 -0.2506  0.3862
 8682SOL    HW237680   1.599   1.209   4.658  2.4136 -1.6484  1.0932
 8683SOL     OW37681   3.897   0.629   3.313  0.1389 -0.1073 -0.0327
 8683SOL    HW137682   3.947   0.711   3.311  2.5156 -1.5373  1.4099
 8683SOL    HW237683   3.814   0.657   3.272  1.2197  0.2029 -2.0300
 8684SOL     OW37684   3.707   1.159   0.716 -0.0121 -0.2764  0.0470
 8684SOL    HW137685   3.784   1.139   0.769 -0.5544 -2.7997 -0.1134
 8684SOL    HW237686   3.698   1.254   0.718  2.9220 -0.0436  2.7396
 8685SOL     OW37687   1.793   2.981   7.390 -0.3123 -0.1695 -0.4880
 8685SOL    HW137688   1.747   2.950   7.468 -2.2024 -0.7050 -1.8085
 8685SOL    HW237689   1.785   2.897   7.343 -0.2551 -1.2752  1.4600
 8686SOL     OW37690   0.042   2.165   1.929  0.2021  0.6397  0.2968
 8686SOL    HW137691   4.722   2.159   2.005  0.1922  1.0209  0.3181
 8686SOL    HW237692   0.040   2.261   1.927 -0.8351  0.6159  0.1818
 8687SOL     OW37693   4.331   4.107   1.418  0.2561 -0.8290  0.1030
 8687SOL    HW137694   4.315   4.150   1.502 -1.5668  0.6604 -1.0064
 8687SOL    HW237695   4.411   4.056   1.434 -0.4833 -1.5638  1.5544
 8688SOL     OW37696   2.450   4.090  10.479 -0.3192 -0.3013 -0.5918
 8688SOL    HW137697   2.370   4.132  10.450  0.0267 -1.3388 -3.0459
 8688SOL    HW237698   2.495   4.069  10.397 -0.2432  1.1393 -0.9249
 8689SOL     OW37699   2.617   1.621   7.403 -0.1594 -0.5405  0.5889
 8689SOL    HW137700   2.676   1.688   7.369 -0.5647  0.1668  1.2779
 8689SOL    HW237701   2.671   1.543   7.421  1.0603 -0.0277 -0.8382
 8690SOL     OW37702   2.632   0.660   4.444 -0.1829  0.0619 -1.1861
 8690SOL    HW137703   2.706   0.676   4.385  0.6467 -0.6338 -0.3338
 8690SOL    HW237704   2.582   0.593   4.397  1.1908 -1.0040 -1.1284
 8691SOL     OW37705   3.406   0.893  15.145 -0.0729 -0.0906  0.0282
 8691SOL    HW137706   3.328   0.927  15.102 -0.9061 -0.3659  1.2848
 8691SOL    HW237707   3.455   0.974  15.134  0.9589 -0.3487  2.6590
 8692SOL     OW37708   4.628   4.102   7.846  0.5683 -0.6607  0.8707
 8692SOL    HW137709   4.716   4.069   7.830  0.7673 -0.3005  1.2226
 8692SOL    HW237710   4.568   4.027   7.848 -2.0475  1.4043  0.6767
 8693SOL     OW37711   2.179   2.522   0.656  0.1472 -0.5718  0.3139
 8693SOL    HW137712   2.260   2.551   0.698 -0.2471  2.2476 -0.8236
 8693SOL    HW237713   2.135   2.467   0.721 -0.3778  1.2071  1.4506
 8694SOL     OW37714   0.236   4.338   9.255  0.4778 -0.6536 -0.0472
 8694SOL    HW137715   0.162   4.312   9.200 -0.7201  2.7700 -0.0526
 8694SOL    HW237716   0.307   4.318   9.195  0.0015 -1.0743 -0.4751
 8695SOL     OW37717   3.690   1.680  16.215 -0.1621  0.1823  0.1874
 8695SOL    HW137718   3.664   1.589  16.202  0.0490  0.5244 -2.5547
 8695SOL    HW237719   3.675   1.713  16.127  0.9799  0.5791  0.1328
 8696SOL     OW37720   0.989   0.085  12.687  0.3959  0.2950 -0.4629
 8696SOL    HW137721   0.994   0.180  12.677  3.6868  0.5365  3.9744
 8696SOL    HW237722   0.937   0.082  12.767 -0.0801  0.6395 -0.7564
 8697SOL     OW37723   3.064   4.536  11.995 -0.1308  0.5928 -0.6655
 8697SOL    HW137724   3.066   4.514  11.902  1.4846 -3.9110  0.4226
 8697SOL    HW237725   2.976   4.573  11.988  0.0855  0.8071 -2.2618
 8698SOL     OW37726   1.424   4.435   7.149 -0.2091  0.0195  0.3627
 8698SOL    HW137727   1.336   4.404   7.170 -0.4275 -1.3382 -2.5322
 8698SOL    HW237728   1.422   4.413   7.056 -2.6460  1.6589  0.0268
 8699SOL     OW37729   2.032   4.664  17.711  0.6132  0.3629 -0.4951
 8699SOL    HW137730   2.119   4.653  17.673  0.7330  0.7670 -0.3344
 8699SOL    HW237731   2.030   4.597   0.030  3.3287 -0.3197 -1.0795
 8700SOL     OW37732   2.180   2.580  12.774  0.1529  0.4713  0.1642
 8700SOL    HW137733   2.258   2.529  12.752 -1.0933 -0.8951 -1.0713
 8700SOL    HW237734   2.206   2.609  12.861  0.1848 -0.8008  0.5897
 8701SOL     OW37735   4.646   0.676  14.616 -0.7511 -0.1031 -0.1570
 8701SOL    HW137736   4.702   0.753  14.611 -0.8540 -0.1312 -1.7552
 8701SOL    HW237737   4.699   0.611  14.569  0.4918 -0.5898  1.9046
 8702SOL     OW37738   3.500   4.566   4.829  0.1095 -0.2654 -0.0888
 8702SOL    HW137739   3.508   4.471   4.819 -0.5412 -0.5887  2.5595
 8702SOL    HW237740   3.409   4.573   4.798  0.7584 -0.9957 -2.1630
 8703SOL     OW37741   1.115   3.231   6.770  0.3517  0.3705 -0.3143
 8703SOL    HW137742   1.072   3.212   6.687 -1.4626 -1.1446  0.9711
 8703SOL    HW237743   1.196   3.183   6.755 -1.4377 -2.5763 -0.5697
 8704SOL     OW37744   2.038   0.715   1.402 -0.4665 -0.3096  0.0392
 8704SOL    HW137745   2.059   0.809   1.403  0.5386 -0.5542  1.6708
 8704SOL    HW237746   2.013   0.696   1.492  0.3261 -0.2744  0.2645
 8705SOL     OW37747   3.203   1.674   7.267  1.0260  0.0754  0.1743
 8705SOL    HW137748   3.261   1.669   7.343 -0.8265  0.6996  1.6233
 8705SOL    HW237749   3.161   1.588   7.272 -0.7447  0.8117 -1.7753
 8706SOL     OW37750   1.254   0.157   8.652  0.3238 -0.2660 -0.1592
 8706SOL    HW137751   1.320   0.133   8.588  0.1226  0.6632 -0.7260
 8706SOL    HW237752   1.318   0.163   8.723  0.5878  0.6629 -0.4693
 8707SOL     OW37753   4.645   3.681   5.723  0.2037 -0.3598 -0.7653
 8707SOL    HW137754   4.735   3.699   5.696  0.4385 -0.2198  0.1113
 8707SOL    HW237755   4.608   3.694   5.635 -0.3636 -1.9163 -0.7514
 8708SOL     OW37756   3.429   2.024   6.846  0.2654 -0.1474 -0.4689
 8708SOL    HW137757   3.436   2.078   6.924  1.1920 -1.6945  0.5278
 8708SOL    HW237758   3.492   1.956   6.871  2.5243  1.5382 -1.6008
 8709SOL     OW37759   0.727   3.728  11.678  0.2000 -0.2387 -0.1307
 8709SOL    HW137760   0.736   3.814  11.718  0.0228  0.5165 -1.7014
 8709SOL    HW237761   0.759   3.760  11.594  0.1197  1.9566  0.6751
 8710SOL     OW37762   1.209   4.329   9.280  0.1138  0.1725  0.0700
 8710SOL    HW137763   1.225   4.274   9.204 -1.8510 -0.2190 -0.0590
 8710SOL    HW237764   1.123   4.355   9.247 -1.0544 -1.0841  2.1115
 8711SOL     OW37765   1.941   1.829   6.066  0.2189 -0.1856  0.0160
 8711SOL    HW137766   1.864   1.886   6.070  0.7268  0.6610 -2.8157
 8711SOL    HW237767   1.960   1.818   6.160 -0.0516 -0.9355 -0.0111
 8712SOL     OW37768   2.625   0.537   9.462  0.5587 -0.7095  0.3209
 8712SOL    HW137769   2.607   0.464   9.521  2.4719 -2.3435 -1.1134
 8712SOL    HW237770   2.537   0.557   9.430  0.0797 -0.9499  1.4870
 8713SOL     OW37771   4.573   0.130   2.336 -0.3338 -0.2083  0.0164
 8713SOL    HW137772   4.637   0.112   2.404 -1.7298  0.7192  1.5674
 8713SOL    HW237773   4.519   0.201   2.370  0.6594  0.6136 -0.1153
 8714SOL     OW37774   2.152   4.306   7.051 -0.0018  0.0124 -0.0958
 8714SOL    HW137775   2.157   4.231   7.110 -1.0118  1.0297  1.2712
 8714SOL    HW237776   2.239   4.302   7.011  0.1317  1.5922  0.0526
 8715SOL     OW37777   4.049   0.104  14.950 -0.1493 -0.0907 -0.4520
 8715SOL    HW137778   3.993   0.153  14.890 -2.5429 -2.1063  0.1122
 8715SOL    HW237779   3.981   0.052  14.992 -1.0083  1.7193  0.4103
 8716SOL     OW37780   0.783   1.377  11.973  0.9962  0.1574 -0.2751
 8716SOL    HW137781   0.865   1.414  12.007  0.7781  0.6748 -0.3161
 8716SOL    HW237782   0.824   1.303  11.929  0.2891  0.8867 -2.1237
 8717SOL     OW37783   2.509   4.110   0.994 -0.5854 -0.4412 -0.3872
 8717SOL    HW137784   2.603   4.096   0.984 -0.1875  1.0353  1.2639
 8717SOL    HW237785   2.496   4.199   0.963  2.2291  0.1855  0.1905
 8718SOL     OW37786   2.994   2.861   8.684 -0.2910 -0.0699  0.3944
 8718SOL    HW137787   3.034   2.909   8.757 -2.7026  0.9077  1.0576
 8718SOL    HW237788   2.925   2.919   8.654 -0.0103  0.1702  0.2163
 8719SOL     OW37789   0.238   0.624   4.298  0.0840  0.0146 -0.3884
 8719SOL    HW137790   0.192   0.699   4.335  0.5754 -0.1012  0.4726
 8719SOL    HW237791   0.184   0.608   4.221  0.2983 -2.9485  0.0735
 8720SOL     OW37792   3.935   3.978   3.215 -0.2442  0.3314 -0.5991
 8720SOL    HW137793   3.965   4.066   3.237  1.0540 -0.1714 -0.3762
 8720SOL    HW237794   3.955   3.934   3.298 -2.0331 -0.4885 -0.6077
 8721SOL     OW37795   2.535   3.054  10.629  0.3961 -0.2022  0.1975
 8721SOL    HW137796   2.476   3.049  10.704  0.1816  1.6241  0.1687
 8721SOL    HW237797   2.485   3.104  10.564  0.3105  0.2411  0.6027
 8722SOL     OW37798   1.281   2.278  10.068  0.0245 -0.3750  0.2938
 8722SOL    HW137799   1.274   2.348  10.132  0.5304  2.0556 -2.2954
 8722SOL    HW237800   1.374   2.259  10.085  0.3129 -0.9424 -1.9221
 8723SOL     OW37801   1.585   3.801   7.604  0.0469 -0.0657  0.2281
 8723SOL    HW137802   1.618   3.712   7.602  1.5380  0.5108 -0.9305
 8723SOL    HW237803   1.492   3.796   7.625 -0.1529  1.5925 -0.2495
 8724SOL     OW37804   0.699   1.988   1.750 -0.3614 -0.1576 -0.1824
 8724SOL    HW137805   0.616   1.962   1.710  0.8371  2.1004 -4.1875
 8724SOL    HW237806   0.743   2.024   1.673  1.0367 -0.1742  0.6018
 8725SOL     OW37807   4.261   2.323   2.591  0.3125  0.5801 -0.0025
 8725SOL    HW137808   4.204   2.365   2.526 -1.1775 -0.5455  0.5748
 8725SOL    HW237809   4.204   2.248   2.606  2.6960 -0.8741  1.7118
 8726SOL     OW37810   0.578   1.841   5.438 -0.1390  0.0246  0.1265
 8726SOL    HW137811   0.546   1.875   5.354 -0.7079  2.6635  1.4046
 8726SOL    HW237812   0.642   1.774   5.417  0.4919  0.8248 -0.4986
 8727SOL     OW37813   3.053   4.735   0.435  0.1939  0.2407  0.2290
 8727SOL    HW137814   3.035   4.664   0.496  1.5633 -0.5869 -0.3340
 8727SOL    HW237815   3.149   4.734   0.430  0.2745 -1.7857  2.3992
 8728SOL     OW37816   2.734   4.473   0.446 -0.1841  0.3193 -0.5172
 8728SOL    HW137817   2.769   4.414   0.379  2.2441 -0.0556  1.0541
 8728SOL    HW237818   2.807   4.469   0.508 -1.3159 -1.3729  0.7217
 8729SOL     OW37819   0.317   2.230   8.618 -0.2320 -0.2681 -0.3092
 8729SOL    HW137820   0.369   2.242   8.539  0.6543  0.1892  0.3458
 8729SOL    HW237821   0.230   2.256   8.587  0.3149  2.3465  0.3112
 8730SOL     OW37822   1.703   0.076   9.471 -0.3254 -0.4572  0.2834
 8730SOL    HW137823   1.733   4.723   9.470  0.0644 -0.3151 -0.4835
 8730SOL    HW237824   1.610   0.071   9.451  0.0301  0.4882 -1.5580
 8731SOL     OW37825   0.727   1.516  16.880  0.2534  0.2705  0.2804
 8731SOL    HW137826   0.745   1.444  16.819  0.8102  1.6381 -1.1643
 8731SOL    HW237827   0.634   1.533  16.871 -0.0018 -1.7455 -1.0373
 8732SOL     OW37828   0.225   0.650   7.583 -0.2723  0.1642  0.0169
 8732SOL    HW137829   0.245   0.737   7.548 -1.0663  0.3637  0.0526
 8732SOL    HW237830   0.130   0.646   7.568 -0.1287  1.9469 -1.3854
 8733SOL     OW37831   3.178   0.933  16.025  0.8386  0.0886  0.6316
 8733SOL    HW137832   3.257   0.982  16.003  0.2945  0.5807 -0.2271
 8733SOL    HW237833   3.156   0.888  15.943 -1.2580  0.0584  1.2107
 8734SOL     OW37834   0.565   3.386  11.594  0.0977  0.4874 -0.0419
 8734SOL    HW137835   0.488   3.443  11.599 -1.0209 -0.9973 -0.2737
 8734SOL    HW237836   0.612   3.425  11.667 -1.6095  1.6000  0.4749
 8735SOL     OW37837   3.565   3.974  12.549  0.1471  0.1060  0.2083
 8735SOL    HW137838   3.533   4.054  12.506 -1.8689 -0.8255  0.0155
 8735SOL    HW237839   3.660   3.980  12.534 -0.0804  1.1482 -0.8589
 8736SOL     OW37840   2.849   3.712  12.250 -0.0636  0.1360 -0.1407
 8736SOL    HW137841   2.796   3.755  12.317 -0.1351  1.1355 -0.8348
 8736SOL    HW237842   2.824   3.759  12.171  3.3556  1.4620 -0.4073
 8737SOL     OW37843   0.900   1.007   7.188  0.3345  0.8364 -0.0113
 8737SOL    HW137844   0.993   0.998   7.168 -0.3877 -0.0736 -2.9140
 8737SOL    HW237845   0.895   0.968   7.275  1.5789 -0.8816 -0.7060
 8738SOL     OW37846   3.160   2.046   2.841 -0.6726 -0.3582  0.6778
 8738SOL    HW137847   3.203   1.987   2.779 -0.3717  0.2512  0.3086
 8738SOL    HW237848   3.211   2.019   2.918 -1.8990  0.2111  1.6815
 8739SOL     OW37849   3.992   4.224   4.792  0.0282  0.6371  0.1832
 8739SOL    HW137850   3.983   4.168   4.869 -0.5711 -2.1483 -1.8884
 8739SOL    HW237851   3.944   4.303   4.816 -0.2847  0.8076 -0.9838
 8740SOL     OW37852   2.600   3.071   2.577  0.1619  0.2281 -0.0155
 8740SOL    HW137853   2.616   3.116   2.660  2.2612 -0.7872  0.1290
 8740SOL    HW237854   2.686   3.052   2.541 -0.6178 -0.8663 -1.3401
 8741SOL     OW37855   1.135   1.857   6.891  0.3306 -0.6578 -0.3747
 8741SOL    HW137856   1.203   1.790   6.899 -0.0074 -0.7988  1.1518
 8741SOL    HW237857   1.055   1.810   6.866  0.0200 -0.1907 -0.2723
 8742SOL     OW37858   1.040   0.886   4.549  0.0399  0.3824  0.0957
 8742SOL    HW137859   1.087   0.963   4.518  0.2809 -0.1218 -0.7741
 8742SOL    HW237860   1.009   0.921   4.632 -3.8126 -2.3263 -0.2107
 8743SOL     OW37861   2.171   0.212   9.955  0.1394  0.2527 -0.0279
 8743SOL    HW137862   2.108   0.236  10.023 -0.8830  1.0626 -1.2652
 8743SOL    HW237863   2.160   0.117   9.952  1.4679  0.1058 -0.1236
 8744SOL     OW37864   4.420   1.620   4.940  0.2474  0.2995  0.5108
 8744SOL    HW137865   4.413   1.535   4.985 -4.0171 -0.2874 -1.2219
 8744SOL    HW237866   4.333   1.620   4.900  0.9814 -0.0410 -1.0589
 8745SOL     OW37867   2.656   3.757   7.680 -0.5668 -0.4115 -0.2168
 8745SOL    HW137868   2.719   3.739   7.610  0.4810 -1.3036  0.9534
 8745SOL    HW237869   2.685   3.713   7.760 -0.7560 -2.9226 -1.5413
 8746SOL     OW37870   1.821   0.588   5.970 -0.7605  0.0120 -0.1115
 8746SOL    HW137871   1.776   0.504   5.961 -0.4829 -0.0176 -1.2337
 8746SOL    HW237872   1.858   0.577   6.057 -1.0940  0.7375  0.1249
 8747SOL     OW37873   1.329   1.611   5.312 -0.2521  0.0305  0.1396
 8747SOL    HW137874   1.337   1.530   5.263 -0.5660  0.4416 -0.5856
 8747SOL    HW237875   1.377   1.590   5.393 -1.1092 -0.4569  0.5268
 8748SOL     OW37876   1.044   4.129   6.183 -0.2203  0.1021  0.3508
 8748SOL    HW137877   0.969   4.154   6.129  1.0872 -0.7266 -1.8293
 8748SOL    HW237878   1.023   4.040   6.209 -3.6261  0.5900 -0.8375
 8749SOL     OW37879   2.946   1.946   3.729 -0.2145  0.3090 -0.3096
 8749SOL    HW137880   3.041   1.942   3.720 -0.2458  0.5286 -0.7463
 8749SOL    HW237881   2.925   1.970   3.638 -0.4290 -0.1301 -0.3747
 8750SOL     OW37882   4.121   4.434   5.122  0.1485 -0.7386 -0.3830
 8750SOL    HW137883   4.100   4.345   5.150  1.7395 -0.1847  2.5554
 8750SOL    HW237884   4.038   4.482   5.125 -0.8304 -2.4466 -0.3020
 8751SOL     OW37885   2.725   3.853   1.929 -0.1908  0.0448 -0.0921
 8751SOL    HW137886   2.700   3.761   1.939 -0.5535 -0.0931 -2.2911
 8751SOL    HW237887   2.636   3.881   1.951 -0.7158 -0.8749 -1.0241
 8752SOL     OW37888   3.778   4.687   4.714 -0.2905  0.1604 -0.2587
 8752SOL    HW137889   3.806   4.663   4.625 -2.2932  0.7131 -1.0487
 8752SOL    HW237890   3.702   4.631   4.727 -0.5916  0.1506 -1.9810
 8753SOL     OW37891   3.127   4.352   4.009  0.1197 -0.5743  0.4179
 8753SOL    HW137892   3.046   4.402   4.001  1.5049  1.4561 -0.8911
 8753SOL    HW237893   3.088   4.266   4.023 -0.0308 -0.5692  0.0356
 8754SOL     OW37894   4.374   0.680   2.685  0.1608 -0.0848  0.2547
 8754SOL    HW137895   4.342   0.736   2.614  0.8951  1.2431  0.9676
 8754SOL    HW237896   4.435   0.636   2.626 -0.1062  0.6202 -0.5572
 8755SOL     OW37897   2.505   0.195   0.732 -0.1252  0.1924 -0.2349
 8755SOL    HW137898   2.570   0.195   0.662  0.3209  2.9138  0.1987
 8755SOL    HW237899   2.535   0.113   0.773  0.8715  0.4965 -0.3612
 8756SOL     OW37900   3.620   3.019   3.542 -0.7527  0.1078 -0.2058
 8756SOL    HW137901   3.592   2.943   3.594 -0.7853 -0.8399 -1.6068
 8756SOL    HW237902   3.709   3.036   3.571 -1.1023 -0.6333  1.3162
 8757SOL     OW37903   3.114   0.387   7.172  0.7084  0.3625 -0.3072
 8757SOL    HW137904   3.124   0.295   7.198 -1.2701  0.0576 -0.6384
 8757SOL    HW237905   3.110   0.374   7.077  0.0863 -0.0502 -0.2296
 8758SOL     OW37906   3.813   3.203   0.495  0.4647  0.7898  0.1012
 8758SOL    HW137907   3.867   3.124   0.507 -0.4256  0.7331  3.8670
 8758SOL    HW237908   3.827   3.247   0.578 -2.8933  0.1382  1.0199
 8759SOL     OW37909   2.337   4.570   4.352 -0.4295  0.6946  0.0256
 8759SOL    HW137910   2.334   4.510   4.426 -4.5690  1.5725  0.5742
 8759SOL    HW237911   2.297   4.506   4.293  1.7490  1.3350 -2.1501
 8760SOL     OW37912   4.093   0.300   4.710 -0.1307 -0.0545  0.1458
 8760SOL    HW137913   4.086   0.288   4.804  0.7128 -1.3135  0.0512
 8760SOL    HW237914   4.184   0.327   4.701  0.2818 -1.7745 -0.9487
 8761SOL     OW37915   4.427   3.372   3.336 -0.1983  0.1829  0.3881
 8761SOL    HW137916   4.453   3.343   3.249 -2.4031 -1.2834  0.2134
 8761SOL    HW237917   4.513   3.379   3.377 -0.3134 -0.9755  0.8165
 8762SOL     OW37918   3.615   0.053   5.993 -0.4890  0.4235  0.3968
 8762SOL    HW137919   3.565   0.110   5.934 -0.0925 -0.8872 -1.1976
 8762SOL    HW237920   3.691   0.108   6.013  0.8708 -1.1740 -0.4045
 8763SOL     OW37921   4.494   3.888   1.368 -0.6121  0.0460 -0.2355
 8763SOL    HW137922   4.449   3.804   1.369  0.6491 -0.6428 -1.4766
 8763SOL    HW237923   4.585   3.857   1.369 -0.6662 -0.1310 -0.9517
 8764SOL     OW37924   4.127   0.469  11.834  0.1871  0.1152  0.4759
 8764SOL    HW137925   4.155   0.558  11.854 -1.1165  0.5171  0.5642
 8764SOL    HW237926   4.108   0.451  11.927 -1.8288  0.3854  0.1312
 8765SOL     OW37927   1.437   1.765   9.208 -0.3234  0.1455 -0.2685
 8765SOL    HW137928   1.343   1.770   9.225 -0.5553  1.4139 -1.9791
 8765SOL    HW237929   1.451   1.672   9.188  1.7213  0.0305  1.7270
 8766SOL     OW37930   2.872   3.915  10.799 -0.1809  0.5338  0.3658
 8766SOL    HW137931   2.815   3.986  10.828 -2.1639 -0.6816 -0.5291
 8766SOL    HW237932   2.880   3.880  10.887 -0.3638 -0.9159 -0.1966
 8767SOL     OW37933   2.441   4.213   6.495  0.5456  0.0199 -0.7260
 8767SOL    HW137934   2.424   4.138   6.552  0.5630  1.2250  0.8505
 8767SOL    HW237935   2.364   4.221   6.439  1.0384  0.8982 -1.2794
 8768SOL     OW37936   2.278   0.365   2.512 -0.1225  0.1012  0.4805
 8768SOL    HW137937   2.186   0.386   2.528 -0.8518 -2.8518  0.1561
 8768SOL    HW237938   2.293   0.291   2.571  0.6716  1.0517  1.4631
 8769SOL     OW37939   3.498   2.101  12.242  0.1907 -0.0611 -0.3520
 8769SOL    HW137940   3.482   2.014  12.205  0.6672 -0.7318  1.0079
 8769SOL    HW237941   3.421   2.116  12.298  0.4803  0.1660 -0.0141
 8770SOL     OW37942   0.328   4.732   5.186 -0.3051 -0.0990  0.4413
 8770SOL    HW137943   0.378   0.049   5.246  1.4095 -3.8226  2.4040
 8770SOL    HW237944   0.317   0.060   5.117 -0.9258 -1.7392 -1.0102
 8771SOL     OW37945   3.365   0.031   7.943  0.7961  0.0868 -0.1440
 8771SOL    HW137946   3.282   0.048   7.988  1.2587 -0.9933  1.1051
 8771SOL    HW237947   3.340   4.703   7.878  1.2216  0.5386 -0.7619
 8772SOL     OW37948   4.074   0.993  12.010 -0.2625  0.4621  0.1413
 8772SOL    HW137949   4.090   1.055  12.081 -2.3190  1.0880  0.0496
 8772SOL    HW237950   3.978   0.986  12.007 -0.3825  1.6549  1.2665
 8773SOL     OW37951   1.969   2.006   7.953  0.3786 -0.2735 -0.9125
 8773SOL    HW137952   1.996   2.010   7.861 -0.2535 -1.0016 -1.1268
 8773SOL    HW237953   2.027   1.935   7.980 -0.8785  0.0435  2.6334
 8774SOL     OW37954   0.954   4.020  16.365  0.1341  0.0180 -0.0162
 8774SOL    HW137955   0.907   3.956  16.311  0.4006  1.6265 -2.1699
 8774SOL    HW237956   0.910   4.021  16.450  0.4746  0.8064  0.1563
 8775SOL     OW37957   1.273   3.810   5.082  0.5473  0.0854 -0.7326
 8775SOL    HW137958   1.335   3.837   5.014  0.2465 -0.0917 -1.0797
 8775SOL    HW237959   1.302   3.843   5.167 -0.7536 -1.3281  0.2696
 8776SOL     OW37960   3.468   4.009  16.750 -0.2252  0.2466 -0.2886
 8776SOL    HW137961   3.390   4.046  16.709  1.1075  0.6094 -2.4929
 8776SOL    HW237962   3.474   3.921  16.713 -0.9799  0.0062  0.1545
 8777SOL     OW37963   2.989   3.344   6.110 -0.1938 -0.3815  0.6215
 8777SOL    HW137964   2.951   3.258   6.127  0.8878 -0.5091  2.3851
 8777SOL    HW237965   3.068   3.333   6.163  0.8305 -3.8478 -1.6098
 8778SOL     OW37966   1.998   4.056   0.477  0.2212  0.7261 -0.5822
 8778SOL    HW137967   1.940   3.981   0.466 -0.7542  1.1640  1.5312
 8778SOL    HW237968   1.928   4.120   0.491 -0.5339  0.0502 -1.3356
 8779SOL     OW37969   3.045   2.675   5.396  0.6261  0.2136 -0.4851
 8779SOL    HW137970   3.017   2.634   5.314 -2.3708 -1.3385  1.3064
 8779SOL    HW237971   3.091   2.601   5.436 -1.4861 -1.1775 -0.6028
 8780SOL     OW37972   4.372   0.580   3.342  0.3029 -0.5483 -0.1190
 8780SOL    HW137973   4.283   0.551   3.319 -0.6337  2.1214  0.1405
 8780SOL    HW237974   4.426   0.501   3.337  1.0901  0.0270 -0.6038
 8781SOL     OW37975   3.394   4.503  11.951  0.5610  0.4346  0.0375
 8781SOL    HW137976   3.319   4.562  11.951  0.7425  0.6797  2.9698
 8781SOL    HW237977   3.361   4.414  11.964  1.0960  0.2967  0.4573
 8782SOL     OW37978   2.244   2.654   7.856 -0.4667 -0.0935  0.1634
 8782SOL    HW137979   2.263   2.616   7.941  0.2868 -1.9081 -0.8238
 8782SOL    HW237980   2.328   2.633   7.815 -1.0132 -0.2330 -0.9108
 8783SOL     OW37981   0.957   3.845   2.891  0.4208  0.4898 -0.4040
 8783SOL    HW137982   0.887   3.906   2.911  0.7083  0.5600  0.3603
 8783SOL    HW237983   0.936   3.802   2.808  0.6530  0.4272 -0.4320
 8784SOL     OW37984   1.765   2.755   7.248  0.2476  0.4755  0.4563
 8784SOL    HW137985   1.672   2.738   7.236  0.7831 -2.1705  0.1214
 8784SOL    HW237986   1.809   2.716   7.173  2.6721  1.8547  1.1301
 8785SOL     OW37987   4.076   1.888   7.841  0.4864  0.4656 -0.2938
 8785SOL    HW137988   3.980   1.878   7.839  0.5121  0.0964  0.2845
 8785SOL    HW237989   4.091   1.932   7.925 -1.5926  2.3514 -0.9039
 8786SOL     OW37990   3.546   2.109   3.890  0.1530 -0.5110 -0.8635
 8786SOL    HW137991   3.598   2.042   3.847  3.8119  1.6383  0.1503
 8786SOL    HW237992   3.503   2.148   3.814 -0.3546 -3.2909 -1.9624
 8787SOL     OW37993   0.781   2.902   8.664  0.4310 -0.2007 -0.1822
 8787SOL    HW137994   0.760   2.992   8.639  0.2848 -0.1734  0.0323
 8787SOL    HW237995   0.858   2.874   8.615  0.2551 -1.0501  0.0140
 8788SOL     OW37996   2.750   4.261   2.204  0.0524 -0.1235  0.0790
 8788SOL    HW137997   2.673   4.268   2.148 -0.5385 -3.0750  0.5318
 8788SOL    HW237998   2.763   4.167   2.193 -0.6681 -0.3978  1.5309
 8789SOL     OW37999   0.632   1.512   4.016  0.5386  0.0713 -0.0461
 8789SOL    HW138000   0.725   1.525   4.032  0.1511  2.1607  0.6021
 8789SOL    HW238001   0.584   1.584   4.058  1.0073  0.3818 -0.0373
 8790SOL     OW38002   1.981   1.091   4.243 -0.0477  0.4928 -0.5143
 8790SOL    HW138003   1.954   1.124   4.328  0.3408  1.4419 -0.7600
 8790SOL    HW238004   2.076   1.095   4.238 -0.0344  0.2587 -0.4516
 8791SOL     OW38005   2.546   0.630  12.655  0.3746 -0.5296  0.4257
 8791SOL    HW138006   2.611   0.579  12.606 -0.3825 -1.5034  0.4332
 8791SOL    HW238007   2.548   0.577  12.735  0.1339 -1.9073 -0.4684
 8792SOL     OW38008   1.985   1.412  12.048 -0.3311  0.2184 -0.0618
 8792SOL    HW138009   1.961   1.320  12.056 -0.0776  0.0030 -1.8920
 8792SOL    HW238010   2.077   1.399  12.026 -0.4207 -1.0884  0.3314
 8793SOL     OW38011   2.364   3.768   7.638 -0.1553 -0.2656 -0.0956
 8793SOL    HW138012   2.452   3.741   7.665  0.1342  0.1269 -0.6597
 8793SOL    HW238013   2.377   3.853   7.596 -1.4003 -1.4840 -2.9247
 8794SOL     OW38014   1.379   0.826  12.518  0.3090 -0.0708 -0.1729
 8794SOL    HW138015   1.384   0.922  12.522 -1.3792  0.0658 -1.6372
 8794SOL    HW238016   1.297   0.810  12.564  0.4555  1.9162  0.7974
 8795SOL     OW38017   3.512   4.645  15.091  0.1577  0.6022  0.0639
 8795SOL    HW138018   3.417   4.643  15.093  0.2714 -0.9274  5.0352
 8795SOL    HW238019   3.534   4.553  15.110  0.6412  0.9033  0.9924
 8796SOL     OW38020   4.192   1.158  11.471 -0.7091 -0.0132  0.0588
 8796SOL    HW138021   4.131   1.217  11.515 -0.7518  0.9610 -1.3345
 8796SOL    HW238022   4.264   1.215  11.446  0.7052 -1.6134  0.4123
 8797SOL     OW38023   3.088   0.135  13.114 -0.1585  0.0930  0.1995
 8797SOL    HW138024   3.066   0.075  13.185 -1.1099  0.7487  0.4680
 8797SOL    HW238025   3.064   0.085  13.036  0.4902 -0.1632  0.1622
 8798SOL     OW38026   4.089   2.827   1.907 -0.0550  0.6951  0.3086
 8798SOL    HW138027   4.015   2.785   1.950 -0.5598 -0.2649 -1.4817
 8798SOL    HW238028   4.090   2.772   1.829 -0.4521 -0.0259  0.8105
 8799SOL     OW38029   0.354   0.808  15.289 -0.6000 -0.0924 -0.2304
 8799SOL    HW138030   0.361   0.901  15.268 -0.5443  0.2284  1.2354
 8799SOL    HW238031   0.322   0.776  15.204 -2.7547 -1.5279  1.1305
 8800SOL     OW38032   0.866   2.042   3.100  0.3325  0.2587 -0.3403
 8800SOL    HW138033   0.914   2.054   3.182 -0.8594  1.4673  0.1787
 8800SOL    HW238034   0.903   1.960   3.069  0.9555  0.6561 -0.6404
 8801SOL     OW38035   0.316   2.163   2.048  0.1692  0.6797  0.4339
 8801SOL    HW138036   0.306   2.240   2.104 -1.6737  0.8651 -0.1655
 8801SOL    HW238037   0.228   2.158   2.011 -0.9808  0.4694  3.2397
 8802SOL     OW38038   3.768   0.510   5.550  0.4703 -0.0588 -0.6321
 8802SOL    HW138039   3.680   0.547   5.547  0.6845  0.3761 -1.7503
 8802SOL    HW238040   3.738   0.420   5.556 -1.6975  0.7991  1.2096
 8803SOL     OW38041   1.538   4.238   3.886 -0.1006 -0.2442 -0.2490
 8803SOL    HW138042   1.565   4.182   3.959  0.4345 -0.1595 -0.3820
 8803SOL    HW238043   1.570   4.320   3.924 -0.5391  0.1189 -0.6706
 8804SOL     OW38044   3.971   3.911  16.554  0.0398  1.1571 -0.4300
 8804SOL    HW138045   4.048   3.941  16.506  0.1736 -0.6623 -1.3547
 8804SOL    HW238046   4.017   3.847  16.608 -0.7046  0.0674 -1.1027
 8805SOL     OW38047   4.196   1.699   7.677 -0.1968  0.1499 -0.2226
 8805SOL    HW138048   4.175   1.762   7.746  1.4815  0.3567  0.1049
 8805SOL    HW238049   4.242   1.630   7.725  0.6452 -0.2240 -1.5685
 8806SOL     OW38050   2.341   1.653   0.680  0.7559  0.4517  0.4619
 8806SOL    HW138051   2.328   1.723   0.615 -0.5300 -0.5397 -0.3582
 8806SOL    HW238052   2.281   1.584   0.651  2.7498 -1.0299 -0.1473
 8807SOL     OW38053   1.779   2.146   8.764 -0.3635 -0.2487  0.3823
 8807SOL    HW138054   1.825   2.229   8.779  0.9447 -0.5703 -1.7723
 8807SOL    HW238055   1.688   2.173   8.774 -1.0214 -1.4373 -2.2293
 8808SOL     OW38056   3.554   3.853   0.614  0.2247  0.3886 -0.1571
 8808SOL    HW138057   3.460   3.869   0.603  0.2850  1.2449  0.5964
 8808SOL    HW238058   3.557   3.758   0.600  0.6749  0.5249 -0.9810
 8809SOL     OW38059   4.043   3.655   0.183 -0.4820  0.1307 -0.7924
 8809SOL    HW138060   4.088   3.600   0.247 -2.6298 -1.8288 -0.9505
 8809SOL    HW238061   3.983   3.704   0.240 -1.7830 -1.5281 -0.7374
 8810SOL     OW38062   2.212   0.796   0.249  0.1849  0.2476  0.3663
 8810SOL    HW138063   2.286   0.840   0.290 -1.9809  1.3737  3.1060
 8810SOL    HW238064   2.167   0.761   0.326 -0.2288 -0.0150  0.0060
 8811SOL     OW38065   0.740   0.799   2.978  0.4997  0.0628  0.0653
 8811SOL    HW138066   0.668   0.862   2.972 -0.6861 -1.1673  1.3549
 8811SOL    HW238067   0.693   0.722   2.947  1.9582 -1.1898  0.9732
 8812SOL     OW38068   4.332   4.162   5.813 -0.0202 -0.0080  0.3402
 8812SOL    HW138069   4.337   4.246   5.767  1.0078 -0.0011  0.4632
 8812SOL    HW238070   4.283   4.187   5.891 -0.9043 -0.0417 -0.2049
 8813SOL     OW38071   1.946   3.767  11.464 -0.1629  0.1765 -0.4895
 8813SOL    HW138072   1.894   3.807  11.394 -0.8371 -2.2028 -1.3582
 8813SOL    HW238073   1.902   3.682  11.472 -1.1487  0.6589 -0.6577
 8814SOL     OW38074   2.853   2.226  15.912  0.4804 -0.9755 -0.4257
 8814SOL    HW138075   2.890   2.268  15.989  2.9554  0.2928 -2.2950
 8814SOL    HW238076   2.760   2.243  15.920  0.3451 -1.0403 -1.7367
 8815SOL     OW38077   0.176   4.417  11.706  0.1203  0.6267  0.1050
 8815SOL    HW138078   0.225   4.361  11.767  0.6723  0.0467 -0.8653
 8815SOL    HW238079   0.192   4.509  11.727  0.7569  0.9095 -1.6502
 8816SOL     OW38080   1.837   3.303   6.727  0.2437 -0.7793 -0.4384
 8816SOL    HW138081   1.786   3.315   6.647 -0.9464  1.7417  0.7145
 8816SOL    HW238082   1.873   3.391   6.726 -1.5486 -0.0397 -0.5643
 8817SOL     OW38083   0.526   1.316   2.622  0.1139 -0.2813  0.3700
 8817SOL    HW138084   0.562   1.403   2.608 -0.7958 -0.1708 -1.2936
 8817SOL    HW238085   0.436   1.343   2.640  0.0453 -1.4982  1.8392
 8818SOL     OW38086   4.611   2.904   5.962  0.8463  0.4331  0.2834
 8818SOL    HW138087   4.617   2.866   5.875 -1.5918  0.5477  0.0758
 8818SOL    HW238088   4.694   2.882   6.006  1.4700 -1.7617 -1.9890
 8819SOL     OW38089   1.402   3.740   0.924 -0.3385  0.1303 -0.2311
 8819SOL    HW138090   1.365   3.747   1.012  0.7151 -3.9810  0.5120
 8819SOL    HW238091   1.358   3.810   0.876 -2.7271 -1.4689 -0.4055
 8820SOL     OW38092   1.479   3.048   4.183  0.4680  0.2205  0.4993
 8820SOL    HW138093   1.480   3.016   4.093 -0.0829  2.4093 -0.2763
 8820SOL    HW238094   1.563   3.094   4.188  1.3321 -1.4271  1.1897
 8821SOL     OW38095   2.320   0.663   3.073  1.1822  0.5739 -0.0828
 8821SOL    HW138096   2.355   0.708   2.997 -2.1243  1.3895 -1.1398
 8821SOL    HW238097   2.375   0.585   3.077 -0.4993 -0.6401 -0.5550
 8822SOL     OW38098   1.791   0.951   4.932 -0.3718 -0.3731 -0.7250
 8822SOL    HW138099   1.777   0.960   5.026  0.8542  1.9863 -0.7607
 8822SOL    HW238100   1.746   0.868   4.916 -0.6375 -0.2424 -0.6431
 8823SOL     OW38101   0.359   0.586   3.829  0.0297 -0.1465  0.2990
 8823SOL    HW138102   0.402   0.671   3.824 -2.8079  1.1949 -1.6777
 8823SOL    HW238103   0.323   0.580   3.740 -0.9008  0.1908  0.6485
 8824SOL     OW38104   0.041   0.540   8.679  0.3399  0.3224  0.9454
 8824SOL    HW138105   0.055   0.580   8.765  1.3807  1.8032  0.0895
 8824SOL    HW238106   0.128   0.554   8.642  0.6791  0.7378  1.9126
 8825SOL     OW38107   0.857   0.247   8.815 -0.0596  0.1499 -0.5599
 8825SOL    HW138108   0.802   0.309   8.767  0.3941 -0.1591 -1.4758
 8825SOL    HW238109   0.931   0.303   8.838 -0.3442  0.3825 -0.2002
 8826SOL     OW38110   3.325   3.645   4.782 -0.1366  0.0591  0.4332
 8826SOL    HW138111   3.351   3.654   4.874  0.5580 -0.8668  0.3237
 8826SOL    HW238112   3.236   3.672   4.803  0.7042  1.1266  2.7068
 8827SOL     OW38113   0.131   4.009   6.731  0.5776  0.6733  0.0026
 8827SOL    HW138114   0.215   3.985   6.772 -0.4708 -1.1992  1.0739
 8827SOL    HW238115   0.130   4.103   6.716  0.4249  0.9438  1.7333
 8828SOL     OW38116   3.504   0.508   6.643 -0.2624  0.2626  0.1921
 8828SOL    HW138117   3.430   0.513   6.704 -0.7330 -1.1835 -0.2686
 8828SOL    HW238118   3.522   0.418   6.670 -0.8695  0.2016  0.4079
 8829SOL     OW38119   3.964   2.781   9.983 -0.2249 -0.2118  0.0645
 8829SOL    HW138120   3.892   2.781  10.046  0.3079  1.1670  0.6560
 8829SOL    HW238121   4.030   2.841  10.018  0.6415  0.0037 -1.9151
 8830SOL     OW38122   1.045   4.355  15.767  0.0549  0.3623 -0.1090
 8830SOL    HW138123   0.998   4.273  15.752  2.3009 -0.4858 -2.4900
 8830SOL    HW238124   0.978   4.394  15.824 -0.1026  1.6994 -1.2031
 8831SOL     OW38125   2.313   1.412   6.243  0.2832 -0.5241  0.8405
 8831SOL    HW138126   2.349   1.392   6.329 -1.1671 -1.4761  1.2199
 8831SOL    HW238127   2.259   1.335   6.226 -0.2297  0.2941 -1.2908
 8832SOL     OW38128   3.011   3.900   4.702  0.3292  0.0754  0.3795
 8832SOL    HW138129   3.070   3.899   4.627  0.8362 -2.5208  0.7970
 8832SOL    HW238130   3.074   3.890   4.773  0.0002  1.9943  0.9377
 8833SOL     OW38131   1.470   3.467   5.541 -0.3522  0.0763 -0.0791
 8833SOL    HW138132   1.440   3.422   5.620 -2.4183  0.5148 -0.6248
 8833SOL    HW238133   1.457   3.390   5.485 -2.4145  0.6436 -0.3909
 8834SOL     OW38134   3.965   1.366   6.357 -0.5730 -0.3396 -1.0374
 8834SOL    HW138135   3.876   1.349   6.387 -0.2477  1.1359  0.7124
 8834SOL    HW238136   4.007   1.288   6.392  1.0533  1.1366  0.2863
 8835SOL     OW38137   0.763   0.645  10.762  0.4414  1.0528  0.4269
 8835SOL    HW138138   0.792   0.737  10.761 -0.8617  1.4668  0.5851
 8835SOL    HW238139   0.742   0.637  10.855  0.7580 -0.7398  0.3400
 8836SOL     OW38140   1.810   1.382   2.813 -0.3409 -0.1699 -0.1267
 8836SOL    HW138141   1.873   1.310   2.812 -0.0290  0.0841  2.1244
 8836SOL    HW238142   1.733   1.327   2.799 -2.1412  2.2926  0.0634
 8837SOL     OW38143   0.447   1.621  13.224 -0.2606  0.4696  0.4215
 8837SOL    HW138144   0.376   1.606  13.287 -0.4089  2.5824  0.7761
 8837SOL    HW238145   0.462   1.715  13.234  0.4814  0.5049 -1.0278
 8838SOL     OW38146   1.788   3.013  13.807 -0.3339  0.4006 -0.2984
 8838SOL    HW138147   1.741   3.082  13.761  0.1513  0.5918 -0.5093
 8838SOL    HW238148   1.830   2.975  13.730  0.0659 -1.7329  0.9468
 8839SOL     OW38149   1.016   1.338   0.484  0.1440  0.2028  1.0405
 8839SOL    HW138150   1.111   1.341   0.485  0.1523 -0.1893  1.1532
 8839SOL    HW238151   0.993   1.395   0.558  0.2002 -0.2130  1.3778
 8840SOL     OW38152   1.350   0.038   4.663 -0.0127 -0.1444 -0.7432
 8840SOL    HW138153   1.311   0.001   4.583  0.2215  1.0384 -1.4046
 8840SOL    HW238154   1.278   0.020   4.723 -0.2340  0.1416 -0.9213
 8841SOL     OW38155   3.753   0.182   0.682 -0.1008 -0.1745  0.1972
 8841SOL    HW138156   3.816   0.255   0.686  0.2120 -0.5395  2.2730
 8841SOL    HW238157   3.671   0.226   0.663 -0.5221 -0.9470  0.2408
 8842SOL     OW38158   0.777   4.488   2.922  0.0861  0.4501 -0.1981
 8842SOL    HW138159   0.749   4.512   2.833 -2.8602  0.7128  0.7956
 8842SOL    HW238160   0.868   4.475   2.894 -0.2725 -1.8447 -0.3313
 8843SOL     OW38161   4.055   4.487   6.834 -0.2534  0.2973 -0.4971
 8843SOL    HW138162   4.092   4.475   6.922  0.5947  2.2414 -0.5956
 8843SOL    HW238163   4.131   4.488   6.776  0.1084 -2.4641 -0.0616
 8844SOL     OW38164   3.681   3.228   7.839 -0.5741 -0.2615 -0.0933
 8844SOL    HW138165   3.741   3.247   7.766 -1.4407 -0.0999 -0.7626
 8844SOL    HW238166   3.663   3.135   7.822 -2.1658  0.1577 -0.6462
 8845SOL     OW38167   0.785   1.693   2.094  0.0575  0.3801  0.5921
 8845SOL    HW138168   0.712   1.688   2.156  2.6243 -1.1069  3.4438
 8845SOL    HW238169   0.861   1.669   2.146  0.9818  0.4806 -0.7236
 8846SOL     OW38170   0.064   1.656  16.162 -0.0839 -0.1224 -0.4188
 8846SOL    HW138171   0.003   1.705  16.217  0.3177 -1.1420  0.9543
 8846SOL    HW238172   0.022   1.644  16.078 -2.0203 -0.8964  0.6663
 8847SOL     OW38173   3.845   2.234   8.092 -0.6737  0.1784  0.2095
 8847SOL    HW138174   3.893   2.200   8.167  0.7032 -1.3095 -1.3329
 8847SOL    HW238175   3.821   2.321   8.122 -0.1266  0.2998  0.3077
 8848SOL     OW38176   1.648   3.809   5.808 -0.3303  0.0376 -0.2008
 8848SOL    HW138177   1.723   3.868   5.811 -1.4014  1.4916 -2.3224
 8848SOL    HW238178   1.570   3.856   5.779  1.0406  0.8215 -2.6216
 8849SOL     OW38179   4.110   1.347   8.293 -0.5020  0.7482 -0.1268
 8849SOL    HW138180   4.178   1.415   8.297  0.3796 -0.1519  0.3785
 8849SOL    HW238181   4.072   1.358   8.206 -1.4817  0.0408  0.2131
 8850SOL     OW38182   1.262   3.280   2.528 -0.3944  0.1203  0.7023
 8850SOL    HW138183   1.272   3.291   2.433 -1.4011  1.4770  0.7536
 8850SOL    HW238184   1.354   3.266   2.549 -0.4315 -2.2025 -0.6650
 8851SOL     OW38185   0.181   3.243   7.235 -0.0191  0.1780 -0.9188
 8851SOL    HW138186   0.126   3.198   7.299 -2.5045  1.6436 -2.0380
 8851SOL    HW238187   0.113   3.272   7.175 -0.6023  0.1713 -0.2679
 8852SOL     OW38188   3.742   1.938   8.866  0.1583 -0.2459 -0.0108
 8852SOL    HW138189   3.751   1.985   8.948  1.9111  0.6673 -0.7203
 8852SOL    HW238190   3.671   1.881   8.894 -0.2721  0.8422  1.0815
 8853SOL     OW38191   1.462   2.010  13.819  0.0653  0.0266  0.2056
 8853SOL    HW138192   1.460   1.971  13.906  0.0794  1.8177  1.0030
 8853SOL    HW238193   1.435   2.098  13.843  0.8758  0.0242  1.1084
 8854SOL     OW38194   0.871   0.099  16.369  0.0192  0.2434 -0.2568
 8854SOL    HW138195   0.836   0.176  16.413 -0.7938  0.0366 -0.5393
 8854SOL    HW238196   0.933   0.072  16.436  0.3909 -0.1072 -0.7376
 8855SOL     OW38197   0.844   4.668   2.142  0.1798  0.4964 -0.2066
 8855SOL    HW138198   0.925   4.647   2.189 -0.2239 -1.1997 -0.2714
 8855SOL    HW238199   0.872   0.017   2.113  3.7747 -0.9336 -1.0109
 8856SOL     OW38200   3.182   2.497  11.282  0.0997 -0.2953  0.1762
 8856SOL    HW138201   3.243   2.465  11.348 -1.0243 -2.0503  0.3545
 8856SOL    HW238202   3.209   2.589  11.284 -0.5189 -0.1528  1.7745
 8857SOL     OW38203   1.131   1.642   5.068  0.7658  0.0960 -0.4893
 8857SOL    HW138204   1.059   1.622   5.008  1.4102  2.5345 -2.0673
 8857SOL    HW238205   1.159   1.553   5.089  0.0236  0.0754  0.4441
 8858SOL     OW38206   4.308   4.473  15.012 -0.1716 -0.3403 -0.0715
 8858SOL    HW138207   4.248   4.516  14.951  0.1431  2.0498  1.3495
 8858SOL    HW238208   4.344   4.554  15.046  1.1773 -0.8439 -0.2840
 8859SOL     OW38209   1.541   3.092  16.250  0.0065  0.4828 -0.2001
 8859SOL    HW138210   1.503   3.053  16.171 -0.6838  3.3985 -1.3007
 8859SOL    HW238211   1.492   3.173  16.244  2.9887  2.0864 -2.9927
 8860SOL     OW38212   0.041   2.199   9.129  0.3891 -0.8652 -0.2441
 8860SOL    HW138213   4.693   2.160   9.143  0.9029 -1.8709  0.0717
 8860SOL    HW238214   0.029   2.290   9.158  2.0318 -1.0529  0.9901
 8861SOL     OW38215   3.564   3.914   1.876  0.4176 -0.1418  0.1051
 8861SOL    HW138216   3.532   3.996   1.839  0.4617 -0.7973 -1.3929
 8861SOL    HW238217   3.520   3.844   1.828  1.0448  0.1012 -0.8121
 8862SOL     OW38218   1.101   0.758   2.510  0.4468  0.5626  0.3651
 8862SOL    HW138219   1.177   0.794   2.556  1.6939  0.1695 -1.3966
 8862SOL    HW238220   1.036   0.768   2.580  0.4395  2.2787  0.1210
 8863SOL     OW38221   2.217   3.591   4.670 -0.3081  0.0682 -0.0676
 8863SOL    HW138222   2.123   3.581   4.687 -0.1585 -1.4147 -0.1486
 8863SOL    HW238223   2.255   3.556   4.750 -0.8563  2.1489  1.0895
 8864SOL     OW38224   2.624   3.888   0.242 -0.0255 -0.0007  0.0365
 8864SOL    HW138225   2.545   3.850   0.204  0.0094  0.9896 -0.9965
 8864SOL    HW238226   2.619   3.864   0.335  0.7966  0.6426  0.2471
 8865SOL     OW38227   0.534   0.525  13.142  0.0971 -0.0593  0.0617
 8865SOL    HW138228   0.470   0.566  13.084  0.8507  0.8619 -0.1255
 8865SOL    HW238229   0.519   0.581  13.219  0.0687  0.6812 -0.4797
 8866SOL     OW38230   4.185   0.927   5.299  0.5456 -0.1181  0.1555
 8866SOL    HW138231   4.204   0.833   5.309 -0.2437 -0.0736  2.0247
 8866SOL    HW238232   4.264   0.958   5.254 -0.8348  2.3424 -0.5427
 8867SOL     OW38233   0.452   3.750   6.576 -0.7240  0.1396 -0.0201
 8867SOL    HW138234   0.390   3.821   6.560  0.9674  1.3925 -0.9944
 8867SOL    HW238235   0.512   3.787   6.641  2.0536 -2.3052 -1.1598
 8868SOL     OW38236   1.748   3.247   6.033  0.4662  0.4191 -0.1898
 8868SOL    HW138237   1.698   3.233   5.953 -2.8653  0.9458  1.8148
 8868SOL    HW238238   1.682   3.288   6.089  0.6835  0.7340 -0.1646
 8869SOL     OW38239   0.099   3.200   2.992 -0.4451  0.4926  0.0590
 8869SOL    HW138240   0.148   3.133   2.945 -2.7809  0.5621 -2.4665
 8869SOL    HW238241   0.072   3.132   3.054 -1.2449  1.0899  0.3595
 8870SOL     OW38242   0.503   3.189  10.809  0.1016  0.0529  0.6466
 8870SOL    HW138243   0.510   3.262  10.870  2.0978 -0.4017  0.9781
 8870SOL    HW238244   0.583   3.201  10.757  1.4617 -1.0399  2.4813
 8871SOL     OW38245   0.476   0.115   5.387  0.1625  0.0138  0.6027
 8871SOL    HW138246   0.490   0.210   5.388 -0.5905  0.1489 -1.7519
 8871SOL    HW238247   0.566   0.084   5.390 -0.1095 -1.0909 -2.2247
 8872SOL     OW38248   0.757   1.051   1.282  0.1313  0.1489  0.2974
 8872SOL    HW138249   0.780   1.117   1.217  0.3608 -0.0644  0.1639
 8872SOL    HW238250   0.807   1.093   1.352  0.4344 -1.6087  1.1564
 8873SOL     OW38251   2.754   3.239   8.284 -0.4155 -0.1571  0.3372
 8873SOL    HW138252   2.783   3.278   8.201 -0.7497  2.4550  1.4250
 8873SOL    HW238253   2.705   3.167   8.246 -0.1165  0.0677 -0.4660
 8874SOL     OW38254   1.112   2.413   8.258 -0.6935 -0.1336  0.0434
 8874SOL    HW138255   1.033   2.467   8.259 -0.5851  0.0344 -0.6244
 8874SOL    HW238256   1.074   2.328   8.280  2.0843 -0.7557  2.4823
 8875SOL     OW38257   4.398   3.362  13.962  0.2540  0.1832  0.3155
 8875SOL    HW138258   4.317   3.401  13.993 -0.0277  1.9482 -2.6835
 8875SOL    HW238259   4.373   3.339  13.872  0.9400 -0.6322  0.3247
 8876SOL     OW38260   3.799   2.002   6.496 -0.5880  0.0495 -0.1204
 8876SOL    HW138261   3.707   2.017   6.476 -0.5913  1.2836  0.7837
 8876SOL    HW238262   3.817   2.088   6.535 -2.1488  0.0070  0.6679
 8877SOL     OW38263   3.937   3.037   7.835  0.6841 -0.0153 -0.3232
 8877SOL    HW138264   3.877   3.009   7.767 -1.6540 -0.2142  1.8173
 8877SOL    HW238265   3.950   2.961   7.892  3.9774  1.2771  0.6770
 8878SOL     OW38266   1.088   3.294   6.493 -0.0938 -0.5676 -0.2493
 8878SOL    HW138267   1.038   3.295   6.412  0.7043 -0.5359 -0.7418
 8878SOL    HW238268   1.119   3.385   6.493  0.4984 -0.7615  0.2786
 8879SOL     OW38269   4.538   4.043   4.083  0.0497 -0.8207  0.2964
 8879SOL    HW138270   4.468   4.101   4.112 -0.2523 -1.3103  0.5476
 8879SOL    HW238271   4.610   4.103   4.066  0.5344 -0.3261  4.1073
 8880SOL     OW38272   1.083   0.936  11.325  0.4023 -0.0616 -0.0402
 8880SOL    HW138273   1.040   0.856  11.357 -1.6785  1.0843 -0.0144
 8880SOL    HW238274   1.064   1.003  11.390 -2.2176  0.4463 -1.3209
 8881SOL     OW38275   1.394   2.419   7.418  0.9138 -0.0292  0.0445
 8881SOL    HW138276   1.316   2.382   7.459  1.0610 -0.4684 -0.0746
 8881SOL    HW238277   1.355   2.506   7.403  0.9737  0.1351  0.8158
 8882SOL     OW38278   0.773   1.208   1.822 -0.5353  0.1067 -0.4184
 8882SOL    HW138279   0.720   1.281   1.855 -1.9062 -1.0793 -0.0393
 8882SOL    HW238280   0.860   1.238   1.850 -1.1304  1.4315  0.0546
 8883SOL     OW38281   2.023   2.012  10.589  0.0047  0.4628  0.4152
 8883SOL    HW138282   2.067   2.005  10.504  0.2936  3.6220  0.3060
 8883SOL    HW238283   2.026   2.107  10.601  1.4802  0.4681 -0.0415
 8884SOL     OW38284   3.310   4.271   9.038  0.1865 -0.0651 -0.3658
 8884SOL    HW138285   3.346   4.183   9.021 -1.4706 -0.8837  0.4397
 8884SOL    HW238286   3.247   4.257   9.108 -0.5941  2.5878 -0.5271
 8885SOL     OW38287   2.812   2.214   6.066 -0.7340  0.2731  0.8717
 8885SOL    HW138288   2.789   2.307   6.060  0.1282  0.4543  0.4276
 8885SOL    HW238289   2.730   2.185   6.107  0.1832  0.7156  3.0566
 8886SOL     OW38290   4.687   2.753   4.255  0.4736 -0.6387  0.0599
 8886SOL    HW138291   4.678   2.691   4.182 -0.7898 -0.5048  0.0902
 8886SOL    HW238292   4.722   2.684   4.312  2.4106  0.7894  0.5853
 8887SOL     OW38293   0.747   2.715  11.562  0.2558 -0.7112  0.4495
 8887SOL    HW138294   0.833   2.717  11.522  0.0544  0.0140  0.0564
 8887SOL    HW238295   0.691   2.733  11.487  0.6315 -0.7592  0.1603
 8888SOL     OW38296   1.037   3.536   6.730  0.0173 -0.4213  0.0737
 8888SOL    HW138297   1.070   3.457   6.773 -0.3611  1.1613  3.3289
 8888SOL    HW238298   1.100   3.599   6.765  0.4262 -0.8020  0.0204
 8889SOL     OW38299   2.341   0.301  15.706 -0.0509  0.2259 -0.1139
 8889SOL    HW138300   2.360   0.235  15.639 -0.9680 -1.2114  1.0498
 8889SOL    HW238301   2.290   0.256  15.773  0.7426  0.5770  0.7215
 8890SOL     OW38302   1.401   0.381   5.989  0.3763  0.1183 -0.3033
 8890SOL    HW138303   1.443   0.311   5.938 -1.6610 -0.4283 -1.2414
 8890SOL    HW238304   1.413   0.457   5.932  1.6166 -0.6101 -1.0315
 8891SOL     OW38305   2.410   2.134   2.337  0.1045 -0.0585  0.2024
 8891SOL    HW138306   2.474   2.150   2.406 -0.6277 -0.8167  1.0632
 8891SOL    HW238307   2.439   2.194   2.268  1.2615 -2.8468 -1.7172
 8892SOL     OW38308   3.572   3.161   4.308 -0.5421 -0.4108  0.2339
 8892SOL    HW138309   3.493   3.143   4.358 -1.0859  0.4860 -0.2908
 8892SOL    HW238310   3.571   3.089   4.245  3.7666  0.2781 -0.6168
 8893SOL     OW38311   3.126   4.558  12.261 -0.2672 -0.0237 -0.5286
 8893SOL    HW138312   3.198   4.621  12.265  0.2431 -0.7027  1.1705
 8893SOL    HW238313   3.110   4.536  12.169 -3.0075  1.2465 -0.3259
 8894SOL     OW38314   0.855   1.904   8.774  0.1513 -0.3910 -0.1658
 8894SOL    HW138315   0.909   1.914   8.695  1.8370 -0.7978  0.9322
 8894SOL    HW238316   0.890   1.823   8.811  1.5103  1.3215  2.2322
 8895SOL     OW38317   0.775   2.426   4.591 -0.3725  0.1335  0.2618
 8895SOL    HW138318   0.710   2.481   4.547 -0.7349 -0.4147  0.1113
 8895SOL    HW238319   0.852   2.484   4.588  0.3120 -0.6728  2.0094
 8896SOL     OW38320   2.065   2.446   7.992 -0.1012  0.0168 -1.0000
 8896SOL    HW138321   2.021   2.528   8.017  1.7309  0.1838  1.6320
 8896SOL    HW238322   2.020   2.378   8.041  1.6065  0.0634  0.6300
 8897SOL     OW38323   0.308   2.599  14.123  0.5771  0.2044  0.1729
 8897SOL    HW138324   0.276   2.670  14.067 -0.6825 -0.5635 -0.0769
 8897SOL    HW238325   0.286   2.638  14.207  1.9902 -0.9882  1.1021
 8898SOL     OW38326   2.916   3.833   5.188  0.3179 -0.6037 -0.9360
 8898SOL    HW138327   2.893   3.893   5.117  1.3885 -0.2700 -1.0076
 8898SOL    HW238328   2.985   3.883   5.231 -1.6482  0.1454  1.3450
 8899SOL     OW38329   1.989   4.243   1.114  0.9278  0.2091 -0.3535
 8899SOL    HW138330   2.010   4.267   1.024  2.1541  0.9999  0.1303
 8899SOL    HW238331   1.945   4.160   1.097 -0.5683  1.5089 -2.7958
 8900SOL     OW38332   3.564   3.284  17.517  0.0507  0.5107 -0.3858
 8900SOL    HW138333   3.511   3.276  17.597 -0.4160 -2.5554 -0.9992
 8900SOL    HW238334   3.576   3.191  17.501 -0.5239  0.1709  1.2058
 8901SOL     OW38335   3.137   3.263   5.300  0.0178  0.5829 -0.7534
 8901SOL    HW138336   3.147   3.173   5.269  0.0173 -0.0386  1.0879
 8901SOL    HW238337   3.152   3.315   5.221 -0.4673  1.5232 -0.2170
 8902SOL     OW38338   2.321   1.040   9.208 -0.3858  0.3433 -0.3300
 8902SOL    HW138339   2.333   1.078   9.295  4.4524 -0.9004 -0.5045
 8902SOL    HW238340   2.229   1.011   9.204 -0.4031  0.1831  1.3690
 8903SOL     OW38341   1.952   4.681   9.691 -0.2156 -0.0374  0.2539
 8903SOL    HW138342   1.897   4.664   9.767  0.5421  1.2383  1.0791
 8903SOL    HW238343   2.039   4.691   9.730 -0.1225  1.1224 -0.2451
 8904SOL     OW38344   3.382   0.574   4.877  0.1490  0.4409  0.3284
 8904SOL    HW138345   3.449   0.513   4.847  0.0129 -1.0369  3.0685
 8904SOL    HW238346   3.340   0.521   4.945 -1.6965  3.5566  1.6410
 8905SOL     OW38347   1.649   1.196   2.700 -0.2175  0.4279  0.3669
 8905SOL    HW138348   1.579   1.137   2.729 -0.2897 -0.0903 -0.8912
 8905SOL    HW238349   1.593   1.260   2.656  1.4931  1.2441 -0.6198
 8906SOL     OW38350   0.635   2.631   8.354  0.5130 -0.1614 -0.1594
 8906SOL    HW138351   0.548   2.662   8.330  1.1310  2.5829  1.0736
 8906SOL    HW238352   0.621   2.576   8.431 -1.9646  1.1403  0.3171
 8907SOL     OW38353   4.413   3.929   7.877 -0.0725 -0.1496 -0.0512
 8907SOL    HW138354   4.332   3.933   7.827 -1.1092 -0.7448  1.5976
 8907SOL    HW238355   4.432   3.836   7.872 -1.7781 -0.5452  1.0462
 8908SOL     OW38356   1.398   3.953   2.711 -0.2190  0.8291  0.2086
 8908SOL    HW138357   1.426   3.862   2.717  0.5312  0.9661 -1.1733
 8908SOL    HW238358   1.473   3.998   2.749 -0.9707  0.7734  1.7570
 8909SOL     OW38359   3.252   1.121   6.045 -0.5741 -0.4277 -0.6516
 8909SOL    HW138360   3.205   1.199   6.074  2.5027  1.5236 -0.8112
 8909SOL    HW238361   3.277   1.144   5.956 -0.5149  0.8108 -0.3195
 8910SOL     OW38362   0.536   2.818   6.572 -0.7945 -0.2904  0.2019
 8910SOL    HW138363   0.579   2.847   6.492 -0.7859  0.6887  0.5687
 8910SOL    HW238364   0.564   2.727   6.581  1.4052  0.6688  3.0958
 8911SOL     OW38365   2.641   0.219   6.463 -0.0370 -0.2763  0.1756
 8911SOL    HW138366   2.591   0.301   6.464  0.5864  0.0831  1.8059
 8911SOL    HW238367   2.580   0.158   6.422 -2.2820  1.1962  1.3178
 8912SOL     OW38368   0.897   4.120   7.292  0.4160  0.3507 -0.2677
 8912SOL    HW138369   0.975   4.175   7.305  0.6624  0.2623 -1.3717
 8912SOL    HW238370   0.863   4.104   7.380  0.6477 -0.0690 -0.2552
 8913SOL     OW38371   3.352   0.930  15.622 -0.3492  0.2898  0.7610
 8913SOL    HW138372   3.275   0.907  15.570 -0.1605 -1.1042  1.0935
 8913SOL    HW238373   3.414   0.915  15.551 -0.8365 -0.3713  0.4718
 8914SOL     OW38374   0.149   1.976   5.630  0.1023  0.1551 -0.3539
 8914SOL    HW138375   0.202   1.912   5.677  0.8502  2.3772  1.8379
 8914SOL    HW238376   0.215   2.042   5.606 -0.4487  0.3191 -1.4443
 8915SOL     OW38377   1.090   4.246   8.210 -0.0085  0.2449  0.5807
 8915SOL    HW138378   1.001   4.248   8.175 -0.9870 -0.4378  3.0317
 8915SOL    HW238379   1.091   4.180   8.279 -0.2353 -1.1076 -0.7349
 8916SOL     OW38380   0.987   3.485   5.199 -0.0807 -0.4488  0.2359
 8916SOL    HW138381   1.003   3.508   5.290 -2.0047  0.7263  0.2742
 8916SOL    HW238382   1.078   3.488   5.169  0.4450  0.6151  1.9671
 8917SOL     OW38383   0.834   0.704   7.583 -0.0903  0.2062 -0.6526
 8917SOL    HW138384   0.861   0.791   7.554  0.6583 -0.1298 -0.9684
 8917SOL    HW238385   0.902   0.688   7.649  0.2829  1.2082 -0.7876
 8918SOL     OW38386   0.601   4.517  17.004 -0.4823 -0.2105  0.1825
 8918SOL    HW138387   0.647   4.436  17.027  0.9021  0.4289 -0.3560
 8918SOL    HW238388   0.628   4.567  17.081 -0.4703  0.1593 -0.0627
 8919SOL     OW38389   2.969   0.972   7.615 -0.0610 -0.0502  0.7196
 8919SOL    HW138390   2.982   0.887   7.573  0.3821 -0.1091  0.9667
 8919SOL    HW238391   2.875   0.972   7.601  0.1993 -3.9416 -1.0167
 8920SOL     OW38392   0.461   4.293   3.538 -0.1446  0.2300  0.5918
 8920SOL    HW138393   0.548   4.293   3.577  0.1956 -1.7935 -0.1748
 8920SOL    HW238394   0.478   4.341   3.457  1.2564 -1.0987  0.1000
 8921SOL     OW38395   1.558   0.972  16.133 -0.1374  0.5183  0.7774
 8921SOL    HW138396   1.488   0.933  16.186  0.2351  1.1006  1.6857
 8921SOL    HW238397   1.595   0.897  16.085 -0.8305 -0.8027  2.2809
 8922SOL     OW38398   0.127   4.587  13.253  0.1564 -0.6431 -0.2980
 8922SOL    HW138399   0.157   4.496  13.247 -3.1314 -1.7979  0.7083
 8922SOL    HW238400   0.066   4.585  13.326  0.7567  3.1525  0.2997
 8923SOL     OW38401   4.730   3.078   8.184  0.0382  0.0589 -0.0201
 8923SOL    HW138402   0.043   3.154   8.212  1.1942 -0.5147 -0.5858
 8923SOL    HW238403   0.044   3.058   8.107 -2.1947  1.9168 -2.0296
 8924SOL     OW38404   3.110   0.995   7.138  0.3450  0.3870 -0.3620
 8924SOL    HW138405   3.102   1.084   7.173 -2.1599  0.1534 -0.3547
 8924SOL    HW238406   3.205   0.986   7.145  0.1561 -0.3872  1.0931
 8925SOL     OW38407   3.319   3.855   8.590 -0.5334 -0.0178  0.1909
 8925SOL    HW138408   3.225   3.846   8.609  0.0321  0.4073  3.1662
 8925SOL    HW238409   3.365   3.833   8.670 -0.6267 -0.6726  0.0640
 8926SOL     OW38410   1.838   0.149   3.357  0.6960  0.3999 -0.3615
 8926SOL    HW138411   1.920   0.192   3.383 -0.8242  3.9028 -1.4023
 8926SOL    HW238412   1.795   0.143   3.442  2.0127 -0.2023  0.2614
 8927SOL     OW38413   2.636   3.874   4.557 -0.3453 -0.6794 -0.3250
 8927SOL    HW138414   2.548   3.849   4.529 -1.2942 -0.1792  2.1319
 8927SOL    HW238415   2.669   3.906   4.473 -2.1492 -0.3359 -0.8976
 8928SOL     OW38416   2.385   2.784   1.669  0.7220 -0.2347 -0.5711
 8928SOL    HW138417   2.305   2.794   1.720  1.5197  1.4929  0.3176
 8928SOL    HW238418   2.352   2.791   1.579  1.5931  2.8084 -0.6614
 8929SOL     OW38419   1.486   0.314   1.401  0.2017 -0.1106  0.1852
 8929SOL    HW138420   1.548   0.285   1.334 -0.7325 -1.7919  0.0402
 8929SOL    HW238421   1.424   0.242   1.394  0.3663 -0.1928 -0.4514
 8930SOL     OW38422   2.613   4.170   0.270  0.3312  0.3097  0.8815
 8930SOL    HW138423   2.627   4.078   0.246  0.1953 -0.3157  3.1840
 8930SOL    HW238424   2.587   4.158   0.361 -1.4501  1.5914  0.5322
 8931SOL     OW38425   1.731   3.598  14.787  0.1342  0.1730 -0.3611
 8931SOL    HW138426   1.742   3.657  14.861  0.9204 -3.6165  2.5549
 8931SOL    HW238427   1.747   3.511  14.826  1.5586  0.8679  0.6084
 8932SOL     OW38428   0.824   0.395   3.339 -0.1617 -0.4986 -0.3251
 8932SOL    HW138429   0.799   0.334   3.270 -0.8050 -0.8743  0.2396
 8932SOL    HW238430   0.782   0.359   3.417  0.8770  1.5048  1.1499
 8933SOL     OW38431   3.001   2.219   9.648 -0.2320 -0.0930  0.6061
 8933SOL    HW138432   2.982   2.148   9.709 -0.0262  1.7252  2.7683
 8933SOL    HW238433   3.092   2.216   9.617 -0.5687  3.7215 -0.7748
 8934SOL     OW38434   4.704   0.728   7.603 -0.2195 -0.1403 -0.0314
 8934SOL    HW138435   4.678   0.808   7.650 -1.3552  0.4146 -1.5907
 8934SOL    HW238436   4.658   0.744   7.521  0.1093 -1.7692 -0.5325
 8935SOL     OW38437   4.463   3.991   2.330 -0.1079  0.0413  0.2839
 8935SOL    HW138438   4.370   4.005   2.312 -0.1548  1.2504  1.3888
 8935SOL    HW238439   4.464   3.966   2.423 -1.6564  0.8287  0.5186
 8936SOL     OW38440   3.844   4.055  13.131  0.6663 -0.1455 -0.5882
 8936SOL    HW138441   3.798   4.127  13.173 -1.4124 -1.5397 -0.4943
 8936SOL    HW238442   3.848   3.996  13.206  1.4322 -0.3093 -0.7527
 8937SOL     OW38443   3.683   4.618  17.545 -0.1123 -0.2741 -0.2647
 8937SOL    HW138444   3.705   4.676  17.472  0.4624 -1.9314 -1.4082
 8937SOL    HW238445   3.741   4.550  17.511  0.9496 -0.2392  1.4529
 8938SOL     OW38446   2.730   2.921   5.989 -0.1117  0.0308  0.1453
 8938SOL    HW138447   2.743   2.831   6.018 -0.4519 -0.6545 -1.8915
 8938SOL    HW238448   2.759   2.966   6.068  1.0174  0.4265 -0.5035
 8939SOL     OW38449   1.397   3.287   1.600  0.1742  0.1447 -0.0358
 8939SOL    HW138450   1.485   3.269   1.567 -0.0920 -0.8631 -0.1745
 8939SOL    HW238451   1.339   3.231   1.549  0.4424 -0.5973  0.4843
 8940SOL     OW38452   0.967   3.572  11.445  0.7088 -0.4014 -0.6616
 8940SOL    HW138453   0.905   3.600  11.378  1.7008  1.4977 -0.8147
 8940SOL    HW238454   0.991   3.653  11.490  0.8470 -0.1720 -1.1466
 8941SOL     OW38455   2.072   4.561   4.140 -0.4848 -0.7282  0.7097
 8941SOL    HW138456   2.035   4.579   4.226 -0.5219  1.5617  0.2045
 8941SOL    HW238457   2.128   4.483   4.141  1.1270  0.3989 -0.6747
 8942SOL     OW38458   1.619   0.061   7.846 -0.0426 -0.0147  0.2674
 8942SOL    HW138459   1.668   0.026   7.772  0.3733 -0.3321  0.6899
 8942SOL    HW238460   1.688   0.042   7.910 -0.4835 -0.7677  0.5159
 8943SOL     OW38461   3.124   3.426   4.373  0.2507 -0.1416  0.2235
 8943SOL    HW138462   3.151   3.372   4.299 -0.2898 -0.2923  0.1414
 8943SOL    HW238463   3.181   3.386   4.439  0.3439  3.2064  2.1986
 8944SOL     OW38464   1.732   2.607   8.950 -0.3978 -0.4785 -0.5035
 8944SOL    HW138465   1.686   2.530   8.983 -0.9334  0.5557  1.1712
 8944SOL    HW238466   1.770   2.586   8.864  0.4994 -0.8161 -0.0272
 8945SOL     OW38467   1.239   1.811   3.506  0.0763  0.5874  0.3153
 8945SOL    HW138468   1.166   1.751   3.493  1.4129 -0.6789 -1.3631
 8945SOL    HW238469   1.299   1.783   3.436  0.8887  0.3513  1.1036
 8946SOL     OW38470   4.141   3.848   3.067 -0.0622 -0.1492 -0.3227
 8946SOL    HW138471   4.058   3.883   3.098  0.7961  1.8547 -0.2497
 8946SOL    HW238472   4.133   3.830   2.973 -1.1385  0.0845 -0.2759
 8947SOL     OW38473   4.639   1.139   7.468 -0.2309 -0.2494 -0.1156
 8947SOL    HW138474   4.653   1.215   7.412 -1.1858  0.6365  0.8669
 8947SOL    HW238475   4.714   1.084   7.442  0.3230  0.5521 -0.1969
 8948SOL     OW38476   0.045   2.871   9.051  0.0767  0.9410  0.3372
 8948SOL    HW138477   4.710   2.811   9.067 -1.3910  2.7513  0.4224
 8948SOL    HW238478   0.024   2.942   9.112 -2.7613  1.1014 -0.8433
 8949SOL     OW38479   4.027   1.469   1.681  0.5314 -0.3809 -0.7957
 8949SOL    HW138480   3.950   1.496   1.632  0.3100  0.4230 -0.0057
 8949SOL    HW238481   4.067   1.553   1.706 -0.9153  0.5976 -1.8206
 8950SOL     OW38482   3.936   2.286   2.772 -0.5134 -0.5988 -0.1982
 8950SOL    HW138483   3.857   2.232   2.771 -2.9663  3.0320  2.2991
 8950SOL    HW238484   4.002   2.220   2.749 -1.6642 -1.5131 -0.8973
 8951SOL     OW38485   4.458   2.220   4.444 -0.6210 -0.6757 -0.6963
 8951SOL    HW138486   4.364   2.228   4.427 -0.1387  0.3699 -2.7800
 8951SOL    HW238487   4.467   2.167   4.523 -3.0526  0.2079  0.1823
 8952SOL     OW38488   0.480   1.791   3.525  0.2658  0.1958  0.1846
 8952SOL    HW138489   0.540   1.790   3.451 -1.8904  1.7593 -1.5874
 8952SOL    HW238490   0.404   1.752   3.482  2.4075 -1.3143 -2.1910
 8953SOL     OW38491   4.237   2.614   4.098  0.5173  0.1195 -0.0345
 8953SOL    HW138492   4.268   2.549   4.161 -0.1744 -0.7317 -0.5789
 8953SOL    HW238493   4.235   2.560   4.019 -1.2504  0.4866 -0.2226
 8954SOL     OW38494   0.534   0.924   3.240  0.0815 -0.0536  0.0172
 8954SOL    HW138495   0.481   0.851   3.209 -0.2017 -0.1408  0.7024
 8954SOL    HW238496   0.468   0.988   3.268  0.2981 -1.1895  3.1882
 8955SOL     OW38497   2.909   2.413  17.063  0.6133  0.0307  0.3658
 8955SOL    HW138498   2.867   2.485  17.015 -0.8337 -1.3260 -0.4099
 8955SOL    HW238499   2.938   2.359  16.990 -0.1291  0.9585 -0.6114
 8956SOL     OW38500   0.301   1.801   5.024  0.0082 -0.3300 -0.0643
 8956SOL    HW138501   0.336   1.723   5.067 -2.1204 -2.3816 -2.0361
 8956SOL    HW238502   0.208   1.778   5.015 -0.2013  0.1048  1.0044
 8957SOL     OW38503   1.432   0.222   5.675  0.1009  0.2340  0.2569
 8957SOL    HW138504   1.381   0.170   5.613 -0.7520 -0.1619  1.2877
 8957SOL    HW238505   1.422   0.312   5.645 -0.2000 -0.5786 -2.0602
 8958SOL     OW38506   2.115   3.982   3.921  0.0209  0.0733 -0.3517
 8958SOL    HW138507   2.138   3.966   3.830  0.0588 -0.2306 -0.2871
 8958SOL    HW238508   2.119   4.077   3.931  0.9892  0.0193 -0.1952
 8959SOL     OW38509   1.021   2.287   2.987 -0.2304 -0.4324  0.3704
 8959SOL    HW138510   1.009   2.210   2.932  1.2906 -1.2096  1.1134
 8959SOL    HW238511   1.005   2.358   2.925  1.4695  0.2683  0.7286
 8960SOL     OW38512   1.916   2.684  16.992 -0.0223 -0.2213 -0.3985
 8960SOL    HW138513   1.868   2.611  17.033 -1.4396  1.7996  1.5421
 8960SOL    HW238514   2.006   2.671  17.020  0.1606 -1.3180 -1.5047
 8961SOL     OW38515   2.392   3.462   6.424  0.0806  0.1329 -0.1825
 8961SOL    HW138516   2.396   3.473   6.329  4.6152  1.3992  0.1412
 8961SOL    HW238517   2.304   3.426   6.434 -0.2562  1.0898  0.3760
 8962SOL     OW38518   4.330   0.387   4.597 -0.4287  0.4099 -0.4153
 8962SOL    HW138519   4.426   0.392   4.590 -0.3107  0.4084  1.0900
 8962SOL    HW238520   4.302   0.475   4.570  0.3168  0.7385 -0.1413
 8963SOL     OW38521   0.310   4.470   6.790  0.6230  0.4277 -0.0795
 8963SOL    HW138522   0.272   4.556   6.776 -0.5638  0.1749  1.6076
 8963SOL    HW238523   0.401   4.501   6.799 -0.1626  2.5328  0.5426
 8964SOL     OW38524   2.621   0.869   4.849  0.1517  0.1730 -0.0779
 8964SOL    HW138525   2.527   0.882   4.864  0.4850  1.0397  1.2680
 8964SOL    HW238526   2.641   0.869   4.755  2.8948  3.0929  0.5000
 8965SOL     OW38527   1.713   2.479   5.272 -0.4802  0.3203  0.3834
 8965SOL    HW138528   1.669   2.531   5.206 -1.4696 -1.1217 -0.1049
 8965SOL    HW238529   1.657   2.403   5.285 -1.1620  0.9583  1.1379
 8966SOL     OW38530   1.021   1.311   2.757 -0.0397  0.4874 -0.8634
 8966SOL    HW138531   1.084   1.253   2.713  0.5770  0.0866  0.5453
 8966SOL    HW238532   1.048   1.402   2.761 -0.1323  0.4559  0.3771
 8967SOL     OW38533   4.601   2.910   7.369  0.0972  0.2988  0.2882
 8967SOL    HW138534   4.612   2.924   7.275 -0.5019  0.7895  0.2905
 8967SOL    HW238535   4.656   2.838   7.399  0.2650 -0.2319 -1.2634
 8968SOL     OW38536   3.431   4.649   7.673 -0.1472 -1.2689  0.5304
 8968SOL    HW138537   3.406   4.570   7.720 -0.1701 -1.3989  0.2997
 8968SOL    HW238538   3.510   4.675   7.720 -0.0485 -1.3898  0.4311
 8969SOL     OW38539   1.525   0.505  16.760 -0.3856 -0.5329 -0.6848
 8969SOL    HW138540   1.575   0.553  16.826 -0.8719 -0.5195 -0.3221
 8969SOL    HW238541   1.512   0.576  16.698  0.1838 -0.4180 -0.6744
 8970SOL     OW38542   0.815   0.304  17.530  0.4742  0.6782 -0.0612
 8970SOL    HW138543   0.900   0.260  17.535  0.6883  1.0865 -0.1236
 8970SOL    HW238544   0.849   0.393  17.518 -0.0872  0.7517 -1.1036
 8971SOL     OW38545   2.799   1.400  10.617 -0.0321 -0.1087 -0.5209
 8971SOL    HW138546   2.710   1.378  10.588 -0.2159 -0.1537  0.0616
 8971SOL    HW238547   2.790   1.490  10.647 -0.5635 -1.1353  2.4812
 8972SOL     OW38548   2.505   4.678  14.454  1.2027 -0.1409  0.1463
 8972SOL    HW138549   2.588   4.712  14.421  0.0068  1.4850 -1.2083
 8972SOL    HW238550   2.489   4.609  14.390  0.8706  0.0776 -0.0061
 8973SOL     OW38551   3.208   2.353   3.858  0.5476  0.5595 -0.4463
 8973SOL    HW138552   3.199   2.313   3.772 -1.2363  0.1488 -0.0700
 8973SOL    HW238553   3.293   2.394   3.873  0.1358  1.3548 -0.2584
 8974SOL     OW38554   3.980   3.382   3.496  0.3919 -0.0304  0.4187
 8974SOL    HW138555   4.012   3.311   3.441 -1.6972 -0.5664 -0.0931
 8974SOL    HW238556   4.045   3.447   3.469  0.1915 -0.0992 -0.2223
 8975SOL     OW38557   1.642   4.409  10.313 -0.2608 -0.2357  0.2733
 8975SOL    HW138558   1.681   4.324  10.291 -2.3963 -1.9494  3.0848
 8975SOL    HW238559   1.664   4.406  10.406  2.8082 -0.0022 -0.4453
 8976SOL     OW38560   4.111   4.399  14.147 -0.5399 -0.1047  0.5413
 8976SOL    HW138561   4.166   4.324  14.168 -0.8223 -0.5107 -0.2110
 8976SOL    HW238562   4.176   4.469  14.140  0.9016 -1.7605 -2.5908
 8977SOL     OW38563   0.734   3.568   0.607 -0.0244 -0.0714 -0.2373
 8977SOL    HW138564   0.705   3.525   0.688  1.6162  0.0982  0.4387
 8977SOL    HW238565   0.752   3.659   0.632  0.2510  0.0472 -0.8824
 8978SOL     OW38566   1.322   1.519   2.788  0.1397 -0.4197  0.5341
 8978SOL    HW138567   1.367   1.470   2.857 -2.2685 -1.4966  1.3454
 8978SOL    HW238568   1.247   1.546   2.841 -0.3967  0.4510 -0.6604
 8979SOL     OW38569   3.710   2.458  16.053 -0.0087  0.1764 -0.1583
 8979SOL    HW138570   3.684   2.382  16.104  0.4135  0.7709  0.9371
 8979SOL    HW238571   3.712   2.524  16.122  0.8584 -1.0987  1.0011
 8980SOL     OW38572   2.179   0.450  13.229 -0.2715 -0.7610 -0.3176
 8980SOL    HW138573   2.124   0.516  13.272  0.8017 -0.0619 -0.0413
 8980SOL    HW238574   2.129   0.432  13.150  0.2771  0.8777 -1.0396
 8981SOL     OW38575   1.876   4.695   1.796 -0.0761 -0.4045  0.1732
 8981SOL    HW138576   1.883   4.599   1.805 -0.8197 -0.5530 -0.8675
 8981SOL    HW238577   1.865   4.705   1.702 -1.7636 -0.5088  0.3476
 8982SOL     OW38578   4.200   4.627   7.715  0.3445 -0.5010 -0.1546
 8982SOL    HW138579   4.177   4.585   7.632 -0.3799 -1.3498  0.4828
 8982SOL    HW238580   4.225   4.555   7.773  1.6921 -0.6203 -0.8710
 8983SOL     OW38581   0.913   3.506   0.889  0.2395  0.0100  0.2677
 8983SOL    HW138582   0.853   3.526   0.816 -0.9112  1.9648  1.7487
 8983SOL    HW238583   0.993   3.544   0.854  1.9037 -1.5445  2.4312
 8984SOL     OW38584   0.277   3.232   1.219 -0.3381 -0.8087  0.5407
 8984SOL    HW138585   0.301   3.141   1.238  0.5043 -0.5550  0.7246
 8984SOL    HW238586   0.367   3.256   1.195 -0.7271  0.5708  0.5022
 8985SOL     OW38587   4.014   4.011   4.998  0.3191 -0.1857  0.1333
 8985SOL    HW138588   3.953   3.951   4.955  3.0407 -0.6684 -3.0571
 8985SOL    HW238589   4.095   3.967   4.973 -0.5008 -0.2613 -2.4261
 8986SOL     OW38590   3.302   2.448   6.093  0.7161 -0.4305  0.6265
 8986SOL    HW138591   3.252   2.529   6.099  1.4629 -0.1146  2.5288
 8986SOL    HW238592   3.354   2.458   6.172  0.3267  1.0415  0.7111
 8987SOL     OW38593   3.512   1.982   6.480 -0.0719  0.0214 -0.0081
 8987SOL    HW138594   3.536   1.895   6.509  0.5744 -0.1282 -1.0115
 8987SOL    HW238595   3.456   1.968   6.403 -1.1260  1.9773  0.3956
 8988SOL     OW38596   1.568   3.336   4.004 -0.1585  0.0202  0.0613
 8988SOL    HW138597   1.634   3.354   4.072  2.4722 -2.8401 -1.7664
 8988SOL    HW238598   1.610   3.368   3.925  1.6227 -0.5739  0.7571
 8989SOL     OW38599   0.488   4.018   4.019 -0.4122 -0.0678 -0.6030
 8989SOL    HW138600   0.466   3.956   4.088  2.1120 -1.3900 -0.9646
 8989SOL    HW238601   0.584   4.021   4.016 -0.5324  3.7720 -1.1546
 8990SOL     OW38602   1.566   2.365  16.394 -0.3960 -0.6194 -0.5627
 8990SOL    HW138603   1.626   2.427  16.353  1.9633 -1.3877  1.7648
 8990SOL    HW238604   1.513   2.333  16.321 -0.7363  0.9377 -1.0078
 8991SOL     OW38605   0.069   1.373   7.854 -0.4476  0.0744  0.2747
 8991SOL    HW138606   0.161   1.367   7.880 -1.1375  0.8173  2.8562
 8991SOL    HW238607   0.084   1.369   7.759  2.1702 -1.3119  0.7547
 8992SOL     OW38608   3.933   2.601   8.148  0.2034 -0.2601 -0.1864
 8992SOL    HW138609   3.883   2.662   8.203  0.3669  0.1346 -0.4746
 8992SOL    HW238610   3.973   2.547   8.216  0.8046 -0.3802 -0.6478
 8993SOL     OW38611   4.464   4.266   8.248 -0.3060  0.0233 -0.1965
 8993SOL    HW138612   4.530   4.329   8.220 -1.0509  1.1976  0.6960
 8993SOL    HW238613   4.384   4.303   8.213 -0.0956 -0.3196 -1.0538
 8994SOL     OW38614   0.740   1.351   3.157  0.5386 -0.1196 -0.0900
 8994SOL    HW138615   0.781   1.323   3.074 -1.3489  0.2199 -1.1239
 8994SOL    HW238616   0.650   1.380   3.144  0.4146  0.5400  2.3588
 8995SOL     OW38617   3.929   2.930  15.156  0.2018  0.2767  0.2120
 8995SOL    HW138618   3.982   3.009  15.166  0.4014  0.4954 -2.4158
 8995SOL    HW238619   3.879   2.944  15.236  0.5522 -1.9426  0.8165
 8996SOL     OW38620   2.397   2.488   3.087  0.1665 -0.0139 -0.2642
 8996SOL    HW138621   2.410   2.581   3.106  1.3625  0.1885 -1.9779
 8996SOL    HW238622   2.316   2.508   3.040 -0.0333  0.4562  0.2802
 8997SOL     OW38623   2.049   0.748   6.660  0.9063 -0.9713  0.4318
 8997SOL    HW138624   2.048   0.653   6.657  0.9064 -0.9351 -0.8082
 8997SOL    HW238625   2.138   0.780   6.645  0.0685  0.5940 -1.2364
 8998SOL     OW38626   3.253   3.485   6.730  0.2306  0.2521  0.0071
 8998SOL    HW138627   3.321   3.490   6.797  0.4926  0.7223 -0.2930
 8998SOL    HW238628   3.170   3.501   6.776 -1.5707 -2.8857 -2.1829
 8999SOL     OW38629   0.557   3.598   5.944 -0.6349 -0.3736 -0.1476
 8999SOL    HW138630   0.631   3.561   5.992 -0.9323  1.4975  1.7644
 8999SOL    HW238631   0.570   3.691   5.963  1.8571 -0.2924 -2.2328
 9000SOL     OW38632   4.465   2.129  14.913  0.1201  0.0855 -0.3908
 9000SOL    HW138633   4.412   2.208  14.899 -1.7359 -1.2251 -0.7814
 9000SOL    HW238634   4.449   2.088  14.829 -0.1708  2.0806 -1.3239
 9001SOL     OW38635   4.030   1.154   5.318 -0.5091 -0.6247  0.2804
 9001SOL    HW138636   4.092   1.082   5.305 -0.8523 -0.9498  0.4451
 9001SOL    HW238637   3.978   1.117   5.389 -0.9450  0.6938  0.6336
 9002SOL     OW38638   0.379   2.809  10.863  0.0285 -0.3963 -0.4418
 9002SOL    HW138639   0.385   2.714  10.859  0.5407 -0.3009 -2.3694
 9002SOL    HW238640   0.461   2.841  10.825 -1.0565  1.3912 -1.2777
 9003SOL     OW38641   4.546   1.293   8.408  0.0774 -0.6088  0.2565
 9003SOL    HW138642   4.522   1.250   8.490  1.0097 -0.0016  0.8438
 9003SOL    HW238643   4.501   1.237   8.345 -0.7997 -0.6798  0.9488
 9004SOL     OW38644   2.365   3.551  12.159 -0.0760 -0.5405 -0.1788
 9004SOL    HW138645   2.410   3.549  12.075 -0.6484 -0.4324 -0.4914
 9004SOL    HW238646   2.426   3.573  12.230 -1.8031  0.0475  1.1252
 9005SOL     OW38647   2.719   2.923   1.195  0.3841 -0.4299  0.4828
 9005SOL    HW138648   2.812   2.903   1.204  0.2517 -2.1359 -2.2115
 9005SOL    HW238649   2.688   2.886   1.278  0.9025  1.8367  1.6972
 9006SOL     OW38650   1.683   1.152   6.667  0.2586  0.9143  0.0182
 9006SOL    HW138651   1.773   1.136   6.693 -0.1685  0.8613  1.4720
 9006SOL    HW238652   1.645   1.178   6.751  2.7745  1.8063  0.8745
 9007SOL     OW38653   1.522   2.105   3.718  0.1375 -0.0877 -0.2238
 9007SOL    HW138654   1.590   2.165   3.689 -0.4589  0.2826 -0.8510
 9007SOL    HW238655   1.495   2.141   3.803 -1.0080  0.0060 -0.6324
 9008SOL     OW38656   0.908   2.118   2.455  0.2840  0.3403 -0.0972
 9008SOL    HW138657   0.893   2.185   2.388 -1.3559 -0.2863 -0.3541
 9008SOL    HW238658   0.832   2.133   2.510  0.9243 -0.6709  1.0585
 9009SOL     OW38659   2.986   4.677   5.540 -0.3263 -1.0160  0.0311
 9009SOL    HW138660   2.938   4.595   5.545 -2.0197 -0.1445 -1.5930
 9009SOL    HW238661   3.019   4.694   5.629  1.2149 -0.5075 -0.6307
 9010SOL     OW38662   0.875   1.735   3.227  0.4098  0.3589 -0.1275
 9010SOL    HW138663   0.869   1.721   3.133  0.0252  2.2260 -0.3933
 9010SOL    HW238664   0.897   1.649   3.261  3.0919  0.4125 -1.7228
 9011SOL     OW38665   1.444   4.527  12.028 -0.5244 -0.0406  0.2223
 9011SOL    HW138666   1.533   4.510  12.059 -0.1521  0.2469 -0.6944
 9011SOL    HW238667   1.409   4.440  12.008 -2.4664  0.9337 -0.5099
 9012SOL     OW38668   1.484   1.211   3.476 -0.2588 -0.4510 -0.1701
 9012SOL    HW138669   1.487   1.138   3.537 -2.7881  0.8722  1.5216
 9012SOL    HW238670   1.578   1.216   3.460 -0.2967  0.2490 -0.1498
 9013SOL     OW38671   1.278   2.109  12.220 -0.4554 -0.9255  0.4220
 9013SOL    HW138672   1.225   2.116  12.141 -2.7547 -1.5363  1.9028
 9013SOL    HW238673   1.327   2.028  12.205  1.1810 -0.2206  1.8479
 9014SOL     OW38674   2.858   2.970   7.296  0.1687  0.4575 -0.2158
 9014SOL    HW138675   2.933   2.912   7.283 -1.3451 -1.7550  0.9891
 9014SOL    HW238676   2.791   2.917   7.253 -0.3696  1.9030 -1.1807
 9015SOL     OW38677   2.196   1.505  11.201  0.2417 -0.0587  0.3774
 9015SOL    HW138678   2.127   1.441  11.222 -0.2845  0.2904 -0.2793
 9015SOL    HW238679   2.164   1.546  11.121 -1.9683 -0.7089  0.9220
 9016SOL     OW38680   0.102   3.004   6.274 -0.0899 -0.2167 -0.8812
 9016SOL    HW138681   0.120   3.091   6.307  1.0389 -0.1404 -1.7028
 9016SOL    HW238682   0.065   3.031   6.190 -0.5158 -0.2402 -0.7022
 9017SOL     OW38683   4.368   2.589   5.628 -0.1476 -0.2643 -1.0531
 9017SOL    HW138684   4.290   2.552   5.669 -0.2718 -2.5908 -3.3824
 9017SOL    HW238685   4.404   2.637   5.703 -0.4760  2.0341 -2.3615
 9018SOL     OW38686   1.898   2.391   5.457 -0.0839  0.3291  0.4101
 9018SOL    HW138687   1.825   2.425   5.406 -0.8787 -0.2728  1.1395
 9018SOL    HW238688   1.929   2.325   5.396  0.0692 -0.7614  1.6604
 9019SOL     OW38689   1.815   0.755   5.160 -0.1564 -0.7885  0.0780
 9019SOL    HW138690   1.804   0.686   5.094 -0.7881 -0.3025 -0.3358
 9019SOL    HW238691   1.908   0.769   5.178  0.1836  0.5527 -2.6757
 9020SOL     OW38692   1.060   2.294   3.889 -0.4720 -0.2705  0.2229
 9020SOL    HW138693   1.033   2.384   3.910  1.0241  0.7631 -2.1888
 9020SOL    HW238694   1.112   2.307   3.809 -0.3347  0.1732  0.3816
 9021SOL     OW38695   3.767   4.149   8.892 -0.1687 -0.0573  0.0395
 9021SOL    HW138696   3.722   4.141   8.976  1.0852  1.2370  0.8418
 9021SOL    HW238697   3.750   4.061   8.859  1.9378 -0.4758  0.1222
 9022SOL     OW38698   1.711   1.789   1.223 -0.1364  0.1300  0.3354
 9022SOL    HW138699   1.731   1.712   1.277  3.4208  2.5778  2.5915
 9022SOL    HW238700   1.765   1.766   1.148 -2.5064 -2.3423 -0.6262
 9023SOL     OW38701   4.404   3.949  16.743  0.1989 -0.3419  0.4201
 9023SOL    HW138702   4.415   3.988  16.657  0.0271  0.0469  0.5758
 9023SOL    HW238703   4.309   3.939  16.749 -0.1650  1.4117 -2.7708
 9024SOL     OW38704   4.562   0.120   6.607 -0.0362 -0.4437  0.2376
 9024SOL    HW138705   4.654   0.112   6.634  1.1442  1.6505 -3.0839
 9024SOL    HW238706   4.582   0.194   6.549 -1.6223  0.4470  0.8336
 9025SOL     OW38707   3.013   4.312  11.120  0.3139  0.0425 -0.1340
 9025SOL    HW138708   2.935   4.364  11.136  0.2641 -0.3882  1.0936
 9025SOL    HW238709   3.078   4.381  11.133  1.3499 -1.0459  0.5059
 9026SOL     OW38710   3.279   1.843  13.957  0.0090 -0.0844  0.2800
 9026SOL    HW138711   3.309   1.907  13.893 -0.1777  0.7578  1.0454
 9026SOL    HW238712   3.279   1.757  13.915  1.2487 -0.0251  0.1540
 9027SOL     OW38713   3.798   0.907   8.252  0.0175  0.1665  0.1486
 9027SOL    HW138714   3.819   0.818   8.280 -3.9776 -0.8995 -0.1416
 9027SOL    HW238715   3.705   0.913   8.277  0.1967  2.2784  0.3534
 9028SOL     OW38716   4.307   3.115   9.103  0.4448  0.2339 -0.1268
 9028SOL    HW138717   4.351   3.084   9.023 -0.7615 -0.7663 -0.3957
 9028SOL    HW238718   4.268   3.033   9.133 -0.8854  1.0488  0.3305
 9029SOL     OW38719   4.143   2.739  12.029  0.4585  0.7875  0.3692
 9029SOL    HW138720   4.148   2.824  12.071  0.1715  0.8580  0.2599
 9029SOL    HW238721   4.050   2.715  12.034  0.6605  0.0100  0.5360
 9030SOL     OW38722   1.149   1.679   8.384 -0.4564 -0.4905 -0.3746
 9030SOL    HW138723   1.087   1.707   8.316  0.5727  2.2479 -0.1808
 9030SOL    HW238724   1.160   1.593   8.344  2.0368  0.1641 -1.0567
 9031SOL     OW38725   3.859   2.395   5.754  0.1940 -0.0520  0.7477
 9031SOL    HW138726   3.858   2.402   5.658  0.3433 -0.8114  0.6855
 9031SOL    HW238727   3.919   2.321   5.763  0.8289  0.6845  2.3598
 9032SOL     OW38728   2.363   3.389   8.081  0.8116 -0.2511 -0.6080
 9032SOL    HW138729   2.412   3.317   8.041  2.0584  1.2529 -1.8317
 9032SOL    HW238730   2.275   3.353   8.090  0.7259 -0.2365 -1.3537
 9033SOL     OW38731   4.669   3.440   4.638  0.1510  0.6178  0.0424
 9033SOL    HW138732   4.631   3.384   4.705  1.3221  1.0404  1.0435
 9033SOL    HW238733   4.593   3.478   4.594  0.6171  2.1748  0.6210
 9034SOL     OW38734   0.859   4.515   8.311  0.2971  0.1132 -0.3794
 9034SOL    HW138735   0.859   4.471   8.226 -3.2053  2.6113 -1.6995
 9034SOL    HW238736   0.953   4.529   8.317  0.0070  2.0782 -0.3586
 9035SOL     OW38737   4.668   0.480   3.113 -0.1358 -0.2495  0.1675
 9035SOL    HW138738   4.613   0.420   3.163 -1.5717 -0.4075 -1.6171
 9035SOL    HW238739   4.701   0.544   3.177 -0.8293 -0.7654  1.0444
 9036SOL     OW38740   1.886   4.617   4.860  0.0303 -0.2827  0.0631
 9036SOL    HW138741   1.795   4.637   4.837  0.2450  0.8030  0.1548
 9036SOL    HW238742   1.891   4.624   4.956 -0.4013 -1.3815  0.1653
 9037SOL     OW38743   2.488   4.680   8.435  0.1550 -0.3666  0.0631
 9037SOL    HW138744   2.516   0.010   8.496 -1.8065  2.7212 -2.4114
 9037SOL    HW238745   2.417   4.723   8.386  1.9161  0.3825 -1.8594
 9038SOL     OW38746   2.668   2.049   2.156 -0.8470 -0.3574 -0.2011
 9038SOL    HW138747   2.653   2.054   2.250 -0.1369 -2.3883  0.0361
 9038SOL    HW238748   2.629   2.131   2.126  0.2033  0.1610 -0.1505
 9039SOL     OW38749   2.614   0.496   5.552  0.2253 -0.3982 -0.0484
 9039SOL    HW138750   2.699   0.453   5.563  0.3394 -0.2195 -0.2244
 9039SOL    HW238751   2.590   0.443   5.476 -1.6522 -1.4220  1.2746
 9040SOL     OW38752   2.645   0.405   0.241 -0.1598 -0.6434 -0.1729
 9040SOL    HW138753   2.720   0.463   0.224 -0.1085 -0.0136  2.2353
 9040SOL    HW238754   2.587   0.447   0.303  0.0168 -0.6133 -0.0285
 9041SOL     OW38755   0.629   0.002   8.670 -0.6134 -0.1720 -0.0544
 9041SOL    HW138756   0.577   0.082   8.678  0.2435  0.1878  2.0976
 9041SOL    HW238757   0.634   4.713   8.762  1.8991  0.5377  0.0102
 9042SOL     OW38758   0.795   2.847  14.779 -0.0118 -0.1528 -0.8074
 9042SOL    HW138759   0.779   2.777  14.716  1.8010  0.1978 -1.6513
 9042SOL    HW238760   0.838   2.915  14.727  0.3468  0.4039  0.2061
 9043SOL     OW38761   2.030   2.647  13.689 -0.2968 -0.4921 -0.4483
 9043SOL    HW138762   2.032   2.740  13.668 -0.4646 -0.1539  1.0085
 9043SOL    HW238763   1.937   2.629  13.699 -0.5374  0.6689 -0.6305
 9044SOL     OW38764   3.469   1.651  16.554  0.2429  0.2644 -0.0436
 9044SOL    HW138765   3.533   1.700  16.606 -1.1073  1.1317  0.8186
 9044SOL    HW238766   3.471   1.706  16.475 -0.7101 -0.7918 -0.7891
 9045SOL     OW38767   0.818   2.491   2.627 -0.2646  0.1320  0.4303
 9045SOL    HW138768   0.756   2.428   2.664 -0.3312  0.5637  1.0639
 9045SOL    HW238769   0.855   2.532   2.705  0.3469  1.1103 -0.3861
 9046SOL     OW38770   4.462   1.984   2.623  0.2111  0.2331 -0.0046
 9046SOL    HW138771   4.461   1.906   2.678 -3.2849  0.1138 -0.2312
 9046SOL    HW238772   4.477   2.048   2.692  1.1617 -0.7112  0.6543
 9047SOL     OW38773   0.814   4.142   0.424  0.1366 -0.8812 -0.4735
 9047SOL    HW138774   0.751   4.080   0.387  0.3587  0.6250 -3.3546
 9047SOL    HW238775   0.765   4.164   0.504  0.4947  0.0846 -0.5151
 9048SOL     OW38776   4.500   1.341   3.729  0.2155  0.1136  0.2644
 9048SOL    HW138777   4.442   1.313   3.800 -1.7635  1.3877 -0.8282
 9048SOL    HW238778   4.433   1.332   3.660  0.4213  0.7028 -0.0109
 9049SOL     OW38779   3.474   2.673  16.184 -0.5045  0.1733  0.1420
 9049SOL    HW138780   3.442   2.754  16.144 -0.0419 -0.6029 -1.8056
 9049SOL    HW238781   3.565   2.678  16.156 -0.7797  1.4346 -0.5354
 9050SOL     OW38782   4.055   4.082   3.451  0.3714 -0.6086  0.3977
 9050SOL    HW138783   4.141   4.080   3.409 -0.1186  1.5811 -0.7491
 9050SOL    HW238784   4.061   4.006   3.508 -0.2946 -1.6283 -0.8837
 9051SOL     OW38785   0.976   1.515  12.107  0.3964 -0.3434 -0.4252
 9051SOL    HW138786   0.978   1.611  12.102  1.4754 -0.2650  1.8009
 9051SOL    HW238787   1.019   1.504  12.191 -0.1526  3.4199  0.3544
 9052SOL     OW38788   1.535   1.095   4.956  0.6768 -0.0007  0.4437
 9052SOL    HW138789   1.519   1.123   4.866  0.1002 -2.5055 -0.2137
 9052SOL    HW238790   1.615   1.141   4.982 -0.0323  1.5630 -0.1731
 9053SOL     OW38791   4.470   2.280   1.723 -0.0036 -0.2561 -0.2523
 9053SOL    HW138792   4.519   2.311   1.800  1.5412  0.5709 -1.5824
 9053SOL    HW238793   4.377   2.287   1.745  0.1571  1.2581 -0.0329
 9054SOL     OW38794   1.801   4.546   6.743  0.4224 -0.3643  0.1645
 9054SOL    HW138795   1.721   4.593   6.767  0.5450 -0.2566  0.3565
 9054SOL    HW238796   1.866   4.584   6.801 -0.3471  0.2911  0.5929
 9055SOL     OW38797   4.016   2.152  12.273 -0.2413  0.3000  0.1186
 9055SOL    HW138798   3.968   2.235  12.281  0.4965  0.8200 -0.8368
 9055SOL    HW238799   3.942   2.092  12.271  0.2173 -0.1981 -1.4366
 9056SOL     OW38800   0.791   1.916   6.383  0.4694  0.4253 -0.6563
 9056SOL    HW138801   0.718   1.933   6.324 -0.7637 -0.3925  0.6274
 9056SOL    HW238802   0.749   1.925   6.469  3.0290  2.8931  0.3244
 9057SOL     OW38803   0.737   1.228   7.439  0.1319  0.1130  0.1774
 9057SOL    HW138804   0.705   1.288   7.507 -0.4957  0.4393 -0.4052
 9057SOL    HW238805   0.739   1.282   7.360  0.9261 -0.7997 -0.4236
 9058SOL     OW38806   4.439   0.748   7.455 -0.3739  0.0927 -0.0312
 9058SOL    HW138807   4.381   0.693   7.508 -0.2744 -0.4819 -0.5246
 9058SOL    HW238808   4.413   0.835   7.486 -0.0088  0.0417  0.4169
 9059SOL     OW38809   2.470   3.699   5.398 -0.3206 -0.1511  0.2965
 9059SOL    HW138810   2.481   3.667   5.487  1.8477 -0.0783  0.0727
 9059SOL    HW238811   2.543   3.762   5.393  0.1479 -0.8384 -1.9049
 9060SOL     OW38812   1.276   2.469   1.880 -0.2630  0.0475 -0.0341
 9060SOL    HW138813   1.334   2.473   1.955 -1.8413  1.2621  1.1406
 9060SOL    HW238814   1.339   2.450   1.810 -0.9373 -0.6766 -0.4396
 9061SOL     OW38815   3.660   4.382   6.629  0.0973  0.1058  0.4130
 9061SOL    HW138816   3.749   4.356   6.651  0.0107 -0.4982  0.0554
 9061SOL    HW238817   3.677   4.432   6.549 -2.0472  0.2909  0.0599
 9062SOL     OW38818   3.719   2.273   2.371  0.3439 -0.0358 -0.1309
 9062SOL    HW138819   3.688   2.301   2.457  0.1228 -0.0899 -0.1912
 9062SOL    HW238820   3.775   2.200   2.397  0.7570  0.4124  0.2323
 9063SOL     OW38821   0.191   2.010   3.343 -0.4670 -0.4316  0.1555
 9063SOL    HW138822   0.258   2.076   3.325 -0.1846 -0.7375  0.0877
 9063SOL    HW238823   0.241   1.929   3.350 -1.6751 -1.2588 -0.8282
 9064SOL     OW38824   2.854   0.132   1.129  0.1256 -0.4322  0.2616
 9064SOL    HW138825   2.906   0.189   1.071  0.6605 -1.1476  0.0343
 9064SOL    HW238826   2.765   0.158   1.108  0.2881 -0.1346 -0.0673
 9065SOL     OW38827   3.554   2.655   5.432 -0.1962  0.1707  0.1008
 9065SOL    HW138828   3.528   2.688   5.518 -2.1727  0.8822 -0.7764
 9065SOL    HW238829   3.498   2.578   5.422 -0.7943  0.9974 -3.0145
 9066SOL     OW38830   0.201   4.551   8.171  0.4266  0.2228  0.2778
 9066SOL    HW138831   0.222   4.643   8.154  0.9266  0.1694  0.6015
 9066SOL    HW238832   0.200   4.529   8.078  1.1190 -0.9549  0.5487
 9067SOL     OW38833   3.195   4.185   9.279 -1.0469 -0.2531 -0.1061
 9067SOL    HW138834   3.243   4.176   9.362  0.4977 -1.5914 -1.1421
 9067SOL    HW238835   3.110   4.152   9.307  0.6624 -4.9455 -0.4698
 9068SOL     OW38836   0.267   4.495   5.871 -0.2771  0.6611  0.0474
 9068SOL    HW138837   0.348   4.521   5.827 -0.8684  1.9428 -0.2858
 9068SOL    HW238838   0.223   4.442   5.804 -2.9363  0.6990  1.7502
 9069SOL     OW38839   2.507   2.262   2.093 -0.1724 -0.1426  0.2952
 9069SOL    HW138840   2.445   2.331   2.070 -0.4795 -0.6037 -0.2571
 9069SOL    HW238841   2.567   2.268   2.019  2.4331 -2.2282  2.2444
 9070SOL     OW38842   0.816   4.180   6.019 -0.5924  0.4039 -0.2758
 9070SOL    HW138843   0.727   4.167   5.985 -0.1292 -0.8961 -1.0022
 9070SOL    HW238844   0.802   4.265   6.060  0.3460  0.0199  0.8314
 9071SOL     OW38845   3.867   0.036   7.599 -0.0489  0.3661 -0.7596
 9071SOL    HW138846   3.902   0.111   7.648 -2.2209  1.4123 -0.8136
 9071SOL    HW238847   3.833   0.090   7.527 -0.9150  0.0527 -0.5847
 9072SOL     OW38848   4.703   3.876   1.751 -0.2985  0.3792  0.6790
 9072SOL    HW138849   4.684   3.969   1.746 -1.4781  0.1653  1.1839
 9072SOL    HW238850   0.025   3.869   1.826 -1.8573 -0.6838  1.8333
 9073SOL     OW38851   1.199   1.885   0.954  0.0662 -0.4921  0.0948
 9073SOL    HW138852   1.248   1.943   1.013  0.5709  0.2506 -1.0699
 9073SOL    HW238853   1.274   1.827   0.941  0.6751  0.3360 -0.0727
 9074SOL     OW38854   2.860   0.164   3.242  0.2840 -0.1277  0.3565
 9074SOL    HW138855   2.897   0.077   3.256  1.6424 -0.2040 -3.7941
 9074SOL    HW238856   2.929   0.205   3.190  1.3933 -0.8638  1.2487
 9075SOL     OW38857   0.165   4.603   4.935 -0.2001  0.1395  0.1849
 9075SOL    HW138858   0.198   4.659   4.865  1.6167 -0.1488  0.8327
 9075SOL    HW238859   0.235   4.613   4.999 -0.8401 -0.7500  1.0378
 9076SOL     OW38860   2.236   2.355  10.713 -0.9060  0.1262 -0.2105
 9076SOL    HW138861   2.266   2.411  10.785 -0.2419  0.7579 -0.9819
 9076SOL    HW238862   2.305   2.288  10.719  0.3277  1.7687  4.0759
 9077SOL     OW38863   1.999   1.421   7.116 -0.2727 -0.0470  0.2503
 9077SOL    HW138864   1.985   1.380   7.201 -0.5618 -0.9790 -0.2567
 9077SOL    HW238865   2.012   1.512   7.145 -1.2011  0.4736 -0.9174
 9078SOL     OW38866   2.569   3.325   2.355  0.4076 -0.2895  0.5217
 9078SOL    HW138867   2.497   3.291   2.407  0.9196 -0.2037  1.2848
 9078SOL    HW238868   2.529   3.395   2.304 -0.1306 -1.0266 -0.0662
 9079SOL     OW38869   1.706   2.071   4.325  0.6832  0.7183  0.0808
 9079SOL    HW138870   1.712   2.059   4.230  0.5282  0.8813  0.0506
 9079SOL    HW238871   1.744   2.157   4.347 -0.1519  0.9406  0.6465
 9080SOL     OW38872   2.292   4.524  15.814  0.0911 -0.3852  0.3955
 9080SOL    HW138873   2.254   4.611  15.807 -0.1237 -0.5175 -0.0705
 9080SOL    HW238874   2.357   4.545  15.748 -1.4736  2.0503 -0.3547
 9081SOL     OW38875   0.763   2.701   6.855  0.3533 -0.1694  0.1452
 9081SOL    HW138876   0.698   2.633   6.871  1.9368 -1.3723  1.5503
 9081SOL    HW238877   0.822   2.687   6.930  0.1622  2.5996  0.8320
 9082SOL     OW38878   0.010   1.288  15.335  0.5237  0.0343 -0.0873
 9082SOL    HW138879   0.026   1.325  15.248  1.3943 -1.1710 -0.4427
 9082SOL    HW238880   0.079   1.321  15.392  0.8917 -2.4145  0.9044
 9083SOL     OW38881   2.046   0.289  12.573  0.2281 -0.1203  0.1752
 9083SOL    HW138882   2.032   0.383  12.587  0.1623 -0.1319  0.1858
 9083SOL    HW238883   2.029   0.270  12.665  0.5364  1.1058  0.4890
 9084SOL     OW38884   3.043   2.504  17.287  0.5524 -0.5454 -0.5017
 9084SOL    HW138885   3.000   2.477  17.206 -0.1601 -1.0316  0.0350
 9084SOL    HW238886   3.067   2.415  17.315 -0.9381 -0.9856 -0.6261
 9085SOL     OW38887   0.360   2.478   3.180  0.0579 -0.4058 -0.1957
 9085SOL    HW138888   0.394   2.473   3.269 -2.4077 -0.8330  0.7235
 9085SOL    HW238889   0.371   2.571   3.159  1.8538 -0.4483  0.6306
 9086SOL     OW38890   4.532   1.652   6.732 -0.1449  0.5904 -0.0401
 9086SOL    HW138891   4.474   1.641   6.657 -1.8373 -0.0822  1.3729
 9086SOL    HW238892   4.602   1.701   6.688 -0.9610 -0.4404 -2.4431
 9087SOL     OW38893   1.385   2.429  17.336 -0.3537 -0.2563 -0.9368
 9087SOL    HW138894   1.395   2.501  17.274  0.0636  0.3644 -0.1494
 9087SOL    HW238895   1.462   2.379  17.308 -0.8225 -1.2106 -0.5299
 9088SOL     OW38896   1.236   1.088   5.757  0.0441  0.6142 -0.0498
 9088SOL    HW138897   1.251   1.038   5.677 -3.1317 -0.2539 -0.1048
 9088SOL    HW238898   1.191   1.169   5.730  0.5946  1.0778  0.4146
 9089SOL     OW38899   3.454   0.058  14.847  0.0837 -0.3659  0.2827
 9089SOL    HW138900   3.504   0.025  14.772  1.1275 -0.2422  0.9394
 9089SOL    HW238901   3.505   0.043  14.926 -2.7317 -2.5390  1.7071
 9090SOL     OW38902   3.470   1.709   2.375  0.6036  0.1914  0.1360
 9090SOL    HW138903   3.520   1.774   2.325  0.4071 -1.2229 -1.8977
 9090SOL    HW238904   3.384   1.751   2.374  0.0480 -0.9372  0.0387
 9091SOL     OW38905   2.007   2.481   3.460 -0.1396  0.1272  0.5091
 9091SOL    HW138906   2.032   2.413   3.523  0.9480  1.1395  1.1787
 9091SOL    HW238907   1.952   2.430   3.400  2.0743 -0.5898 -0.8921
 9092SOL     OW38908   1.272   4.039   5.753 -0.1464 -0.4958 -1.2920
 9092SOL    HW138909   1.242   4.034   5.662 -0.1557 -0.3911 -1.2950
 9092SOL    HW238910   1.197   4.079   5.796  0.5624  0.7316 -1.1802
 9093SOL     OW38911   3.987   3.918  11.513 -0.0364 -0.5395  0.2703
 9093SOL    HW138912   3.912   3.978  11.510  0.8806  0.5678 -0.1363
 9093SOL    HW238913   4.002   3.923  11.419  0.1621 -0.2556  0.3201
 9094SOL     OW38914   0.455   3.493  10.221 -0.1187 -0.1337  0.2177
 9094SOL    HW138915   0.406   3.551  10.163 -0.1586  0.9150  1.2836
 9094SOL    HW238916   0.379   3.443  10.251 -0.8941  0.6919 -0.3707
 9095SOL     OW38917   1.590   4.101   9.453 -0.4703  0.0825  0.0664
 9095SOL    HW138918   1.503   4.123   9.486 -0.2150  0.5471  0.4514
 9095SOL    HW238919   1.630   4.083   9.538 -0.8058  1.2191  0.4655
 9096SOL     OW38920   4.322   1.170   9.291 -0.9640  0.2534 -0.1662
 9096SOL    HW138921   4.405   1.141   9.330 -1.1119  0.3509  0.2221
 9096SOL    HW238922   4.282   1.216   9.366  0.9508  1.5812  0.0577
 9097SOL     OW38923   0.080   2.335   3.776 -0.0726  0.0848  0.0489
 9097SOL    HW138924   0.006   2.276   3.792  0.1949 -0.4790 -0.7843
 9097SOL    HW238925   0.120   2.283   3.707 -1.8229 -2.0387  0.6214
 9098SOL     OW38926   2.660   4.574   4.103 -0.3323  0.0405  0.4454
 9098SOL    HW138927   2.566   4.584   4.087  0.0668  2.3722 -0.4411
 9098SOL    HW238928   2.666   4.481   4.123  1.1214 -0.4526 -2.1982
 9099SOL     OW38929   2.212   3.242   6.047  0.1763  0.7675 -0.0190
 9099SOL    HW138930   2.246   3.328   6.071 -3.3458  1.8863  0.9920
 9099SOL    HW238931   2.154   3.259   5.973 -1.0907  1.7136  1.1722
 9100SOL     OW38932   4.535   0.727   6.530 -0.5260 -0.1502 -0.2919
 9100SOL    HW138933   4.471   0.782   6.575 -0.9922 -1.6396  0.8766
 9100SOL    HW238934   4.607   0.784   6.556 -0.5346 -0.0245 -0.5468
 9101SOL     OW38935   1.610   1.294   5.599 -0.0410 -0.4137 -0.1574
 9101SOL    HW138936   1.573   1.264   5.681 -2.2617  2.6502 -0.0216
 9101SOL    HW238937   1.694   1.333   5.622 -0.8279 -0.6710  3.1571
 9102SOL     OW38938   1.535   0.031   4.003 -0.3621  0.0824 -0.2746
 9102SOL    HW138939   1.570   4.727   4.081  0.2902 -0.3187 -0.7794
 9102SOL    HW238940   1.575   0.118   4.008  0.1068 -0.1726  0.4537
 9103SOL     OW38941   0.485   3.246   3.381  0.2182 -0.0914  0.0827
 9103SOL    HW138942   0.400   3.254   3.338 -0.2977 -2.6719  0.5925
 9103SOL    HW238943   0.449   3.272   3.465 -0.5521  2.6748 -1.1139
 9104SOL     OW38944   0.987   1.645   5.625 -0.3319 -0.1243  0.0671
 9104SOL    HW138945   0.987   1.626   5.531  0.9186  2.9333 -0.5476
 9104SOL    HW238946   0.985   1.740   5.614  0.6561 -0.2405 -1.0658
 9105SOL     OW38947   4.544   3.989  17.224 -0.6342 -0.4368 -0.0745
 9105SOL    HW138948   4.559   3.994  17.130 -2.3904  0.4367 -0.2961
 9105SOL    HW238949   4.517   3.897  17.229 -2.9075  0.2387 -0.1060
 9106SOL     OW38950   3.511   0.379   9.059 -0.1017  0.3221 -0.2281
 9106SOL    HW138951   3.580   0.360   8.995 -0.6045  0.3960 -0.7910
 9106SOL    HW238952   3.429   0.360   9.014 -1.4184  2.4561  1.2914
 9107SOL     OW38953   3.969   3.196   4.723 -0.0867 -0.9591 -0.3407
 9107SOL    HW138954   3.965   3.102   4.707  0.5256 -0.6279 -2.4196
 9107SOL    HW238955   3.894   3.193   4.782  0.1372 -0.0991 -0.0034
 9108SOL     OW38956   0.554   0.058   3.050  0.0080  0.2630 -0.6961
 9108SOL    HW138957   0.465   0.022   3.048  0.5710 -1.2970  1.5897
 9108SOL    HW238958   0.606   4.726   3.091  0.1546 -0.1530 -1.5932
 9109SOL     OW38959   0.226   3.951   7.087  0.0046  0.0407 -0.1824
 9109SOL    HW138960   0.256   3.989   7.004  0.6345  0.2857  0.1542
 9109SOL    HW238961   0.303   3.971   7.141  1.5558 -1.2265 -1.9385
 9110SOL     OW38962   4.732   4.102   7.041  0.6559  0.3093 -0.9259
 9110SOL    HW138963   4.661   4.089   7.104  1.0931  0.0649 -0.4878
 9110SOL    HW238964   0.065   4.054   7.083  1.1615  2.3254  0.5061
 9111SOL     OW38965   2.831   1.781   9.200 -0.5959 -0.1291  0.1041
 9111SOL    HW138966   2.822   1.857   9.257 -2.0890  0.1777 -0.5575
 9111SOL    HW238967   2.823   1.830   9.118 -0.6158 -1.3988 -0.6643
 9112SOL     OW38968   2.749   1.193   4.499  0.2371 -0.1382  0.5042
 9112SOL    HW138969   2.776   1.141   4.423 -0.0974  0.3573  0.0406
 9112SOL    HW238970   2.797   1.147   4.568 -0.1154  0.7784  1.3631
 9113SOL     OW38971   2.092   2.892   6.673  0.4141  0.3869  0.4232
 9113SOL    HW138972   2.032   2.871   6.601  0.4339 -2.6061  1.2780
 9113SOL    HW238973   2.025   2.932   6.728  1.0925  2.1416 -0.0522
 9114SOL     OW38974   4.340   4.085   3.631 -0.4338  0.1548  0.8202
 9114SOL    HW138975   4.354   3.990   3.634 -1.4552 -0.0843 -1.8706
 9114SOL    HW238976   4.337   4.111   3.539 -0.6348 -0.0103  0.7787
 9115SOL     OW38977   3.546   1.378   8.682  0.2014 -0.0158 -0.4278
 9115SOL    HW138978   3.537   1.395   8.588 -0.2939  0.6646 -0.2545
 9115SOL    HW238979   3.484   1.439   8.723  1.8222  1.1193  0.3375
 9116SOL     OW38980   1.239   2.374   1.534  0.3988  0.5744 -0.6337
 9116SOL    HW138981   1.193   2.310   1.480  0.2620 -2.0554  2.6273
 9116SOL    HW238982   1.331   2.357   1.514  0.6239 -1.8639  2.4503
 9117SOL     OW38983   2.956   2.878   4.256 -0.7479  0.2851 -0.1813
 9117SOL    HW138984   2.952   2.973   4.247 -0.1503  0.3925  0.6816
 9117SOL    HW238985   2.865   2.853   4.275 -0.4415  0.5844  1.6969
 9118SOL     OW38986   1.569   2.951  13.169 -0.1158 -0.3942  0.2436
 9118SOL    HW138987   1.484   2.921  13.137 -0.6705  0.4135  0.9615
 9118SOL    HW238988   1.550   3.007  13.244 -0.6724 -3.5626  2.4355
 9119SOL     OW38989   0.162   2.688  13.526  0.0133 -0.5272 -0.0237
 9119SOL    HW138990   0.237   2.747  13.532 -0.7705  0.2757  1.9446
 9119SOL    HW238991   0.193   2.645  13.446  0.1336  0.0255 -0.2712
 9120SOL     OW38992   4.143   2.996   5.322 -0.2354 -0.6028  0.0212
 9120SOL    HW138993   4.227   2.968   5.359 -0.7502 -0.9954  0.9079
 9120SOL    HW238994   4.115   2.918   5.273  0.9857 -0.1216 -1.4194
 9121SOL     OW38995   1.780   1.236  12.967  0.3290  0.0297  0.7610
 9121SOL    HW138996   1.747   1.158  13.013  2.2080 -2.9191 -2.8228
 9121SOL    HW238997   1.874   1.246  12.984  0.0349  1.9758  1.2325
 9122SOL     OW38998   1.878   3.712   9.656  0.3560  0.4436  0.2869
 9122SOL    HW138999   1.869   3.684   9.747  1.3341 -1.6553 -0.2729
 9122SOL    HW239000   1.946   3.656   9.620 -0.2305 -0.6718  0.9381
 9123SOL     OW39001   0.296   3.467   6.172  0.1152  0.2905 -0.2690
 9123SOL    HW139002   0.332   3.533   6.232 -0.8809 -0.1745  0.8351
 9123SOL    HW239003   0.283   3.510   6.087  1.3831  1.1201 -0.0323
 9124SOL     OW39004   1.806   3.525  11.460  0.6465  0.9656 -0.2945
 9124SOL    HW139005   1.783   3.481  11.378 -0.0662  0.5987  0.1052
 9124SOL    HW239006   1.722   3.509  11.503  0.1604  0.3174 -1.4695
 9125SOL     OW39007   4.312   1.958   9.987  0.3484 -0.1437 -0.1144
 9125SOL    HW139008   4.253   1.883   9.994 -1.3051  1.3103  1.4326
 9125SOL    HW239009   4.257   2.032  10.012 -1.1129 -0.8038 -1.3115
 9126SOL     OW39010   2.578   4.524   8.218  0.1390 -0.5991 -0.3239
 9126SOL    HW139011   2.544   4.559   8.300  0.8823 -0.1985 -0.1948
 9126SOL    HW239012   2.579   4.430   8.238  1.6238 -0.1117  1.8227
 9127SOL     OW39013   1.797   1.195  15.189  0.1627 -0.1714  0.1401
 9127SOL    HW139014   1.752   1.155  15.114  0.5842 -0.8639  0.2574
 9127SOL    HW239015   1.864   1.127  15.193  0.9849  0.5115 -1.9203
 9128SOL     OW39016   1.180   0.980   9.414  0.0244  0.1941  0.1000
 9128SOL    HW139017   1.103   0.925   9.427 -0.6249  1.0997  0.1461
 9128SOL    HW239018   1.145   1.069   9.417 -0.8851 -0.1870  0.7553
 9129SOL     OW39019   1.643   1.973   2.290 -0.2213  0.3089 -0.3529
 9129SOL    HW139020   1.618   1.952   2.380  1.7209 -1.8313 -0.3031
 9129SOL    HW239021   1.669   1.884   2.263  0.0048  1.2493 -3.2394
 9130SOL     OW39022   0.001   0.250   4.154 -0.1079  0.1221  0.0677
 9130SOL    HW139023   0.073   0.188   4.167  1.5943  2.2060  0.6112
 9130SOL    HW239024   0.036   0.302   4.082 -1.4952  0.4211 -0.3924
 9131SOL     OW39025   2.178   0.835   1.703  0.0607  0.4777 -0.0111
 9131SOL    HW139026   2.104   0.859   1.759 -0.7029  0.6154 -1.0759
 9131SOL    HW239027   2.172   0.893   1.628  1.6052 -2.6368 -2.5302
 9132SOL     OW39028   0.845   3.076   6.587 -0.0295  0.0926 -0.5329
 9132SOL    HW139029   0.814   3.144   6.646 -1.2381 -2.5068  1.8358
 9132SOL    HW239030   0.871   3.117   6.504 -0.5683 -0.8436 -1.1655
 9133SOL     OW39031   4.249   4.165   6.269  0.2111  0.1834  0.0654
 9133SOL    HW139032   4.337   4.184   6.235  0.1578  0.1533 -0.0877
 9133SOL    HW239033   4.205   4.176   6.185 -1.4507 -1.3430  0.7507
 9134SOL     OW39034   4.628   1.945   5.338  1.0900 -0.3739 -0.2072
 9134SOL    HW139035   4.595   1.891   5.267  1.6715 -0.2664 -0.5622
 9134SOL    HW239036   4.678   2.010   5.289 -0.9326  0.9717 -0.4666
 9135SOL     OW39037   4.031   1.533   5.974 -0.1954  0.5306 -0.7824
 9135SOL    HW139038   4.072   1.574   6.050  1.7872  0.4951 -1.8283
 9135SOL    HW239039   4.101   1.528   5.908 -1.2836  0.0837 -1.9027
 9136SOL     OW39040   3.640   1.989   0.561 -0.1534  0.0360 -0.3563
 9136SOL    HW139041   3.633   2.011   0.653  0.5246  2.4182 -0.8659
 9136SOL    HW239042   3.667   1.897   0.558 -1.2733 -0.3381  1.2836
 9137SOL     OW39043   0.767   0.675  11.060  0.1598 -0.7124 -0.5679
 9137SOL    HW139044   0.856   0.711  11.065  0.1831 -0.9704  1.0283
 9137SOL    HW239045   0.773   0.580  11.060  0.3506 -0.6858 -3.2105
 9138SOL     OW39046   0.534   4.277   6.972 -0.4424  0.0948 -0.5170
 9138SOL    HW139047   0.603   4.268   7.037 -0.1584 -0.9456 -0.9592
 9138SOL    HW239048   0.572   4.348   6.921  1.3646 -0.9733 -0.6793
 9139SOL     OW39049   4.391   2.849  11.883 -0.3968 -0.2616  0.4094
 9139SOL    HW139050   4.320   2.877  11.824  3.0371  0.4118 -3.3930
 9139SOL    HW239051   4.344   2.789  11.941  1.2768  0.8111  2.8465
 9140SOL     OW39052   3.232   1.771   8.112  0.0160  0.4521  0.5341
 9140SOL    HW139053   3.211   1.760   8.019 -0.2192  0.9271  0.5353
 9140SOL    HW239054   3.146   1.791   8.149 -1.1035 -4.1646  0.5526
 9141SOL     OW39055   0.909   4.184   4.331  0.3545  0.6499 -0.5644
 9141SOL    HW139056   0.876   4.094   4.337  0.8167  0.3860 -1.9597
 9141SOL    HW239057   0.835   4.232   4.295 -1.1387 -0.7672  0.6403
 9142SOL     OW39058   4.714   2.854   9.515 -0.0938 -0.0949 -0.4238
 9142SOL    HW139059   4.629   2.810   9.519 -0.2397  0.3154  1.3941
 9142SOL    HW239060   0.021   2.811   9.588 -3.2149 -0.9368  1.0085
 9143SOL     OW39061   3.447   3.842   7.356 -0.1780  0.9979  0.1265
 9143SOL    HW139062   3.406   3.863   7.440  0.3431 -2.0322  1.1499
 9143SOL    HW239063   3.527   3.893   7.366  0.6576 -0.7356  2.3402
 9144SOL     OW39064   4.028   3.882   2.820 -0.1848  0.3241 -0.3583
 9144SOL    HW139065   4.050   3.815   2.757 -0.9611 -1.5213  1.3281
 9144SOL    HW239066   3.984   3.943   2.761  0.3921  3.5483  2.5128
 9145SOL     OW39067   0.352   3.065   1.832  0.5913  0.2920 -0.1440
 9145SOL    HW139068   0.291   3.011   1.882 -1.2086  1.7377 -0.7856
 9145SOL    HW239069   0.430   3.051   1.887  1.2695 -1.5533 -1.5919
 9146SOL     OW39070   4.010   3.029  10.870 -0.1336  0.6447  0.0008
 9146SOL    HW139071   4.064   3.106  10.852  0.2887  0.2779 -0.3026
 9146SOL    HW239072   3.922   3.059  10.848 -0.7743 -0.4572  1.0637
 9147SOL     OW39073   2.984   3.181   3.452  0.1305 -0.2542  0.3825
 9147SOL    HW139074   3.045   3.254   3.449  0.2142 -0.3144  0.6913
 9147SOL    HW239075   2.901   3.225   3.467  0.4818  1.5230 -2.7941
 9148SOL     OW39076   3.500   3.049  12.563 -0.2819  0.3831  0.0923
 9148SOL    HW139077   3.432   3.115  12.578 -0.3771 -0.0286  1.4855
 9148SOL    HW239078   3.492   3.044  12.468  0.0018  0.9833  0.0381
 9149SOL     OW39079   1.819   2.310  15.063 -0.2127  0.0427 -0.1662
 9149SOL    HW139080   1.740   2.293  15.011  0.5644  1.9201 -1.9565
 9149SOL    HW239081   1.796   2.271  15.147  1.1743  0.7563  0.5504
 9150SOL     OW39082   2.459   3.429   1.444  0.3188  0.6550 -0.3145
 9150SOL    HW139083   2.490   3.509   1.400 -0.4059 -0.1678 -2.3365
 9150SOL    HW239084   2.451   3.375   1.365 -0.1447 -1.5084  1.2234
 9151SOL     OW39085   3.420   4.720  11.074 -0.5831 -0.2932 -0.4797
 9151SOL    HW139086   3.430   4.683  10.987  0.0775 -1.2499  0.0025
 9151SOL    HW239087   3.354   0.050  11.059 -0.4531 -0.4828 -1.8365
 9152SOL     OW39088   1.686   0.819   8.561 -0.4459  0.4860  0.4398
 9152SOL    HW139089   1.764   0.801   8.614  1.5494  1.6627 -2.0626
 9152SOL    HW239090   1.640   0.886   8.612 -0.6281  1.4849 -1.0189
 9153SOL     OW39091   0.543   3.876  14.533  0.2673 -0.8953  0.0976
 9153SOL    HW139092   0.548   3.915  14.620  2.2985 -0.0553 -0.3907
 9153SOL    HW239093   0.455   3.907  14.513  0.8010  0.2022 -0.5134
 9154SOL     OW39094   2.113   0.177  16.495 -0.2537  0.2292  0.5741
 9154SOL    HW139095   2.197   0.218  16.475  0.0001 -0.5430  0.0669
 9154SOL    HW239096   2.135   0.085  16.511  1.2101  0.6998  1.2940
 9155SOL     OW39097   1.975   4.005  12.784  0.6213  0.5618  0.6146
 9155SOL    HW139098   1.956   4.028  12.693  1.3095 -1.9517 -0.1434
 9155SOL    HW239099   1.897   3.955  12.807  1.0031 -0.6026 -0.6084
 9156SOL     OW39100   3.171   1.555  13.381 -0.7064 -0.0991 -0.0909
 9156SOL    HW139101   3.091   1.513  13.415 -2.1615  3.8566  1.3808
 9156SOL    HW239102   3.222   1.555  13.461 -0.1948  1.5659 -0.4147
 9157SOL     OW39103   3.047   3.884   3.020 -0.3599 -0.4179  0.1059
 9157SOL    HW139104   2.984   3.846   2.958 -0.3727  0.8987 -0.6980
 9157SOL    HW239105   2.986   3.950   3.053  0.0338  0.4857 -0.9594
 9158SOL     OW39106   0.358   4.460   9.999  0.4707  0.2778 -0.2458
 9158SOL    HW139107   0.322   4.548   9.996  0.0265  0.1916  2.7511
 9158SOL    HW239108   0.401   4.459  10.084 -0.4237 -1.2699  0.1876
 9159SOL     OW39109   1.466   0.592   2.215 -0.1338 -0.0997 -0.0652
 9159SOL    HW139110   1.440   0.539   2.140  3.3121 -2.1598  0.2031
 9159SOL    HW239111   1.380   0.609   2.255  0.9120  2.3274  1.1346
 9160SOL     OW39112   1.641   1.377  13.679  0.2626  0.2127 -0.8987
 9160SOL    HW139113   1.613   1.308  13.619 -1.8608 -1.4254  1.9882
 9160SOL    HW239114   1.583   1.451  13.659  0.5200  0.6081 -0.1719
 9161SOL     OW39115   4.680   1.791   6.996  0.1507 -0.0359 -0.1590
 9161SOL    HW139116   4.639   1.860   6.944  0.5814 -0.8160 -1.5280
 9161SOL    HW239117   4.726   1.857   7.048  0.0055 -0.3404  0.3573
 9162SOL     OW39118   4.580   0.390   2.889  0.0177  0.6179 -0.4344
 9162SOL    HW139119   4.618   0.421   2.971  2.1452 -2.1493 -0.3848
 9162SOL    HW239120   4.487   0.411   2.894 -0.1477 -0.0051 -0.8843
 9163SOL     OW39121   3.931   1.142   4.789 -0.1305 -0.3427  0.1585
 9163SOL    HW139122   3.858   1.081   4.800 -0.0547 -0.4563  0.0319
 9163SOL    HW239123   4.006   1.102   4.834  2.0874  1.9685 -1.4340
 9164SOL     OW39124   0.450   3.249   6.251 -0.4934 -0.4223 -0.3341
 9164SOL    HW139125   0.528   3.302   6.267  0.6041 -1.5155 -2.1086
 9164SOL    HW239126   0.377   3.307   6.229 -0.2300  0.7767  1.9119
 9165SOL     OW39127   2.686   3.788   8.870  0.1417 -0.2793 -0.0961
 9165SOL    HW139128   2.748   3.761   8.801  0.2062  4.7027 -1.9453
 9165SOL    HW239129   2.602   3.776   8.827  1.2239  1.7196 -2.7851
 9166SOL     OW39130   0.163   2.733   3.944 -0.4280  0.6084 -0.4455
 9166SOL    HW139131   0.222   2.779   4.004 -1.1242  2.7894 -1.4293
 9166SOL    HW239132   0.222   2.747   3.871  0.1105  1.4445  0.1406
 9167SOL     OW39133   2.170   2.863   0.567  0.8752  0.7623  0.4759
 9167SOL    HW139134   2.151   2.856   0.473 -1.6435  1.1556  0.9338
 9167SOL    HW239135   2.265   2.857   0.567  0.7797 -0.9038 -0.5821
 9168SOL     OW39136   1.823   0.487   5.288 -0.1184 -0.2852  0.2783
 9168SOL    HW139137   1.737   0.507   5.251  2.0179  1.1977 -3.9075
 9168SOL    HW239138   1.853   0.578   5.291 -1.2447  0.0594  1.1397
 9169SOL     OW39139   0.909   2.671   6.566 -0.1576 -1.1491 -0.1376
 9169SOL    HW139140   0.847   2.643   6.634  0.6058 -0.7756  0.7143
 9169SOL    HW239141   0.990   2.640   6.607 -0.5762  0.0864  1.6472
 9170SOL     OW39142   0.387   1.702   4.771 -0.7708  0.0860  0.2370
 9170SOL    HW139143   0.360   1.708   4.863 -3.8274  2.9006 -0.8196
 9170SOL    HW239144   0.305   1.722   4.726 -1.5564  1.8854  2.4557
 9171SOL     OW39145   2.457   3.818   8.411 -0.4754 -0.8928 -0.3911
 9171SOL    HW139146   2.403   3.891   8.383  0.3154  0.1451  0.8012
 9171SOL    HW239147   2.535   3.834   8.357  0.3790 -0.3569  0.9848
 9172SOL     OW39148   3.720   2.851   5.689  0.4975  0.1938  0.2009
 9172SOL    HW139149   3.755   2.865   5.601  1.5518 -0.0181  0.5897
 9172SOL    HW239150   3.750   2.765   5.717 -3.3327 -1.8372 -1.8942
 9173SOL     OW39151   4.230   2.638  15.213 -1.1481 -0.6307 -0.3373
 9173SOL    HW139152   4.275   2.554  15.217 -0.1980 -0.2559 -2.7711
 9173SOL    HW239153   4.235   2.666  15.121 -3.0217  1.4584  0.1977
 9174SOL     OW39154   3.856   0.477   2.285 -0.7625 -0.2718 -0.0884
 9174SOL    HW139155   3.823   0.539   2.220  1.7442 -0.3717 -1.4549
 9174SOL    HW239156   3.779   0.459   2.339  0.7766 -4.4830  0.6916
 9175SOL     OW39157   2.743   3.252   7.238 -0.4467  0.1388  0.2609
 9175SOL    HW139158   2.766   3.162   7.258  0.0181 -0.1150 -1.3590
 9175SOL    HW239159   2.706   3.289   7.318 -0.3721 -1.7773  1.1833
 9176SOL     OW39160   1.664   3.493   0.160  0.9150 -0.4450 -0.2745
 9176SOL    HW139161   1.638   3.401   0.156 -1.3905  0.2057 -0.2956
 9176SOL    HW239162   1.608   3.534   0.094  4.1275  1.6534 -1.7056
 9177SOL     OW39163   4.426   2.129   3.571  0.5077 -1.0847 -0.0214
 9177SOL    HW139164   4.364   2.191   3.608  1.7890  1.4508 -2.1665
 9177SOL    HW239165   4.456   2.176   3.494  1.2050 -0.6672  0.5003
 9178SOL     OW39166   2.949   3.870   4.275 -0.0188 -0.2482 -0.1862
 9178SOL    HW139167   3.028   3.845   4.323  0.4269  2.0793  0.2768
 9178SOL    HW239168   2.895   3.795   4.302  0.6220 -1.6029 -2.6987
 9179SOL     OW39169   2.382   1.837  16.891  0.0056 -0.1500  0.1482
 9179SOL    HW139170   2.369   1.762  16.950 -2.1949  0.6697  0.7060
 9179SOL    HW239171   2.341   1.908  16.941 -3.1048 -1.2342 -0.8442
 9180SOL     OW39172   1.927   3.974   5.951 -0.6392  0.1120  0.5178
 9180SOL    HW139173   1.971   4.058   5.939 -0.9354  0.3160  0.8604
 9180SOL    HW239174   1.871   4.001   6.023  1.4418  3.4163  0.9171
 9181SOL     OW39175   0.134   3.869   1.964 -0.1621  0.0723 -0.4655
 9181SOL    HW139176   0.207   3.917   2.004  0.6114 -1.9289  0.5111
 9181SOL    HW239177   0.059   3.888   2.020 -0.4348  2.1988 -1.5690
 9182SOL     OW39178   1.763   3.967  10.152 -0.0228  0.0999 -0.2226
 9182SOL    HW139179   1.770   3.911  10.075  2.1878  0.0426  0.0199
 9182SOL    HW239180   1.782   3.913  10.228  1.3626 -1.3990 -1.6558
 9183SOL     OW39181   1.126   2.373  13.051 -0.3733 -0.8132 -0.0968
 9183SOL    HW139182   1.064   2.441  13.076  0.4576 -0.1238  0.0591
 9183SOL    HW239183   1.093   2.297  13.099  0.8762 -0.6987  0.9223
 9184SOL     OW39184   0.630   4.453  14.161 -0.0644 -0.2004 -0.4420
 9184SOL    HW139185   0.638   4.466  14.067  1.4576 -0.2805 -0.3195
 9184SOL    HW239186   0.705   4.509  14.184  0.0969 -0.3992 -0.4835
 9185SOL     OW39187   4.477   2.848   5.708 -0.0712  0.4692 -0.3135
 9185SOL    HW139188   4.527   2.930   5.700 -0.8058  0.9016 -0.4346
 9185SOL    HW239189   4.390   2.883   5.723  0.7683  1.6197  1.8949
 9186SOL     OW39190   3.554   0.011   3.851 -0.0595  0.1772 -0.2575
 9186SOL    HW139191   3.504   0.091   3.867 -0.1422 -0.5059  2.8291
 9186SOL    HW239192   3.576   4.722   3.940 -3.5314 -2.0209 -0.0466
 9187SOL     OW39193   4.645   1.171   9.024  0.4038 -0.0806 -0.0621
 9187SOL    HW139194   4.551   1.157   9.014  0.0798  1.4492  0.9092
 9187SOL    HW239195   4.644   1.195   9.116  0.7920  1.6891 -0.5249
 9188SOL     OW39196   2.794   0.809   8.382 -0.7424  0.7692  0.6901
 9188SOL    HW139197   2.730   0.835   8.316  0.3799 -0.1019 -0.7283
 9188SOL    HW239198   2.839   0.892   8.394  1.3555 -0.3178  0.2716
 9189SOL     OW39199   0.808   1.274   9.656  0.3356 -0.6199 -0.4978
 9189SOL    HW139200   0.805   1.341   9.588  1.2865 -2.1849 -2.0902
 9189SOL    HW239201   0.761   1.311   9.731  0.9795  2.3936 -1.6095
 9190SOL     OW39202   2.597   2.200   4.174  0.1319 -0.1037  0.0475
 9190SOL    HW139203   2.691   2.182   4.184  0.2564  0.3216 -0.3857
 9190SOL    HW239204   2.568   2.109   4.183  1.5778 -0.5337  0.4818
 9191SOL     OW39205   3.083   1.934   2.069 -0.5571  0.0372  0.0427
 9191SOL    HW139206   3.033   1.876   2.127 -1.1031 -0.2656 -0.7285
 9191SOL    HW239207   3.014   1.982   2.024  1.5226  1.7813 -1.2550
 9192SOL     OW39208   1.336   3.284   1.876 -0.2114  0.3629  0.5561
 9192SOL    HW139209   1.352   3.190   1.884 -0.6294  0.4192  2.0617
 9192SOL    HW239210   1.357   3.297   1.783  0.2748  1.2256  0.7882
 9193SOL     OW39211   1.273   3.066  15.211 -0.2512  0.2133  0.2042
 9193SOL    HW139212   1.335   3.109  15.271  0.2133  0.6602 -0.5923
 9193SOL    HW239213   1.333   3.000  15.176  1.5793  0.5665  2.6629
 9194SOL     OW39214   2.802   1.793   7.046  0.2406 -0.9372  0.3482
 9194SOL    HW139215   2.859   1.870   7.043 -0.6171 -0.2682  1.0941
 9194SOL    HW239216   2.847   1.735   6.985 -1.5182 -2.3985  0.4265
 9195SOL     OW39217   4.475   1.439   2.457 -0.1805  0.2534 -0.4984
 9195SOL    HW139218   4.537   1.510   2.473  1.5890 -1.9260  2.2905
 9195SOL    HW239219   4.532   1.368   2.429 -1.1339 -0.6817 -0.0878
 9196SOL     OW39220   4.189   0.757   8.044  0.4462  0.4258 -0.0482
 9196SOL    HW139221   4.138   0.679   8.022  0.8154  0.3870 -0.7605
 9196SOL    HW239222   4.251   0.724   8.108  0.3465 -1.6812 -1.0514
 9197SOL     OW39223   1.009   0.310  13.312  0.2754  0.4670 -0.8786
 9197SOL    HW139224   1.055   0.247  13.256  0.6958  0.6386 -0.7217
 9197SOL    HW239225   0.928   0.317  13.260 -1.3755 -0.8430  1.5208
 9198SOL     OW39226   0.313   3.036  11.282  0.0459 -0.0757 -0.2926
 9198SOL    HW139227   0.404   3.064  11.284  0.1082 -0.2527 -0.8998
 9198SOL    HW239228   0.311   2.942  11.263  1.1418 -0.1162 -0.2374
 9199SOL     OW39229   4.196   0.861   8.771 -0.0597 -0.3051  0.2384
 9199SOL    HW139230   4.142   0.876   8.848 -0.7569  0.2324 -0.3565
 9199SOL    HW239231   4.165   0.774   8.744 -0.4951  0.3673 -1.4364
 9200SOL     OW39232   3.506   0.578   5.497  0.6114  0.4326 -0.4295
 9200SOL    HW139233   3.476   0.582   5.406 -2.0602 -0.5848  0.4104
 9200SOL    HW239234   3.522   0.669   5.520 -2.6433  0.4424  1.8313
 9201SOL     OW39235   0.723   4.567   7.475  0.1820  0.4824  0.3332
 9201SOL    HW139236   0.766   4.646   7.441  1.1468  0.1623  0.8198
 9201SOL    HW239237   0.661   4.548   7.404 -1.2597  0.0817  1.7114
 9202SOL     OW39238   4.271   4.437   8.193 -0.0146  0.3599  0.1764
 9202SOL    HW139239   4.176   4.437   8.182  0.0162 -1.4871 -0.1075
 9202SOL    HW239240   4.282   4.492   8.270 -3.3527  0.4685  0.5684
 9203SOL     OW39241   3.408   2.795   6.159  0.3589 -0.1638  0.4615
 9203SOL    HW139242   3.368   2.812   6.074  0.1149  0.3368  0.6756
 9203SOL    HW239243   3.355   2.853   6.214 -0.7018  0.5862 -1.3430
 9204SOL     OW39244   3.268   1.680   6.693  0.1699  0.3438 -0.0287
 9204SOL    HW139245   3.199   1.618   6.668  0.2201  0.0670  0.5149
 9204SOL    HW239246   3.296   1.652   6.780  0.8359  0.3136 -0.2525
 9205SOL     OW39247   1.852   1.199   9.484 -0.3954 -0.2952  0.5129
 9205SOL    HW139248   1.835   1.107   9.501  1.2505 -1.0175 -1.7815
 9205SOL    HW239249   1.760   1.222   9.468  0.1989  2.1644  0.5638
 9206SOL     OW39250   1.491   4.271   1.912 -0.1590 -0.6821  0.8540
 9206SOL    HW139251   1.561   4.302   1.970  2.3486 -1.3973 -1.7912
 9206SOL    HW239252   1.456   4.353   1.877  0.0252 -0.4353  1.2504
 9207SOL     OW39253   3.646   1.244   2.925  0.3309  0.0160 -0.3621
 9207SOL    HW139254   3.638   1.335   2.897  1.4505 -0.0812 -0.9696
 9207SOL    HW239255   3.594   1.254   3.005 -0.6117 -1.6773 -0.7573
 9208SOL     OW39256   2.854   3.892   0.119 -0.0762 -0.5331 -0.1271
 9208SOL    HW139257   2.764   3.878   0.150 -0.1751 -1.1726 -0.7246
 9208SOL    HW239258   2.886   3.810   0.083 -0.2504 -0.1240 -1.1891
 9209SOL     OW39259   1.377   4.481  13.321 -0.1358 -0.3628 -0.0304
 9209SOL    HW139260   1.426   4.494  13.403  0.7194  0.5826 -0.6977
 9209SOL    HW239261   1.406   4.397  13.286  0.5672 -0.5920  1.0886
 9210SOL     OW39262   3.082   1.287   4.336 -0.0160 -0.3911 -0.1287
 9210SOL    HW139263   3.166   1.314   4.298 -0.4084 -0.8654 -1.3446
 9210SOL    HW239264   3.100   1.207   4.385 -0.0909 -0.0407  0.4734
 9211SOL     OW39265   2.546   0.083   1.640  0.2118  0.2465 -0.1211
 9211SOL    HW139266   2.556   0.038   1.556  2.6966  4.1632 -1.8769
 9211SOL    HW239267   2.577   0.014   1.699 -0.7137 -0.0117  0.0722
 9212SOL     OW39268   2.238   4.570   9.003  0.0115 -0.1948  0.8909
 9212SOL    HW139269   2.330   4.581   8.980  0.1212 -1.4294  0.7405
 9212SOL    HW239270   2.219   4.477   8.997  2.3051 -0.5918 -0.4854
 9213SOL     OW39271   1.883   4.275   6.734  0.2522  0.3814 -0.4606
 9213SOL    HW139272   1.885   4.264   6.830 -2.9473 -1.8095 -0.6455
 9213SOL    HW239273   1.835   4.357   6.725 -0.7458 -0.1811 -0.3040
 9214SOL     OW39274   2.114   1.041   5.118 -0.5011 -0.0233  0.4888
 9214SOL    HW139275   2.135   1.074   5.030  1.3868  0.1609  1.0039
 9214SOL    HW239276   2.048   0.972   5.110 -1.1047  0.7354 -1.1761
 9215SOL     OW39277   4.604   2.360   6.603  0.0929  0.4175 -0.0079
 9215SOL    HW139278   4.686   2.402   6.627 -0.1816  0.4088  0.9587
 9215SOL    HW239279   4.570   2.401   6.524 -0.2295  0.6446  0.2482
 9216SOL     OW39280   1.630   1.680   1.795 -0.1595  0.0646  0.1412
 9216SOL    HW139281   1.682   1.689   1.875 -0.1144 -1.2677  0.2615
 9216SOL    HW239282   1.547   1.658   1.837 -1.0176  1.0395 -1.0390
 9217SOL     OW39283   2.173   3.369   8.949 -0.3274 -0.6983  0.4084
 9217SOL    HW139284   2.097   3.382   8.892 -0.2849  3.8619  1.4210
 9217SOL    HW239285   2.243   3.408   8.897 -0.2998 -1.8363 -0.4068
 9218SOL     OW39286   4.492   4.462  12.833 -0.0299 -0.1019 -0.1306
 9218SOL    HW139287   4.583   4.466  12.862 -0.4897 -2.6508  1.5977
 9218SOL    HW239288   4.446   4.406  12.895  0.6601  0.0729  0.5440
 9219SOL     OW39289   0.934   1.119   4.158 -0.6436  0.3245 -0.0406
 9219SOL    HW139290   0.900   1.205   4.183  1.3305  1.3950 -1.1086
 9219SOL    HW239291   0.864   1.081   4.105  1.2536 -1.0317 -1.5669
 9220SOL     OW39292   1.074   1.965   9.715 -0.0347 -0.2175  0.2870
 9220SOL    HW139293   1.049   1.878   9.746 -0.4095 -0.5154 -0.8468
 9220SOL    HW239294   1.158   1.970   9.760  0.8044  1.8439 -1.4969
 9221SOL     OW39295   0.699   1.573   9.810  0.1778 -0.5060  0.1539
 9221SOL    HW139296   0.611   1.607   9.825 -0.3033 -1.3963 -0.6531
 9221SOL    HW239297   0.729   1.608   9.726  0.9158  1.1731  1.1227
 9222SOL     OW39298   4.326   4.071   4.909  0.2784  0.0148 -1.1067
 9222SOL    HW139299   4.301   3.982   4.931 -2.2476  1.2247  0.8694
 9222SOL    HW239300   4.352   4.111   4.992 -1.4933  1.1669 -1.0832
 9223SOL     OW39301   1.976   0.947   3.288  0.8375 -0.0290  0.1170
 9223SOL    HW139302   2.063   0.916   3.264  1.0820 -0.6509  1.8090
 9223SOL    HW239303   1.930   0.865   3.306  1.0037 -0.1949 -0.2114
 9224SOL     OW39304   1.533   4.095   3.200  0.8888 -0.5181 -0.2844
 9224SOL    HW139305   1.599   4.165   3.211 -2.3797  2.1831  2.3215
 9224SOL    HW239306   1.493   4.121   3.118  0.0962  0.0841  0.2975
 9225SOL     OW39307   3.484   4.160  17.571  0.1633  0.0941  0.3590
 9225SOL    HW139308   3.470   4.254  17.582 -2.4949 -0.2264 -0.4490
 9225SOL    HW239309   3.555   4.158  17.507  0.2765 -2.0277  0.5489
 9226SOL     OW39310   1.209   4.439   4.954 -0.0427 -0.1090  0.4510
 9226SOL    HW139311   1.126   4.448   5.002 -0.7471  1.6416 -1.0896
 9226SOL    HW239312   1.204   4.511   4.891  0.2607  0.1782  0.7541
 9227SOL     OW39313   1.240   3.218  11.942  0.5026 -0.4702  0.0130
 9227SOL    HW139314   1.242   3.147  12.006  1.5478 -2.0163 -1.7156
 9227SOL    HW239315   1.332   3.239  11.957  0.7733 -0.3301 -1.8608
 9228SOL     OW39316   4.281   3.567   4.818 -0.1419  0.2416  0.3383
 9228SOL    HW139317   4.209   3.596   4.763  1.9712  0.2043 -2.4199
 9228SOL    HW239318   4.237   3.486   4.846  1.5084 -1.2378 -1.3506
 9229SOL     OW39319   1.165   3.825   7.484 -0.3172 -0.0739  0.1568
 9229SOL    HW139320   1.189   3.753   7.425  1.1240  1.1171 -0.7240
 9229SOL    HW239321   1.198   3.800   7.570  0.1541 -1.2443 -0.3623
 9230SOL     OW39322   0.637   2.197  16.327 -0.2427 -0.1918  0.7340
 9230SOL    HW139323   0.587   2.156  16.398 -0.5916  0.3536  0.8039
 9230SOL    HW239324   0.611   2.286  16.350  4.1071  0.3226  3.8632
 9231SOL     OW39325   4.578   3.388   0.317 -0.1320 -0.0517  0.4023
 9231SOL    HW139326   4.671   3.406   0.318 -0.3162  0.9510 -0.4786
 9231SOL    HW239327   4.542   3.468   0.279  2.4516  1.8594  1.9488
 9232SOL     OW39328   0.590   3.122   1.670  0.5863 -0.2732  0.8532
 9232SOL    HW139329   0.524   3.094   1.734 -1.0598  1.3349 -0.1426
 9232SOL    HW239330   0.619   3.197   1.722  1.5198 -0.0970  0.0579
 9233SOL     OW39331   4.168   2.694   7.823  0.1305  0.5775  0.1805
 9233SOL    HW139332   4.154   2.717   7.915 -1.8065  0.7560 -0.1604
 9233SOL    HW239333   4.166   2.778   7.777  1.2132  0.3433 -0.2948
 9234SOL     OW39334   1.262   0.383   4.692  0.3466 -0.2361  0.2682
 9234SOL    HW139335   1.264   0.478   4.682  0.6250 -0.0238  2.2568
 9234SOL    HW239336   1.170   0.367   4.674  0.3387 -1.7954  1.6592
 9235SOL     OW39337   0.311   1.227   8.157 -0.0381  0.0372 -0.2407
 9235SOL    HW139338   0.402   1.204   8.173 -0.3628 -2.5243 -2.1063
 9235SOL    HW239339   0.288   1.177   8.079  1.6884  1.1496 -1.4433
 9236SOL     OW39340   4.556   3.700   0.727 -0.2041 -0.5818 -0.3788
 9236SOL    HW139341   4.536   3.779   0.678 -1.8154  0.2693  1.6482
 9236SOL    HW239342   4.593   3.744   0.804 -0.0923 -1.4375  0.0520
 9237SOL     OW39343   1.286   0.159   6.346  0.0549 -0.0450 -0.1741
 9237SOL    HW139344   1.353   0.152   6.413  0.0452 -0.0540 -0.1653
 9237SOL    HW239345   1.310   0.238   6.297  0.5480 -0.4877 -0.6544
 9238SOL     OW39346   1.900   4.183  17.689  0.4687 -0.1094 -0.1772
 9238SOL    HW139347   1.910   4.247   0.011  2.8781 -0.8435  0.1644
 9238SOL    HW239348   1.833   4.231  17.642  0.4321 -0.2389 -0.2580
 9239SOL     OW39349   3.769   0.197   3.713 -0.4146  0.0584  0.7867
 9239SOL    HW139350   3.826   0.249   3.655 -1.1062 -0.3204 -0.2368
 9239SOL    HW239351   3.717   0.149   3.649 -0.4887  0.0759  0.8341
 9240SOL     OW39352   4.223   2.891   9.632  0.2374 -0.4317  0.8188
 9240SOL    HW139353   4.301   2.836   9.627  1.5308  1.3509  1.4018
 9240SOL    HW239354   4.248   2.968   9.683  0.9609 -0.2220  0.1548
 9241SOL     OW39355   2.522   0.516   0.477 -0.0574 -0.2410 -0.0928
 9241SOL    HW139356   2.562   0.510   0.564 -0.8416 -2.5739  0.0825
 9241SOL    HW239357   2.469   0.595   0.483 -0.3349 -0.5910  1.9852
 9242SOL     OW39358   2.390   2.350   6.507  0.2941  0.3257  0.0257
 9242SOL    HW139359   2.333   2.413   6.463 -0.0109 -0.6397 -0.9607
 9242SOL    HW239360   2.368   2.274   6.454  1.7046 -1.8581  2.5646
 9243SOL     OW39361   2.007   2.086  11.860  0.2116 -0.0653 -0.1229
 9243SOL    HW139362   1.980   2.095  11.952  1.5490 -0.7538  0.3383
 9243SOL    HW239363   2.093   2.045  11.858  0.2240  0.0521 -2.1623
 9244SOL     OW39364   0.992   2.876   7.413  0.4180 -0.4599  0.2646
 9244SOL    HW139365   1.001   2.920   7.329  3.0479  0.7546  1.1460
 9244SOL    HW239366   1.041   2.936   7.470 -2.3414  1.7894  0.2647
 9245SOL     OW39367   1.705   2.296  12.957  0.3944 -0.5662 -0.7862
 9245SOL    HW139368   1.781   2.316  13.012  0.0668  1.4506 -1.0465
 9245SOL    HW239369   1.636   2.350  12.995  1.3861  0.7232 -0.8077
 9246SOL     OW39370   0.507   3.029  17.283  0.7382 -0.0008 -0.5640
 9246SOL    HW139371   0.587   3.015  17.232  0.4090  1.0684 -1.3753
 9246SOL    HW239372   0.473   3.105  17.235 -1.3667 -1.3569 -1.1914
 9247SOL     OW39373   0.101   3.672   4.661  0.3572 -0.1597 -0.1151
 9247SOL    HW139374   0.044   3.596   4.658  1.4342 -0.9320 -1.1618
 9247SOL    HW239375   0.062   3.719   4.734 -2.6965 -3.1737  0.1549
 9248SOL     OW39376   0.829   0.713   9.022  0.0852 -0.5323 -0.1929
 9248SOL    HW139377   0.751   0.660   9.007 -0.7465  0.6117  0.0417
 9248SOL    HW239378   0.786   0.797   9.041 -2.1610 -1.6460 -0.4186
 9249SOL     OW39379   0.855   0.741  16.166  0.3635 -0.3001  0.1789
 9249SOL    HW139380   0.762   0.723  16.153  1.0571 -1.8149 -2.8183
 9249SOL    HW239381   0.891   0.654  16.182 -2.5693 -1.2396  1.5900
 9250SOL     OW39382   1.365   0.624   3.952 -0.5485 -0.3100  0.2319
 9250SOL    HW139383   1.353   0.588   3.864 -1.7725 -0.8802  0.6218
 9250SOL    HW239384   1.452   0.662   3.943 -0.3604 -0.8085 -0.1062
 9251SOL     OW39385   0.910   3.122   2.029  0.3749  0.5552 -0.1359
 9251SOL    HW139386   0.842   3.107   2.094 -0.8572  1.3407 -1.2585
 9251SOL    HW239387   0.877   3.075   1.952 -0.3713 -0.7484  0.9805
 9252SOL     OW39388   2.199   4.298  13.956  0.1472  0.0547  0.2170
 9252SOL    HW139389   2.273   4.259  14.002 -0.0544 -1.4317 -0.7024
 9252SOL    HW239390   2.131   4.230  13.955  1.0779 -0.8900  1.2915
 9253SOL     OW39391   3.498   0.670   8.102  0.0415 -0.4728  0.0592
 9253SOL    HW139392   3.571   0.723   8.071  0.6504 -2.3603 -1.7391
 9253SOL    HW239393   3.486   0.722   8.182 -1.1039 -2.2285  1.0437
 9254SOL     OW39394   3.372   0.603   2.296  0.6092  0.1128  0.3897
 9254SOL    HW139395   3.336   0.673   2.350  0.9195  0.7953 -0.2925
 9254SOL    HW239396   3.291   0.567   2.260  1.7709  0.5206 -2.5814
 9255SOL     OW39397   4.063   3.750  17.664 -0.1791 -0.2882  0.0910
 9255SOL    HW139398   4.023   3.714  17.743  1.7095 -1.3793  0.5567
 9255SOL    HW239399   3.984   3.765  17.612 -1.8052 -1.0867  2.3130
 9256SOL     OW39400   3.582   1.151   2.198  0.3411 -0.6078 -0.4713
 9256SOL    HW139401   3.512   1.152   2.132 -0.8841 -1.2605  0.8299
 9256SOL    HW239402   3.645   1.198   2.143 -0.0439  2.1720  1.4374
 9257SOL     OW39403   1.918   1.808   3.191  0.3550 -0.0884 -0.1814
 9257SOL    HW139404   1.931   1.735   3.130 -0.8937 -2.4430  2.4144
 9257SOL    HW239405   1.894   1.764   3.272 -2.3084  1.7173  0.0201
 9258SOL     OW39406   1.404   4.470  11.151 -0.0888  0.0880 -0.1624
 9258SOL    HW139407   1.386   4.422  11.070 -1.9669  0.1571  0.1960
 9258SOL    HW239408   1.437   4.556  11.125 -0.7401  0.6258  0.7751
 9259SOL     OW39409   1.337   3.768   5.606  0.3944  0.4218  0.1202
 9259SOL    HW139410   1.396   3.695   5.621  1.1183  1.2390  1.2203
 9259SOL    HW239411   1.257   3.755   5.656  0.4590  1.3199  0.4670
 9260SOL     OW39412   1.541   0.977   7.975  0.0842 -0.5339  0.4338
 9260SOL    HW139413   1.566   1.053   7.922  1.9436  0.4829  2.7355
 9260SOL    HW239414   1.612   0.914   7.960 -0.2248 -0.5600 -0.8959
 9261SOL     OW39415   0.283   3.006   2.861 -0.6088 -0.2909 -0.2138
 9261SOL    HW139416   0.355   3.052   2.904 -0.3342  0.8809 -1.9242
 9261SOL    HW239417   0.311   2.916   2.877  0.6103  0.3227  1.0628
 9262SOL     OW39418   4.344   2.765   3.073  0.2834 -0.0686 -0.0214
 9262SOL    HW139419   4.379   2.689   3.119  2.8501  1.3386  0.3592
 9262SOL    HW239420   4.305   2.826   3.136  1.0120  0.0770  0.2845
 9263SOL     OW39421   2.847   2.488   3.538  0.3676 -0.4393 -0.3120
 9263SOL    HW139422   2.754   2.512   3.536  1.0374  2.0459 -0.5525
 9263SOL    HW239423   2.853   2.438   3.456 -1.4680  0.0964 -0.7841
 9264SOL     OW39424   2.642   3.273   8.534  0.6118 -0.2391  0.2067
 9264SOL    HW139425   2.649   3.274   8.439 -0.0599 -2.5734  0.1306
 9264SOL    HW239426   2.555   3.311   8.549  0.6346  0.1050 -0.5594
 9265SOL     OW39427   0.470   0.014   3.478 -0.3519 -0.2388  0.2681
 9265SOL    HW139428   0.442   4.676   3.426 -1.6002  0.3334  0.1119
 9265SOL    HW239429   0.423   4.734   3.559 -0.1487 -2.4210 -0.1068
 9266SOL     OW39430   0.213   3.784   3.176  0.0353  0.2404 -0.0825
 9266SOL    HW139431   0.301   3.747   3.185  0.5172  1.6228  0.9477
 9266SOL    HW239432   0.157   3.707   3.175 -2.4951  2.0833 -0.8360
 9267SOL     OW39433   2.526   2.741   3.142 -0.6150 -0.5456 -0.5403
 9267SOL    HW139434   2.545   2.810   3.079  1.2035 -1.4929 -1.0171
 9267SOL    HW239435   2.600   2.737   3.203 -1.9507 -0.8004  1.0651
 9268SOL     OW39436   0.564   4.571   5.146  0.2630 -0.8712 -0.0853
 9268SOL    HW139437   0.492   4.627   5.173  1.6723 -0.1087  2.1235
 9268SOL    HW239438   0.517   4.492   5.122 -1.0968  0.1393 -0.7044
 9269SOL     OW39439   1.353   2.027  14.075  0.5842  0.5585  0.4285
 9269SOL    HW139440   1.349   2.099  14.137  1.4535 -0.8354  2.1021
 9269SOL    HW239441   1.347   1.955  14.138 -1.2648 -0.3285 -0.7632
 9270SOL     OW39442   2.939   2.759  17.208  0.0171  0.1285  0.1364
 9270SOL    HW139443   2.995   2.682  17.217 -0.4927  0.1607  3.5021
 9270SOL    HW239444   2.996   2.832  17.233  0.7897 -0.2841 -0.4163
 9271SOL     OW39445   2.399   4.385   3.191  0.6308 -0.2867  0.7893
 9271SOL    HW139446   2.414   4.295   3.221  0.1033 -0.4345  0.6077
 9271SOL    HW239447   2.331   4.409   3.254  2.1119  1.8745  1.5879
 9272SOL     OW39448   3.450   2.195   7.839  0.3926  0.7085 -0.4038
 9272SOL    HW139449   3.491   2.148   7.912  1.0163 -0.5239 -1.5353
 9272SOL    HW239450   3.388   2.254   7.881  1.8164 -1.1901  4.3384
 9273SOL     OW39451   1.065   2.594   9.068  0.6383 -0.2145  0.5465
 9273SOL    HW139452   1.051   2.513   9.116  0.2737 -0.2114  0.4518
 9273SOL    HW239453   1.158   2.593   9.049  0.5546 -1.9046  0.2455
 9274SOL     OW39454   3.127   4.074  11.220  0.4261 -0.0866  0.8077
 9274SOL    HW139455   3.055   4.126  11.184 -1.5344 -2.1481  1.7754
 9274SOL    HW239456   3.072   4.017  11.274 -0.3027  0.0335  0.1963
 9275SOL     OW39457   0.111   1.145   6.621  0.1516 -0.7859  0.0227
 9275SOL    HW139458   0.203   1.136   6.648 -0.0784 -2.5342  0.1889
 9275SOL    HW239459   0.087   1.225   6.668 -0.7347 -1.7596  1.1975
 9276SOL     OW39460   2.277   2.834   6.868  0.0788 -0.7506  0.5996
 9276SOL    HW139461   2.214   2.854   6.798  0.0242  1.8585  1.4024
 9276SOL    HW239462   2.234   2.886   6.936 -0.1286 -2.2685  1.5993
 9277SOL     OW39463   0.968   2.554   8.777  0.1111  0.3988  0.0665
 9277SOL    HW139464   0.897   2.616   8.761 -0.7711  0.2060  3.2616
 9277SOL    HW239465   0.952   2.539   8.870 -0.7905  1.9604  0.1566
 9278SOL     OW39466   3.578   4.559   2.437  0.4821  0.3823 -0.2733
 9278SOL    HW139467   3.660   4.523   2.403  0.7560  0.7910 -0.0502
 9278SOL    HW239468   3.597   4.573   2.529  0.8787  0.6514 -0.3946
 9279SOL     OW39469   1.936   4.479  14.846 -0.1315  0.1507 -0.2278
 9279SOL    HW139470   1.996   4.472  14.772 -0.1527 -1.1248 -0.1241
 9279SOL    HW239471   1.998   4.442  14.909 -0.0057 -0.8876 -0.9599
 9280SOL     OW39472   3.455   3.450   2.373 -0.2667  0.4045  0.5662
 9280SOL    HW139473   3.547   3.438   2.394 -0.8963 -0.8761  2.5965
 9280SOL    HW239474   3.456   3.445   2.277 -1.6260  1.5085  0.5024
 9281SOL     OW39475   3.118   2.315   2.846 -0.2609 -0.1422  0.1854
 9281SOL    HW139476   3.135   2.220   2.849 -1.0912 -0.2385  1.8162
 9281SOL    HW239477   3.023   2.315   2.844 -0.2064 -3.6990 -2.2877
 9282SOL     OW39478   1.690   2.806   7.579 -0.0204 -0.4051  0.1433
 9282SOL    HW139479   1.665   2.720   7.543 -1.0297 -0.1353  0.1819
 9282SOL    HW239480   1.606   2.849   7.598  0.7723  0.7099  1.1005
 9283SOL     OW39481   3.196   4.730  16.828  0.3294  0.2982 -0.4466
 9283SOL    HW139482   3.238   0.076  16.809 -0.8564  0.6843 -1.3466
 9283SOL    HW239483   3.107   0.021  16.809  0.8414  2.0522 -0.1678
 9284SOL     OW39484   2.459   4.040   2.469  0.2147 -0.3879 -0.4327
 9284SOL    HW139485   2.497   3.963   2.426  1.2886 -0.4211  0.5660
 9284SOL    HW239486   2.393   4.062   2.404 -1.3053  0.0951  1.2787
 9285SOL     OW39487   1.117   0.816   2.952 -0.3838 -0.4243 -0.0069
 9285SOL    HW139488   1.128   0.871   3.029  0.8333 -1.3124  0.4420
 9285SOL    HW239489   1.061   0.873   2.899  2.8498  2.3199 -0.4537
 9286SOL     OW39490   2.638   1.916  14.280 -0.1795  0.2121 -0.2489
 9286SOL    HW139491   2.618   1.992  14.225  1.0639  0.8801  0.2187
 9286SOL    HW239492   2.553   1.903  14.322 -0.1404  2.1337  0.4484
 9287SOL     OW39493   2.128   1.961   3.278 -0.0767 -0.4196  0.4845
 9287SOL    HW139494   2.178   1.883   3.302 -0.2691 -0.8041 -0.3599
 9287SOL    HW239495   2.053   1.912   3.244 -1.5589  2.3401 -0.1658
 9288SOL     OW39496   4.236   1.445   9.453 -0.2066 -0.8179  0.5932
 9288SOL    HW139497   4.174   1.377   9.479 -1.5219 -0.8745 -2.6903
 9288SOL    HW239498   4.169   1.507   9.424  1.0950  0.1946 -0.2930
 9289SOL     OW39499   4.487   1.456   2.951 -0.0782 -0.1356  0.1447
 9289SOL    HW139500   4.492   1.546   2.981  0.9812  0.2386 -1.1489
 9289SOL    HW239501   4.570   1.414   2.976 -0.4441 -0.1202  1.3935
 9290SOL     OW39502   1.678   1.351  10.908  0.6483 -0.1769  0.0424
 9290SOL    HW139503   1.609   1.414  10.883  3.8486  2.5883 -1.9379
 9290SOL    HW239504   1.710   1.378  10.994 -0.2030  0.5686  0.1307
 9291SOL     OW39505   2.406   4.071  13.712  0.1197  0.3483  0.2662
 9291SOL    HW139506   2.371   4.159  13.724  1.7173  1.2035 -1.4604
 9291SOL    HW239507   2.421   4.077  13.618  1.5713 -1.5951  0.3713
 9292SOL     OW39508   2.816   3.654   8.401  0.1289 -0.2080  0.4621
 9292SOL    HW139509   2.858   3.729   8.358 -0.4566 -0.2016 -0.0870
 9292SOL    HW239510   2.741   3.630   8.347 -0.1702  3.3451 -0.7305
 9293SOL     OW39511   4.075   4.514   9.182  0.0955 -0.5050 -0.1292
 9293SOL    HW139512   4.034   4.601   9.186  0.6144 -0.1674 -2.3025
 9293SOL    HW239513   4.000   4.470   9.142  0.2217 -0.8186 -0.0153
 9294SOL     OW39514   3.380   2.034   8.798 -0.8131  0.1422  0.5435
 9294SOL    HW139515   3.304   2.058   8.746 -1.8336 -0.2242  1.8742
 9294SOL    HW239516   3.397   1.958   8.742  1.7212  0.5108  0.8049
 9295SOL     OW39517   2.392   2.929   5.466  0.2238 -0.3783 -0.1546
 9295SOL    HW139518   2.383   2.987   5.390 -0.4272  1.6051  1.4188
 9295SOL    HW239519   2.351   2.981   5.535  1.3899  1.0468 -0.5256
 9296SOL     OW39520   0.059   0.790   8.163  0.3667  0.2188 -0.3231
 9296SOL    HW139521   0.034   0.882   8.163 -0.8862 -0.1085  1.0878
 9296SOL    HW239522   0.070   0.760   8.073 -1.1653 -2.2510  0.2964
 9297SOL     OW39523   1.241   3.054   8.839  0.4014 -0.3444  0.0805
 9297SOL    HW139524   1.153   3.074   8.871 -0.0621 -1.9211 -0.1941
 9297SOL    HW239525   1.294   3.098   8.906 -1.6149  1.0786  0.7092
 9298SOL     OW39526   1.919   3.455   6.377  0.5614 -0.3090  0.2222
 9298SOL    HW139527   1.998   3.401   6.376  0.6885 -0.1344  1.7778
 9298SOL    HW239528   1.935   3.492   6.464 -0.0222 -0.4581  0.3914
 9299SOL     OW39529   2.530   3.318   3.365  0.4069  0.6370 -0.0695
 9299SOL    HW139530   2.449   3.271   3.387  0.5063  1.6545  2.4142
 9299SOL    HW239531   2.570   3.244   3.319 -0.1992 -0.1383  0.6501
 9300SOL     OW39532   2.672   0.541   2.580 -0.0205  0.3515 -0.0385
 9300SOL    HW139533   2.679   0.470   2.515 -1.9218  0.2325 -0.1178
 9300SOL    HW239534   2.590   0.579   2.549  0.0654  0.5947  0.0371
 9301SOL     OW39535   1.103   3.291  10.972 -0.6362 -0.0921  0.3100
 9301SOL    HW139536   1.075   3.330  11.055  0.1377 -2.9766  1.9432
 9301SOL    HW239537   1.065   3.203  10.965  0.8325 -0.6653 -0.3919
 9302SOL     OW39538   1.089   4.450  14.494  0.3738 -0.3116  0.1074
 9302SOL    HW139539   1.015   4.392  14.509  0.7630 -0.7987  0.1578
 9302SOL    HW239540   1.076   4.462  14.400  0.1050  3.1642  0.5791
 9303SOL     OW39541   2.493   3.860   1.161 -0.5306  0.1374  0.4026
 9303SOL    HW139542   2.509   3.937   1.107 -1.8468 -0.4641 -0.8547
 9303SOL    HW239543   2.422   3.897   1.214 -0.8899  1.4891 -0.9912
 9304SOL     OW39544   0.277   0.088   5.561  0.1745  0.1391 -0.2267
 9304SOL    HW139545   0.265   0.177   5.595  3.2061 -0.3334  1.9817
 9304SOL    HW239546   0.351   0.092   5.501  0.5253  3.7022  0.4224
 9305SOL     OW39547   4.194   0.027   3.446  0.5888 -0.2669 -0.1035
 9305SOL    HW139548   4.158   4.705   3.381  1.4009 -2.9126  1.8707
 9305SOL    HW239549   4.158   4.728   3.527  0.3633 -0.7888 -0.4402
 9306SOL     OW39550   3.724   2.636   0.707  0.2846 -0.1740 -0.4292
 9306SOL    HW139551   3.637   2.613   0.675  0.0644 -0.3055  0.2566
 9306SOL    HW239552   3.768   2.668   0.628  0.1994  1.0557  0.0238
 9307SOL     OW39553   3.265   0.232   6.922 -0.6330 -0.0872  0.5087
 9307SOL    HW139554   3.337   0.175   6.894  0.9537  1.1155  2.1437
 9307SOL    HW239555   3.196   0.185   6.876 -1.0093 -0.4460  1.4407
 9308SOL     OW39556   0.168   3.358   8.656 -0.0620 -0.4443 -0.2264
 9308SOL    HW139557   0.125   3.431   8.700  0.4763 -0.0417 -0.3714
 9308SOL    HW239558   0.228   3.412   8.605  1.0753 -0.5131  1.0607
 9309SOL     OW39559   0.116   3.916   8.459  0.3252 -0.0448  0.1604
 9309SOL    HW139560   0.110   3.831   8.415  0.1317 -0.2046  0.4887
 9309SOL    HW239561   0.048   3.910   8.527 -0.7673  2.5059 -0.7378
 9310SOL     OW39562   0.029   4.066   4.642 -0.0751  0.2977  0.2413
 9310SOL    HW139563   0.057   4.058   4.733  0.3575 -2.6120 -0.1321
 9310SOL    HW239564   4.704   3.994   4.633  1.6322 -1.0143 -1.3708
 9311SOL     OW39565   0.713   1.948   7.458  0.4640 -0.0704  0.2878
 9311SOL    HW139566   0.806   1.925   7.456  0.6721  0.8354 -0.5450
 9311SOL    HW239567   0.687   1.901   7.537 -0.8428  2.2263  1.2224
 9312SOL     OW39568   1.436   0.113   8.415  0.3113  0.2090 -0.8344
 9312SOL    HW139569   1.513   0.061   8.437  0.4514  1.2337  1.1256
 9312SOL    HW239570   1.433   0.120   8.319 -0.9315  0.9790 -0.7515
 9313SOL     OW39571   3.976   2.624  15.104 -0.4812 -0.0933  0.4732
 9313SOL    HW139572   4.055   2.614  15.156  0.1228 -2.9905 -1.0274
 9313SOL    HW239573   3.953   2.713  15.130 -0.3545 -0.3572  1.5043
 9314SOL     OW39574   1.421   3.268   4.806 -0.6442  0.3083  0.2777
 9314SOL    HW139575   1.488   3.217   4.852 -0.3789  0.3622 -0.0495
 9314SOL    HW239576   1.454   3.355   4.828  2.0597 -0.5624 -0.3000
 9315SOL     OW39577   1.901   0.228   5.242  0.1117 -0.1024  0.1097
 9315SOL    HW139578   1.986   0.253   5.207  0.2797 -0.5693  0.1914
 9315SOL    HW239579   1.870   0.312   5.277  2.5046  2.7522 -4.6960
 9316SOL     OW39580   4.251   2.526   8.650 -0.1220 -0.0544  0.4080
 9316SOL    HW139581   4.162   2.538   8.685 -0.7358  2.5622 -2.0540
 9316SOL    HW239582   4.271   2.434   8.663 -0.8395  0.2758  3.7989
 9317SOL     OW39583   2.273   2.060  11.965 -0.1890  0.6180  0.4362
 9317SOL    HW139584   2.285   2.096  12.053  0.0682  0.6144  0.4032
 9317SOL    HW239585   2.328   2.107  11.902 -2.3026  2.0878 -0.2977
 9318SOL     OW39586   4.258   4.583   3.005 -0.4780 -0.5558  0.2832
 9318SOL    HW139587   4.242   4.489   3.012  0.2862 -0.6653  0.5791
 9318SOL    HW239588   4.171   4.621   3.019  0.1947  0.8367  0.7310
 9319SOL     OW39589   2.136   4.238   2.706  0.1252 -0.0260  0.5298
 9319SOL    HW139590   2.229   4.261   2.697  0.6445 -2.2102  0.3968
 9319SOL    HW239591   2.112   4.287   2.784 -1.7428 -0.4892  0.2437
 9320SOL     OW39592   4.308   4.333   3.286  0.6603 -0.3304  0.1990
 9320SOL    HW139593   4.355   4.321   3.204 -0.4452 -2.6361 -0.1093
 9320SOL    HW239594   4.216   4.339   3.259  1.4951  2.7684 -1.9016
 9321SOL     OW39595   3.081   0.277   3.088 -0.2698  0.4806  0.2099
 9321SOL    HW139596   3.117   0.249   3.004 -0.5146  2.1824 -0.4724
 9321SOL    HW239597   3.162   0.294   3.137 -0.1728 -1.2053  0.6296
 9322SOL     OW39598   2.247   3.454   0.963  0.0719  0.3174  0.0822
 9322SOL    HW139599   2.215   3.545   0.965  1.5681  0.8235  0.9939
 9322SOL    HW239600   2.167   3.402   0.951 -0.2628  0.8401  0.0158
 9323SOL     OW39601   3.909   0.626   8.926  0.0832  0.4887  0.2462
 9323SOL    HW139602   3.916   0.565   8.999  1.5350  0.8070  0.3677
 9323SOL    HW239603   3.951   0.709   8.949  0.9787 -0.3278  1.5615
 9324SOL     OW39604   4.611   0.239   2.055  0.0642 -0.2619 -0.3994
 9324SOL    HW139605   4.620   0.156   2.102  0.1281 -1.3544 -2.3500
 9324SOL    HW239606   4.529   0.273   2.092 -0.2215 -0.4931 -0.8276
 9325SOL     OW39607   2.233   3.293  17.649 -0.0519 -0.3765  0.1310
 9325SOL    HW139608   2.246   3.230  17.577  0.7074 -0.9735  0.7886
 9325SOL    HW239609   2.208   3.378  17.613 -1.5805 -1.5388 -1.5324
 9326SOL     OW39610   3.763   3.103  15.867  0.4304  0.7306  0.4921
 9326SOL    HW139611   3.791   3.194  15.875 -0.3353  1.1105 -1.1114
 9326SOL    HW239612   3.684   3.102  15.921 -0.5753  0.8097 -0.9918
 9327SOL     OW39613   1.758   1.351  17.074 -0.2376  0.1144  0.0384
 9327SOL    HW139614   1.755   1.257  17.057  0.7156  0.2723 -1.0647
 9327SOL    HW239615   1.776   1.385  16.986 -0.2822  1.0062  0.3706
 9328SOL     OW39616   3.148   1.732   5.244  0.0188  0.2984  0.1369
 9328SOL    HW139617   3.157   1.826   5.229  0.1651 -0.0346 -1.8707
 9328SOL    HW239618   3.152   1.749   5.338 -1.5647 -2.5411  0.7007
 9329SOL     OW39619   0.345   4.323   7.942  0.0804 -0.0084  0.2748
 9329SOL    HW139620   0.360   4.290   7.853 -1.9696 -1.5739  0.5066
 9329SOL    HW239621   0.283   4.395   7.934 -0.0598 -0.3751 -1.9241
 9330SOL     OW39622   2.242   1.294  12.218  0.3787  0.4154  0.6766
 9330SOL    HW139623   2.206   1.288  12.130 -1.0740  0.1230  1.2959
 9330SOL    HW239624   2.315   1.353  12.199  0.3242  0.1503 -0.3204
 9331SOL     OW39625   3.351   1.140   5.556 -0.3923  0.2096 -0.1068
 9331SOL    HW139626   3.313   1.129   5.643 -0.7168 -1.7969 -0.4932
 9331SOL    HW239627   3.317   1.225   5.530 -2.7295 -0.9358 -0.7568
 9332SOL     OW39628   1.595   1.113  11.112  0.1496  0.4187 -0.5498
 9332SOL    HW139629   1.521   1.071  11.155  0.2540  1.4008  0.5874
 9332SOL    HW239630   1.567   1.204  11.100  0.4986  0.6098  0.0715
 9333SOL     OW39631   1.206   3.118   4.869 -0.5349  0.0466 -0.4921
 9333SOL    HW139632   1.262   3.052   4.909 -1.8994 -0.7913  0.0658
 9333SOL    HW239633   1.273   3.185   4.857  1.1809 -1.3554  1.3277
 9334SOL     OW39634   0.679   4.726  12.761  0.7284 -0.0477  0.2735
 9334SOL    HW139635   0.623   4.717  12.684  1.4632  0.3950 -0.3149
 9334SOL    HW239636   0.665   0.077  12.793  0.9338 -0.4164  1.4007
 9335SOL     OW39637   3.445   2.708   4.259  0.1100 -0.0992  0.6596
 9335SOL    HW139638   3.377   2.763   4.298 -0.0010  0.4063 -0.2553
 9335SOL    HW239639   3.402   2.649   4.198  0.2842  1.6526 -1.1482
 9336SOL     OW39640   2.164   2.651   1.939 -0.2710  0.0241  0.0818
 9336SOL    HW139641   2.166   2.725   1.879  0.3041 -0.6994 -0.7867
 9336SOL    HW239642   2.099   2.679   2.003  1.0309  0.3697  1.2490
 9337SOL     OW39643   2.496   4.474   0.603  0.3296  0.0181 -0.4176
 9337SOL    HW139644   2.586   4.489   0.574  0.6248  1.6096  1.2999
 9337SOL    HW239645   2.452   4.540   0.550  0.8087  0.4928 -0.2252
 9338SOL     OW39646   1.537   2.783   0.242  0.6924 -0.1159 -0.7332
 9338SOL    HW139647   1.516   2.694   0.271  0.2089  0.7038  1.3916
 9338SOL    HW239648   1.581   2.828   0.313 -2.3669  1.3986  0.2220
 9339SOL     OW39649   2.401   1.518   0.189 -0.0031 -0.2187 -0.5535
 9339SOL    HW139650   2.472   1.457   0.209 -0.6903 -0.1512  2.0970
 9339SOL    HW239651   2.332   1.467   0.148 -1.4027  2.1214 -1.1039
 9340SOL     OW39652   2.153   4.629   6.229 -0.0189  0.2652 -0.6092
 9340SOL    HW139653   2.156   4.686   6.307 -0.1933 -1.5834  0.7444
 9340SOL    HW239654   2.087   4.566   6.256 -1.3859  1.5699 -0.8701
 9341SOL     OW39655   0.643   0.828   2.330  0.7392  0.4903 -0.2155
 9341SOL    HW139656   0.553   0.860   2.326 -0.0300 -2.1002 -3.8025
 9341SOL    HW239657   0.656   0.846   2.423  0.3897 -0.0370 -0.0603
 9342SOL     OW39658   4.293   2.124   5.734 -0.1670  0.3199  0.8073
 9342SOL    HW139659   4.315   2.034   5.756  2.1841  0.8996  0.8625
 9342SOL    HW239660   4.358   2.153   5.670 -0.4842  0.7136  0.6615
 9343SOL     OW39661   0.406   1.591   9.220 -0.3741  0.0750 -0.3389
 9343SOL    HW139662   0.363   1.590   9.306 -0.8106  0.6770 -0.5477
 9343SOL    HW239663   0.327   1.593   9.167 -0.3252  3.0902 -0.2540
 9344SOL     OW39664   1.552   4.001  13.339 -0.5548 -0.2769 -0.1755
 9344SOL    HW139665   1.490   4.061  13.298  0.6156 -0.5813 -2.4038
 9344SOL    HW239666   1.500   3.927  13.371 -3.3580  0.8718 -2.0680
 9345SOL     OW39667   1.164   0.133   1.830  0.4761 -0.5167 -0.7260
 9345SOL    HW139668   1.210   0.177   1.758 -0.1484 -2.0398 -2.0517
 9345SOL    HW239669   1.092   0.093   1.780 -1.5939  1.2969  0.8074
 9346SOL     OW39670   2.213   2.131   9.498  0.1934  0.7254  0.8941
 9346SOL    HW139671   2.217   2.137   9.402  0.3346 -1.1976  0.7673
 9346SOL    HW239672   2.129   2.165   9.526  1.3139  1.9559  2.7345
 9347SOL     OW39673   1.427   1.903   8.963 -0.3010 -0.0600 -0.2158
 9347SOL    HW139674   1.453   1.912   9.055 -0.4352 -0.1526 -0.1691
 9347SOL    HW239675   1.353   1.844   8.977 -0.4030 -0.0489 -0.7163
 9348SOL     OW39676   4.559   0.710   5.206  0.3466 -0.0046 -0.3686
 9348SOL    HW139677   4.585   0.779   5.266  0.8582 -0.6038  0.1019
 9348SOL    HW239678   4.463   0.712   5.214  0.3458  3.3515 -1.5747
 9349SOL     OW39679   1.345   0.651  11.131 -0.2825  0.2011 -0.7136
 9349SOL    HW139680   1.330   0.614  11.218  0.7810  0.4850 -0.4124
 9349SOL    HW239681   1.421   0.603  11.097 -0.1196  0.3660 -0.5817
 9350SOL     OW39682   2.708   2.687  12.156 -0.0006  0.4664 -0.3818
 9350SOL    HW139683   2.729   2.600  12.190 -1.0749  0.0123 -0.9086
 9350SOL    HW239684   2.690   2.674  12.063  1.4897 -0.9444 -0.4743
 9351SOL     OW39685   2.849   2.345   0.775 -0.1105 -0.1163 -0.3742
 9351SOL    HW139686   2.924   2.328   0.717 -0.9773 -1.5693 -1.0982
 9351SOL    HW239687   2.896   2.343   0.858  3.3757 -0.7153 -2.3619
 9352SOL     OW39688   2.165   0.887   7.382  0.4557  0.3323 -0.3952
 9352SOL    HW139689   2.144   0.964   7.435  0.9084 -1.2852  2.1748
 9352SOL    HW239690   2.255   0.906   7.355  1.3092 -1.4436  1.1427
 9353SOL     OW39691   3.403   1.132   3.397 -0.0564  0.0710 -0.2101
 9353SOL    HW139692   3.395   1.073   3.472  0.2687  0.2848 -0.0094
 9353SOL    HW239693   3.495   1.118   3.372 -0.4150  0.3211 -1.6803
 9354SOL     OW39694   2.972   2.041   5.527  0.0662  0.1694 -0.6543
 9354SOL    HW139695   2.901   2.100   5.500  0.3713  1.0216  0.4126
 9354SOL    HW239696   2.932   1.981   5.589  0.0590 -0.3849 -1.1925
 9355SOL     OW39697   3.021   0.562  14.163  0.5021  0.1620 -0.4033
 9355SOL    HW139698   3.002   0.656  14.156  0.0663 -0.0004 -1.4131
 9355SOL    HW239699   2.985   0.537  14.078  0.4536  0.1122 -0.3686
 9356SOL     OW39700   2.263   2.133  15.923  0.1945  0.4273  0.3082
 9356SOL    HW139701   2.249   2.228  15.923  0.9361  0.5378 -0.5959
 9356SOL    HW239702   2.183   2.096  15.961  0.6798 -0.6906  0.2410
 9357SOL     OW39703   2.431   2.880  16.911 -0.6238  0.6645 -0.3968
 9357SOL    HW139704   2.488   2.940  16.863 -0.8236  2.2834  1.3991
 9357SOL    HW239705   2.437   2.921  16.997 -0.3914  0.1211 -0.1542
 9358SOL     OW39706   1.936   2.689   5.547 -0.2187 -0.0895 -0.1241
 9358SOL    HW139707   1.952   2.595   5.543  0.2454  0.0017 -0.4228
 9358SOL    HW239708   2.018   2.724   5.511 -0.0591  0.1046  0.4298
 9359SOL     OW39709   4.549   0.316   5.379  0.4296 -0.2532 -0.2727
 9359SOL    HW139710   4.609   0.243   5.367 -0.2927 -0.2969 -3.7157
 9359SOL    HW239711   4.490   0.291   5.307  0.3230  2.1079 -0.9870
 9360SOL     OW39712   2.963   2.357  11.194  0.2466 -0.4692 -0.0993
 9360SOL    HW139713   3.054   2.369  11.223 -0.0556  0.4147  0.4675
 9360SOL    HW239714   2.918   2.441  11.195 -0.1479 -0.7036  0.9855
 9361SOL     OW39715   1.875   0.504   2.892  0.0799 -0.0667  0.0554
 9361SOL    HW139716   1.864   0.446   2.968  3.0099  0.7576  1.1104
 9361SOL    HW239717   1.864   0.592   2.930 -0.8448 -0.3084  0.3612
 9362SOL     OW39718   0.077   0.434   4.791  0.2685  0.1075  0.5179
 9362SOL    HW139719   0.047   0.467   4.876 -0.7760  1.9244 -0.5692
 9362SOL    HW239720   0.019   0.463   4.721 -1.5251  0.3705  2.1036
 9363SOL     OW39721   0.488   0.704  13.349  0.4175 -0.5615 -0.1984
 9363SOL    HW139722   0.523   0.666  13.430 -1.4534 -0.4218  0.6655
 9363SOL    HW239723   0.406   0.735  13.387  0.1744 -1.5745  0.1006
 9364SOL     OW39724   4.475   3.544   0.117  0.1685  0.4694 -0.0458
 9364SOL    HW139725   4.421   3.622   0.130  1.1202  0.7809  1.9862
 9364SOL    HW239726   4.419   3.495   0.057  2.7685  0.5237 -2.4753
 9365SOL     OW39727   2.544   0.088   0.228  0.1634  0.1529  0.0486
 9365SOL    HW139728   2.631   0.056   0.253  0.7675  1.7359 -0.0166
 9365SOL    HW239729   2.570   0.177   0.204  3.5232 -0.7838  0.1565
 9366SOL     OW39730   1.254   2.189   0.367  0.1657  0.4323  0.2564
 9366SOL    HW139731   1.159   2.187   0.376  0.2846  1.9773  1.7119
 9366SOL    HW239732   1.267   2.239   0.286 -1.8330  1.2732  0.4626
 9367SOL     OW39733   2.399   0.548  12.370  0.0185  0.8535 -0.6244
 9367SOL    HW139734   2.460   0.583  12.434 -1.5824  4.3605 -0.9876
 9367SOL    HW239735   2.448   0.563  12.289  0.7890  0.2946 -0.2489
 9368SOL     OW39736   2.146   3.435   4.437  0.1078 -0.6644 -0.3967
 9368SOL    HW139737   2.177   3.482   4.515  3.7619  1.3701 -3.0656
 9368SOL    HW239738   2.233   3.431   4.398 -0.0708  0.7970 -0.9600
 9369SOL     OW39739   3.864   0.785   0.843  0.2060 -0.5672  0.1857
 9369SOL    HW139740   3.950   0.773   0.885  0.9505 -3.1750 -2.1070
 9369SOL    HW239741   3.802   0.805   0.913 -0.5638 -0.1124 -0.6293
 9370SOL     OW39742   4.187   4.657   9.764 -0.0321 -0.8474 -0.1165
 9370SOL    HW139743   4.224   4.575   9.732  0.3663 -0.0910 -1.5656
 9370SOL    HW239744   4.186   4.652   9.860  0.7681 -0.0658 -0.0754
 9371SOL     OW39745   0.978   3.243   2.640  0.3831 -0.3389  0.4788
 9371SOL    HW139746   1.068   3.247   2.672  0.3370  0.5940  0.4866
 9371SOL    HW239747   0.965   3.335   2.616 -0.1238 -0.9015 -1.4282
 9372SOL     OW39748   0.484   1.757   8.240  0.0402  0.6150 -0.3075
 9372SOL    HW139749   0.496   1.820   8.311 -2.4863  2.2653 -1.3180
 9372SOL    HW239750   0.428   1.691   8.280 -0.5697  0.9431 -0.6123
 9373SOL     OW39751   2.217   1.324   1.961  0.2844 -0.0729 -0.0803
 9373SOL    HW139752   2.253   1.283   1.883  1.8077 -0.3466  0.7672
 9373SOL    HW239753   2.208   1.253   2.025 -3.3238  1.7352  1.4216
 9374SOL     OW39754   0.991   2.030   7.164 -0.8687 -0.0015 -0.0394
 9374SOL    HW139755   0.989   1.983   7.080 -1.5228 -2.1096  1.1417
 9374SOL    HW239756   0.897   2.038   7.175 -0.7881 -0.9259  1.2593
 9375SOL     OW39757   3.799   1.796   6.685  0.2364  0.3028  0.2105
 9375SOL    HW139758   3.882   1.827   6.722  0.7476  0.4668 -1.0712
 9375SOL    HW239759   3.816   1.833   6.599 -0.2520  1.6568  0.6915
 9376SOL     OW39760   1.117   1.866   2.998  0.1030 -0.1941  0.3278
 9376SOL    HW139761   1.119   1.771   3.011 -2.3417 -0.1490  1.0022
 9376SOL    HW239762   1.165   1.906   3.071 -2.1887  2.0293  0.6213
 9377SOL     OW39763   2.310   0.997  10.410  0.9962 -0.1851  0.2280
 9377SOL    HW139764   2.293   0.935  10.481  1.5153 -0.7662 -0.1571
 9377SOL    HW239765   2.339   0.949  10.333  2.0916  1.9582 -0.6951
 9378SOL     OW39766   1.519   0.130   5.343 -0.6016  0.0718 -0.3569
 9378SOL    HW139767   1.535   0.132   5.249  1.4763  1.6860  0.0209
 9378SOL    HW239768   1.551   0.042   5.360 -0.9429 -0.1976 -1.1277
 9379SOL     OW39769   4.639   0.131   3.691 -0.1459  0.5083  0.1832
 9379SOL    HW139770   4.624   0.045   3.732 -2.6474  1.9659  2.3501
 9379SOL    HW239771   4.564   0.125   3.632 -1.3433  0.6281  1.6935
 9380SOL     OW39772   2.204   3.572   3.974 -0.0920 -0.0526  0.0200
 9380SOL    HW139773   2.147   3.601   3.903 -1.0284 -2.0745 -0.0310
 9380SOL    HW239774   2.244   3.496   3.933 -0.3958 -1.2112  1.8982
 9381SOL     OW39775   2.374   1.037  11.895 -0.7762 -0.2638  0.2906
 9381SOL    HW139776   2.404   1.074  11.812  0.1678  0.0108  0.7622
 9381SOL    HW239777   2.315   0.973  11.854 -0.3885 -1.1869  1.1686
 9382SOL     OW39778   0.471   3.355   3.880 -0.5835  0.1148  0.0070
 9382SOL    HW139779   0.466   3.448   3.902  1.6099  0.0737  0.6325
 9382SOL    HW239780   0.430   3.321   3.961 -3.6739 -0.3354 -1.7256
 9383SOL     OW39781   1.988   3.358   0.983  0.4521  0.1675 -1.0941
 9383SOL    HW139782   1.967   3.426   1.047 -2.0671  0.0930 -1.8427
 9383SOL    HW239783   1.936   3.380   0.906 -0.7396 -0.7585 -0.5542
 9384SOL     OW39784   3.239   2.959  14.698 -0.3338  0.0284  0.2431
 9384SOL    HW139785   3.221   3.009  14.777 -2.2380 -1.7242  0.9226
 9384SOL    HW239786   3.330   2.939  14.724 -0.6597 -2.1968 -0.2848
 9385SOL     OW39787   4.701   3.428   7.154  0.3250 -0.0294  0.0520
 9385SOL    HW139788   4.716   3.493   7.086  3.6634 -1.9941 -1.0809
 9385SOL    HW239789   4.674   3.492   7.220  0.4515  2.0887 -1.9550
 9386SOL     OW39790   2.152   0.301   9.242 -0.0850 -0.3913 -0.7075
 9386SOL    HW139791   2.203   0.275   9.319 -2.6535  3.1888  2.1843
 9386SOL    HW239792   2.166   0.222   9.191  2.3765 -0.9363  0.7838
 9387SOL     OW39793   0.871   1.169   6.819  0.4653  0.1652  0.1199
 9387SOL    HW139794   0.828   1.088   6.793 -1.4028  0.7596  1.3505
 9387SOL    HW239795   0.959   1.165   6.782 -0.9556 -2.7383 -2.9357
 9388SOL     OW39796   2.685   0.846  17.191 -0.1321 -0.3521  0.1134
 9388SOL    HW139797   2.677   0.852  17.095 -1.0244 -1.0383  0.1473
 9388SOL    HW239798   2.757   0.907  17.207 -0.8728  0.6500 -0.3926
 9389SOL     OW39799   2.505   1.546   2.129 -0.1684  0.4997  0.2943
 9389SOL    HW139800   2.490   1.638   2.153  1.0666  1.1835 -1.5371
 9389SOL    HW239801   2.447   1.501   2.190 -0.6754  2.6928  1.4184
 9390SOL     OW39802   2.154   4.346   6.712 -0.2264  0.2567 -0.0922
 9390SOL    HW139803   2.061   4.325   6.717 -0.2293  0.4723  0.7628
 9390SOL    HW239804   2.197   4.264   6.688 -0.4818  0.7378 -2.1732
 9391SOL     OW39805   0.037   3.955  16.811  0.1254 -0.0674  0.5513
 9391SOL    HW139806   0.008   4.026  16.754 -1.8380 -0.2412  1.3106
 9391SOL    HW239807   4.696   3.935  16.862 -1.9529  1.4435 -2.0819
 9392SOL     OW39808   0.603   1.136   6.885 -0.5334 -0.1713 -0.5788
 9392SOL    HW139809   0.637   1.055   6.847 -3.3107 -0.5220 -2.2723
 9392SOL    HW239810   0.674   1.190   6.919 -1.0656  0.4679 -0.4836
 9393SOL     OW39811   2.392   2.852   3.358 -0.4003  0.0898  0.2071
 9393SOL    HW139812   2.324   2.795   3.393  0.3726 -0.2091  1.2305
 9393SOL    HW239813   2.427   2.796   3.290 -3.5086 -1.3410 -0.2047
 9394SOL     OW39814   0.075   1.319   3.661 -0.1207 -0.6053 -0.4422
 9394SOL    HW139815   0.006   1.349   3.721  1.5620  1.2814  0.5718
 9394SOL    HW239816   0.137   1.299   3.732  0.0665 -1.0445 -0.7304
 9395SOL     OW39817   0.759   3.246   3.296 -0.7172  0.5432  0.0182
 9395SOL    HW139818   0.686   3.263   3.356 -1.7165 -0.2016 -0.9991
 9395SOL    HW239819   0.731   3.299   3.222 -1.1872  0.3367  0.0514
 9396SOL     OW39820   3.027   1.398   1.811  0.4284  0.1886 -0.5389
 9396SOL    HW139821   2.955   1.338   1.794 -0.6148  1.1790  0.4606
 9396SOL    HW239822   3.012   1.474   1.755  1.1400 -0.0266 -1.0275
 9397SOL     OW39823   3.708   1.387   4.225  0.0316  0.9368  0.7871
 9397SOL    HW139824   3.670   1.469   4.195  0.4434  0.6658 -0.4769
 9397SOL    HW239825   3.705   1.409   4.319 -0.0221 -2.0474  1.4845
 9398SOL     OW39826   3.080   1.739   5.867  0.1178  0.2691  0.1216
 9398SOL    HW139827   3.157   1.690   5.837  1.6403  2.0160  1.1503
 9398SOL    HW239828   3.120   1.788   5.939 -0.7477 -1.4373  1.7562
 9399SOL     OW39829   1.710   1.885  10.057  0.4055  0.0117  0.2889
 9399SOL    HW139830   1.726   1.956  10.119 -0.8114 -0.5709  1.2739
 9399SOL    HW239831   1.614   1.881  10.057  0.2943  2.3289  2.2037
 9400SOL     OW39832   4.237   0.484   1.256  0.4443 -0.1335  0.1859
 9400SOL    HW139833   4.266   0.542   1.326  0.5171 -1.1301  0.9739
 9400SOL    HW239834   4.299   0.513   1.189 -0.0346  0.7117  0.1008
 9401SOL     OW39835   2.494   2.377   2.532  0.6954  0.3904  0.4767
 9401SOL    HW139836   2.563   2.416   2.587  1.1131 -0.4794  0.5713
 9401SOL    HW239837   2.511   2.422   2.449  0.6385  0.0275  0.2684
 9402SOL     OW39838   1.016   4.388   9.118  0.0993 -0.1535 -0.5580
 9402SOL    HW139839   1.036   4.428   9.034 -0.9395  1.0552 -0.2430
 9402SOL    HW239840   0.922   4.377   9.100 -0.2083  0.7788  0.4542
 9403SOL     OW39841   0.789   0.629   3.938 -1.0016  0.3349 -0.2845
 9403SOL    HW139842   0.875   0.617   3.897 -1.6863 -3.2373 -0.6711
 9403SOL    HW239843   0.733   0.645   3.863 -0.7907  3.7084  0.2840
 9404SOL     OW39844   0.531   1.683   2.201 -0.0729  0.1626  0.0078
 9404SOL    HW139845   0.490   1.740   2.266  2.5725 -0.7410  2.4644
 9404SOL    HW239846   0.473   1.609   2.222 -2.3945  1.6690 -1.0028
 9405SOL     OW39847   2.803   3.497   4.483  0.2482  0.1672  0.0011
 9405SOL    HW139848   2.818   3.566   4.547 -3.2663  1.6164 -0.7418
 9405SOL    HW239849   2.708   3.502   4.483  0.1952 -0.5466 -1.7945
 9406SOL     OW39850   2.376   1.631   6.887  0.1184  0.3285  1.1418
 9406SOL    HW139851   2.419   1.697   6.941  1.1997 -0.4445  1.2313
 9406SOL    HW239852   2.392   1.555   6.944 -0.6782 -0.2033  0.6457
 9407SOL     OW39853   2.222   0.177   5.704  0.2083 -0.5045  0.4986
 9407SOL    HW139854   2.318   0.188   5.707  0.1098  0.2766  0.7685
 9407SOL    HW239855   2.214   0.151   5.612  2.8232 -3.4053  1.0658
 9408SOL     OW39856   0.773   1.897   4.938 -0.2194  0.2462 -0.5937
 9408SOL    HW139857   0.831   1.934   5.005 -0.2478  1.2803 -1.1271
 9408SOL    HW239858   0.709   1.968   4.937 -0.7302 -0.1920  1.6599
 9409SOL     OW39859   4.075   0.792   2.714  0.1641 -0.0337  0.1435
 9409SOL    HW139860   3.988   0.823   2.687  1.1404  0.9445 -1.8125
 9409SOL    HW239861   4.127   0.812   2.637  0.3966 -1.0849  0.0395
 9410SOL     OW39862   0.683   0.458   7.281  0.2416 -0.4367 -0.3487
 9410SOL    HW139863   0.732   0.420   7.354 -0.3832  0.0211  0.3105
 9410SOL    HW239864   0.662   0.376   7.237  0.1172  0.1053 -1.2946
 9411SOL     OW39865   1.685   4.713   4.250 -0.5898 -0.6990 -0.2914
 9411SOL    HW139866   1.775   0.008   4.250 -1.0777  0.6270  0.3148
 9411SOL    HW239867   1.643   0.026   4.319  1.9054  0.0224  0.7059
 9412SOL     OW39868   1.274   1.384   0.573  0.5072  0.1768  0.0361
 9412SOL    HW139869   1.280   1.308   0.632 -1.2796  1.6379  2.0828
 9412SOL    HW239870   1.365   1.415   0.577  0.2972  0.9780 -1.9042
 9413SOL     OW39871   4.389   0.392  13.054  0.0466  0.1583  0.1333
 9413SOL    HW139872   4.421   0.414  12.967  0.3160 -1.4531 -0.1847
 9413SOL    HW239873   4.446   0.445  13.109 -0.9596 -0.1603  1.4917
 9414SOL     OW39874   1.563   2.173   5.509 -0.2252 -0.4533 -0.1040
 9414SOL    HW139875   1.588   2.080   5.511  3.9391  0.6831  0.6709
 9414SOL    HW239876   1.580   2.197   5.418 -0.0400  1.8026  0.5261
 9415SOL     OW39877   2.320   2.856   2.370 -0.4610  0.1446  0.0202
 9415SOL    HW139878   2.250   2.902   2.325 -1.0790  1.7529  2.6431
 9415SOL    HW239879   2.279   2.842   2.455  2.2667  1.0096  1.4731
 9416SOL     OW39880   2.548   3.388  17.506 -0.0243 -0.2966  0.1836
 9416SOL    HW139881   2.635   3.370  17.470 -0.7569  1.3554 -2.3396
 9416SOL    HW239882   2.510   3.303  17.481  1.2566 -1.5112  2.3544
 9417SOL     OW39883   3.691   0.244   5.652  0.0772  0.0110 -0.0224
 9417SOL    HW139884   3.689   0.163   5.600  0.8262 -0.8893  1.3507
 9417SOL    HW239885   3.614   0.234   5.709  0.8104 -1.4638  0.7089
 9418SOL     OW39886   3.889   2.068   2.425 -0.4807  0.2716  0.3610
 9418SOL    HW139887   3.943   2.077   2.503  0.2661  0.1512 -0.1478
 9418SOL    HW239888   3.928   1.993   2.381 -2.8362 -0.6546 -0.1372
 9419SOL     OW39889   1.037   3.519   5.912 -0.1103  0.0593  0.3384
 9419SOL    HW139890   1.058   3.428   5.890 -1.5202 -0.2585  0.3385
 9419SOL    HW239891   0.950   3.497   5.944  0.8940 -0.0023  2.9710
 9420SOL     OW39892   1.385   3.673   3.025  0.2784 -0.0487  0.1150
 9420SOL    HW139893   1.316   3.731   3.057 -1.3505 -0.9678 -1.7266
 9420SOL    HW239894   1.343   3.587   3.033  0.4267 -0.0919  0.4760
 9421SOL     OW39895   0.691   0.967  10.847 -0.3156  0.2484  0.5297
 9421SOL    HW139896   0.748   0.935  10.776 -0.2403  2.0733 -0.2280
 9421SOL    HW239897   0.610   0.985  10.800 -0.2088 -0.0279  0.2382
 9422SOL     OW39898   2.660   2.708  13.545 -0.6761 -0.2106 -0.4210
 9422SOL    HW139899   2.580   2.713  13.597 -0.4165  1.6256 -0.2171
 9422SOL    HW239900   2.720   2.766  13.591 -0.4549 -1.7698  1.2691
 9423SOL     OW39901   1.775   1.885   8.401 -0.3739 -0.0151 -0.5228
 9423SOL    HW139902   1.862   1.844   8.405 -0.7382 -0.8032 -0.7826
 9423SOL    HW239903   1.729   1.835   8.468 -0.1481 -0.6303 -0.8233
 9424SOL     OW39904   1.971   4.582   4.390  0.3953  0.3275  0.7059
 9424SOL    HW139905   2.009   4.593   4.477 -0.9198  1.5728  1.1185
 9424SOL    HW239906   1.903   4.517   4.404  1.8125 -1.0214  1.3278
 9425SOL     OW39907   3.058   1.333   7.661  0.1058 -0.3527  0.2156
 9425SOL    HW139908   2.981   1.283   7.690 -0.0602 -0.8385 -1.0569
 9425SOL    HW239909   3.127   1.276   7.694 -0.4005  0.7966  3.2406
 9426SOL     OW39910   4.348   3.369  13.416  0.4681  0.4631  0.4299
 9426SOL    HW139911   4.321   3.418  13.339 -0.7272 -2.0224 -0.7120
 9426SOL    HW239912   4.287   3.296  13.421  2.8256 -1.4932  1.0966
 9427SOL     OW39913   0.730   2.816   0.729 -0.0489  0.1220  0.3474
 9427SOL    HW139914   0.749   2.838   0.820  2.5239  1.8472 -0.6089
 9427SOL    HW239915   0.638   2.841   0.725  0.7701  2.7567 -2.1629
 9428SOL     OW39916   3.383   0.448   4.211 -0.1587 -0.4562  0.5735
 9428SOL    HW139917   3.366   0.354   4.200  2.0128 -0.8015  0.2644
 9428SOL    HW239918   3.471   0.450   4.175 -0.8692 -0.5723 -1.1675
 9429SOL     OW39919   2.046   4.333   1.737 -0.7489 -0.1017 -0.1782
 9429SOL    HW139920   2.097   4.282   1.800 -1.2740  2.3560  2.2319
 9429SOL    HW239921   2.012   4.393   1.804  1.1318  0.4859  0.2671
 9430SOL     OW39922   1.964   4.261   8.076  0.6384 -0.1277 -0.1123
 9430SOL    HW139923   1.939   4.259   7.984  0.3739 -3.6937  0.0299
 9430SOL    HW239924   1.992   4.170   8.087  0.5803 -0.0488  0.7177
 9431SOL     OW39925   1.631   0.340  16.526 -0.9106  0.6153  0.6003
 9431SOL    HW139926   1.724   0.358  16.512 -0.6529 -1.9763 -1.1107
 9431SOL    HW239927   1.627   0.366  16.618 -1.3824  2.0542  0.1737
 9432SOL     OW39928   3.904   4.338   7.101 -0.2554  0.2188 -0.3419
 9432SOL    HW139929   3.903   4.310   7.193  1.2477  0.0621 -0.3773
 9432SOL    HW239930   3.993   4.367   7.081  0.3792 -2.1662 -0.8986
 9433SOL     OW39931   1.267   1.577   8.876 -0.0721  0.0401 -0.1623
 9433SOL    HW139932   1.250   1.650   8.936  1.8228  0.4700 -0.1609
 9433SOL    HW239933   1.261   1.621   8.792  0.1198 -0.3089 -0.3593
 9434SOL     OW39934   2.876   2.938   8.347  0.1891  0.0782 -0.1045
 9434SOL    HW139935   2.865   2.853   8.390  0.8288  0.7594  1.4126
 9434SOL    HW239936   2.799   2.932   8.291  0.6357 -0.0016 -0.7038
 9435SOL     OW39937   3.765   3.291   3.276 -0.0102 -0.2006 -0.2042
 9435SOL    HW139938   3.819   3.298   3.355  0.0921 -2.1104 -0.0856
 9435SOL    HW239939   3.801   3.367   3.230 -0.5996  0.0968 -0.1721
 9436SOL     OW39940   0.228   0.825   1.684 -0.1365 -0.2709 -0.3877
 9436SOL    HW139941   0.264   0.834   1.772  1.9296 -0.3629 -1.2184
 9436SOL    HW239942   0.136   0.843   1.702  0.5461  2.1171  0.8117
 9437SOL     OW39943   3.215   1.806   2.314  0.0049  0.2205 -0.7478
 9437SOL    HW139944   3.161   1.747   2.368  0.8354  0.5239  0.4145
 9437SOL    HW239945   3.161   1.812   2.235  1.8576  0.0191 -2.0268
 9438SOL     OW39946   2.020   0.361   0.987 -0.3093  0.0577  0.5126
 9438SOL    HW139947   2.056   0.442   1.024  0.8067 -1.4074  2.6355
 9438SOL    HW239948   2.101   0.313   0.968  0.2941  0.6539  1.5795
 9439SOL     OW39949   4.342   1.040   3.598  0.1499 -0.2272 -0.7311
 9439SOL    HW139950   4.314   1.131   3.602 -0.0593 -0.3751  1.0770
 9439SOL    HW239951   4.413   1.037   3.533 -1.4488 -2.7426 -2.3961
 9440SOL     OW39952   1.681   1.179  12.721  0.5522 -0.1138  0.1304
 9440SOL    HW139953   1.721   1.192  12.807 -0.8027 -2.1709  1.0665
 9440SOL    HW239954   1.640   1.092  12.725 -0.6160  0.4095 -0.5620
 9441SOL     OW39955   0.530   4.044  11.542  0.2945 -0.1168 -0.0215
 9441SOL    HW139956   0.553   4.001  11.624 -0.8482 -0.2894  0.2016
 9441SOL    HW239957   0.470   4.110  11.577 -1.5258 -1.3003 -0.8844
 9442SOL     OW39958   3.770   1.606  10.320 -0.4644  0.0456  0.0852
 9442SOL    HW139959   3.820   1.526  10.304 -1.3489 -0.0628 -2.0016
 9442SOL    HW239960   3.689   1.574  10.359 -1.1000  2.3085  0.6140
 9443SOL     OW39961   1.207   4.457  15.557 -0.1929  0.3431  0.2432
 9443SOL    HW139962   1.261   4.380  15.537 -1.3830 -0.3687 -0.1826
 9443SOL    HW239963   1.140   4.427  15.619 -0.6442  1.6083  0.3713
 9444SOL     OW39964   2.619   4.407   6.464  0.1137 -0.1325  0.4236
 9444SOL    HW139965   2.580   4.456   6.537  1.8589  0.6911  0.8003
 9444SOL    HW239966   2.577   4.321   6.471  0.6691 -0.4533 -0.2005
 9445SOL     OW39967   4.646   0.920   2.735 -0.5666 -0.4506  0.2227
 9445SOL    HW139968   4.671   0.889   2.822  1.1722  0.4719  0.0554
 9445SOL    HW239969   4.657   0.839   2.686 -0.9220  0.5706 -1.5378
 9446SOL     OW39970   1.711   3.327   8.811  0.2738  0.2391  0.0369
 9446SOL    HW139971   1.641   3.320   8.745 -1.2390 -1.8525  1.8274
 9446SOL    HW239972   1.708   3.238   8.848  0.1798  0.7444  1.2207
 9447SOL     OW39973   4.478   2.126  16.801  0.7182 -0.0899 -0.3542
 9447SOL    HW139974   4.472   2.209  16.848  3.5777 -0.7243  1.1242
 9447SOL    HW239975   4.462   2.162  16.713  1.0350  0.1729 -0.3041
 9448SOL     OW39976   1.690   2.293   3.649 -0.6587 -0.2692  0.0779
 9448SOL    HW139977   1.653   2.334   3.571 -1.5285  0.9626  1.1506
 9448SOL    HW239978   1.774   2.266   3.613 -1.1724 -0.0943 -1.2568
 9449SOL     OW39979   3.557   0.395   6.200 -0.5380 -0.0067  0.1503
 9449SOL    HW139980   3.521   0.478   6.231 -0.5939  0.7666 -2.0042
 9449SOL    HW239981   3.628   0.383   6.263  0.7257  1.4849 -0.9790
 9450SOL     OW39982   1.394   1.614   9.786  0.0671 -0.0374 -0.0448
 9450SOL    HW139983   1.373   1.698   9.827 -0.0688  0.5017 -1.2019
 9450SOL    HW239984   1.425   1.563   9.861  2.2976  0.1489 -0.8476
 9451SOL     OW39985   0.705   2.659   5.549  0.1219  0.1682 -0.7182
 9451SOL    HW139986   0.727   2.575   5.508  0.7023 -0.1649  0.2864
 9451SOL    HW239987   0.617   2.639   5.581 -0.5641 -0.1619 -2.8201
 9452SOL     OW39988   2.070   0.730   5.187 -0.0980  0.0217 -0.6589
 9452SOL    HW139989   2.113   0.727   5.272 -2.3942 -0.9137  0.4925
 9452SOL    HW239990   2.150   0.742   5.137  0.7467 -1.2019  0.4009
 9453SOL     OW39991   1.521   2.100  16.726  0.1038 -0.2947  0.6100
 9453SOL    HW139992   1.509   2.189  16.691 -0.3394 -0.8958 -0.7865
 9453SOL    HW239993   1.445   2.078  16.780  0.1769 -0.8092  0.5026
 9454SOL     OW39994   3.832   4.494   2.344 -0.0105  0.1367 -0.2084
 9454SOL    HW139995   3.815   4.437   2.269 -1.5267  1.5796 -0.9672
 9454SOL    HW239996   3.912   4.453   2.375 -1.4790 -0.5556  2.7018
 9455SOL     OW39997   0.691   0.182  12.112  0.6365  0.3836 -0.3349
 9455SOL    HW139998   0.599   0.208  12.109  0.5744  0.0658 -1.1015
 9455SOL    HW239999   0.689   0.098  12.157  2.8335  2.2917  3.3739
 9456SOL     OW40000   4.290   2.468   9.716  0.4818 -0.0207 -0.3204
 9456SOL    HW140001   4.215   2.412   9.697  0.3473 -0.1014  0.4428
 9456SOL    HW240002   4.265   2.491   9.806 -1.7229  0.6368 -1.0863
 9457SOL     OW40003   4.202   3.999   6.760 -0.0712  0.3380  0.0773
 9457SOL    HW140004   4.107   3.987   6.767 -0.1703  0.0784 -1.6164
 9457SOL    HW240005   4.219   3.948   6.680 -0.5473  0.8154 -0.3311
 9458SOL     OW40006   3.774   1.477   8.236 -0.0570  0.1268  0.2565
 9458SOL    HW140007   3.805   1.568   8.227 -1.2029  0.5415  0.5257
 9458SOL    HW240008   3.825   1.446   8.161 -0.5502  2.0270 -0.8863
 9459SOL     OW40009   4.377   0.184  15.801 -0.3717  0.6237 -0.8101
 9459SOL    HW140010   4.295   0.204  15.757 -0.1459  1.8944 -0.6620
 9459SOL    HW240011   4.443   0.242  15.763  1.7033 -0.2726  1.3605
 9460SOL     OW40012   4.716   0.059   7.420  0.2094  0.0780  0.1318
 9460SOL    HW140013   0.023   0.025   7.343  0.2140  0.8111 -0.1915
 9460SOL    HW240014   4.676   4.717   7.455  2.5724 -1.5859 -0.9399
 9461SOL     OW40015   1.160   3.018   2.285 -0.1402 -0.1815 -0.0168
 9461SOL    HW140016   1.167   3.003   2.191 -0.6440  1.4547 -0.3031
 9461SOL    HW240017   1.249   3.050   2.303 -0.7574  0.5900  1.7192
 9462SOL     OW40018   1.570   3.639   6.604 -0.7606 -0.1788  0.0602
 9462SOL    HW140019   1.605   3.676   6.685  1.3838 -3.0973  0.4354
 9462SOL    HW240020   1.541   3.550   6.623 -2.6461  0.4194  0.0071
 9463SOL     OW40021   4.189   2.953   9.966 -0.0226 -0.4998 -0.0295
 9463SOL    HW140022   4.277   2.926   9.940  0.1881 -0.6457  0.8405
 9463SOL    HW240023   4.184   3.046   9.943 -2.5200 -0.8440 -0.8267
 9464SOL     OW40024   1.831   0.353   5.657  0.3960 -0.4292 -0.2223
 9464SOL    HW140025   1.911   0.339   5.709 -1.2757 -2.0280  1.9366
 9464SOL    HW240026   1.790   0.266   5.659 -0.4486 -0.0052  0.8928
 9465SOL     OW40027   3.819   1.505   5.312  0.0590  0.1340  0.2191
 9465SOL    HW140028   3.804   1.430   5.370  0.4320  0.6711  1.0221
 9465SOL    HW240029   3.901   1.527   5.357  1.0804 -0.3312 -1.4456
 9466SOL     OW40030   4.232   3.893   7.262  0.4836  0.5661  0.0640
 9466SOL    HW140031   4.300   3.886   7.194 -0.2292  0.4308 -0.6302
 9466SOL    HW240032   4.172   3.949   7.214 -0.5869  0.1720  0.9584
 9467SOL     OW40033   1.636   4.039  14.327 -0.2932 -0.4528 -0.1080
 9467SOL    HW140034   1.570   4.057  14.393  2.1124  2.8928  1.4072
 9467SOL    HW240035   1.695   4.109  14.354  1.3014 -1.4225 -1.0392
 9468SOL     OW40036   1.968   2.227   2.924 -0.1995 -0.1095 -0.5006
 9468SOL    HW140037   1.991   2.288   2.853  0.7781  1.9450  1.5710
 9468SOL    HW240038   1.880   2.206   2.894 -0.2839 -0.3596 -0.0707
 9469SOL     OW40039   1.759   3.659  17.464  0.4440 -0.3435  0.2952
 9469SOL    HW140040   1.793   3.666  17.553  1.1432  0.6042 -0.0453
 9469SOL    HW240041   1.675   3.627  17.497  0.7270 -1.8639 -0.4127
 9470SOL     OW40042   4.646   1.593   4.420 -0.2657 -0.0364 -0.3363
 9470SOL    HW140043   4.571   1.644   4.452  0.2264  1.7473 -2.0565
 9470SOL    HW240044   4.622   1.560   4.334  0.1911  0.2621 -0.5747
 9471SOL     OW40045   0.376   4.501  14.088  0.7295 -0.3606  0.0145
 9471SOL    HW140046   0.465   4.486  14.122  1.1796 -1.0929 -1.5010
 9471SOL    HW240047   0.389   4.482  13.995  1.4564  0.6711 -0.1037
 9472SOL     OW40048   0.265   2.307  16.351  0.2053  0.2999 -0.0083
 9472SOL    HW140049   0.350   2.264  16.355  0.2505  0.4764  1.0521
 9472SOL    HW240050   0.279   2.393  16.390  3.2773  0.2931 -1.1177
 9473SOL     OW40051   3.552   0.066   2.738 -0.3286 -0.1883 -0.1400
 9473SOL    HW140052   3.586   4.720   2.769 -4.7296 -1.5829  1.0034
 9473SOL    HW240053   3.495   0.029   2.671  0.2664  0.1125 -0.8130
 9474SOL     OW40054   3.117   0.035   3.568 -0.0298  0.3557 -0.7031
 9474SOL    HW140055   3.152   4.702   3.621  1.1655  0.6786 -1.0379
 9474SOL    HW240056   3.193   0.064   3.516  1.1761 -1.0082  0.3118
 9475SOL     OW40057   1.665   2.518   3.166 -0.6059  0.3988 -0.0768
 9475SOL    HW140058   1.626   2.440   3.207  1.4377 -0.0785  0.9499
 9475SOL    HW240059   1.754   2.494   3.191 -0.1522  2.4403  0.2309
 9476SOL     OW40060   1.870   2.203   8.474 -0.2010  0.1410  0.4103
 9476SOL    HW140061   1.854   2.163   8.559  0.2073 -0.7730  0.0550
 9476SOL    HW240062   1.872   2.133   8.409 -0.5434 -0.0561  0.6163
 9477SOL     OW40063   0.219   2.580  16.941  0.4055  0.4668  0.2644
 9477SOL    HW140064   0.169   2.523  16.883  2.0936 -0.4566 -0.2772
 9477SOL    HW240065   0.307   2.548  16.920  0.2256  0.1893 -0.0574
 9478SOL     OW40066   1.616   1.267   7.437 -0.5440  0.2595 -0.1613
 9478SOL    HW140067   1.655   1.200   7.492 -1.9541 -0.1146  0.3921
 9478SOL    HW240068   1.636   1.342   7.493 -0.8704  0.9761 -1.0005
 9479SOL     OW40069   2.291   2.238   7.164 -0.5038 -0.6087 -0.5087
 9479SOL    HW140070   2.217   2.179   7.161 -2.0884  1.3644 -0.4528
 9479SOL    HW240071   2.250   2.320   7.195  2.0142  0.4162  0.1403
 9480SOL     OW40072   1.159   0.289  13.515 -0.0576  0.4263 -0.0137
 9480SOL    HW140073   1.087   0.303  13.453 -1.6141 -0.6230  1.5551
 9480SOL    HW240074   1.154   0.367  13.571 -1.3150 -0.9561  1.7952
 9481SOL     OW40075   3.017   2.041  13.894  1.0310 -0.5415  0.3446
 9481SOL    HW140076   3.042   1.956  13.858 -0.5748 -1.6366  1.8095
 9481SOL    HW240077   2.980   2.027  13.981  4.0702  0.2982  1.7567
 9482SOL     OW40078   1.480   1.223  16.142 -0.2712 -0.2523 -0.4392
 9482SOL    HW140079   1.433   1.251  16.063 -0.5433 -0.2822 -0.2875
 9482SOL    HW240080   1.492   1.128  16.141 -2.5554 -0.5532  0.6703
 9483SOL     OW40081   4.421   4.265   7.897 -0.0973  0.5777  0.1557
 9483SOL    HW140082   4.388   4.185   7.855  2.2128 -0.5974  0.6076
 9483SOL    HW240083   4.511   4.236   7.912 -0.4481  0.6916  2.5038
 9484SOL     OW40084   2.126   3.856   4.903  0.2916 -0.3695 -0.7297
 9484SOL    HW140085   2.189   3.810   4.959 -1.2586  0.4016  1.6605
 9484SOL    HW240086   2.088   3.778   4.862 -0.9433 -0.2773  0.2410
 9485SOL     OW40087   1.075   3.905   8.702  0.8405 -0.8548  0.0624
 9485SOL    HW140088   1.046   3.933   8.789 -1.2490 -2.8817  0.0200
 9485SOL    HW240089   1.166   3.877   8.711  0.9548 -0.3632  0.4210
 9486SOL     OW40090   1.153   2.703   6.376  0.4516  0.1206  0.1577
 9486SOL    HW140091   1.162   2.712   6.281  1.4725 -1.1056  0.1374
 9486SOL    HW240092   1.130   2.610   6.382 -0.6170  0.2529 -2.2115
 9487SOL     OW40093   3.648   0.454   4.146 -0.1128 -0.4320 -0.0759
 9487SOL    HW140094   3.696   0.373   4.130 -2.0474 -1.6744  0.3902
 9487SOL    HW240095   3.716   0.511   4.182 -0.1350 -0.5006  0.0766
 9488SOL     OW40096   1.401   2.636  14.362 -0.2715  0.0945 -0.1256
 9488SOL    HW140097   1.450   2.622  14.281 -0.6855  1.7346 -0.6713
 9488SOL    HW240098   1.471   2.664  14.420 -0.7622 -0.5541  0.7835
 9489SOL     OW40099   0.717   3.676   2.422  0.0534 -0.3433 -0.5581
 9489SOL    HW140100   0.762   3.595   2.399  0.3389  0.1979 -1.9074
 9489SOL    HW240101   0.729   3.725   2.341 -0.4709  0.0413 -0.4018
 9490SOL     OW40102   1.548   4.611   3.305  0.1799 -0.3940 -0.0222
 9490SOL    HW140103   1.590   4.686   3.347  0.9768 -0.2339 -1.1233
 9490SOL    HW240104   1.462   4.613   3.346  0.4310 -0.1108  0.5050
 9491SOL     OW40105   0.307   1.779   6.476  0.1276  0.6842 -0.1206
 9491SOL    HW140106   0.293   1.702   6.532  0.5015  0.5863 -0.1562
 9491SOL    HW240107   0.291   1.852   6.535 -1.2106  0.3381 -0.0654
 9492SOL     OW40108   4.058   2.528   9.885  0.0423  0.1287 -0.7682
 9492SOL    HW140109   4.035   2.618   9.910  2.4252  0.4439  0.3031
 9492SOL    HW240110   3.980   2.478   9.908  0.2509  0.0240 -0.2962
 9493SOL     OW40111   1.488   3.168   2.878  0.4825 -0.2243  0.3079
 9493SOL    HW140112   1.402   3.168   2.921  0.8086  2.5120  0.9515
 9493SOL    HW240113   1.506   3.076   2.859 -1.7099 -0.5235 -0.3920
 9494SOL     OW40114   0.314   3.788   4.130  0.1930 -0.3487 -0.3455
 9494SOL    HW140115   0.242   3.849   4.141  1.4369  1.1576 -0.5450
 9494SOL    HW240116   0.296   3.735   4.208  0.2943  0.7920  0.4471
 9495SOL     OW40117   0.496   3.275   1.451  0.4102  0.1363 -0.7798
 9495SOL    HW140118   0.402   3.263   1.463  0.6918 -1.3272 -0.0173
 9495SOL    HW240119   0.534   3.215   1.516  0.6371  0.0244 -1.0168
 9496SOL     OW40120   1.486   1.098   5.474 -0.2509  0.0498 -0.1155
 9496SOL    HW140121   1.539   1.168   5.513 -1.7177 -1.2270  4.2126
 9496SOL    HW240122   1.473   1.137   5.388 -3.7018 -0.1837  0.3028
 9497SOL     OW40123   2.903   4.704  12.261 -0.2477  0.7163 -0.0467
 9497SOL    HW140124   2.927   0.016  12.339 -0.2139  0.7779 -0.0958
 9497SOL    HW240125   2.981   4.650  12.250 -0.6843 -0.2199  1.5350
 9498SOL     OW40126   4.524   2.063   6.332  0.2068  0.1911  0.1745
 9498SOL    HW140127   4.430   2.050   6.318 -0.4003  1.5737  2.9889
 9498SOL    HW240128   4.538   2.132   6.268 -0.5813  0.4990  0.3359
 9499SOL     OW40129   2.035   0.227   2.676 -0.0056 -0.0163 -0.2569
 9499SOL    HW140130   1.996   0.150   2.718 -0.4858 -0.2183 -1.0748
 9499SOL    HW240131   1.974   0.238   2.603 -2.7625  2.7630  2.4856
 9500SOL     OW40132   4.309   3.720   6.508  0.6809  0.1443  0.3275
 9500SOL    HW140133   4.304   3.686   6.419 -0.6579  2.2838 -0.4020
 9500SOL    HW240134   4.240   3.786   6.514  0.8507  0.6575 -3.5490
 9501SOL     OW40135   0.726   0.627   0.859 -1.2769  0.0995  0.1443
 9501SOL    HW140136   0.818   0.613   0.837 -1.8231 -2.6371 -0.3800
 9501SOL    HW240137   0.683   0.644   0.775 -1.1090 -3.1960 -0.6233
 9502SOL     OW40138   0.995   0.788   9.508  0.3655  0.1008  0.1150
 9502SOL    HW140139   0.959   0.728   9.573  1.0513 -2.1455 -1.6149
 9502SOL    HW240140   1.048   0.727   9.457 -0.0760 -0.1647 -0.0280
 9503SOL     OW40141   1.215   1.270   2.222 -0.5191  0.3255  0.6189
 9503SOL    HW140142   1.183   1.201   2.279 -0.4736  0.3483  0.6720
 9503SOL    HW240143   1.157   1.345   2.239 -1.1607 -0.5735  2.4109
 9504SOL     OW40144   4.442   4.192   0.130  0.2131  0.4151 -0.3060
 9504SOL    HW140145   4.435   4.151   0.044 -0.3666  2.2507 -1.1379
 9504SOL    HW240146   4.356   4.179   0.170 -0.5231  1.6490 -1.5187
 9505SOL     OW40147   2.377   3.098   5.228  0.0578 -0.2706  0.2822
 9505SOL    HW140148   2.414   3.162   5.288  0.3802 -0.5052  0.3391
 9505SOL    HW240149   2.348   3.156   5.158 -1.5518 -2.0903 -0.5482
 9506SOL     OW40150   2.151   3.388   1.870 -0.4154 -0.9340  0.1330
 9506SOL    HW140151   2.060   3.408   1.851 -0.3587 -2.6685 -2.0082
 9506SOL    HW240152   2.187   3.442   1.800 -0.1313  0.6754  1.5302
 9507SOL     OW40153   0.627   2.252   6.178  0.3125 -0.3777 -0.1072
 9507SOL    HW140154   0.591   2.340   6.166  0.3441 -0.6213 -1.9884
 9507SOL    HW240155   0.554   2.214   6.227 -0.9346  2.2523  0.0309
 9508SOL     OW40156   1.405   1.828   8.230  0.2301 -0.3350  0.3124
 9508SOL    HW140157   1.429   1.762   8.164 -1.5079  0.9946 -1.6509
 9508SOL    HW240158   1.337   1.783   8.280  1.6818 -1.4845  1.2538
 9509SOL     OW40159   2.075   3.909   5.293  0.4868  0.3835 -0.1028
 9509SOL    HW140160   1.995   3.883   5.339  0.6513  1.2107  0.6563
 9509SOL    HW240161   2.129   3.831   5.294  1.4031  0.9995 -1.5057
 9510SOL     OW40162   1.987   3.114   7.546 -0.1060  0.0482 -0.2423
 9510SOL    HW140163   1.923   3.138   7.613  0.7833  1.2065  0.1945
 9510SOL    HW240164   1.929   3.076   7.481  0.6270 -1.7469  0.1265
 9511SOL     OW40165   2.284   4.032   8.428  0.8379  0.8815  0.5165
 9511SOL    HW140166   2.250   3.983   8.503 -0.1474  0.3918 -0.2440
 9511SOL    HW240167   2.222   4.104   8.437  0.3634  0.3405  1.5513
 9512SOL     OW40168   0.587   2.106   5.578  0.0635  0.0483 -0.8494
 9512SOL    HW140169   0.587   2.030   5.521  1.8062 -0.1519 -0.5613
 9512SOL    HW240170   0.492   2.121   5.573 -0.1625 -1.3863 -1.0083
 9513SOL     OW40171   4.476   2.251  15.598  0.1491  0.4487  0.3079
 9513SOL    HW140172   4.567   2.273  15.575 -0.3648 -0.0800 -2.2642
 9513SOL    HW240173   4.488   2.222  15.688 -1.7855  2.0148  1.0699
 9514SOL     OW40174   3.328   4.204   4.157 -0.2831 -0.7664 -0.3244
 9514SOL    HW140175   3.386   4.273   4.189 -2.4021 -0.1767  2.2955
 9514SOL    HW240176   3.254   4.256   4.126  0.3086 -0.6886 -1.6030
 9515SOL     OW40177   0.468   3.996  12.521  0.2661  0.2290 -0.3393
 9515SOL    HW140178   0.469   3.938  12.445  1.7539 -0.3020  0.0922
 9515SOL    HW240179   0.374   4.001  12.541  0.1779  1.8367 -1.1461
 9516SOL     OW40180   2.120   0.661  12.281 -0.1048 -0.0788 -0.0792
 9516SOL    HW140181   2.127   0.753  12.305  1.4309  0.5922 -3.1170
 9516SOL    HW240182   2.210   0.633  12.300 -0.2274  0.6613  1.5584
 9517SOL     OW40183   2.946   0.271   9.392 -0.5632  0.0442  0.2705
 9517SOL    HW140184   2.975   0.350   9.347 -0.2220  0.0055  0.4226
 9517SOL    HW240185   2.959   0.297   9.483  0.5892 -0.1212  0.1538
 9518SOL     OW40186   0.564   0.950   9.466  0.0455 -0.0385  0.0761
 9518SOL    HW140187   0.621   0.943   9.543 -0.8212  0.6603  0.7740
 9518SOL    HW240188   0.586   0.877   9.407  1.9356  2.9921 -2.9942
 9519SOL     OW40189   2.559   3.043  12.691  0.4178  0.5815 -0.0375
 9519SOL    HW140190   2.632   3.073  12.637 -0.6014  0.1466 -1.6741
 9519SOL    HW240191   2.573   3.104  12.764  0.4197 -1.4652  1.6570
 9520SOL     OW40192   0.657   1.667   3.747 -0.0818  0.3791  0.2166
 9520SOL    HW140193   0.638   1.612   3.823  1.9504  0.3018  0.6830
 9520SOL    HW240194   0.572   1.704   3.723 -0.3228 -0.0427  0.4287
 9521SOL     OW40195   2.810   0.589   3.874 -0.1880  0.6022 -0.4927
 9521SOL    HW140196   2.842   0.499   3.877  2.3193  1.5468  1.3273
 9521SOL    HW240197   2.735   0.574   3.816 -0.0154 -0.2652 -0.4896
 9522SOL     OW40198   0.524   2.226   7.752  0.0143 -0.3452  0.1960
 9522SOL    HW140199   0.455   2.290   7.770 -0.5061 -0.0930 -2.7775
 9522SOL    HW240200   0.590   2.243   7.819 -1.4085  0.7550  1.3337
 9523SOL     OW40201   4.557   4.024  11.714  0.1158 -0.1321 -0.0655
 9523SOL    HW140202   4.567   3.933  11.742  2.8139  0.0219 -0.5183
 9523SOL    HW240203   4.512   4.066  11.788 -1.3688  0.2225 -1.1830
 9524SOL     OW40204   3.206   0.849  13.785  0.7835  0.0411  0.5644
 9524SOL    HW140205   3.206   0.761  13.823  0.4658  0.2736  1.0890
 9524SOL    HW240206   3.184   0.823  13.695 -0.8905  0.5769  0.8117
 9525SOL     OW40207   2.285   3.524  17.319  0.6317 -0.2156 -1.0263
 9525SOL    HW140208   2.210   3.583  17.322 -1.2164 -2.6151 -0.8556
 9525SOL    HW240209   2.296   3.515  17.414 -0.6820 -0.6424 -0.9216
 9526SOL     OW40210   0.456   4.061   4.697 -0.5065 -0.1988 -0.2470
 9526SOL    HW140211   0.529   4.023   4.745 -0.0222  0.1248 -0.7269
 9526SOL    HW240212   0.453   4.013   4.615  3.6512 -0.0159 -0.5051
 9527SOL     OW40213   0.895   1.691   2.955 -0.0139 -0.2141  0.1753
 9527SOL    HW140214   0.812   1.648   2.975  0.0604 -0.2063  0.5017
 9527SOL    HW240215   0.875   1.725   2.868 -5.2639 -0.6376  1.1995
 9528SOL     OW40216   3.821   2.636   5.856  0.7292  0.1774  0.4029
 9528SOL    HW140217   3.762   2.625   5.931  0.2880  0.5040  0.1056
 9528SOL    HW240218   3.842   2.546   5.831 -1.1438 -0.2824  0.4827
 9529SOL     OW40219   3.483   2.120  11.827  0.1168 -0.5876 -0.1313
 9529SOL    HW140220   3.410   2.096  11.769  0.0130 -1.2173  0.2573
 9529SOL    HW240221   3.513   2.183  11.761  2.2443  0.2364  1.6238
 9530SOL     OW40222   2.647   4.582   1.790  0.2374  0.0822 -0.1789
 9530SOL    HW140223   2.719   4.641   1.814  0.6426 -1.1216  1.5292
 9530SOL    HW240224   2.685   4.495   1.802 -0.0747 -0.1581 -0.9258
 9531SOL     OW40225   2.799   3.851   3.854  0.0073  0.1163 -0.2217
 9531SOL    HW140226   2.760   3.918   3.798  0.2281 -0.7535 -1.4240
 9531SOL    HW240227   2.762   3.773   3.812  1.4575 -0.8199  0.2131
 9532SOL     OW40228   3.737   1.581  12.457  0.4961  0.0642 -0.2961
 9532SOL    HW140229   3.826   1.612  12.471  1.0664 -1.0939 -1.2746
 9532SOL    HW240230   3.737   1.492  12.493 -0.4557  0.3904  0.5044
 9533SOL     OW40231   4.318   0.820  17.683 -0.1497  0.5879 -0.1017
 9533SOL    HW140232   4.354   0.766  17.613  0.6994  1.1774 -0.1260
 9533SOL    HW240233   4.382   0.797   0.001  0.8382 -0.1629 -1.3105
 9534SOL     OW40234   3.830   3.197   6.795 -0.2124  0.5373 -0.0010
 9534SOL    HW140235   3.791   3.110   6.801 -0.8989  0.7381 -1.3425
 9534SOL    HW240236   3.912   3.188   6.747  0.7393 -0.6462  1.8469
 9535SOL     OW40237   2.386   1.257  10.378 -0.2480  0.0011 -0.4313
 9535SOL    HW140238   2.290   1.257  10.373 -0.3079 -1.6022  0.8441
 9535SOL    HW240239   2.400   1.164  10.395 -0.3994 -0.4941 -2.9276
 9536SOL     OW40240   4.085   2.301   9.518  0.1163  0.1401  0.1884
 9536SOL    HW140241   4.081   2.246   9.596  0.3837  0.5956  0.5298
 9536SOL    HW240242   4.064   2.244   9.444 -0.8534  0.6514  0.0775
 9537SOL     OW40243   1.879   0.112   6.255  0.4378  0.0778 -0.4632
 9537SOL    HW140244   1.857   0.037   6.200 -0.5297  0.0672 -0.0518
 9537SOL    HW240245   1.933   0.158   6.191  2.0191 -0.5912  0.3970
 9538SOL     OW40246   2.720   3.917   8.245 -0.5866 -0.4084  0.3135
 9538SOL    HW140247   2.794   3.969   8.217  0.4562 -1.8159  0.4307
 9538SOL    HW240248   2.711   3.963   8.328  1.0308 -0.1062  0.3146
 9539SOL     OW40249   1.720   3.175   4.246  0.3809 -0.3333  0.0517
 9539SOL    HW140250   1.811   3.161   4.273  0.6226 -1.2062 -1.2078
 9539SOL    HW240251   1.715   3.268   4.221 -0.3474 -0.9808 -2.2455
 9540SOL     OW40252   4.425   3.283   3.066  0.2435  0.4955  0.2953
 9540SOL    HW140253   4.429   3.216   2.997 -0.8616  0.0326  0.6674
 9540SOL    HW240254   4.337   3.262   3.100  0.1465 -1.6315 -1.2422
 9541SOL     OW40255   4.724   3.002   2.715 -0.6404 -0.0781 -0.5032
 9541SOL    HW140256   0.062   2.975   2.767 -0.6030  2.5259  0.8407
 9541SOL    HW240257   4.652   2.976   2.773 -3.1554  0.7243 -3.2848
 9542SOL     OW40258   0.341   3.772   7.446  0.2175 -0.3212  0.1441
 9542SOL    HW140259   0.404   3.749   7.514 -0.3809  0.0422  0.8211
 9542SOL    HW240260   0.405   3.814   7.389  0.0826  0.9757  0.9623
 9543SOL     OW40261   1.844   3.947   0.910  0.5609  0.3049 -0.1489
 9543SOL    HW140262   1.844   3.956   1.006  1.8926  1.5480 -0.2506
 9543SOL    HW240263   1.784   3.873   0.902 -0.1873  0.6520  2.1725
 9544SOL     OW40264   4.269   1.990   5.100 -0.3668  0.0723 -0.1931
 9544SOL    HW140265   4.207   1.924   5.131 -3.2022  1.4146 -2.9359
 9544SOL    HW240266   4.251   2.051   5.171 -1.5821  0.9195 -1.2215
 9545SOL     OW40267   4.087   1.555  17.014 -0.0857  0.4475  0.1597
 9545SOL    HW140268   4.059   1.580  16.926  1.2675 -0.6776 -0.5918
 9545SOL    HW240269   4.152   1.620  17.041 -2.9715  2.4756  2.2020
 9546SOL     OW40270   4.565   2.058   9.190 -0.1316  0.4293 -0.4612
 9546SOL    HW140271   4.476   2.063   9.225  0.3483 -0.9546  0.9645
 9546SOL    HW240272   4.586   1.967   9.170  1.3371  0.3587  1.3863
 9547SOL     OW40273   1.948   1.098   6.741 -0.0900 -0.2877 -0.3011
 9547SOL    HW140274   1.973   1.175   6.791  0.2854 -0.7395  0.2056
 9547SOL    HW240275   1.955   1.023   6.800 -3.1841 -0.0654  0.3573
 9548SOL     OW40276   2.938   1.597   0.032 -0.1184  0.0312  0.1805
 9548SOL    HW140277   2.956   1.588  17.687  0.0248 -0.5640  0.2647
 9548SOL    HW240278   2.990   1.525   0.068 -0.3118 -1.0315 -1.6352
 9549SOL     OW40279   0.038   4.658   5.613  0.3563  0.7155 -0.0606
 9549SOL    HW140280   0.122   4.668   5.567  0.3873  0.6659 -0.0147
 9549SOL    HW240281   0.049   4.704   5.696  1.9284  1.3484 -0.6252
 9550SOL     OW40282   0.606   4.475   8.007 -0.3055 -0.6685 -0.1041
 9550SOL    HW140283   0.527   4.433   8.040  1.7751 -3.1600  1.7182
 9550SOL    HW240284   0.568   4.545   7.954  0.6357  1.4546  2.0102
 9551SOL     OW40285   4.169   0.448   2.696 -0.2466 -0.1791  0.3275
 9551SOL    HW140286   4.209   0.529   2.665  0.3306 -0.2606  0.8451
 9551SOL    HW240287   4.090   0.447   2.643 -0.5381 -0.1874  0.7705
 9552SOL     OW40288   3.777   3.851  16.746  0.5747  0.4938  0.0611
 9552SOL    HW140289   3.683   3.860  16.736  0.4637 -0.3668  0.4047
 9552SOL    HW240290   3.804   3.894  16.664 -0.6385 -0.1688 -0.6696
 9553SOL     OW40291   4.413   4.400   6.890 -0.2267 -0.1455 -0.0814
 9553SOL    HW140292   4.438   4.475   6.943  0.6793 -0.8074  0.4363
 9553SOL    HW240293   4.343   4.361   6.941 -0.4281 -0.1898 -0.3890
 9554SOL     OW40294   3.463   1.940   1.509  0.0988 -0.0914  0.1376
 9554SOL    HW140295   3.466   2.018   1.564  2.7459 -0.9535  1.2161
 9554SOL    HW240296   3.421   1.878   1.568  1.3453  0.0238  1.1308
 9555SOL     OW40297   4.721   4.135   2.701  0.0019  0.3445 -0.1746
 9555SOL    HW140298   0.073   4.105   2.715  0.8117  3.0259  0.4070
 9555SOL    HW240299   4.702   4.153   2.793 -1.1504  2.3206 -0.7787
 9556SOL     OW40300   0.925   2.685   8.508  0.2177 -0.1239 -0.3303
 9556SOL    HW140301   0.857   2.618   8.517  1.9416 -1.6919  0.8537
 9556SOL    HW240302   0.881   2.763   8.474 -1.5350 -0.4513  1.1937
 9557SOL     OW40303   2.626   2.474   7.876  0.2360 -0.5949 -0.2132
 9557SOL    HW140304   2.564   2.495   7.806 -1.3455 -0.5745  1.1691
 9557SOL    HW240305   2.687   2.546   7.886 -0.4223  0.0296 -0.6656
 9558SOL     OW40306   1.809   1.205   5.942  0.3057 -0.3554  0.1990
 9558SOL    HW140307   1.866   1.280   5.920  1.0724 -1.4755 -1.6326
 9558SOL    HW240308   1.848   1.127   5.904  1.7575  1.1200 -1.3673
 9559SOL     OW40309   3.005   2.999  11.091 -0.0789  0.1694 -0.4819
 9559SOL    HW140310   3.091   2.958  11.086  0.6827  1.8042 -0.7843
 9559SOL    HW240311   2.984   2.981  10.999 -0.1205 -3.1067  0.1920
 9560SOL     OW40312   0.681   3.289   8.297 -0.0075 -0.4580 -0.5455
 9560SOL    HW140313   0.704   3.237   8.220 -1.4982 -0.3357 -1.0769
 9560SOL    HW240314   0.704   3.376   8.264 -0.1878 -0.5589 -0.9380
 9561SOL     OW40315   0.149   2.247   4.671  0.3403  0.1392 -0.0747
 9561SOL    HW140316   0.225   2.305   4.661  0.0160  0.3230 -1.3449
 9561SOL    HW240317   0.112   2.247   4.583  0.7175  1.5155 -0.2390
 9562SOL     OW40318   1.837   1.158   2.490  0.1638 -0.0120  0.0848
 9562SOL    HW140319   1.767   1.178   2.553 -0.7106 -2.9184  0.0494
 9562SOL    HW240320   1.871   1.247   2.482  1.9558 -0.6243  0.9455
 9563SOL     OW40321   4.093   0.233  16.929 -0.2492 -0.2307 -0.0802
 9563SOL    HW140322   4.054   0.306  16.880  2.2422 -0.3061 -2.1462
 9563SOL    HW240323   4.147   0.194  16.861 -1.2624 -1.4314 -0.1975
 9564SOL     OW40324   2.997   3.759   1.778  0.0496 -0.2389 -0.1291
 9564SOL    HW140325   3.018   3.846   1.813 -1.6332  0.8575 -1.8092
 9564SOL    HW240326   2.953   3.786   1.697  0.3331 -0.4168 -0.3431
 9565SOL     OW40327   1.218   0.591  14.409  0.3063 -0.3021 -0.0208
 9565SOL    HW140328   1.213   0.572  14.315  1.4281  0.6161 -0.2696
 9565SOL    HW240329   1.168   0.672  14.414  1.2366  0.1849  1.3111
 9566SOL     OW40330   0.807   4.153   1.877  0.1074  0.4407 -0.1540
 9566SOL    HW140331   0.789   4.174   1.785  0.1855  0.1047 -0.2459
 9566SOL    HW240332   0.894   4.114   1.872 -1.3084 -2.7910  0.4758
 9567SOL     OW40333   2.671   4.119   2.621  0.2353  0.2729  0.4725
 9567SOL    HW140334   2.582   4.096   2.594  1.4091 -1.4986 -1.8443
 9567SOL    HW240335   2.671   4.215   2.615  0.2144  0.1425 -1.3693
 9568SOL     OW40336   1.924   2.374   2.378  0.3132  0.1950 -0.3269
 9568SOL    HW140337   1.882   2.457   2.401  1.1458  0.4255  0.3435
 9568SOL    HW240338   2.006   2.411   2.345  0.1447  0.0808 -0.8856
 9569SOL     OW40339   2.004   3.536   6.632  0.3157  0.3471 -0.0866
 9569SOL    HW140340   1.972   3.607   6.688 -1.2057  1.6187 -2.5661
 9569SOL    HW240341   2.074   3.577   6.582  0.1966  2.4036  1.4358
 9570SOL     OW40342   4.698   0.132   5.107 -0.1051 -0.3107 -0.0135
 9570SOL    HW140343   0.001   0.215   5.133 -0.4946  0.3000 -1.3834
 9570SOL    HW240344   4.688   0.152   5.014 -0.7021 -0.7758 -0.0490
 9571SOL     OW40345   0.636   0.361   1.313  0.5673  0.1007 -0.4428
 9571SOL    HW140346   0.637   0.439   1.258  1.0523  0.2095 -0.2839
 9571SOL    HW240347   0.696   0.381   1.386  0.7644 -1.0397 -0.2913
   4.73778   4.73778  17.74929
